<event>
12    1  0.2404959E-007  0.2319154E+04  0.7818608E-02  0.8470407E-01
          1   -1    0    0  501    0  0.00000000000E+00  0.00000000000E+00  0.10217073298E+04  0.10217073298E+04  0.00000000000E+00 0. -1.
         -1   -1    0    0    0  501 -0.00000000000E+00 -0.00000000000E+00 -0.13160513665E+04  0.13160513665E+04  0.00000000000E+00 0.  1.
         23    2    1    2    0    0 -0.75372200997E+03 -0.26151043916E+03 -0.70382987900E+03  0.10677162971E+04  0.90316191664E+02 0.  0.
        254    2    1    2    0    0  0.75372200997E+03  0.26151043916E+03  0.40948584227E+03  0.12700423992E+04  0.89935780573E+03 0.  0.
        -24    2    4    4    0    0  0.77666119446E+03  0.39503056742E+03  0.48517376267E+02  0.87643638524E+03  0.80839602827E+02 0.  0.
         24    2    4    4    0    0 -0.22939184494E+02 -0.13352012826E+03  0.36096846600E+03  0.39360601400E+03  0.79206249577E+02 0.  0.
         11    1    3    3    0    0 -0.10550872651E+03 -0.69199634892E+02 -0.96260356164E+02  0.15870329867E+03  0.00000000000E+00 0.  1.
        -11    1    3    3    0    0 -0.64821328346E+03 -0.19231080427E+03 -0.60756952284E+03  0.90901299846E+03  0.00000000000E+00 0. -1.
          2    1    6    6  502    0 -0.78835059870E+01 -0.12366310180E+03  0.35263850073E+03  0.37377616914E+03  0.00000000000E+00 0. -1.
          3    1    5    5  503    0  0.37226260429E+03  0.23454662438E+03  0.21181944274E+02  0.44049998902E+03  0.00000000000E+00 0. -1.
         -4    1    5    5    0  503  0.40439859017E+03  0.16048394305E+03  0.27335431993E+02  0.43593639622E+03  0.00000000000E+00 0.  1.
         -1    1    6    6    0  502 -0.15055678507E+02 -0.98570264563E+01  0.83299652674E+01  0.19829844861E+02  0.00000000000E+00 0.  1.
<mgrwt>
<rscale>  0 0.23191544E+04</rscale>
<asrwt>0</asrwt>
<pdfrwt beam="1">  1        1 0.15718574E+00 0.23191544E+04</pdfrwt>
<pdfrwt beam="2">  1       -1 0.20246944E+00 0.23191544E+04</pdfrwt>
<totfact> 0.19005140E+00</totfact>
</mgrwt>
</event>
<event>
12    1  0.2404959E-007  0.1681475E+04  0.7818608E-02  0.8772001E-01
         -1   -1    0    0    0  501 -0.00000000000E+00  0.00000000000E+00  0.51669875310E+03  0.51669875310E+03  0.00000000000E+00 0.  1.
          1   -1    0    0  501    0  0.00000000000E+00 -0.00000000000E+00 -0.13679919078E+04  0.13679919078E+04  0.00000000000E+00 0. -1.
         23    2    1    2    0    0  0.50228435681E+02 -0.57192491364E+03 -0.12333316376E+03  0.59359109679E+03  0.86708236680E+02 0.  0.
        254    2    1    2    0    0 -0.50228435681E+02  0.57192491364E+03 -0.72795999093E+03  0.12910995641E+04  0.89854957207E+03 0.  0.
        -24    2    4    4    0    0 -0.16036822450E+03  0.77643251261E+03 -0.66980133150E+03  0.10411978567E+04  0.83028543250E+02 0.  0.
         24    2    4    4    0    0  0.11013978882E+03 -0.20450759897E+03 -0.58158659432E+02  0.24990170744E+03  0.71514352411E+02 0.  0.
         13    1    3    3    0    0  0.41982418405E+02 -0.35076589152E+03 -0.11716666850E+03  0.37219250707E+03  0.00000000000E+00 0.  1.
        -13    1    3    3    0    0  0.82460172762E+01 -0.22115902212E+03 -0.61664952582E+01  0.22139858972E+03  0.00000000000E+00 0. -1.
          2    1    6    6  502    0  0.11101912431E+03 -0.15058953697E+03 -0.31413361440E+02  0.18970833899E+03  0.00000000000E+00 0. -1.
          3    1    5    5  503    0 -0.16316501146E+03  0.76109164889E+03 -0.66757482792E+03  0.10254459858E+04  0.00000000000E+00 0. -1.
         -4    1    5    5    0  503  0.27967869665E+01  0.15340863710E+02 -0.22265035796E+01  0.15751870838E+02  0.00000000000E+00 0.  1.
         -1    1    6    6    0  502 -0.87933549463E+00 -0.53918062000E+02 -0.26745297992E+02  0.60193368451E+02  0.00000000000E+00 0.  1.
<mgrwt>
<rscale>  0 0.16814752E+04</rscale>
<asrwt>0</asrwt>
<pdfrwt beam="1">  1        1 0.21046029E+00 0.16814752E+04</pdfrwt>
<pdfrwt beam="2">  1       -1 0.79492116E-01 0.16814752E+04</pdfrwt>
<totfact> 0.12195898E+01</totfact>
</mgrwt>
</event>
<event>
12    1  0.2404959E-007  0.2684063E+04  0.7818608E-02  0.8340195E-01
         -2   -1    0    0    0  501 -0.00000000000E+00  0.00000000000E+00  0.71442970050E+03  0.71442970050E+03  0.00000000000E+00 0.  1.
          2   -1    0    0  501    0  0.00000000000E+00 -0.00000000000E+00 -0.25209594114E+04  0.25209594114E+04  0.00000000000E+00 0. -1.
         23    2    1    2    0    0  0.60457977638E+03  0.53095253291E+03 -0.18590202450E+04  0.20277663690E+04  0.91939532763E+02 0.  0.
        254    2    1    2    0    0 -0.60457977638E+03 -0.53095253291E+03  0.52490534106E+02  0.12076227429E+04  0.89898283343E+03 0.  0.
        -24    2    4    4    0    0 -0.30293931319E+03 -0.63282925570E+03 -0.25984697013E+03  0.75263643324E+03  0.81829447067E+02 0.  0.
         24    2    4    4    0    0 -0.30164046319E+03  0.10187672279E+03  0.31233750424E+03  0.45498630966E+03  0.89955487585E+02 0.  0.
         11    1    3    3    0    0  0.20114141860E+03  0.12254417973E+03 -0.56441623381E+03  0.61158861275E+03  0.00000000000E+00 0.  1.
        -11    1    3    3    0    0  0.40343835778E+03  0.40840835318E+03 -0.12946040112E+04  0.14161777563E+04  0.00000000000E+00 0. -1.
          4    1    6    6  502    0 -0.30595844153E+03  0.91889177243E+02  0.30613204521E+03  0.44246018797E+03  0.00000000000E+00 0. -1.
          3    1    5    5  503    0 -0.19864638023E+03 -0.41570698947E+03 -0.21151924879E+03  0.50696457280E+03  0.00000000000E+00 0. -1.
         -4    1    5    5    0  503 -0.10429293296E+03 -0.21712226623E+03 -0.48327721343E+02  0.24567186044E+03  0.00000000000E+00 0.  1.
         -3    1    6    6    0  502  0.43179783347E+01  0.99875455438E+01  0.62054590329E+01  0.12526121694E+02  0.00000000000E+00 0.  1.
<mgrwt>
<rscale>  0 0.26840628E+04</rscale>
<asrwt>0</asrwt>
<pdfrwt beam="1">  1        2 0.38783991E+00 0.26840628E+04</pdfrwt>
<pdfrwt beam="2">  1       -2 0.10991226E+00 0.26840628E+04</pdfrwt>
<totfact> 0.19568797E+00</totfact>
</mgrwt>
</event>
<event>
12    1  0.2404959E-007  0.2025105E+04  0.7818608E-02  0.8594972E-01
         -1   -1    0    0    0  501 -0.00000000000E+00  0.00000000000E+00  0.82406904171E+03  0.82406904171E+03  0.00000000000E+00 0.  1.
          1   -1    0    0  501    0  0.00000000000E+00 -0.00000000000E+00 -0.12441463471E+04  0.12441463471E+04  0.00000000000E+00 0. -1.
         23    2    1    2    0    0  0.30647774595E+02  0.78884089399E+03 -0.35703044179E+03  0.86922989746E+03  0.69861549965E+02 0.  0.
        254    2    1    2    0    0 -0.30647774595E+02 -0.78884089399E+03 -0.63046863621E+02  0.11989854914E+04  0.90021223020E+03 0.  0.
        -24    2    4    4    0    0  0.27461048756E+03 -0.57482629416E+03 -0.34105378159E+03  0.72720769222E+03  0.81713874972E+02 0.  0.
         24    2    4    4    0    0 -0.30525826216E+03 -0.21401459983E+03  0.27800691797E+03  0.47177779915E+03  0.79382553362E+02 0.  0.
         13    1    3    3    0    0 -0.14061553094E+02  0.47173730550E+03 -0.20028098155E+03  0.51268536574E+03  0.00000000000E+00 0. -1.
        -13    1    3    3    0    0  0.44709327689E+02  0.31710358849E+03 -0.15674946024E+03  0.35654453172E+03  0.00000000000E+00 0.  1.
          4    1    6    6  502    0 -0.12138416237E+03 -0.13094215969E+03  0.14623317723E+03  0.23079017783E+03  0.00000000000E+00 0. -1.
          1    1    5    5  503    0  0.89956239677E+02 -0.17533142120E+03 -0.14885821676E+03  0.24696558670E+03  0.00000000000E+00 0. -1.
         -2    1    5    5    0  503  0.18465424789E+03 -0.39949487296E+03 -0.19219556483E+03  0.48024210553E+03  0.00000000000E+00 0.  1.
         -1    1    6    6    0  502 -0.18387409979E+03 -0.83072440140E+02  0.13177374073E+03  0.24098762132E+03  0.00000000000E+00 0.  1.
<mgrwt>
<rscale>  0 0.20251049E+04</rscale>
<asrwt>0</asrwt>
<pdfrwt beam="1">  1        1 0.19140713E+00 0.20251049E+04</pdfrwt>
<pdfrwt beam="2">  1       -1 0.12677985E+00 0.20251049E+04</pdfrwt>
<totfact> 0.49623519E+00</totfact>
</mgrwt>
</event>
<event>
12    1  0.2404959E-007  0.1305244E+04  0.7818608E-02  0.9025417E-01
          2   -1    0    0  501    0  0.00000000000E+00  0.00000000000E+00  0.51262610309E+03  0.51262610309E+03  0.00000000000E+00 0. -1.
         -2   -1    0    0    0  501 -0.00000000000E+00 -0.00000000000E+00 -0.83085067243E+03  0.83085067243E+03  0.00000000000E+00 0.  1.
         23    2    1    2    0    0 -0.19362663842E+03 -0.11289361511E+03  0.16975825215E+03  0.29561485602E+03  0.91290938682E+02 0.  0.
        254    2    1    2    0    0  0.19362663842E+03  0.11289361511E+03 -0.48798282150E+03  0.10478619195E+04  0.89980615959E+03 0.  0.
        -24    2    4    4    0    0 -0.43416318326E+02  0.22421061366E+03  0.19557756179E+03  0.31151174098E+03  0.81446952776E+02 0.  0.
         24    2    4    4    0    0  0.23704295674E+03 -0.11131699855E+03 -0.68356038329E+03  0.73635017853E+03  0.79849547905E+02 0.  0.
         11    1    3    3    0    0 -0.14182693293E+03 -0.11548503429E+03  0.15964854370E+03  0.24277423577E+03  0.00000000000E+00 0. -1.
        -11    1    3    3    0    0 -0.51799705493E+02  0.25914191841E+01  0.10109708448E+02  0.52840620241E+02  0.00000000000E+00 0.  1.
          2    1    6    6  502    0  0.51358530878E+02  0.45075577946E+01 -0.89867083038E+02  0.10360554708E+03  0.00000000000E+00 0. -1.
          1    1    5    5  503    0 -0.67014139446E+02  0.16090024255E+03  0.13088624245E+03  0.21797016172E+03  0.00000000000E+00 0. -1.
         -2    1    5    5    0  503  0.23597821120E+02  0.63310371109E+02  0.64691319344E+02  0.93541579258E+02  0.00000000000E+00 0.  1.
         -1    1    6    6    0  502  0.18568442587E+03 -0.11582455634E+03 -0.59369330026E+03  0.63274463145E+03  0.00000000000E+00 0.  1.
<mgrwt>
<rscale>  0 0.13052444E+04</rscale>
<asrwt>0</asrwt>
<pdfrwt beam="1">  1        2 0.78865555E-01 0.13052444E+04</pdfrwt>
<pdfrwt beam="2">  1       -2 0.12782318E+00 0.13052444E+04</pdfrwt>
<totfact> 0.26550963E+01</totfact>
</mgrwt>
</event>
<event>
12    1  0.2404959E-007  0.3641850E+04  0.7818608E-02  0.8080972E-01
         -1   -1    0    0    0  501 -0.00000000000E+00  0.00000000000E+00  0.13166264083E+04  0.13166264083E+04  0.00000000000E+00 0.  1.
          1   -1    0    0  501    0  0.00000000000E+00 -0.00000000000E+00 -0.25183812612E+04  0.25183812612E+04  0.00000000000E+00 0. -1.
         23    2    1    2    0    0  0.78812471063E+03  0.76976127796E+03 -0.19342050587E+04  0.22277815028E+04  0.90488843830E+02 0.  0.
        254    2    1    2    0    0 -0.78812471063E+03 -0.76976127796E+03  0.73245020574E+03  0.16072261666E+04  0.91269910821E+03 0.  0.
        -24    2    4    4    0    0 -0.42284802875E+03 -0.83952625764E+03  0.78011929558E+03  0.12236854201E+04  0.72215644575E+02 0.  0.
         24    2    4    4    0    0 -0.36527668188E+03  0.69764979672E+02 -0.47669089842E+02  0.38354074650E+03  0.80851440219E+02 0.  0.
         11    1    3    3    0    0  0.22313192717E+03  0.20944241728E+03 -0.45924642491E+03  0.55187069307E+03  0.00000000000E+00 0. -1.
        -11    1    3    3    0    0  0.56499278346E+03  0.56031886069E+03 -0.14749586338E+04  0.16759108098E+04  0.00000000000E+00 0.  1.
          4    1    6    6  502    0 -0.51470342232E+02  0.31003888305E+02 -0.29211594597E+02  0.66811334954E+02  0.00000000000E+00 0. -1.
          1    1    5    5  503    0 -0.40655417894E+03 -0.82493734927E+03  0.75152438485E+03  0.11876854936E+04  0.00000000000E+00 0. -1.
         -2    1    5    5    0  503 -0.16293849810E+02 -0.14588908365E+02  0.28594910731E+02  0.35999926509E+02  0.00000000000E+00 0.  1.
         -3    1    6    6    0  502 -0.31380633965E+03  0.38761091367E+02 -0.18457495245E+02  0.31672941155E+03  0.00000000000E+00 0.  1.
<mgrwt>
<rscale>  0 0.36418497E+04</rscale>
<asrwt>0</asrwt>
<pdfrwt beam="1">  1        1 0.38744327E+00 0.36418497E+04</pdfrwt>
<pdfrwt beam="2">  1       -1 0.20255791E+00 0.36418497E+04</pdfrwt>
<totfact> 0.15325762E-01</totfact>
</mgrwt>
</event>
<event>
12    1  0.2404959E-007  0.1675608E+04  0.7818608E-02  0.8775400E-01
          2   -1    0    0  501    0  0.00000000000E+00  0.00000000000E+00  0.16179770487E+04  0.16179770487E+04  0.00000000000E+00 0. -1.
         -2   -1    0    0    0  501 -0.00000000000E+00 -0.00000000000E+00 -0.43382282267E+03  0.43382282267E+03  0.00000000000E+00 0.  1.
         23    2    1    2    0    0 -0.43824601978E+03  0.29201926329E+02  0.90854846735E+03  0.10134186061E+04  0.92976487879E+02 0.  0.
        254    2    1    2    0    0  0.43824601978E+03 -0.29201926329E+02  0.27560575865E+03  0.10383812653E+04  0.89964703717E+03 0.  0.
        -24    2    4    4    0    0  0.70577643762E+03 -0.53127307050E+01  0.26570536495E+03  0.75824154361E+03  0.78627555557E+02 0.  0.
         24    2    4    4    0    0 -0.26753041784E+03 -0.23889195624E+02  0.99003937054E+01  0.28013972165E+03  0.78974854935E+02 0.  0.
         11    1    3    3    0    0 -0.20462901957E+03 -0.19936827912E+02  0.49343561537E+03  0.53455516017E+03  0.00000000000E+00 0. -1.
        -11    1    3    3    0    0 -0.23361700021E+03  0.49138754241E+02  0.41511285199E+03  0.47886344592E+03  0.00000000000E+00 0.  1.
          4    1    6    6  502    0 -0.25456448746E+03 -0.41580710785E+02  0.11059279656E+02  0.25817502097E+03  0.00000000000E+00 0. -1.
          3    1    5    5  503    0  0.45072050185E+03  0.16141739076E+02  0.13462940097E+03  0.47067462448E+03  0.00000000000E+00 0. -1.
         -4    1    5    5    0  503  0.25505593577E+03 -0.21454469781E+02  0.13107596398E+03  0.28756691913E+03  0.00000000000E+00 0.  1.
         -3    1    6    6    0  502 -0.12965930381E+02  0.17691515161E+02 -0.11588859502E+01  0.21964700681E+02  0.00000000000E+00 0.  1.
<mgrwt>
<rscale>  0 0.16756078E+04</rscale>
<asrwt>0</asrwt>
<pdfrwt beam="1">  1        2 0.24891954E+00 0.16756078E+04</pdfrwt>
<pdfrwt beam="2">  1       -2 0.66741973E-01 0.16756078E+04</pdfrwt>
<totfact> 0.21418686E+01</totfact>
</mgrwt>
</event>
<event>
12    1  0.2404959E-007  0.6434314E+04  0.7818608E-02  0.7638767E-01
          2   -1    0    0  501    0  0.00000000000E+00  0.00000000000E+00  0.29389307973E+04  0.29389307973E+04  0.00000000000E+00 0. -1.
         -2   -1    0    0    0  501 -0.00000000000E+00 -0.00000000000E+00 -0.35217223087E+04  0.35217223087E+04  0.00000000000E+00 0.  1.
         23    2    1    2    0    0 -0.10500164800E+03 -0.21665350533E+04 -0.25839821936E+04  0.33749262257E+04  0.90904175402E+02 0.  0.
        254    2    1    2    0    0  0.10500164800E+03  0.21665350533E+04  0.20011906822E+04  0.30857268803E+04  0.90113636593E+03 0.  0.
        -24    2    4    4    0    0  0.45483113955E+03  0.73036505290E+03  0.82497021323E+03  0.11949889852E+04  0.84370291324E+02 0.  0.
         24    2    4    4    0    0 -0.34982949155E+03  0.14361700004E+04  0.11762204690E+04  0.18907378951E+04  0.80188858845E+02 0.  0.
         11    1    3    3    0    0 -0.98284769284E+02 -0.20181908103E+04 -0.24408980535E+04  0.31687122543E+04  0.00000000000E+00 0.  1.
        -11    1    3    3    0    0 -0.67168787145E+01 -0.14834424294E+03 -0.14308414004E+03  0.20621397141E+03  0.00000000000E+00 0. -1.
          4    1    6    6  502    0 -0.14596663068E+03  0.46708227350E+03  0.36225010464E+03  0.60884911579E+03  0.00000000000E+00 0. -1.
          3    1    5    5  503    0  0.30339885713E+03  0.55738999725E+03  0.60972545368E+03  0.88005659159E+03  0.00000000000E+00 0. -1.
         -4    1    5    5    0  503  0.15143228243E+03  0.17297505566E+03  0.21524475955E+03  0.31493239363E+03  0.00000000000E+00 0.  1.
         -3    1    6    6    0  502 -0.20386286087E+03  0.96908772689E+03  0.81397036433E+03  0.12818887793E+04  0.00000000000E+00 0.  1.
<mgrwt>
<rscale>  0 0.64343137E+04</rscale>
<asrwt>0</asrwt>
<pdfrwt beam="1">  1        2 0.45214320E+00 0.64343137E+04</pdfrwt>
<pdfrwt beam="2">  1       -2 0.54180343E+00 0.64343137E+04</pdfrwt>
<totfact> 0.11895989E-03</totfact>
</mgrwt>
</event>
<event>
12    1  0.2404959E-007  0.1349954E+04  0.7818608E-02  0.8990863E-01
          1   -1    0    0  501    0  0.00000000000E+00  0.00000000000E+00  0.30779987031E+04  0.30779987031E+04  0.00000000000E+00 0. -1.
         -1   -1    0    0    0  501 -0.00000000000E+00 -0.00000000000E+00 -0.14801630845E+03  0.14801630845E+03  0.00000000000E+00 0.  1.
         23    2    1    2    0    0  0.96844981253E+02 -0.35425865686E+03  0.85616238027E+03  0.93589052740E+03  0.89436634114E+02 0.  0.
        254    2    1    2    0    0 -0.96844981253E+02  0.35425865686E+03  0.20738200144E+04  0.22901244842E+04  0.89947904621E+03 0.  0.
        -24    2    4    4    0    0 -0.29295575544E+03  0.28618649438E+03  0.20185097736E+04  0.20611644247E+04  0.79317686052E+02 0.  0.
         24    2    4    4    0    0  0.19611077419E+03  0.68072162472E+02  0.55310240804E+02  0.22896005948E+03  0.79184790490E+02 0.  0.
         13    1    3    3    0    0  0.62539838517E+02 -0.32857158006E+03  0.74012028774E+03  0.81218751219E+03  0.00000000000E+00 0. -1.
        -13    1    3    3    0    0  0.34305142736E+02 -0.25687076792E+02  0.11604209253E+03  0.12370301521E+03  0.00000000000E+00 0.  1.
          4    1    6    6  502    0  0.17374994130E+03  0.62874994471E+02  0.74311635259E+02  0.19915954952E+03  0.00000000000E+00 0. -1.
          1    1    5    5  503    0 -0.40247587409E+02  0.74803495891E+01  0.19700987077E+03  0.20121807350E+03  0.00000000000E+00 0. -1.
         -2    1    5    5    0  503 -0.25270816803E+03  0.27870614480E+03  0.18214999028E+04  0.18599463512E+04  0.00000000000E+00 0.  1.
         -3    1    6    6    0  502  0.22360832887E+02  0.51971680005E+01 -0.19001394455E+02  0.29800509960E+02  0.00000000000E+00 0.  1.
<mgrwt>
<rscale>  0 0.13499541E+04</rscale>
<asrwt>0</asrwt>
<pdfrwt beam="1">  1        1 0.47353821E+00 0.13499541E+04</pdfrwt>
<pdfrwt beam="2">  1       -1 0.22771742E-01 0.13499541E+04</pdfrwt>
<totfact> 0.85095338E+00</totfact>
</mgrwt>
</event>
<event>
12    1  0.2404959E-007  0.3054182E+04  0.7818608E-02  0.8228426E-01
         -2   -1    0    0    0  501 -0.00000000000E+00  0.00000000000E+00  0.18835669324E+04  0.18835669324E+04  0.00000000000E+00 0. -1.
          2   -1    0    0  501    0  0.00000000000E+00 -0.00000000000E+00 -0.12380804394E+04  0.12380804394E+04  0.00000000000E+00 0.  1.
         23    2    1    2    0    0 -0.10406981588E+04 -0.35791965137E+03 -0.57694727839E+03  0.12461367434E+04  0.93965348169E+02 0.  0.
        254    2    1    2    0    0  0.10406981588E+04  0.35791965137E+03  0.12224337714E+04  0.18755106285E+04  0.90113076617E+03 0.  0.
        -24    2    4    4    0    0  0.96669376957E+02  0.48763091330E+02  0.76921615980E+03  0.78079195872E+03  0.78865548716E+02 0.  0.
         24    2    4    4    0    0  0.94402878180E+03  0.30915656004E+03  0.45321761157E+03  0.10947186698E+04  0.78959755907E+02 0.  0.
         11    1    3    3    0    0 -0.67400415886E+03 -0.22894053626E+03 -0.42315135623E+03  0.82810171210E+03  0.00000000000E+00 0.  1.
        -11    1    3    3    0    0 -0.36669399990E+03 -0.12897911511E+03 -0.15379592216E+03  0.41803503128E+03  0.00000000000E+00 0. -1.
          4    1    6    6  502    0  0.79377631807E+03  0.28467159301E+03  0.36609578992E+03  0.91931761997E+03  0.00000000000E+00 0. -1.
          1    1    5    5  503    0  0.72348590295E+02  0.57852691058E+02  0.39670703334E+03  0.40737908964E+03  0.00000000000E+00 0. -1.
         -2    1    5    5    0  503  0.24320786662E+02 -0.90895997271E+01  0.37250912647E+03  0.37341286907E+03  0.00000000000E+00 0.  1.
         -3    1    6    6    0  502  0.15025246373E+03  0.24484967037E+02  0.87121821651E+02  0.17540104982E+03  0.00000000000E+00 0.  1.
<mgrwt>
<rscale>  0 0.30541823E+04</rscale>
<asrwt>0</asrwt>
<pdfrwt beam="1">  1        2 0.19047391E+00 0.30541823E+04</pdfrwt>
<pdfrwt beam="2">  1       -2 0.28977953E+00 0.30541823E+04</pdfrwt>
<totfact> 0.56228343E-01</totfact>
</mgrwt>
</event>
<event>
12    1  0.2404959E-007  0.1312289E+04  0.7818608E-02  0.9019876E-01
          2   -1    0    0  501    0  0.00000000000E+00  0.00000000000E+00  0.14027773151E+04  0.14027773151E+04  0.00000000000E+00 0. -1.
         -2   -1    0    0    0  501 -0.00000000000E+00 -0.00000000000E+00 -0.30690960219E+03  0.30690960219E+03  0.00000000000E+00 0.  1.
         23    2    1    2    0    0  0.30134184731E+03  0.13089023833E+03  0.17818344206E+03  0.38347532164E+03  0.85818528599E+02 0.  0.
        254    2    1    2    0    0 -0.30134184731E+03 -0.13089023833E+03  0.91768427087E+03  0.13262115957E+04  0.89930729567E+03 0.  0.
        -24    2    4    4    0    0  0.23857045265E+03  0.14121971250E+03  0.97633750318E+02  0.30427345757E+03  0.78683668585E+02 0.  0.
         24    2    4    4    0    0 -0.53991229996E+03 -0.27210995083E+03  0.82005052055E+03  0.10219381381E+04  0.79533545456E+02 0.  0.
         11    1    3    3    0    0  0.16634633366E+03  0.53420083797E+02  0.13823231302E+03  0.22278460548E+03  0.00000000000E+00 0. -1.
        -11    1    3    3    0    0  0.13499551365E+03  0.77470154531E+02  0.39951129043E+02  0.16069071616E+03  0.00000000000E+00 0.  1.
          2    1    6    6  502    0 -0.12633822045E+03 -0.46242320966E+02  0.23414741667E+03  0.27004575710E+03  0.00000000000E+00 0. -1.
          3    1    5    5  503    0  0.32299033906E+02  0.36582108982E+02  0.46473472651E+02  0.67388885946E+02  0.00000000000E+00 0. -1.
         -4    1    5    5    0  503  0.20627141875E+03  0.10463760352E+03  0.51160277667E+02  0.23688457162E+03  0.00000000000E+00 0.  1.
         -1    1    6    6    0  502 -0.41357407951E+03 -0.22586762986E+03  0.58590310388E+03  0.75189238100E+03  0.00000000000E+00 0.  1.
<mgrwt>
<rscale>  0 0.13122893E+04</rscale>
<asrwt>0</asrwt>
<pdfrwt beam="1">  1        2 0.21581189E+00 0.13122893E+04</pdfrwt>
<pdfrwt beam="2">  1       -2 0.47216863E-01 0.13122893E+04</pdfrwt>
<totfact> 0.60008386E+01</totfact>
</mgrwt>
</event>
<event>
12    1  0.2404959E-007  0.3308646E+04  0.7818608E-02  0.8160699E-01
          1   -1    0    0  501    0  0.00000000000E+00  0.00000000000E+00  0.14292954756E+04  0.14292954756E+04  0.00000000000E+00 0. -1.
         -1   -1    0    0    0  501 -0.00000000000E+00 -0.00000000000E+00 -0.19147787976E+04  0.19147787976E+04  0.00000000000E+00 0.  1.
         23    2    1    2    0    0 -0.22237184465E+03  0.14884970410E+04  0.42847041592E+02  0.15083712623E+04  0.90968773073E+02 0.  0.
        254    2    1    2    0    0  0.22237184465E+03 -0.14884970410E+04 -0.52833036358E+03  0.18357030109E+04  0.90862527636E+03 0.  0.
        -24    2    4    4    0    0  0.26382960040E+03 -0.12289283861E+04 -0.21959874137E+02  0.12596282913E+04  0.79436515495E+02 0.  0.
         24    2    4    4    0    0 -0.41457755747E+02 -0.25956865491E+03 -0.50637048944E+03  0.57607471962E+03  0.79726895583E+02 0.  0.
         13    1    3    3    0    0 -0.43526851466E+02  0.23039889697E+03  0.38520453630E+02  0.23761747383E+03  0.00000000000E+00 0. -1.
        -13    1    3    3    0    0 -0.17884499318E+03  0.12580981440E+04  0.43265879620E+01  0.12707537885E+04  0.00000000000E+00 0.  1.
          4    1    6    6  502    0 -0.61515604656E+02 -0.23415199357E+03 -0.45358070839E+03  0.51414665683E+03  0.00000000000E+00 0. -1.
          3    1    5    5  503    0  0.17884123497E+03 -0.96228596620E+03 -0.35901788147E+02  0.97942197569E+03  0.00000000000E+00 0. -1.
         -4    1    5    5    0  503  0.84988365428E+02 -0.26664241986E+03  0.13941914009E+02  0.28020631558E+03  0.00000000000E+00 0.  1.
         -3    1    6    6    0  502  0.20057848909E+02 -0.25416661343E+02 -0.52789781052E+02  0.61928062785E+02  0.00000000000E+00 0.  1.
<mgrwt>
<rscale>  0 0.33086461E+04</rscale>
<asrwt>0</asrwt>
<pdfrwt beam="1">  1        1 0.21989161E+00 0.33086461E+04</pdfrwt>
<pdfrwt beam="2">  1       -1 0.29458135E+00 0.33086461E+04</pdfrwt>
<totfact> 0.21749327E-01</totfact>
</mgrwt>
</event>
<event>
12    1  0.2404959E-007  0.2776223E+04  0.7818608E-02  0.8310688E-01
         -2   -1    0    0    0  501 -0.00000000000E+00  0.00000000000E+00  0.41973256616E+03  0.41973256616E+03  0.00000000000E+00 0.  1.
          2   -1    0    0  501    0  0.00000000000E+00 -0.00000000000E+00 -0.45906698459E+04  0.45906698459E+04  0.00000000000E+00 0. -1.
         23    2    1    2    0    0 -0.65382066204E+03  0.92034091855E+03 -0.94023593410E+03  0.14720778490E+04  0.91982157195E+02 0.  0.
        254    2    1    2    0    0  0.65382066204E+03 -0.92034091855E+03 -0.32307013457E+04  0.35383245631E+04  0.89877731635E+03 0.  0.
        -24    2    4    4    0    0  0.32524638150E+03 -0.86904662010E+03 -0.29565866463E+04  0.30998031598E+04  0.79673053618E+02 0.  0.
         24    2    4    4    0    0  0.32857428054E+03 -0.51294298453E+02 -0.27411469932E+03  0.43852140330E+03  0.81055474137E+02 0.  0.
         11    1    3    3    0    0 -0.31766151802E+03  0.37361702627E+03 -0.38621074049E+03  0.62422532664E+03  0.00000000000E+00 0. -1.
        -11    1    3    3    0    0 -0.33615914402E+03  0.54672389228E+03 -0.55402519361E+03  0.84785252235E+03  0.00000000000E+00 0.  1.
          4    1    6    6  502    0  0.97443889152E+02 -0.52910183450E+02 -0.80767692591E+02  0.13717951455E+03  0.00000000000E+00 0. -1.
          3    1    5    5  503    0  0.50342632129E+02 -0.13878539248E+03 -0.57492691974E+03  0.59357958929E+03  0.00000000000E+00 0. -1.
         -4    1    5    5    0  503  0.27490374937E+03 -0.73026122762E+03 -0.23816597266E+04  0.25062235705E+04  0.00000000000E+00 0.  1.
         -3    1    6    6    0  502  0.23113039138E+03  0.16158849973E+01 -0.19334700673E+03  0.30134188875E+03  0.00000000000E+00 0.  1.
<mgrwt>
<rscale>  0 0.27762231E+04</rscale>
<asrwt>0</asrwt>
<pdfrwt beam="1">  1        2 0.70625691E+00 0.27762231E+04</pdfrwt>
<pdfrwt beam="2">  1       -2 0.64574240E-01 0.27762231E+04</pdfrwt>
<totfact> 0.19323255E-01</totfact>
</mgrwt>
</event>
<event>
12    1  0.2404959E-007  0.2027131E+04  0.7818608E-02  0.8594040E-01
          2   -1    0    0  501    0  0.00000000000E+00  0.00000000000E+00  0.73017764397E+03  0.73017764397E+03  0.00000000000E+00 0. -1.
         -2   -1    0    0    0  501 -0.00000000000E+00 -0.00000000000E+00 -0.14069379998E+04  0.14069379998E+04  0.00000000000E+00 0.  1.
         23    2    1    2    0    0  0.52442075855E+02 -0.46650313345E+03  0.42605334081E+03  0.64142889092E+03  0.97643371793E+02 0.  0.
        254    2    1    2    0    0 -0.52442075855E+02  0.46650313345E+03 -0.11028136966E+04  0.14956867528E+04  0.89470971175E+03 0.  0.
        -24    2    4    4    0    0  0.33671808555E+03 -0.21444628947E+02 -0.58843040321E+03  0.68293711976E+03  0.79459605340E+02 0.  0.
         24    2    4    4    0    0 -0.38916016141E+03  0.48794776239E+03 -0.51438329342E+03  0.81274963307E+03  0.80206879120E+02 0.  0.
         13    1    3    3    0    0 -0.21986701403E+02 -0.16829165045E+03  0.18293344653E+03  0.24953985755E+03  0.00000000000E+00 0. -1.
        -13    1    3    3    0    0  0.74428777258E+02 -0.29821148300E+03  0.24311989428E+03  0.39188903337E+03  0.00000000000E+00 0.  1.
          4    1    6    6  502    0 -0.43150117532E+01  0.26104842223E+01  0.28450757624E+01  0.57903722159E+01  0.00000000000E+00 0. -1.
          3    1    5    5  503    0  0.52299120043E+02  0.25143592964E+02 -0.11120114499E+03  0.12543162628E+03  0.00000000000E+00 0. -1.
         -4    1    5    5    0  503  0.28441896551E+03 -0.46588221911E+02 -0.47722925822E+03  0.55750549348E+03  0.00000000000E+00 0.  1.
         -3    1    6    6    0  502 -0.38484514966E+03  0.48533727817E+03 -0.51722836918E+03  0.80695926086E+03  0.00000000000E+00 0.  1.
<mgrwt>
<rscale>  0 0.20271307E+04</rscale>
<asrwt>0</asrwt>
<pdfrwt beam="1">  1        2 0.11233502E+00 0.20271307E+04</pdfrwt>
<pdfrwt beam="2">  1       -2 0.21645200E+00 0.20271307E+04</pdfrwt>
<totfact> 0.37446228E+00</totfact>
</mgrwt>
</event>
<event>
12    1  0.2404959E-007  0.1670858E+04  0.7818608E-02  0.8778162E-01
         -2   -1    0    0    0  501 -0.00000000000E+00  0.00000000000E+00  0.26139446437E+03  0.26139446437E+03  0.00000000000E+00 0. -1.
          2   -1    0    0  501    0  0.00000000000E+00 -0.00000000000E+00 -0.26700692409E+04  0.26700692409E+04  0.00000000000E+00 0.  1.
         23    2    1    2    0    0 -0.29461379977E+03 -0.46512649976E+03 -0.47633808900E+03  0.73355924432E+03  0.89840069562E+02 0.  0.
        254    2    1    2    0    0  0.29461379977E+03  0.46512649976E+03 -0.19323366875E+04  0.21979044609E+04  0.89090908273E+03 0.  0.
        -24    2    4    4    0    0  0.17936172902E+03  0.52744855418E+03 -0.48697569722E+03  0.74452808781E+03  0.82487191168E+02 0.  0.
         24    2    4    4    0    0  0.11525207075E+03 -0.62322054422E+02 -0.14453609903E+04  0.14533763731E+04  0.77893590379E+02 0.  0.
         11    1    3    3    0    0 -0.63612422855E+01 -0.60665416500E+01 -0.30392884408E+02  0.31638516932E+02  0.00000000000E+00 0.  1.
        -11    1    3    3    0    0 -0.28825255748E+03 -0.45905995811E+03 -0.44594520459E+03  0.70192072739E+03  0.00000000000E+00 0. -1.
          2    1    6    6  502    0  0.38497046471E+02 -0.30426855894E+02 -0.22998253744E+03  0.23515906037E+03  0.00000000000E+00 0. -1.
          1    1    5    5  503    0  0.64476452020E+01  0.10868970162E+03 -0.11463346293E+03  0.15810077226E+03  0.00000000000E+00 0. -1.
         -2    1    5    5    0  503  0.17291408382E+03  0.41875885256E+03 -0.37234223429E+03  0.58642731555E+03  0.00000000000E+00 0.  1.
         -1    1    6    6    0  502  0.76755024275E+02 -0.31895198528E+02 -0.12153784529E+04  0.12182173128E+04  0.00000000000E+00 0.  1.
<mgrwt>
<rscale>  0 0.16708576E+04</rscale>
<asrwt>0</asrwt>
<pdfrwt beam="1">  1        2 0.41077989E+00 0.16708576E+04</pdfrwt>
<pdfrwt beam="2">  1       -2 0.40214532E-01 0.16708576E+04</pdfrwt>
<totfact> 0.15484546E+01</totfact>
</mgrwt>
</event>
<event>
12    1  0.2404959E-007  0.7390205E+04  0.7818608E-02  0.7538480E-01
          1   -1    0    0  501    0  0.00000000000E+00  0.00000000000E+00  0.33336798153E+04  0.33336798153E+04  0.00000000000E+00 0.  1.
         -1   -1    0    0    0  501 -0.00000000000E+00 -0.00000000000E+00 -0.40957090547E+04  0.40957090547E+04  0.00000000000E+00 0. -1.
         23    2    1    2    0    0  0.17949466769E+04 -0.31582255323E+04 -0.60336205966E+03  0.36835252741E+04  0.89947674751E+02 0.  0.
        254    2    1    2    0    0 -0.17949466769E+04  0.31582255323E+04 -0.15866717977E+03  0.37458635958E+04  0.90005373103E+03 0.  0.
        -24    2    4    4    0    0 -0.70138142845E+03  0.68029376620E+03  0.23416751198E+03  0.10079217765E+04  0.79601303070E+02 0.  0.
         24    2    4    4    0    0 -0.10935652485E+04  0.24779317661E+04 -0.39283469175E+03  0.27379418193E+04  0.77301491956E+02 0.  0.
         11    1    3    3    0    0  0.16560849537E+04 -0.29217071459E+04 -0.58144304456E+03  0.34083817325E+04  0.00000000000E+00 0. -1.
        -11    1    3    3    0    0  0.13886172324E+03 -0.23651838636E+03 -0.21919015107E+02  0.27514354161E+03  0.00000000000E+00 0.  1.
          2    1    6    6  502    0 -0.22955161793E+03  0.60048267884E+03 -0.98640028128E+02  0.65038699866E+03  0.00000000000E+00 0. -1.
          3    1    5    5  503    0 -0.28323144232E+03  0.32448758297E+03  0.12030065917E+03  0.44719625448E+03  0.00000000000E+00 0. -1.
         -4    1    5    5    0  503 -0.41814998612E+03  0.35580618323E+03  0.11386685281E+03  0.56072552206E+03  0.00000000000E+00 0.  1.
         -1    1    6    6    0  502 -0.86401363055E+03  0.18774490872E+04 -0.29419466362E+03  0.20875548206E+04  0.00000000000E+00 0.  1.
<mgrwt>
<rscale>  0 0.73902050E+04</rscale>
<asrwt>0</asrwt>
<pdfrwt beam="1">  1        1 0.51287382E+00 0.73902050E+04</pdfrwt>
<pdfrwt beam="2">  1       -1 0.63010908E+00 0.73902050E+04</pdfrwt>
<totfact> 0.71508343E-05</totfact>
</mgrwt>
</event>
<event>
12    1  0.2404959E-007  0.1871002E+04  0.7818608E-02  0.8669427E-01
         -1   -1    0    0    0  501 -0.00000000000E+00  0.00000000000E+00  0.61142713680E+03  0.61142713680E+03  0.00000000000E+00 0.  1.
          1   -1    0    0  501    0  0.00000000000E+00 -0.00000000000E+00 -0.14313437986E+04  0.14313437986E+04  0.00000000000E+00 0. -1.
         23    2    1    2    0    0  0.50556798000E+03 -0.15722634420E+03  0.21028992988E+03  0.57710810603E+03  0.92264867175E+02 0.  0.
        254    2    1    2    0    0 -0.50556798000E+03  0.15722634420E+03 -0.10302065917E+04  0.14656628294E+04  0.89806614578E+03 0.  0.
        -24    2    4    4    0    0 -0.18050565436E+03 -0.29923085133E+03 -0.92276527481E+02  0.37014421893E+03  0.79814733267E+02 0.  0.
         24    2    4    4    0    0 -0.32506232565E+03  0.45645719553E+03 -0.93793006424E+03  0.10955186105E+04  0.80184372579E+02 0.  0.
         13    1    3    3    0    0  0.33990854617E+03 -0.98016314399E+02  0.93360723911E+02  0.36587052685E+03  0.00000000000E+00 0. -1.
        -13    1    3    3    0    0  0.16565943383E+03 -0.59210029803E+02  0.11692920597E+03  0.21123757917E+03  0.00000000000E+00 0.  1.
          2    1    6    6  502    0 -0.17015037113E+03  0.26847904893E+03 -0.46059597947E+03  0.55962559342E+03  0.00000000000E+00 0. -1.
          3    1    5    5  503    0 -0.21536135691E+02 -0.96459152503E+02 -0.43157926389E+02  0.10784609336E+03  0.00000000000E+00 0. -1.
         -4    1    5    5    0  503 -0.15896951867E+03 -0.20277169882E+03 -0.49118601093E+02  0.26229812558E+03  0.00000000000E+00 0.  1.
         -1    1    6    6    0  502 -0.15491195452E+03  0.18797814660E+03 -0.47733408478E+03  0.53589301707E+03  0.00000000000E+00 0.  1.
<mgrwt>
<rscale>  0 0.18710023E+04</rscale>
<asrwt>0</asrwt>
<pdfrwt beam="1">  1        1 0.22020673E+00 0.18710023E+04</pdfrwt>
<pdfrwt beam="2">  1       -1 0.94065716E-01 0.18710023E+04</pdfrwt>
<totfact> 0.74993805E+00</totfact>
</mgrwt>
</event>
<event>
12    1  0.2404959E-007  0.3570782E+04  0.7818608E-02  0.8097217E-01
          2   -1    0    0  501    0  0.00000000000E+00  0.00000000000E+00  0.30546693138E+04  0.30546693138E+04  0.00000000000E+00 0. -1.
         -2   -1    0    0    0  501 -0.00000000000E+00 -0.00000000000E+00 -0.10435242178E+04  0.10435242178E+04  0.00000000000E+00 0.  1.
         23    2    1    2    0    0 -0.12130286472E+04  0.17299971127E+03  0.22466160562E+04  0.25606404145E+04  0.90709588445E+02 0.  0.
        254    2    1    2    0    0  0.12130286472E+04 -0.17299971127E+03 -0.23547096016E+03  0.15375531171E+04  0.89847404843E+03 0.  0.
        -24    2    4    4    0    0  0.58966293168E+03  0.31923562937E+03 -0.29655117760E+03  0.73768974316E+03  0.81423560280E+02 0.  0.
         24    2    4    4    0    0  0.62336571555E+03 -0.49223534064E+03  0.61080217434E+02  0.79986337394E+03  0.71903950521E+02 0.  0.
         11    1    3    3    0    0 -0.73993132768E+03  0.14935680388E+03  0.13634056631E+04  0.15584225444E+04  0.00000000000E+00 0. -1.
        -11    1    3    3    0    0 -0.47309731956E+03  0.23642907391E+02  0.88321039305E+03  0.10022178701E+04  0.00000000000E+00 0.  1.
          4    1    6    6  502    0  0.36233596318E+02 -0.12286368181E+02  0.11301459967E+02  0.39894251999E+02  0.00000000000E+00 0. -1.
          3    1    5    5  503    0  0.69673995522E+02  0.65930269957E+02 -0.57464199114E+02  0.11181860457E+03  0.00000000000E+00 0. -1.
         -4    1    5    5    0  503  0.51998893616E+03  0.25330535941E+03 -0.23908697848E+03  0.62587113859E+03  0.00000000000E+00 0.  1.
         -3    1    6    6    0  502  0.58713211923E+03 -0.47994897246E+03  0.49778757468E+02  0.75996912194E+03  0.00000000000E+00 0.  1.
<mgrwt>
<rscale>  0 0.35707822E+04</rscale>
<asrwt>0</asrwt>
<pdfrwt beam="1">  1        2 0.46994912E+00 0.35707822E+04</pdfrwt>
<pdfrwt beam="2">  1       -2 0.16054219E+00 0.35707822E+04</pdfrwt>
<totfact> 0.32766930E-01</totfact>
</mgrwt>
</event>
<event>
12    1  0.2404959E-007  0.2076598E+04  0.7818608E-02  0.8571623E-01
          2   -1    0    0  501    0  0.00000000000E+00  0.00000000000E+00  0.42248094108E+04  0.42248094108E+04  0.00000000000E+00 0.  1.
         -2   -1    0    0    0  501 -0.00000000000E+00 -0.00000000000E+00 -0.25517480066E+03  0.25517480066E+03  0.00000000000E+00 0. -1.
         23    2    1    2    0    0  0.22004770493E+03 -0.70613160573E+03  0.24737953081E+04  0.25836903206E+04  0.93539348793E+02 0.  0.
        254    2    1    2    0    0 -0.22004770493E+03  0.70613160573E+03  0.14958393021E+04  0.18962938909E+04  0.90075105644E+03 0.  0.
        -24    2    4    4    0    0  0.26453041592E+03  0.29659700673E+03  0.10244775454E+04  0.11017019861E+04  0.79037331813E+02 0.  0.
         24    2    4    4    0    0 -0.48457812085E+03  0.40953459900E+03  0.47136175676E+03  0.79459190478E+03  0.81607882111E+02 0.  0.
         13    1    3    3    0    0  0.11980269027E+03 -0.32154581081E+03  0.12954851532E+04  0.13401590111E+04  0.00000000000E+00 0.  1.
        -13    1    3    3    0    0  0.10024501465E+03 -0.38458579492E+03  0.11783101549E+04  0.12435313095E+04  0.00000000000E+00 0. -1.
          2    1    6    6  502    0 -0.57135941366E+01 -0.15703956095E+01 -0.13347711786E+01  0.60739537723E+01  0.00000000000E+00 0. -1.
          1    1    5    5  503    0  0.20830899178E+01  0.55840129163E+00 -0.11300582084E+01  0.24347704538E+01  0.00000000000E+00 0. -1.
         -2    1    5    5    0  503  0.26244732600E+03  0.29603860544E+03  0.10256076036E+04  0.10992672156E+04  0.00000000000E+00 0.  1.
         -1    1    6    6    0  502 -0.47886452671E+03  0.41110499461E+03  0.47269652794E+03  0.78851795101E+03  0.00000000000E+00 0.  1.
<mgrwt>
<rscale>  0 0.20765981E+04</rscale>
<asrwt>0</asrwt>
<pdfrwt beam="1">  1        2 0.64997063E+00 0.20765981E+04</pdfrwt>
<pdfrwt beam="2">  1       -2 0.39257665E-01 0.20765981E+04</pdfrwt>
<totfact> 0.12676879E+00</totfact>
</mgrwt>
</event>
<event>
12    1  0.2404959E-007  0.1304904E+04  0.7818608E-02  0.9025685E-01
         -1   -1    0    0    0  501 -0.00000000000E+00  0.00000000000E+00  0.46183254574E+03  0.46183254574E+03  0.00000000000E+00 0.  1.
          1   -1    0    0  501    0  0.00000000000E+00 -0.00000000000E+00 -0.92174849927E+03  0.92174849927E+03  0.00000000000E+00 0. -1.
         23    2    1    2    0    0 -0.12473241828E+03  0.29440502517E+03 -0.22813923110E+03  0.40277562149E+03  0.89152663919E+02 0.  0.
        254    2    1    2    0    0  0.12473241828E+03 -0.29440502517E+03 -0.23177672242E+03  0.98080542352E+03  0.89778969405E+03 0.  0.
        -24    2    4    4    0    0  0.42255422529E+03 -0.33065739200E+03 -0.35383746582E+03  0.64762946999E+03  0.79602726017E+02 0.  0.
         24    2    4    4    0    0 -0.29782180701E+03  0.36252366831E+02  0.12206074339E+03  0.33317595353E+03  0.78072582278E+02 0.  0.
         11    1    3    3    0    0 -0.97743216571E+02  0.14579255537E+03 -0.15831342206E+03  0.23637331743E+03  0.00000000000E+00 0. -1.
        -11    1    3    3    0    0 -0.26989201706E+02  0.14861246980E+03 -0.69825809039E+02  0.16640230406E+03  0.00000000000E+00 0.  1.
          2    1    6    6  502    0 -0.85372180442E+02 -0.22885105693E+02  0.22432187779E+02  0.91188487785E+02  0.00000000000E+00 0. -1.
          1    1    5    5  503    0  0.21706386517E+03 -0.14218513512E+03 -0.13092780831E+03  0.29064656406E+03  0.00000000000E+00 0. -1.
         -2    1    5    5    0  503  0.20549036012E+03 -0.18847225688E+03 -0.22290965750E+03  0.35698290593E+03  0.00000000000E+00 0.  1.
         -1    1    6    6    0  502 -0.21244962657E+03  0.59137472525E+02  0.99628555612E+02  0.24198746575E+03  0.00000000000E+00 0.  1.
<mgrwt>
<rscale>  0 0.13049038E+04</rscale>
<asrwt>0</asrwt>
<pdfrwt beam="1">  1        1 0.14180746E+00 0.13049038E+04</pdfrwt>
<pdfrwt beam="2">  1       -1 0.71051162E-01 0.13049038E+04</pdfrwt>
<totfact> 0.34333628E+01</totfact>
</mgrwt>
</event>
<event>
12    1  0.2404959E-007  0.1662709E+04  0.7818608E-02  0.8782923E-01
         -1   -1    0    0    0  501 -0.00000000000E+00  0.00000000000E+00  0.66704528916E+03  0.66704528916E+03  0.00000000000E+00 0.  1.
          1   -1    0    0  501    0  0.00000000000E+00 -0.00000000000E+00 -0.10361371748E+04  0.10361371748E+04  0.00000000000E+00 0. -1.
         23    2    1    2    0    0  0.55667215617E+03  0.16451753002E+03 -0.16073293946E+03  0.61198922714E+03  0.10837817660E+03 0.  0.
        254    2    1    2    0    0 -0.55667215617E+03 -0.16451753002E+03 -0.20835894617E+03  0.10911932368E+04  0.90018849275E+03 0.  0.
        -24    2    4    4    0    0 -0.39225198953E+03 -0.42718461800E+03  0.15666576241E+03  0.60564788357E+03  0.76921236428E+02 0.  0.
         24    2    4    4    0    0 -0.16442016665E+03  0.26266708798E+03 -0.36502470858E+03  0.48554535325E+03  0.80518705179E+02 0.  0.
         13    1    3    3    0    0  0.15897643286E+03  0.99366478124E+02 -0.53993260572E+02  0.19509606702E+03  0.00000000000E+00 0.  1.
        -13    1    3    3    0    0  0.39769572331E+03  0.65151051898E+02 -0.10673967889E+03  0.41689316012E+03  0.00000000000E+00 0. -1.
          4    1    6    6  502    0 -0.96981091514E+01  0.12527227970E+02  0.11360403337E+01  0.15883178188E+02  0.00000000000E+00 0. -1.
          3    1    5    5  503    0 -0.60365038749E+02 -0.35397931374E+02  0.33672770068E+02  0.77658269957E+02  0.00000000000E+00 0. -1.
         -4    1    5    5    0  503 -0.33188695078E+03 -0.39178668663E+03  0.12299299234E+03  0.52798961361E+03  0.00000000000E+00 0.  1.
         -3    1    6    6    0  502 -0.15472205749E+03  0.25013986001E+03 -0.36616074891E+03  0.46966217506E+03  0.00000000000E+00 0.  1.
<mgrwt>
<rscale>  0 0.16627091E+04</rscale>
<asrwt>0</asrwt>
<pdfrwt beam="1">  1        1 0.15940572E+00 0.16627091E+04</pdfrwt>
<pdfrwt beam="2">  1       -1 0.10262235E+00 0.16627091E+04</pdfrwt>
<totfact> 0.12159443E+01</totfact>
</mgrwt>
</event>
<event>
12    1  0.2404959E-007  0.1707074E+04  0.7818608E-02  0.8757340E-01
         -2   -1    0    0    0  501 -0.00000000000E+00  0.00000000000E+00  0.12452939235E+04  0.12452939235E+04  0.00000000000E+00 0.  1.
          2   -1    0    0  501    0  0.00000000000E+00 -0.00000000000E+00 -0.58502255746E+03  0.58502255746E+03  0.00000000000E+00 0. -1.
         23    2    1    2    0    0 -0.39105357541E+03 -0.51110425420E+02  0.73996742069E+03  0.84365398137E+03  0.93086423107E+02 0.  0.
        254    2    1    2    0    0  0.39105357541E+03  0.51110425420E+02 -0.79696054678E+02  0.98666249957E+03  0.90089747058E+03 0.  0.
        -24    2    4    4    0    0 -0.78918047163E+02 -0.81046437536E+02 -0.38239780517E+03  0.40647377523E+03  0.78716360059E+02 0.  0.
         24    2    4    4    0    0  0.46997162257E+03  0.13215686296E+03  0.30270175050E+03  0.58018872434E+03  0.81558835546E+02 0.  0.
         13    1    3    3    0    0  0.74856454434E+00 -0.68848927646E+01  0.24345675353E+01  0.73409274851E+01  0.00000000000E+00 0. -1.
        -13    1    3    3    0    0 -0.39180213995E+03 -0.44225532656E+02  0.73753285316E+03  0.83631305388E+03  0.00000000000E+00 0.  1.
          4    1    6    6  502    0  0.23125872808E+03  0.23172035186E+02  0.13545087320E+03  0.26900647126E+03  0.00000000000E+00 0. -1.
          1    1    5    5  503    0 -0.79974444948E+01  0.12695740727E+02 -0.17202546588E+02  0.22826926210E+02  0.00000000000E+00 0. -1.
         -2    1    5    5    0  503 -0.70920602668E+02 -0.93742178263E+02 -0.36519525858E+03  0.38364684902E+03  0.00000000000E+00 0.  1.
         -3    1    6    6    0  502  0.23871289449E+03  0.10898482777E+03  0.16725087729E+03  0.31118225308E+03  0.00000000000E+00 0.  1.
<mgrwt>
<rscale>  0 0.17070736E+04</rscale>
<asrwt>0</asrwt>
<pdfrwt beam="1">  1        2 0.90003471E-01 0.17070736E+04</pdfrwt>
<pdfrwt beam="2">  1       -2 0.19158368E+00 0.17070736E+04</pdfrwt>
<totfact> 0.73489305E+00</totfact>
</mgrwt>
</event>
<event>
12    1  0.2404959E-007  0.2618783E+04  0.7818608E-02  0.8361849E-01
          2   -1    0    0  501    0  0.00000000000E+00  0.00000000000E+00  0.15040139449E+04  0.15040139449E+04  0.00000000000E+00 0.  1.
         -2   -1    0    0    0  501 -0.00000000000E+00 -0.00000000000E+00 -0.11399538976E+04  0.11399538976E+04  0.00000000000E+00 0. -1.
         23    2    1    2    0    0  0.10441802431E+04 -0.21668995653E+03 -0.28027615225E+03  0.11066827932E+04  0.94473096348E+02 0.  0.
        254    2    1    2    0    0 -0.10441802431E+04  0.21668995653E+03  0.64433619950E+03  0.15372850493E+04  0.90044948070E+03 0.  0.
        -24    2    4    4    0    0 -0.25894123211E+03 -0.27807173066E+03 -0.26273792673E+02  0.38909611442E+03  0.79567738410E+02 0.  0.
         24    2    4    4    0    0 -0.78523901102E+03  0.49476168719E+03  0.67060999217E+03  0.11481889348E+04  0.85033152051E+02 0.  0.
         13    1    3    3    0    0  0.60038708892E+03 -0.98078905076E+02 -0.19980714325E+03  0.64031790749E+03  0.00000000000E+00 0. -1.
        -13    1    3    3    0    0  0.44379315421E+03 -0.11861105145E+03 -0.80469009005E+02  0.46636488575E+03  0.00000000000E+00 0.  1.
          2    1    6    6  502    0 -0.70738746575E+03  0.46907873314E+03  0.59400677000E+03  0.10359903124E+04  0.00000000000E+00 0. -1.
          3    1    5    5  503    0 -0.18675938405E+03 -0.18115071699E+03 -0.52525735827E+02  0.26543097544E+03  0.00000000000E+00 0. -1.
         -4    1    5    5    0  503 -0.72181848056E+02 -0.96921013674E+02  0.26251943154E+02  0.12366513898E+03  0.00000000000E+00 0.  1.
         -1    1    6    6    0  502 -0.77851545269E+02  0.25682954048E+02  0.76603222173E+02  0.11219862244E+03  0.00000000000E+00 0.  1.
<mgrwt>
<rscale>  0 0.26187833E+04</rscale>
<asrwt>0</asrwt>
<pdfrwt beam="1">  1        2 0.23138676E+00 0.26187833E+04</pdfrwt>
<pdfrwt beam="2">  1       -2 0.17537752E+00 0.26187833E+04</pdfrwt>
<totfact> 0.21782468E+00</totfact>
</mgrwt>
</event>
<event>
12    1  0.2404959E-007  0.1537135E+04  0.7818608E-02  0.8860128E-01
         -2   -1    0    0    0  501 -0.00000000000E+00  0.00000000000E+00  0.24648731201E+03  0.24648731201E+03  0.00000000000E+00 0.  1.
          2   -1    0    0  501    0  0.00000000000E+00 -0.00000000000E+00 -0.23964545505E+04  0.23964545505E+04  0.00000000000E+00 0. -1.
         23    2    1    2    0    0 -0.38524113198E+03  0.22030926818E+03 -0.31447402970E+03  0.55142619381E+03  0.90719504204E+02 0.  0.
        254    2    1    2    0    0  0.38524113198E+03 -0.22030926818E+03 -0.18354932088E+04  0.20915156687E+04  0.89914157365E+03 0.  0.
        -24    2    4    4    0    0 -0.13827338818E+00 -0.15213895200E+03  0.37162804611E+02  0.17673544197E+03  0.81902762871E+02 0.  0.
         24    2    4    4    0    0  0.38537940537E+03 -0.68170316186E+02 -0.18726560134E+04  0.19147802267E+04  0.79864222591E+02 0.  0.
         11    1    3    3    0    0 -0.21595369504E+03  0.14479171478E+03 -0.23230324427E+03  0.34866235296E+03  0.00000000000E+00 0. -1.
        -11    1    3    3    0    0 -0.16928743695E+03  0.75517553402E+02 -0.82170785431E+02  0.20276384085E+03  0.00000000000E+00 0.  1.
          2    1    6    6  502    0  0.26308248297E+03 -0.17961087860E+02 -0.11219101697E+04  0.11524831550E+04  0.00000000000E+00 0. -1.
          1    1    5    5  503    0  0.20912841972E+01 -0.90940534508E+02 -0.19805493297E+02  0.93095713387E+02  0.00000000000E+00 0. -1.
         -2    1    5    5    0  503 -0.22295575854E+01 -0.61198417489E+02  0.56968297909E+02  0.83639728579E+02  0.00000000000E+00 0.  1.
         -1    1    6    6    0  502  0.12229692240E+03 -0.50209228327E+02 -0.75074584367E+03  0.76229707177E+03  0.00000000000E+00 0.  1.
<mgrwt>
<rscale>  0 0.15371345E+04</rscale>
<asrwt>0</asrwt>
<pdfrwt beam="1">  1        2 0.36868531E+00 0.15371345E+04</pdfrwt>
<pdfrwt beam="2">  1       -2 0.37921126E-01 0.15371345E+04</pdfrwt>
<totfact> 0.25306335E+01</totfact>
</mgrwt>
</event>
<event>
12    1  0.2404959E-007  0.1711827E+04  0.7818608E-02  0.8754648E-01
          2   -1    0    0  501    0  0.00000000000E+00  0.00000000000E+00  0.37004049923E+04  0.37004049923E+04  0.00000000000E+00 0.  1.
         -2   -1    0    0    0  501 -0.00000000000E+00 -0.00000000000E+00 -0.19797497898E+03  0.19797497898E+03  0.00000000000E+00 0. -1.
         23    2    1    2    0    0  0.42114154492E+03 -0.37441895672E+03  0.71016918858E+03  0.91137209642E+03  0.93322375201E+02 0.  0.
        254    2    1    2    0    0 -0.42114154492E+03  0.37441895672E+03  0.27922608248E+04  0.29870078749E+04  0.89885803942E+03 0.  0.
        -24    2    4    4    0    0 -0.13865930698E+03  0.29764564811E+03  0.23346792559E+03  0.41055613853E+03  0.78928672572E+02 0.  0.
         24    2    4    4    0    0 -0.28248223795E+03  0.76773308615E+02  0.25587928992E+04  0.25764517364E+04  0.70654746468E+02 0.  0.
         11    1    3    3    0    0  0.27439575679E+03 -0.18244153759E+03  0.40441123638E+03  0.52165735315E+03  0.00000000000E+00 0. -1.
        -11    1    3    3    0    0  0.14674578814E+03 -0.19197741913E+03  0.30575795220E+03  0.38971474327E+03  0.00000000000E+00 0.  1.
          4    1    6    6  502    0 -0.26478938431E+03  0.78286248137E+02  0.22061937082E+04  0.22234056833E+04  0.00000000000E+00 0. -1.
          3    1    5    5  503    0 -0.83426876459E+02  0.19023328396E+03  0.99963516360E+02  0.23052429513E+03  0.00000000000E+00 0. -1.
         -4    1    5    5    0  503 -0.55232430520E+02  0.10741236414E+03  0.13350440923E+03  0.18003184339E+03  0.00000000000E+00 0.  1.
         -3    1    6    6    0  502 -0.17692853636E+02 -0.15129395224E+01  0.35259919102E+03  0.35304605304E+03  0.00000000000E+00 0.  1.
<mgrwt>
<rscale>  0 0.17118266E+04</rscale>
<asrwt>0</asrwt>
<pdfrwt beam="1">  1        2 0.56929303E+00 0.17118266E+04</pdfrwt>
<pdfrwt beam="2">  1       -2 0.30457692E-01 0.17118266E+04</pdfrwt>
<totfact> 0.55962539E+00</totfact>
</mgrwt>
</event>
<event>
12    1  0.2404959E-007  0.3631206E+04  0.7818608E-02  0.8083381E-01
          1   -1    0    0  501    0  0.00000000000E+00  0.00000000000E+00  0.27949315965E+04  0.27949315965E+04  0.00000000000E+00 0. -1.
         -1   -1    0    0    0  501 -0.00000000000E+00 -0.00000000000E+00 -0.11794254433E+04  0.11794254433E+04  0.00000000000E+00 0.  1.
         23    2    1    2    0    0  0.11758150979E+04  0.17998329688E+03  0.20919945693E+04  0.24083246905E+04  0.93012928298E+02 0.  0.
        254    2    1    2    0    0 -0.11758150979E+04 -0.17998329688E+03 -0.47648841613E+03  0.15660323494E+04  0.90026716978E+03 0.  0.
        -24    2    4    4    0    0 -0.12389793607E+04 -0.12090599685E+02 -0.25436574827E+03  0.12675033385E+04  0.81527542729E+02 0.  0.
         24    2    4    4    0    0  0.63164262782E+02 -0.16789269720E+03 -0.22212266786E+03  0.29852901095E+03  0.87197528259E+02 0.  0.
         11    1    3    3    0    0  0.55543917696E+03  0.45025298812E+02  0.10270546427E+04  0.11684952700E+04  0.00000000000E+00 0.  1.
        -11    1    3    3    0    0  0.62037592098E+03  0.13495799807E+03  0.10649399266E+04  0.12398294205E+04  0.00000000000E+00 0. -1.
          4    1    6    6  502    0  0.14132816770E+02 -0.79664801777E+01 -0.71880720284E+02  0.73688800131E+02  0.00000000000E+00 0. -1.
          3    1    5    5  503    0 -0.95137603224E+03 -0.42520999486E+02 -0.18588951146E+03  0.97029856261E+03  0.00000000000E+00 0. -1.
         -4    1    5    5    0  503 -0.28760332848E+03  0.30430399802E+02 -0.68476236804E+02  0.29720477586E+03  0.00000000000E+00 0.  1.
         -3    1    6    6    0  502  0.49031446012E+02 -0.15992621702E+03 -0.15024194758E+03  0.22484021082E+03  0.00000000000E+00 0.  1.
<mgrwt>
<rscale>  0 0.36312056E+04</rscale>
<asrwt>0</asrwt>
<pdfrwt beam="1">  1        1 0.42998947E+00 0.36312056E+04</pdfrwt>
<pdfrwt beam="2">  1       -1 0.18145007E+00 0.36312056E+04</pdfrwt>
<totfact> 0.13772612E-01</totfact>
</mgrwt>
</event>
<event>
12    1  0.2404959E-007  0.1538954E+04  0.7818608E-02  0.8858954E-01
         -2   -1    0    0    0  501 -0.00000000000E+00  0.00000000000E+00  0.20592490764E+03  0.20592490764E+03  0.00000000000E+00 0.  1.
          2   -1    0    0  501    0  0.00000000000E+00 -0.00000000000E+00 -0.28752953428E+04  0.28752953428E+04  0.00000000000E+00 0. -1.
         23    2    1    2    0    0 -0.39969601192E+02 -0.36539869178E+02 -0.19395256233E+04  0.19424198892E+04  0.91118885840E+02 0.  0.
        254    2    1    2    0    0  0.39969601192E+02  0.36539869178E+02 -0.72984481183E+03  0.11388003612E+04  0.87250219618E+03 0.  0.
        -24    2    4    4    0    0  0.51338424199E+02 -0.45910586016E+02 -0.91460903254E+03  0.92058687118E+03  0.78911908297E+02 0.  0.
         24    2    4    4    0    0 -0.11368823007E+02  0.82450455194E+02  0.18476422071E+03  0.21821349006E+03  0.80944315997E+02 0.  0.
         13    1    3    3    0    0 -0.25486303827E+02 -0.39349245426E+02 -0.18936521925E+04  0.18942324411E+04  0.00000000000E+00 0. -1.
        -13    1    3    3    0    0 -0.14483297365E+02  0.28093762481E+01 -0.45873430838E+02  0.48187448099E+02  0.00000000000E+00 0.  1.
          4    1    6    6  502    0  0.27339153231E+02  0.76348052740E+01  0.72514557072E+02  0.77872206456E+02  0.00000000000E+00 0. -1.
          1    1    5    5  503    0 -0.18213279497E+02 -0.22398398200E+02 -0.17772507509E+03  0.18005447539E+03  0.00000000000E+00 0. -1.
         -2    1    5    5    0  503  0.69551703696E+02 -0.23512187815E+02 -0.73688395745E+03  0.74053239579E+03  0.00000000000E+00 0.  1.
         -3    1    6    6    0  502 -0.38707976238E+02  0.74815649920E+02  0.11224966364E+03  0.14034128361E+03  0.00000000000E+00 0.  1.
<mgrwt>
<rscale>  0 0.15389541E+04</rscale>
<asrwt>0</asrwt>
<pdfrwt beam="1">  1        2 0.44235311E+00 0.15389541E+04</pdfrwt>
<pdfrwt beam="2">  1       -2 0.31680757E-01 0.15389541E+04</pdfrwt>
<totfact> 0.18657480E+01</totfact>
</mgrwt>
</event>
<event>
12    1  0.2404959E-007  0.1707372E+04  0.7818608E-02  0.8757171E-01
         -4   -1    0    0    0  501 -0.00000000000E+00  0.00000000000E+00  0.66652077070E+03  0.66652077070E+03  0.00000000000E+00 0.  1.
          4   -1    0    0  501    0  0.00000000000E+00 -0.00000000000E+00 -0.10934087350E+04  0.10934087350E+04  0.00000000000E+00 0. -1.
         23    2    1    2    0    0 -0.56309743691E+03 -0.10156081388E+03 -0.37978527988E+03  0.69293365900E+03  0.92341077484E+02 0.  0.
        254    2    1    2    0    0  0.56309743691E+03  0.10156081388E+03 -0.47102684458E+02  0.10669958467E+04  0.89937097556E+03 0.  0.
        -24    2    4    4    0    0  0.43004712629E+03  0.29407147157E+03 -0.38103987780E+03  0.65137766704E+03  0.87652241463E+02 0.  0.
         24    2    4    4    0    0  0.13305031063E+03 -0.19251065769E+03  0.33393719334E+03  0.41561817968E+03  0.80384598686E+02 0.  0.
         11    1    3    3    0    0 -0.42018325839E+03 -0.74972146361E+02 -0.23268411506E+03  0.48612415159E+03  0.00000000000E+00 0.  1.
        -11    1    3    3    0    0 -0.14291417852E+03 -0.26588667516E+02 -0.14710116482E+03  0.20680950741E+03  0.00000000000E+00 0. -1.
          2    1    6    6  502    0  0.13451673209E+03 -0.14746584041E+03  0.29427716127E+03  0.35558398860E+03  0.00000000000E+00 0. -1.
          3    1    5    5  503    0  0.21432485657E+03  0.19863764599E+03 -0.20209318344E+03  0.35529384084E+03  0.00000000000E+00 0. -1.
         -4    1    5    5    0  503  0.21572226972E+03  0.95433825581E+02 -0.17894669436E+03  0.29608382620E+03  0.00000000000E+00 0.  1.
         -1    1    6    6    0  502 -0.14664214654E+01 -0.45044817282E+02  0.39660032066E+02  0.60034191086E+02  0.00000000000E+00 0.  1.
<mgrwt>
<rscale>  0 0.17073718E+04</rscale>
<asrwt>0</asrwt>
<pdfrwt beam="1">  1        4 0.16821673E+00 0.17073718E+04</pdfrwt>
<pdfrwt beam="2">  1       -4 0.10254166E+00 0.17073718E+04</pdfrwt>
<totfact> 0.32218983E-01</totfact>
</mgrwt>
</event>
<event>
12    1  0.2404959E-007  0.2498368E+04  0.7818608E-02  0.8403567E-01
          1   -1    0    0  501    0  0.00000000000E+00  0.00000000000E+00  0.23339084300E+04  0.23339084300E+04  0.00000000000E+00 0. -1.
         -1   -1    0    0    0  501 -0.00000000000E+00 -0.00000000000E+00 -0.66860429691E+03  0.66860429691E+03  0.00000000000E+00 0.  1.
         23    2    1    2    0    0 -0.10527312962E+04 -0.23157196689E+03  0.87190005485E+03  0.13893856096E+04  0.91180637254E+02 0.  0.
        254    2    1    2    0    0  0.10527312962E+04  0.23157196689E+03  0.79340407822E+03  0.16131271173E+04  0.90045561092E+03 0.  0.
        -24    2    4    4    0    0  0.11699638039E+04  0.34230923063E+03  0.64915883083E+03  0.13833554238E+04  0.79209400735E+02 0.  0.
         24    2    4    4    0    0 -0.11723250768E+03 -0.11073726375E+03  0.14424524739E+03  0.22977169344E+03  0.77344277557E+02 0.  0.
         13    1    3    3    0    0 -0.51919428634E+03 -0.11639913070E+03  0.48891707175E+03  0.72260042046E+03  0.00000000000E+00 0. -1.
        -13    1    3    3    0    0 -0.53353700990E+03 -0.11517283618E+03  0.38298298310E+03  0.66678518915E+03  0.00000000000E+00 0.  1.
          4    1    6    6  502    0 -0.40388208511E+02 -0.30929120897E+02  0.96590593585E+02  0.10916758070E+03  0.00000000000E+00 0. -1.
          3    1    5    5  503    0  0.70332596503E+02  0.19210339961E+02  0.18650253005E+02  0.75256516192E+02  0.00000000000E+00 0. -1.
         -4    1    5    5    0  503  0.10996312074E+04  0.32309889067E+03  0.63050857783E+03  0.13080989077E+04  0.00000000000E+00 0.  1.
         -3    1    6    6    0  502 -0.76844299173E+02 -0.79808142849E+02  0.47654653801E+02  0.12060411274E+03  0.00000000000E+00 0.  1.
<mgrwt>
<rscale>  0 0.24983684E+04</rscale>
<asrwt>0</asrwt>
<pdfrwt beam="1">  1        1 0.35906283E+00 0.24983684E+04</pdfrwt>
<pdfrwt beam="2">  1       -1 0.10286220E+00 0.24983684E+04</pdfrwt>
<totfact> 0.13993986E+00</totfact>
</mgrwt>
</event>
<event>
12    1  0.2404959E-007  0.2125699E+04  0.7818608E-02  0.8550006E-01
          2   -1    0    0  501    0  0.00000000000E+00  0.00000000000E+00  0.15850791036E+04  0.15850791036E+04  0.00000000000E+00 0. -1.
         -2   -1    0    0    0  501 -0.00000000000E+00 -0.00000000000E+00 -0.71267681647E+03  0.71267681647E+03  0.00000000000E+00 0.  1.
         23    2    1    2    0    0 -0.15279700218E+03  0.63239253771E+02  0.12796054892E+04  0.12934930374E+04  0.91585493944E+02 0.  0.
        254    2    1    2    0    0  0.15279700218E+03 -0.63239253771E+02 -0.40720320213E+03  0.10042628826E+04  0.90298580414E+03 0.  0.
        -24    2    4    4    0    0  0.86265591292E+02  0.11765448674E+03  0.25823143371E+03  0.30716399125E+03  0.79886880514E+02 0.  0.
         24    2    4    4    0    0  0.66531410893E+02 -0.18089374051E+03 -0.66543463584E+03  0.69709889136E+03  0.77425033282E+02 0.  0.
         11    1    3    3    0    0 -0.74717898636E+02 -0.76482272231E+01  0.35276082852E+03  0.36066807718E+03  0.00000000000E+00 0.  1.
        -11    1    3    3    0    0 -0.78079103549E+02  0.70887480994E+02  0.92684466069E+03  0.93282496023E+03  0.00000000000E+00 0. -1.
          2    1    6    6  502    0  0.20574820431E+02 -0.87187671041E+02 -0.43503245116E+03  0.44416015893E+03  0.00000000000E+00 0. -1.
          1    1    5    5  503    0  0.60410817015E+02  0.20503966154E+02  0.12412458744E+03  0.13955928005E+03  0.00000000000E+00 0. -1.
         -2    1    5    5    0  503  0.25854774276E+02  0.97150520583E+02  0.13410684626E+03  0.16760471120E+03  0.00000000000E+00 0.  1.
         -1    1    6    6    0  502  0.45956590462E+02 -0.93706069466E+02 -0.23040218467E+03  0.25293873243E+03  0.00000000000E+00 0.  1.
<mgrwt>
<rscale>  0 0.21256991E+04</rscale>
<asrwt>0</asrwt>
<pdfrwt beam="1">  1        2 0.24385832E+00 0.21256991E+04</pdfrwt>
<pdfrwt beam="2">  1       -2 0.10964259E+00 0.21256991E+04</pdfrwt>
<totfact> 0.69242209E+00</totfact>
</mgrwt>
</event>
<event>
12    1  0.2404959E-007  0.2840916E+04  0.7818608E-02  0.8290677E-01
         -2   -1    0    0    0  501 -0.00000000000E+00  0.00000000000E+00  0.58230829073E+03  0.58230829073E+03  0.00000000000E+00 0.  1.
          2   -1    0    0  501    0  0.00000000000E+00 -0.00000000000E+00 -0.34650043260E+04  0.34650043260E+04  0.00000000000E+00 0. -1.
         23    2    1    2    0    0  0.58880155253E+03  0.10561608522E+04 -0.18779920911E+04  0.22354125760E+04  0.89733364540E+02 0.  0.
        254    2    1    2    0    0 -0.58880155253E+03 -0.10561608522E+04 -0.10047039441E+04  0.18119000407E+04  0.90077118519E+03 0.  0.
        -24    2    4    4    0    0 -0.66215966031E+03 -0.49222312533E+03 -0.25504961345E+03  0.86755033491E+03  0.82790442838E+02 0.  0.
         24    2    4    4    0    0  0.73358107784E+02 -0.56393772689E+03 -0.74965433069E+03  0.94434970578E+03  0.80047357889E+02 0.  0.
         11    1    3    3    0    0  0.55052803421E+03  0.10182293880E+04 -0.18126948005E+04  0.21507521110E+04  0.00000000000E+00 0.  1.
        -11    1    3    3    0    0  0.38273518317E+02  0.37931464218E+02 -0.65297290608E+02  0.84660465052E+02  0.00000000000E+00 0. -1.
          2    1    6    6  502    0  0.33529058450E+02 -0.47280278713E+03 -0.63834334404E+03  0.79507791956E+03  0.00000000000E+00 0. -1.
          1    1    5    5  503    0 -0.64234790110E+03 -0.46695550644E+03 -0.22985053827E+03  0.82673426262E+03  0.00000000000E+00 0. -1.
         -2    1    5    5    0  503 -0.19811759207E+02 -0.25267618888E+02 -0.25199075174E+02  0.40816072284E+02  0.00000000000E+00 0.  1.
         -1    1    6    6    0  502  0.39829049335E+02 -0.91134939759E+02 -0.11131098664E+03  0.14927178623E+03  0.00000000000E+00 0.  1.
<mgrwt>
<rscale>  0 0.28409159E+04</rscale>
<asrwt>0</asrwt>
<pdfrwt beam="1">  1        2 0.53307759E+00 0.28409159E+04</pdfrwt>
<pdfrwt beam="2">  1       -2 0.89585891E-01 0.28409159E+04</pdfrwt>
<totfact> 0.79635718E-01</totfact>
</mgrwt>
</event>
<event>
12    1  0.2746676E-007  0.2530633E+04  0.7818608E-02  0.8392153E-01
         -2   -1    0    0    0  501 -0.00000000000E+00  0.00000000000E+00  0.98256838588E+03  0.98256838588E+03  0.00000000000E+00 0.  1.
          2   -1    0    0  501    0  0.00000000000E+00 -0.00000000000E+00 -0.16294290361E+04  0.16294290361E+04  0.00000000000E+00 0. -1.
         23    2    1    2    0    0  0.10058493504E+04  0.45149490468E+03 -0.24987579336E+03  0.11345979038E+04  0.96405013562E+02 0.  0.
        254    2    1    2    0    0 -0.10058493504E+04 -0.45149490468E+03 -0.39698485687E+03  0.14773995181E+04  0.89973984849E+03 0.  0.
        -24    2    4    4    0    0 -0.19583837058E+03 -0.42181375109E+03  0.15145272977E+03  0.49560933006E+03  0.80069786403E+02 0.  0.
         24    2    4    4    0    0 -0.81001097982E+03 -0.29681153594E+02 -0.54843758664E+03  0.98179018808E+03  0.78290667702E+02 0.  0.
         11    1    3    3    0    0  0.47275325651E+03  0.26177645703E+03 -0.13912609372E+03  0.55801310464E+03  0.00000000000E+00 0. -1.
        -11    1    3    3    0    0  0.53309609389E+03  0.18971844765E+03 -0.11074969964E+03  0.57658479920E+03  0.00000000000E+00 0.  1.
          2    1    6    6  502    0 -0.71403909078E+03 -0.58996729436E+00 -0.48182749111E+03  0.86139996657E+03  0.00000000000E+00 0. -1.
          3    1    5    5  503    0 -0.15133909747E+03 -0.35259332874E+03  0.15357302578E+03  0.41329196961E+03  0.00000000000E+00 0. -1.
         -4    1    5    5    0  503 -0.44499273110E+02 -0.69220422349E+02 -0.21202960130E+01  0.82317360458E+02  0.00000000000E+00 0.  1.
         -1    1    6    6    0  502 -0.95971889043E+02 -0.29091186299E+02 -0.66610095530E+02  0.12039022150E+03  0.00000000000E+00 0.  1.
<mgrwt>
<rscale>  0 0.25306327E+04</rscale>
<asrwt>0</asrwt>
<pdfrwt beam="1">  1        2 0.25068139E+00 0.25306327E+04</pdfrwt>
<pdfrwt beam="2">  1       -2 0.15116437E+00 0.25306327E+04</pdfrwt>
<totfact> 0.28042508E+00</totfact>
</mgrwt>
</event>
<event>
12    1  0.2404959E-007  0.3868273E+04  0.7818608E-02  0.8031660E-01
          2   -1    0    0  501    0  0.00000000000E+00  0.00000000000E+00  0.27589442595E+04  0.27589442595E+04  0.00000000000E+00 0. -1.
         -2   -1    0    0    0  501 -0.00000000000E+00 -0.00000000000E+00 -0.13559112736E+04  0.13559112736E+04  0.00000000000E+00 0.  1.
         23    2    1    2    0    0 -0.92177865886E+03  0.19385011229E+03 -0.10028549121E+04  0.13788906116E+04  0.91474488873E+02 0.  0.
        254    2    1    2    0    0  0.92177865886E+03 -0.19385011229E+03  0.24058878980E+04  0.27359649215E+04  0.89997428411E+03 0.  0.
        -24    2    4    4    0    0  0.24123228649E+03  0.23321071674E+03  0.14235707846E+04  0.14645057792E+04  0.75120863304E+02 0.  0.
         24    2    4    4    0    0  0.68054637237E+03 -0.42706082904E+03  0.98231711343E+03  0.12714591423E+04  0.78339789753E+02 0.  0.
         11    1    3    3    0    0 -0.55670020014E+03  0.78815394616E+02 -0.63250351604E+03  0.84627872304E+03  0.00000000000E+00 0. -1.
        -11    1    3    3    0    0 -0.36507845871E+03  0.11503471768E+03 -0.37035139610E+03  0.53261188860E+03  0.00000000000E+00 0.  1.
          2    1    6    6  502    0  0.17506837107E+03 -0.12046167382E+03  0.20915668044E+03  0.29817187389E+03  0.00000000000E+00 0. -1.
          1    1    5    5  503    0  0.28343943806E+02  0.18802040842E+02  0.26542747126E+03  0.26759790431E+03  0.00000000000E+00 0. -1.
         -2    1    5    5    0  503  0.21288834268E+03  0.21440867590E+03  0.11581433133E+04  0.11969078749E+04  0.00000000000E+00 0.  1.
         -1    1    6    6    0  502  0.50547800130E+03 -0.30659915522E+03  0.77316043299E+03  0.97328726845E+03  0.00000000000E+00 0.  1.
<mgrwt>
<rscale>  0 0.38682728E+04</rscale>
<asrwt>0</asrwt>
<pdfrwt beam="1">  1        2 0.42445296E+00 0.38682728E+04</pdfrwt>
<pdfrwt beam="2">  1       -2 0.20860173E+00 0.38682728E+04</pdfrwt>
<totfact> 0.22815563E-01</totfact>
</mgrwt>
</event>
<event>
12    1  0.2404959E-007  0.1399524E+04  0.7818608E-02  0.8954163E-01
          1   -1    0    0  501    0  0.00000000000E+00  0.00000000000E+00  0.69970656905E+03  0.69970656905E+03  0.00000000000E+00 0. -1.
         -1   -1    0    0    0  501 -0.00000000000E+00 -0.00000000000E+00 -0.69981756803E+03  0.69981756803E+03  0.00000000000E+00 0.  1.
         23    2    1    2    0    0  0.62236540771E+02  0.20519403251E+03  0.34084030652E+03  0.41291556249E+03  0.91373788402E+02 0.  0.
        254    2    1    2    0    0 -0.62236540771E+02 -0.20519403251E+03 -0.34095130550E+03  0.98660857460E+03  0.90065015892E+03 0.  0.
        -24    2    4    4    0    0 -0.38936558251E+02 -0.55485043617E+03 -0.16013727727E+03  0.58430974147E+03  0.79992901706E+02 0.  0.
         24    2    4    4    0    0 -0.23299982520E+02  0.34965640366E+03 -0.18081402823E+03  0.40229883313E+03  0.79675269231E+02 0.  0.
         11    1    3    3    0    0  0.36028420362E+02  0.18152941106E+03  0.22244209824E+03  0.28936389067E+03  0.00000000000E+00 0. -1.
        -11    1    3    3    0    0  0.26208120409E+02  0.23664621446E+02  0.11839820828E+03  0.12355167181E+03  0.00000000000E+00 0.  1.
          2    1    6    6  502    0  0.26396364480E+02  0.14547708164E+03 -0.92158678533E+02  0.17422276364E+03  0.00000000000E+00 0. -1.
          1    1    5    5  503    0 -0.18226591163E+02 -0.52143443595E+03 -0.14036317217E+03  0.54030352555E+03  0.00000000000E+00 0. -1.
         -2    1    5    5    0  503 -0.20709967088E+02 -0.33416000223E+02 -0.19774105102E+02  0.44006215927E+02  0.00000000000E+00 0.  1.
         -1    1    6    6    0  502 -0.49696347000E+02  0.20417932201E+03 -0.88655349694E+02  0.22807606949E+03  0.00000000000E+00 0.  1.
<mgrwt>
<rscale>  0 0.13995241E+04</rscale>
<asrwt>0</asrwt>
<pdfrwt beam="1">  1        1 0.10764716E+00 0.13995241E+04</pdfrwt>
<pdfrwt beam="2">  1       -1 0.10766424E+00 0.13995241E+04</pdfrwt>
<totfact> 0.21350528E+01</totfact>
</mgrwt>
</event>
<event>
12    1  0.2404959E-007  0.1585821E+04  0.7818608E-02  0.8829307E-01
         -1   -1    0    0    0  501 -0.00000000000E+00  0.00000000000E+00  0.18820297343E+03  0.18820297343E+03  0.00000000000E+00 0.  1.
          1   -1    0    0  501    0  0.00000000000E+00 -0.00000000000E+00 -0.33405779954E+04  0.33405779954E+04  0.00000000000E+00 0. -1.
         23    2    1    2    0    0 -0.15725488539E+02  0.34551940277E+03 -0.17265114820E+03  0.39697993561E+03  0.90297849498E+02 0.  0.
        254    2    1    2    0    0  0.15725488539E+02 -0.34551940277E+03 -0.29797238738E+04  0.31318010332E+04  0.89988465877E+03 0.  0.
        -24    2    4    4    0    0  0.15839750019E+03 -0.29118176025E+03 -0.32497096448E+03  0.47146630013E+03  0.82448522317E+02 0.  0.
         24    2    4    4    0    0 -0.14267201165E+03 -0.54337642518E+02 -0.26547529093E+04  0.26603347331E+04  0.79749610779E+02 0.  0.
         13    1    3    3    0    0  0.35833576619E+02  0.12396900149E+03 -0.48680625568E+02  0.13792085357E+03  0.00000000000E+00 0. -1.
        -13    1    3    3    0    0 -0.51559065158E+02  0.22155040128E+03 -0.12397052263E+03  0.25905908204E+03  0.00000000000E+00 0.  1.
          4    1    6    6  502    0 -0.62518847989E+02 -0.17227117095E+02 -0.17691125785E+04  0.17703007358E+04  0.00000000000E+00 0. -1.
          3    1    5    5  503    0  0.12744173145E+02 -0.55814020667E+02 -0.98080203330E+02  0.11356647893E+03  0.00000000000E+00 0. -1.
         -4    1    5    5    0  503  0.14565332704E+03 -0.23536773958E+03 -0.22689076115E+03  0.35789982119E+03  0.00000000000E+00 0.  1.
         -3    1    6    6    0  502 -0.80153163658E+02 -0.37110525423E+02 -0.88564033082E+03  0.89003399728E+03  0.00000000000E+00 0.  1.
<mgrwt>
<rscale>  0 0.15858206E+04</rscale>
<asrwt>0</asrwt>
<pdfrwt beam="1">  1        1 0.51393503E+00 0.15858206E+04</pdfrwt>
<pdfrwt beam="2">  1       -1 0.28954306E-01 0.15858206E+04</pdfrwt>
<totfact> 0.34970189E+00</totfact>
</mgrwt>
</event>
<event>
12    1  0.2693781E-007  0.2867836E+04  0.7818608E-02  0.8282512E-01
          1   -1    0    0  501    0  0.00000000000E+00  0.00000000000E+00  0.20717377919E+04  0.20717377919E+04  0.00000000000E+00 0. -1.
         -1   -1    0    0    0  501 -0.00000000000E+00 -0.00000000000E+00 -0.99246191929E+03  0.99246191929E+03  0.00000000000E+00 0.  1.
         23    2    1    2    0    0 -0.61026248746E+03 -0.11133662625E+04  0.74892851014E+03  0.14768317158E+04  0.90184618061E+02 0.  0.
        254    2    1    2    0    0  0.61026248746E+03  0.11133662625E+04  0.33034736246E+03  0.15873679954E+04  0.89364592257E+03 0.  0.
        -24    2    4    4    0    0  0.44021062076E+03  0.88797297697E+03 -0.16859949518E+03  0.10085057996E+04  0.79854615772E+02 0.  0.
         24    2    4    4    0    0  0.17005186670E+03  0.22539328552E+03  0.49894685765E+03  0.57886219578E+03  0.80085606841E+02 0.  0.
         13    1    3    3    0    0 -0.43414967402E+03 -0.79881367305E+03  0.58253518526E+03  0.10797853795E+04  0.00000000000E+00 0. -1.
        -13    1    3    3    0    0 -0.17611281344E+03 -0.31455258945E+03  0.16639332489E+03  0.39704633628E+03  0.00000000000E+00 0.  1.
          2    1    6    6  502    0  0.41244938251E+02  0.44976084642E+02  0.52879069158E+02  0.80747687745E+02  0.00000000000E+00 0. -1.
          1    1    5    5  503    0  0.51627123471E+02  0.99888021802E+02 -0.45282220612E+02  0.12121656768E+03  0.00000000000E+00 0. -1.
         -2    1    5    5    0  503  0.38858349729E+03  0.78808495517E+03 -0.12331727457E+03  0.88728923195E+03  0.00000000000E+00 0.  1.
         -1    1    6    6    0  502  0.12880692845E+03  0.18041720088E+03  0.44606778849E+03  0.49811450804E+03  0.00000000000E+00 0.  1.
<mgrwt>
<rscale>  0 0.28678360E+04</rscale>
<asrwt>0</asrwt>
<pdfrwt beam="1">  1        1 0.31872889E+00 0.28678360E+04</pdfrwt>
<pdfrwt beam="2">  1       -1 0.15268645E+00 0.28678360E+04</pdfrwt>
<totfact> 0.76226752E-01</totfact>
</mgrwt>
</event>
<event>
12    1  0.2404959E-007  0.3157813E+04  0.7818608E-02  0.8200048E-01
          1   -1    0    0  501    0  0.00000000000E+00  0.00000000000E+00  0.21226947121E+04  0.21226947121E+04  0.00000000000E+00 0. -1.
         -1   -1    0    0    0  501 -0.00000000000E+00 -0.00000000000E+00 -0.11744248165E+04  0.11744248165E+04  0.00000000000E+00 0.  1.
         23    2    1    2    0    0 -0.11138468355E+04 -0.91451560669E+03  0.27992437546E+03  0.14713463645E+04  0.97513591252E+02 0.  0.
        254    2    1    2    0    0  0.11138468355E+04  0.91451560669E+03  0.66834552017E+03  0.18257731641E+04  0.89987129342E+03 0.  0.
        -24    2    4    4    0    0  0.35150621584E+03 -0.12431807128E+02  0.49171850124E+03  0.61003410310E+03  0.81506765853E+02 0.  0.
         24    2    4    4    0    0  0.76234061966E+03  0.92694741382E+03  0.17662701892E+03  0.12157390610E+04  0.80184988271E+02 0.  0.
         11    1    3    3    0    0 -0.16673199287E+03 -0.94249590483E+02  0.38365127118E+02  0.19533157894E+03  0.00000000000E+00 0.  1.
        -11    1    3    3    0    0 -0.94711484264E+03 -0.82026601621E+03  0.24155924835E+03  0.12760147856E+04  0.00000000000E+00 0. -1.
          2    1    6    6  502    0  0.24675866641E+03  0.30531214731E+03  0.20024233491E+02  0.39307291521E+03  0.00000000000E+00 0. -1.
          1    1    5    5  503    0  0.29926410025E+03  0.62601423066E+01  0.36743060661E+03  0.47392345559E+03  0.00000000000E+00 0. -1.
         -2    1    5    5    0  503  0.52242115591E+02 -0.18691949435E+02  0.12428789463E+03  0.13611064752E+03  0.00000000000E+00 0.  1.
         -1    1    6    6    0  502  0.51558195325E+03  0.62163526651E+03  0.15660278543E+03  0.82266614583E+03  0.00000000000E+00 0.  1.
<mgrwt>
<rscale>  0 0.31578128E+04</rscale>
<asrwt>0</asrwt>
<pdfrwt beam="1">  1        1 0.32656842E+00 0.31578128E+04</pdfrwt>
<pdfrwt beam="2">  1       -1 0.18068074E+00 0.31578128E+04</pdfrwt>
<totfact> 0.42494684E-01</totfact>
</mgrwt>
</event>
<event>
12    1  0.2404959E-007  0.4001775E+04  0.7818608E-02  0.8004189E-01
         -1   -1    0    0    0  501 -0.00000000000E+00  0.00000000000E+00  0.21486616480E+04  0.21486616480E+04  0.00000000000E+00 0.  1.
          1   -1    0    0  501    0  0.00000000000E+00 -0.00000000000E+00 -0.18632761958E+04  0.18632761958E+04  0.00000000000E+00 0. -1.
         23    2    1    2    0    0 -0.17109589431E+04  0.51271644791E+02 -0.68664979093E+03  0.18466561490E+04  0.92960801671E+02 0.  0.
        254    2    1    2    0    0  0.17109589431E+04 -0.51271644791E+02  0.97203524312E+03  0.21652816947E+04  0.90198836858E+03 0.  0.
        -24    2    4    4    0    0  0.16357365615E+04 -0.37685616288E+02  0.54848268992E+03  0.17275371991E+04  0.80605264724E+02 0.  0.
         24    2    4    4    0    0  0.75222381574E+02 -0.13586028503E+02  0.42355255320E+03  0.43774449562E+03  0.79877977350E+02 0.  0.
         13    1    3    3    0    0 -0.80955052830E+03  0.41354682845E+02 -0.27866301205E+03  0.85716704436E+03  0.00000000000E+00 0.  1.
        -13    1    3    3    0    0 -0.90140841482E+03  0.99169619459E+01 -0.40798677889E+03  0.98948910464E+03  0.00000000000E+00 0. -1.
          2    1    6    6  502    0  0.36550540486E+01 -0.35340223249E+02  0.12350290448E+03  0.12851170458E+03  0.00000000000E+00 0. -1.
          1    1    5    5  503    0  0.13994839327E+04 -0.56132415977E+02  0.48506939027E+03  0.14822275262E+04  0.00000000000E+00 0. -1.
         -2    1    5    5    0  503  0.23625262884E+03  0.18446799689E+02  0.63413299648E+02  0.24530967291E+03  0.00000000000E+00 0.  1.
         -1    1    6    6    0  502  0.71567327525E+02  0.21754194747E+02  0.30004964871E+03  0.30923279103E+03  0.00000000000E+00 0.  1.
<mgrwt>
<rscale>  0 0.40017747E+04</rscale>
<asrwt>0</asrwt>
<pdfrwt beam="1">  1        1 0.28665788E+00 0.40017747E+04</pdfrwt>
<pdfrwt beam="2">  1       -1 0.33056333E+00 0.40017747E+04</pdfrwt>
<totfact> 0.60259189E-02</totfact>
</mgrwt>
</event>
<event>
12    1  0.2404959E-007  0.1313346E+04  0.7818608E-02  0.9019048E-01
          1   -1    0    0  501    0  0.00000000000E+00  0.00000000000E+00  0.27701092194E+04  0.27701092194E+04  0.00000000000E+00 0. -1.
         -1   -1    0    0    0  501 -0.00000000000E+00 -0.00000000000E+00 -0.15566867500E+03  0.15566867500E+03  0.00000000000E+00 0.  1.
         23    2    1    2    0    0  0.21912220226E+03  0.25912191353E+03  0.68398687551E+03  0.76925891037E+03  0.93608331427E+02 0.  0.
        254    2    1    2    0    0 -0.21912220226E+03 -0.25912191353E+03  0.19304536689E+04  0.21565189840E+04  0.89931310187E+03 0.  0.
        -24    2    4    4    0    0  0.30321491869E+03 -0.26215906308E+02  0.11074913134E+04  0.11512070618E+04  0.78192898050E+02 0.  0.
         24    2    4    4    0    0 -0.52233712095E+03 -0.23290600722E+03  0.82296235550E+03  0.10053119222E+04  0.79396134997E+02 0.  0.
         13    1    3    3    0    0  0.18395151510E+03  0.24349736376E+03  0.64933909962E+03  0.71747501166E+03  0.00000000000E+00 0. -1.
        -13    1    3    3    0    0  0.35170687160E+02  0.15624549764E+02  0.34647775896E+02  0.51783898706E+02  0.00000000000E+00 0.  1.
          4    1    6    6  502    0 -0.46470845670E+03 -0.23144793100E+03  0.72635397991E+03  0.89281140149E+03  0.00000000000E+00 0. -1.
          3    1    5    5  503    0  0.25433873300E+03  0.42315399186E+01  0.84415761789E+03  0.88165082707E+03  0.00000000000E+00 0. -1.
         -4    1    5    5    0  503  0.48876185684E+02 -0.30447446227E+02  0.26333369550E+03  0.26955623476E+03  0.00000000000E+00 0.  1.
         -3    1    6    6    0  502 -0.57628664247E+02 -0.14580762153E+01  0.96608375586E+02  0.11250052072E+03  0.00000000000E+00 0.  1.
<mgrwt>
<rscale>  0 0.13133457E+04</rscale>
<asrwt>0</asrwt>
<pdfrwt beam="1">  1        1 0.42617061E+00 0.13133457E+04</pdfrwt>
<pdfrwt beam="2">  1       -1 0.23949029E-01 0.13133457E+04</pdfrwt>
<totfact> 0.13045064E+01</totfact>
</mgrwt>
</event>
<event>
12    1  0.2404959E-007  0.1530352E+04  0.7818608E-02  0.8864517E-01
         -2   -1    0    0    0  501 -0.00000000000E+00  0.00000000000E+00  0.34432517637E+03  0.34432517637E+03  0.00000000000E+00 0.  1.
          2   -1    0    0  501    0  0.00000000000E+00 -0.00000000000E+00 -0.17004102905E+04  0.17004102905E+04  0.00000000000E+00 0. -1.
         23    2    1    2    0    0  0.27734533991E+03  0.30548568921E+03 -0.81147846404E+03  0.91554821337E+03  0.97412984354E+02 0.  0.
        254    2    1    2    0    0 -0.27734533991E+03 -0.30548568921E+03 -0.54460665012E+03  0.11291872535E+04  0.89901362964E+03 0.  0.
        -24    2    4    4    0    0  0.32015788742E+03 -0.15450006482E+03 -0.24350359464E+03  0.43847827182E+03  0.81227158969E+02 0.  0.
         24    2    4    4    0    0 -0.59750322733E+03 -0.15098562439E+03 -0.30110305548E+03  0.69070898170E+03  0.81296260355E+02 0.  0.
         11    1    3    3    0    0  0.65001293050E+02  0.27355149130E+02 -0.96392909973E+02  0.11943644911E+03  0.00000000000E+00 0.  1.
        -11    1    3    3    0    0  0.21234404686E+03  0.27813054008E+03 -0.71508555407E+03  0.79611176427E+03  0.00000000000E+00 0. -1.
          2    1    6    6  502    0 -0.55779066797E+03 -0.12645278885E+03 -0.25903017278E+03  0.62786731678E+03  0.00000000000E+00 0. -1.
          3    1    5    5  503    0  0.22766090336E+03 -0.70860251536E+02 -0.17850883337E+03  0.29785242278E+03  0.00000000000E+00 0. -1.
         -4    1    5    5    0  503  0.92496984060E+02 -0.83639813285E+02 -0.64994761266E+02  0.14062584904E+03  0.00000000000E+00 0.  1.
         -1    1    6    6    0  502 -0.39712559360E+02 -0.24532835546E+02 -0.42072882702E+02  0.62841664918E+02  0.00000000000E+00 0.  1.
<mgrwt>
<rscale>  0 0.15303517E+04</rscale>
<asrwt>0</asrwt>
<pdfrwt beam="1">  1        2 0.26160158E+00 0.15303517E+04</pdfrwt>
<pdfrwt beam="2">  1       -2 0.52973104E-01 0.15303517E+04</pdfrwt>
<totfact> 0.31751245E+01</totfact>
</mgrwt>
</event>
<event>
12    1  0.2404959E-007  0.1388759E+04  0.7818608E-02  0.8961996E-01
          1   -1    0    0  501    0  0.00000000000E+00  0.00000000000E+00  0.13197486607E+04  0.13197486607E+04  0.00000000000E+00 0. -1.
         -1   -1    0    0    0  501 -0.00000000000E+00 -0.00000000000E+00 -0.36534440303E+03  0.36534440303E+03  0.00000000000E+00 0.  1.
         23    2    1    2    0    0 -0.19259266000E+03 -0.26711585193E+03  0.13998843117E+02  0.34208074551E+03  0.91544840399E+02 0.  0.
        254    2    1    2    0    0  0.19259266000E+03  0.26711585193E+03  0.94040541455E+03  0.13430123182E+04  0.90048705273E+03 0.  0.
        -24    2    4    4    0    0  0.30672859615E+03 -0.25486717696E+03  0.50907602198E+03  0.65179069576E+03  0.81443264499E+02 0.  0.
         24    2    4    4    0    0 -0.11413593615E+03  0.52198302890E+03  0.43132939257E+03  0.69122162246E+03  0.79050566673E+02 0.  0.
         13    1    3    3    0    0 -0.12259629387E+03 -0.16874714196E+03 -0.35532621675E+02  0.21158453723E+03  0.00000000000E+00 0.  1.
        -13    1    3    3    0    0 -0.69996366125E+02 -0.98368709972E+02  0.49531464792E+02  0.13049620828E+03  0.00000000000E+00 0. -1.
          4    1    6    6  502    0 -0.95704334540E+02  0.31394330414E+03  0.29893734556E+03  0.44394059787E+03  0.00000000000E+00 0. -1.
          1    1    5    5  503    0  0.17806107064E+03 -0.11132485528E+03  0.21819825332E+03  0.30283567496E+03  0.00000000000E+00 0. -1.
         -2    1    5    5    0  503  0.12866752551E+03 -0.14354232169E+03  0.29087776866E+03  0.34895502079E+03  0.00000000000E+00 0.  1.
         -3    1    6    6    0  502 -0.18431601610E+02  0.20803972475E+03  0.13239204701E+03  0.24728102459E+03  0.00000000000E+00 0.  1.
<mgrwt>
<rscale>  0 0.13887589E+04</rscale>
<asrwt>0</asrwt>
<pdfrwt beam="1">  1        1 0.20303825E+00 0.13887589E+04</pdfrwt>
<pdfrwt beam="2">  1       -1 0.56206832E-01 0.13887589E+04</pdfrwt>
<totfact> 0.27366906E+01</totfact>
</mgrwt>
</event>
<event>
12    1  0.2404959E-007  0.2132901E+04  0.7818608E-02  0.8546887E-01
         -2   -1    0    0    0  501 -0.00000000000E+00  0.00000000000E+00  0.87445114217E+03  0.87445114217E+03  0.00000000000E+00 0.  1.
          2   -1    0    0  501    0  0.00000000000E+00 -0.00000000000E+00 -0.13006065190E+04  0.13006065190E+04  0.00000000000E+00 0. -1.
         23    2    1    2    0    0  0.83727676404E+03 -0.21253262072E+03 -0.31119176744E+03  0.92277038637E+03  0.91991169953E+02 0.  0.
        254    2    1    2    0    0 -0.83727676404E+03  0.21253262072E+03 -0.11496360938E+03  0.12522872748E+04  0.89933547282E+03 0.  0.
        -24    2    4    4    0    0 -0.70437812178E+03  0.53170336541E+03 -0.25880624809E+02  0.88638267457E+03  0.78405559724E+02 0.  0.
         24    2    4    4    0    0 -0.13289864226E+03 -0.31917074469E+03 -0.89082984570E+02  0.36590460023E+03  0.80114823554E+02 0.  0.
         13    1    3    3    0    0  0.68258676956E+03 -0.18446354849E+03 -0.28959058063E+03  0.76407735412E+03  0.00000000000E+00 0. -1.
        -13    1    3    3    0    0  0.15468999449E+03 -0.28069072227E+02 -0.21601186818E+02  0.15869303224E+03  0.00000000000E+00 0.  1.
          2    1    6    6  502    0 -0.38463511706E+02 -0.94729821617E+02 -0.65146055197E+02  0.12123196503E+03  0.00000000000E+00 0. -1.
          1    1    5    5  503    0 -0.27619292990E+03  0.24417081252E+03  0.15351851395E+02  0.36896829072E+03  0.00000000000E+00 0. -1.
         -2    1    5    5    0  503 -0.42818519189E+03  0.28753255289E+03 -0.41232476204E+02  0.51741438385E+03  0.00000000000E+00 0.  1.
         -3    1    6    6    0  502 -0.94435130554E+02 -0.22444092307E+03 -0.23936929373E+02  0.24467263521E+03  0.00000000000E+00 0.  1.
<mgrwt>
<rscale>  0 0.21329012E+04</rscale>
<asrwt>0</asrwt>
<pdfrwt beam="1">  1        2 0.20009331E+00 0.21329012E+04</pdfrwt>
<pdfrwt beam="2">  1       -2 0.13453094E+00 0.21329012E+04</pdfrwt>
<totfact> 0.60437490E+00</totfact>
</mgrwt>
</event>
<event>
12    1  0.2404959E-007  0.2135319E+04  0.7818608E-02  0.8545843E-01
          2   -1    0    0  501    0  0.00000000000E+00  0.00000000000E+00  0.10843337235E+04  0.10843337235E+04  0.00000000000E+00 0.  1.
         -2   -1    0    0    0  501 -0.00000000000E+00 -0.00000000000E+00 -0.10512414058E+04  0.10512414058E+04  0.00000000000E+00 0. -1.
         23    2    1    2    0    0  0.42822234307E+03  0.69937912752E+03  0.31236171235E+03  0.88553833590E+03  0.11875506673E+03 0.  0.
        254    2    1    2    0    0 -0.42822234307E+03 -0.69937912752E+03 -0.27926939458E+03  0.12500367934E+04  0.90116316563E+03 0.  0.
        -24    2    4    4    0    0 -0.66550565496E+03 -0.48564144662E+03 -0.37085552646E+03  0.90700674089E+03  0.79887515075E+02 0.  0.
         24    2    4    4    0    0  0.23728331188E+03 -0.21373768090E+03  0.91586131871E+02  0.34303005255E+03  0.85407441524E+02 0.  0.
         13    1    3    3    0    0  0.14071286615E+03  0.25437100572E+03  0.17074254042E+03  0.33713162765E+03  0.00000000000E+00 0.  1.
        -13    1    3    3    0    0  0.28750947693E+03  0.44500812180E+03  0.14161917193E+03  0.54840670825E+03  0.00000000000E+00 0. -1.
          4    1    6    6  502    0  0.13395921701E+03 -0.14404088081E+03  0.16200029563E+02  0.19737094042E+03  0.00000000000E+00 0. -1.
          3    1    5    5  503    0 -0.18063647883E+03 -0.98349483601E+02 -0.11619241233E+03  0.23622623710E+03  0.00000000000E+00 0. -1.
         -4    1    5    5    0  503 -0.48486917612E+03 -0.38729196302E+03 -0.25466311412E+03  0.67078050379E+03  0.00000000000E+00 0.  1.
         -3    1    6    6    0  502  0.10332409487E+03 -0.69696800089E+02  0.75386102308E+02  0.14565911213E+03  0.00000000000E+00 0.  1.
<mgrwt>
<rscale>  0 0.21353187E+04</rscale>
<asrwt>0</asrwt>
<pdfrwt beam="1">  1        2 0.16682057E+00 0.21353187E+04</pdfrwt>
<pdfrwt beam="2">  1       -2 0.16172945E+00 0.21353187E+04</pdfrwt>
<totfact> 0.50071973E+00</totfact>
</mgrwt>
</event>
<event>
12    1  0.2404959E-007  0.1076605E+04  0.7818608E-02  0.9228299E-01
          2   -1    0    0  501    0  0.00000000000E+00  0.00000000000E+00  0.10489159875E+04  0.10489159875E+04  0.00000000000E+00 0. -1.
         -2   -1    0    0    0  501 -0.00000000000E+00 -0.00000000000E+00 -0.27625617834E+03  0.27625617834E+03  0.00000000000E+00 0.  1.
         23    2    1    2    0    0  0.71444636557E+02 -0.39763721882E+02 -0.18946848906E+02  0.12480073376E+03  0.92362061437E+02 0.  0.
        254    2    1    2    0    0 -0.71444636557E+02  0.39763721882E+02  0.79160665810E+03  0.12003714321E+04  0.89864619523E+03 0.  0.
        -24    2    4    4    0    0 -0.39876255296E+03 -0.17888900458E+03  0.20448709142E+03  0.48896689730E+03  0.79125258271E+02 0.  0.
         24    2    4    4    0    0  0.32731791640E+03  0.21865272646E+03  0.58711956668E+03  0.71140453481E+03  0.80255799676E+02 0.  0.
         13    1    3    3    0    0 -0.42667462207E+01 -0.15298212670E+02  0.28163975488E+02  0.32333418463E+02  0.00000000000E+00 0.  1.
        -13    1    3    3    0    0  0.75711382777E+02 -0.24465509211E+02 -0.47110824394E+02  0.92467315296E+02  0.00000000000E+00 0. -1.
          2    1    6    6  502    0  0.33031264298E+03  0.21326211734E+03  0.58506825697E+03  0.70490569449E+03  0.00000000000E+00 0. -1.
          3    1    5    5  503    0 -0.28479275027E+03 -0.16139653150E+03  0.16855416548E+03  0.36819323417E+03  0.00000000000E+00 0. -1.
         -4    1    5    5    0  503 -0.11396980269E+03 -0.17492473078E+02  0.35932925936E+02  0.12077366313E+03  0.00000000000E+00 0.  1.
         -1    1    6    6    0  502 -0.29947265775E+01  0.53906091254E+01  0.20513097069E+01  0.64988403220E+01  0.00000000000E+00 0.  1.
<mgrwt>
<rscale>  0 0.10766049E+04</rscale>
<asrwt>0</asrwt>
<pdfrwt beam="1">  1        2 0.16137169E+00 0.10766049E+04</pdfrwt>
<pdfrwt beam="2">  1       -2 0.42500951E-01 0.10766049E+04</pdfrwt>
<totfact> 0.12224589E+02</totfact>
</mgrwt>
</event>
<event>
12    1  0.2404959E-007  0.1624222E+04  0.7818608E-02  0.8805804E-01
          1   -1    0    0  501    0  0.00000000000E+00  0.00000000000E+00  0.51965164785E+03  0.51965164785E+03  0.00000000000E+00 0. -1.
         -1   -1    0    0    0  501 -0.00000000000E+00 -0.00000000000E+00 -0.12691662723E+04  0.12691662723E+04  0.00000000000E+00 0.  1.
         23    2    1    2    0    0  0.45343636419E+03  0.11949125255E+03 -0.59437816647E+03  0.76261791483E+03  0.91749569158E+02 0.  0.
        254    2    1    2    0    0 -0.45343636419E+03 -0.11949125255E+03 -0.15513645793E+03  0.10262000053E+04  0.89952011341E+03 0.  0.
        -24    2    4    4    0    0 -0.71787447071E+03 -0.39119498697E+02 -0.72550599760E+02  0.72692884409E+03  0.79296052692E+02 0.  0.
         24    2    4    4    0    0  0.26443810652E+03 -0.80371753857E+02 -0.82585858168E+02  0.29927116117E+03  0.79722474503E+02 0.  0.
         13    1    3    3    0    0 -0.30000766030E+01  0.68686902313E+00 -0.16098299324E+02  0.16389859359E+02  0.00000000000E+00 0. -1.
        -13    1    3    3    0    0  0.45643644079E+03  0.11880438353E+03 -0.57827986715E+03  0.74622805547E+03  0.00000000000E+00 0.  1.
          4    1    6    6  502    0  0.26742187680E+03 -0.84912148771E+02 -0.85217038175E+02  0.29323450819E+03  0.00000000000E+00 0. -1.
          3    1    5    5  503    0 -0.63025349469E+03 -0.55841740751E+02 -0.78259347217E+02  0.63754395379E+03  0.00000000000E+00 0. -1.
         -4    1    5    5    0  503 -0.87620976017E+02  0.16722242054E+02  0.57087474567E+01  0.89384890306E+02  0.00000000000E+00 0.  1.
         -1    1    6    6    0  502 -0.29837702722E+01  0.45403949144E+01  0.26311800069E+01  0.60366529836E+01  0.00000000000E+00 0.  1.
<mgrwt>
<rscale>  0 0.16242221E+04</rscale>
<asrwt>0</asrwt>
<pdfrwt beam="1">  1        1 0.79946408E-01 0.16242221E+04</pdfrwt>
<pdfrwt beam="2">  1       -1 0.19525635E+00 0.16242221E+04</pdfrwt>
<totfact> 0.65301598E+00</totfact>
</mgrwt>
</event>
<event>
12    1  0.2404959E-007  0.1688239E+04  0.7818608E-02  0.8768101E-01
          2   -1    0    0  501    0  0.00000000000E+00  0.00000000000E+00  0.57530665806E+03  0.57530665806E+03  0.00000000000E+00 0. -1.
         -2   -1    0    0    0  501 -0.00000000000E+00 -0.00000000000E+00 -0.12385358167E+04  0.12385358167E+04  0.00000000000E+00 0.  1.
         23    2    1    2    0    0  0.31149607578E+03  0.51298279806E+03 -0.23785881399E+03  0.65227420018E+03  0.93293410815E+02 0.  0.
        254    2    1    2    0    0 -0.31149607578E+03 -0.51298279806E+03 -0.42537034468E+03  0.11615682746E+04  0.89895482096E+03 0.  0.
        -24    2    4    4    0    0  0.10979181539E+03 -0.55130554082E+03 -0.16907366857E+02  0.56816015316E+03  0.80796401671E+02 0.  0.
         24    2    4    4    0    0 -0.42128789117E+03  0.38322742761E+02 -0.40846297783E+03  0.59340812146E+03  0.79618305042E+02 0.  0.
         13    1    3    3    0    0  0.77441893476E+02  0.19452305198E+03 -0.53092017737E+02  0.21599821055E+03  0.00000000000E+00 0.  1.
        -13    1    3    3    0    0  0.23405418230E+03  0.31845974608E+03 -0.18476679625E+03  0.43627598963E+03  0.00000000000E+00 0. -1.
          2    1    6    6  502    0 -0.29234122342E+03  0.14250044633E+02 -0.32763592038E+03  0.43933102668E+03  0.00000000000E+00 0. -1.
          3    1    5    5  503    0  0.48005743901E+02 -0.39003095633E+03  0.11458570250E+02  0.39314119242E+03  0.00000000000E+00 0. -1.
         -4    1    5    5    0  503  0.61786071491E+02 -0.16127458449E+03 -0.28365937107E+02  0.17501896074E+03  0.00000000000E+00 0.  1.
         -3    1    6    6    0  502 -0.12894666775E+03  0.24072698128E+02 -0.80827057447E+02  0.15407709477E+03  0.00000000000E+00 0.  1.
<mgrwt>
<rscale>  0 0.16882392E+04</rscale>
<asrwt>0</asrwt>
<pdfrwt beam="1">  1        2 0.88508717E-01 0.16882392E+04</pdfrwt>
<pdfrwt beam="2">  1       -2 0.19054397E+00 0.16882392E+04</pdfrwt>
<totfact> 0.76306319E+00</totfact>
</mgrwt>
</event>
<event>
12    1  0.2404959E-007  0.1843666E+04  0.7818608E-02  0.8683417E-01
          1   -1    0    0  501    0  0.00000000000E+00  0.00000000000E+00  0.81396341577E+03  0.81396341577E+03  0.00000000000E+00 0. -1.
         -1   -1    0    0    0  501 -0.00000000000E+00 -0.00000000000E+00 -0.10439978700E+04  0.10439978700E+04  0.00000000000E+00 0.  1.
         23    2    1    2    0    0 -0.18790706768E+03  0.63737435770E+03  0.14662062612E+03  0.68479006684E+03  0.76711731177E+02 0.  0.
        254    2    1    2    0    0  0.18790706768E+03 -0.63737435770E+03 -0.37665508036E+03  0.11731712189E+04  0.89045298665E+03 0.  0.
        -24    2    4    4    0    0  0.15016130519E+02 -0.17849184351E+02 -0.50666560274E+03  0.51205896881E+03  0.70358204756E+02 0.  0.
         24    2    4    4    0    0  0.17289093716E+03 -0.61952517335E+03  0.13001052238E+03  0.66111225012E+03  0.80398723659E+02 0.  0.
         13    1    3    3    0    0  0.43250177377E+01  0.29361473553E+01  0.42872432123E+01  0.67607095844E+01  0.00000000000E+00 0. -1.
        -13    1    3    3    0    0 -0.19223208541E+03  0.63443821035E+03  0.14233338291E+03  0.67802935726E+03  0.00000000000E+00 0.  1.
          4    1    6    6  502    0  0.15920392393E+03 -0.43586163376E+03  0.93916314723E+02  0.47343587459E+03  0.00000000000E+00 0. -1.
          3    1    5    5  503    0  0.22301853787E+02  0.19462736407E+02 -0.33131450835E+03  0.33263414472E+03  0.00000000000E+00 0. -1.
         -4    1    5    5    0  503 -0.72857232672E+01 -0.37311920758E+02 -0.17535109439E+03  0.17942482409E+03  0.00000000000E+00 0.  1.
         -3    1    6    6    0  502  0.13687013227E+02 -0.18366353960E+03  0.36094207658E+02  0.18767637554E+03  0.00000000000E+00 0.  1.
<mgrwt>
<rscale>  0 0.18436660E+04</rscale>
<asrwt>0</asrwt>
<pdfrwt beam="1">  1        1 0.12522514E+00 0.18436660E+04</pdfrwt>
<pdfrwt beam="2">  1       -1 0.16061506E+00 0.18436660E+04</pdfrwt>
<totfact> 0.58439370E+00</totfact>
</mgrwt>
</event>
<event>
12    1  0.2404959E-007  0.1398268E+04  0.7818608E-02  0.8955073E-01
         -2   -1    0    0    0  501 -0.00000000000E+00  0.00000000000E+00  0.77828360039E+03  0.77828360039E+03  0.00000000000E+00 0.  1.
          2   -1    0    0  501    0  0.00000000000E+00 -0.00000000000E+00 -0.62803376500E+03  0.62803376500E+03  0.00000000000E+00 0. -1.
         23    2    1    2    0    0  0.54701249817E+02  0.39168544945E+03 -0.26130890494E+02  0.40695600202E+03  0.92307345832E+02 0.  0.
        254    2    1    2    0    0 -0.54701249817E+02 -0.39168544945E+03  0.17638072588E+03  0.99936136338E+03  0.90066822754E+03 0.  0.
        -24    2    4    4    0    0  0.20412553889E+03 -0.31432401139E+03 -0.27257312570E+03  0.47022329213E+03  0.79668160793E+02 0.  0.
         24    2    4    4    0    0 -0.25882678871E+03 -0.77361438065E+02  0.44895385159E+03  0.52913807125E+03  0.73833860370E+02 0.  0.
         11    1    3    3    0    0  0.58335716040E+02  0.14689206418E+03 -0.35371358554E+02  0.16196131418E+03  0.00000000000E+00 0. -1.
        -11    1    3    3    0    0 -0.36344662223E+01  0.24479338527E+03  0.92404680606E+01  0.24499468784E+03  0.00000000000E+00 0.  1.
          4    1    6    6  502    0 -0.23594001024E+03 -0.67681630198E+02  0.35253749101E+03  0.42957091856E+03  0.00000000000E+00 0. -1.
          1    1    5    5  503    0  0.14339655550E+03 -0.25724946322E+03 -0.17782142337E+03  0.34403534276E+03  0.00000000000E+00 0. -1.
         -2    1    5    5    0  503  0.60728983391E+02 -0.57074548168E+02 -0.94751702332E+02  0.12618794937E+03  0.00000000000E+00 0.  1.
         -3    1    6    6    0  502 -0.22886778465E+02 -0.96798078670E+01  0.96416360573E+02  0.99567152690E+02  0.00000000000E+00 0.  1.
<mgrwt>
<rscale>  0 0.13982680E+04</rscale>
<asrwt>0</asrwt>
<pdfrwt beam="1">  1        2 0.96620579E-01 0.13982680E+04</pdfrwt>
<pdfrwt beam="2">  1       -2 0.11973594E+00 0.13982680E+04</pdfrwt>
<totfact> 0.24376048E+01</totfact>
</mgrwt>
</event>
<event>
12    1  0.2404959E-007  0.2908155E+04  0.7818608E-02  0.8270455E-01
         -1   -1    0    0    0  501 -0.00000000000E+00  0.00000000000E+00  0.89573377655E+03  0.89573377655E+03  0.00000000000E+00 0.  1.
          1   -1    0    0  501    0  0.00000000000E+00 -0.00000000000E+00 -0.23604572598E+04  0.23604572598E+04  0.00000000000E+00 0. -1.
         23    2    1    2    0    0  0.60114165743E+03  0.93875375454E+03  0.11200953097E+03  0.11240803765E+04  0.91545911266E+02 0.  0.
        254    2    1    2    0    0 -0.60114165743E+03 -0.93875375454E+03 -0.15767330142E+04  0.21321106598E+04  0.90397951508E+03 0.  0.
        -24    2    4    4    0    0 -0.64771816587E+03 -0.57778240583E+03 -0.15234981981E+04  0.17553640226E+04  0.82974460660E+02 0.  0.
         24    2    4    4    0    0  0.46576508446E+02 -0.36097134871E+03 -0.53234816075E+02  0.37674663726E+03  0.81451809759E+02 0.  0.
         11    1    3    3    0    0  0.20118804924E+03  0.27329734055E+03 -0.19025554257E+01  0.33936954375E+03  0.00000000000E+00 0. -1.
        -11    1    3    3    0    0  0.39995360819E+03  0.66545641399E+03  0.11391208640E+03  0.78471083276E+03  0.00000000000E+00 0.  1.
          2    1    6    6  502    0  0.49146483293E+02 -0.15252546746E+03 -0.51357293238E+02  0.16827645888E+03  0.00000000000E+00 0. -1.
          3    1    5    5  503    0 -0.40566033617E+03 -0.31263053681E+03 -0.93131662560E+03  0.10628493863E+04  0.00000000000E+00 0. -1.
         -4    1    5    5    0  503 -0.24205782970E+03 -0.26515186902E+03 -0.59218157252E+03  0.69251463623E+03  0.00000000000E+00 0.  1.
         -1    1    6    6    0  502 -0.25699748470E+01 -0.20844588125E+03 -0.18775228364E+01  0.20847017838E+03  0.00000000000E+00 0.  1.
<mgrwt>
<rscale>  0 0.29081549E+04</rscale>
<asrwt>0</asrwt>
<pdfrwt beam="1">  1        1 0.36314726E+00 0.29081549E+04</pdfrwt>
<pdfrwt beam="2">  1       -1 0.13780520E+00 0.29081549E+04</pdfrwt>
<totfact> 0.63357507E-01</totfact>
</mgrwt>
</event>
<event>
12    1  0.2404959E-007  0.1672765E+04  0.7818608E-02  0.8777052E-01
          2   -1    0    0  501    0  0.00000000000E+00  0.00000000000E+00  0.18543232629E+04  0.18543232629E+04  0.00000000000E+00 0. -1.
         -2   -1    0    0    0  501 -0.00000000000E+00 -0.00000000000E+00 -0.37724573511E+03  0.37724573511E+03  0.00000000000E+00 0.  1.
         23    2    1    2    0    0 -0.38520345814E+03  0.43251652571E+03  0.67084882976E+03  0.89136174550E+03  0.95054509480E+02 0.  0.
        254    2    1    2    0    0  0.38520345814E+03 -0.43251652571E+03  0.80622869802E+03  0.13402072525E+04  0.90038798135E+03 0.  0.
        -24    2    4    4    0    0  0.31752505251E+03  0.89005089249E+02 -0.39019501346E+02  0.34135378544E+03  0.79093744802E+02 0.  0.
         24    2    4    4    0    0  0.67678405633E+02 -0.52152161495E+03  0.84524819937E+03  0.99885346706E+03  0.81844783925E+02 0.  0.
         13    1    3    3    0    0 -0.16707576029E+02  0.29839428844E+02  0.79840135107E+02  0.86856098142E+02  0.00000000000E+00 0. -1.
        -13    1    3    3    0    0 -0.36849588212E+03  0.40267709686E+03  0.59100869465E+03  0.80450564735E+03  0.00000000000E+00 0.  1.
          4    1    6    6  502    0  0.53446555364E+02 -0.51263251475E+03  0.82053027758E+03  0.96897810393E+03  0.00000000000E+00 0. -1.
          3    1    5    5  503    0  0.16499616480E+03  0.13633453105E+02  0.49370563350E+01  0.16563206201E+03  0.00000000000E+00 0. -1.
         -4    1    5    5    0  503  0.15252888771E+03  0.75371636144E+02 -0.43956557681E+02  0.17572172343E+03  0.00000000000E+00 0.  1.
         -3    1    6    6    0  502  0.14231850269E+02 -0.88891002007E+01  0.24717921788E+02  0.29875363127E+02  0.00000000000E+00 0.  1.
<mgrwt>
<rscale>  0 0.16727648E+04</rscale>
<asrwt>0</asrwt>
<pdfrwt beam="1">  1        2 0.28528050E+00 0.16727648E+04</pdfrwt>
<pdfrwt beam="2">  1       -2 0.58037807E-01 0.16727648E+04</pdfrwt>
<totfact> 0.21325049E+01</totfact>
</mgrwt>
</event>
<event>
12    1  0.2404959E-007  0.1985340E+04  0.7818608E-02  0.8613505E-01
         -1   -1    0    0    0  501 -0.00000000000E+00  0.00000000000E+00  0.31115692285E+03  0.31115692285E+03  0.00000000000E+00 0.  1.
          1   -1    0    0  501    0  0.00000000000E+00 -0.00000000000E+00 -0.31668721049E+04  0.31668721049E+04  0.00000000000E+00 0. -1.
         23    2    1    2    0    0  0.39444845205E+03 -0.31972261047E+03 -0.21859705659E+04  0.22460641756E+04  0.92330044837E+02 0.  0.
        254    2    1    2    0    0 -0.39444845205E+03  0.31972261047E+03 -0.66974461615E+03  0.12319648521E+04  0.90075935575E+03 0.  0.
        -24    2    4    4    0    0  0.20247999072E+02  0.54468197230E+03 -0.29928469592E+03  0.62686435747E+03  0.79367254184E+02 0.  0.
         24    2    4    4    0    0 -0.41469645112E+03 -0.22495936183E+03 -0.37045992023E+03  0.60510049463E+03  0.79537381496E+02 0.  0.
         13    1    3    3    0    0  0.28657017623E+03 -0.25037556275E+03 -0.17838897224E+04  0.18240265705E+04  0.00000000000E+00 0. -1.
        -13    1    3    3    0    0  0.10787827582E+03 -0.69347047716E+02 -0.40208084348E+03  0.42203760510E+03  0.00000000000E+00 0.  1.
          4    1    6    6  502    0 -0.37118639009E+03 -0.20121063830E+03 -0.29594833346E+03  0.51560689798E+03  0.00000000000E+00 0. -1.
          3    1    5    5  503    0 -0.35551501461E+01  0.26182140063E+03 -0.18623820749E+03  0.32132188667E+03  0.00000000000E+00 0. -1.
         -4    1    5    5    0  503  0.23803149218E+02  0.28286057167E+03 -0.11304648842E+03  0.30554247080E+03  0.00000000000E+00 0.  1.
         -3    1    6    6    0  502 -0.43510061025E+02 -0.23748723528E+02 -0.74511586769E+02  0.89493596656E+02  0.00000000000E+00 0.  1.
<mgrwt>
<rscale>  0 0.19853405E+04</rscale>
<asrwt>0</asrwt>
<pdfrwt beam="1">  1        1 0.48721111E+00 0.19853405E+04</pdfrwt>
<pdfrwt beam="2">  1       -1 0.47870294E-01 0.19853405E+04</pdfrwt>
<totfact> 0.18274535E+00</totfact>
</mgrwt>
</event>
<event>
12    1  0.2404959E-007  0.1558621E+04  0.7818608E-02  0.8846380E-01
         -3   -1    0    0    0  501 -0.00000000000E+00  0.00000000000E+00  0.16489668810E+04  0.16489668810E+04  0.00000000000E+00 0.  1.
          3   -1    0    0  501    0  0.00000000000E+00 -0.00000000000E+00 -0.36830626595E+03  0.36830626595E+03  0.00000000000E+00 0. -1.
         23    2    1    2    0    0 -0.34872662382E+03 -0.33797024575E+03  0.64962071072E+03  0.81632517656E+03  0.92442311379E+02 0.  0.
        254    2    1    2    0    0  0.34872662382E+03  0.33797024575E+03  0.63103990439E+03  0.12009479704E+04  0.89901641897E+03 0.  0.
        -24    2    4    4    0    0  0.37650427588E+03  0.58104078733E+03  0.24644038091E+03  0.73925640202E+03  0.80020624190E+02 0.  0.
         24    2    4    4    0    0 -0.27777652062E+02 -0.24307054158E+03  0.38459952348E+03  0.46169156841E+03  0.73399078619E+02 0.  0.
         11    1    3    3    0    0 -0.26732886421E+03 -0.26751170897E+03  0.56258954894E+03  0.67788954606E+03  0.00000000000E+00 0.  1.
        -11    1    3    3    0    0 -0.81397759610E+02 -0.70458536779E+02  0.87031161773E+02  0.13843563051E+03  0.00000000000E+00 0. -1.
          4    1    6    6  502    0 -0.31586634831E+02 -0.11444486270E+03  0.12768948991E+03  0.17435580842E+03  0.00000000000E+00 0. -1.
          1    1    5    5  503    0  0.12624374533E+03  0.23396768080E+03  0.12925323834E+03  0.29560913131E+03  0.00000000000E+00 0. -1.
         -2    1    5    5    0  503  0.25026053054E+03  0.34707310653E+03  0.11718714256E+03  0.44364727071E+03  0.00000000000E+00 0.  1.
         -3    1    6    6    0  502  0.38089827687E+01 -0.12862567888E+03  0.25691003357E+03  0.28733575999E+03  0.00000000000E+00 0.  1.
<mgrwt>
<rscale>  0 0.15586210E+04</rscale>
<asrwt>0</asrwt>
<pdfrwt beam="1">  1        3 0.56662503E-01 0.15586210E+04</pdfrwt>
<pdfrwt beam="2">  1       -3 0.25368721E+00 0.15586210E+04</pdfrwt>
<totfact> 0.53799646E-01</totfact>
</mgrwt>
</event>
<event>
12    1  0.2404959E-007  0.4038406E+04  0.7818608E-02  0.7996843E-01
         -2   -1    0    0    0  501 -0.00000000000E+00  0.00000000000E+00  0.15148513544E+04  0.15148513544E+04  0.00000000000E+00 0.  1.
          2   -1    0    0  501    0  0.00000000000E+00 -0.00000000000E+00 -0.26914722336E+04  0.26914722336E+04  0.00000000000E+00 0. -1.
         23    2    1    2    0    0 -0.13059288570E+04 -0.13855759749E+04 -0.31827390942E+03  0.19323230615E+04  0.85458590069E+02 0.  0.
        254    2    1    2    0    0  0.13059288570E+04  0.13855759749E+04 -0.85834696969E+03  0.22740005265E+04  0.89947090680E+03 0.  0.
        -24    2    4    4    0    0  0.12257873794E+04  0.72227038060E+03 -0.67617015613E+03  0.15773083298E+04  0.80413215067E+02 0.  0.
         24    2    4    4    0    0  0.80141477639E+02  0.66330559435E+03 -0.18217681356E+03  0.69669219667E+03  0.76122648207E+02 0.  0.
         13    1    3    3    0    0 -0.89969416692E+03 -0.10092012924E+04 -0.23595266488E+03  0.13724469034E+04  0.00000000000E+00 0. -1.
        -13    1    3    3    0    0 -0.40623469011E+03 -0.37637468250E+03 -0.82321244535E+02  0.55987615807E+03  0.00000000000E+00 0.  1.
          4    1    6    6  502    0  0.53801255213E+01  0.35916545400E+03 -0.10165060120E+03  0.37331168455E+03  0.00000000000E+00 0. -1.
          1    1    5    5  503    0  0.10273377627E+04  0.58440775719E+03 -0.53412803052E+03  0.12970150571E+04  0.00000000000E+00 0. -1.
         -2    1    5    5    0  503  0.19844961671E+03  0.13786262341E+03 -0.14204212561E+03  0.28029327276E+03  0.00000000000E+00 0.  1.
         -3    1    6    6    0  502  0.74761352117E+02  0.30414014035E+03 -0.80526212356E+02  0.32338051212E+03  0.00000000000E+00 0.  1.
<mgrwt>
<rscale>  0 0.40384058E+04</rscale>
<asrwt>0</asrwt>
<pdfrwt beam="1">  1        2 0.41407265E+00 0.40384058E+04</pdfrwt>
<pdfrwt beam="2">  1       -2 0.23305406E+00 0.40384058E+04</pdfrwt>
<totfact> 0.17286116E-01</totfact>
</mgrwt>
</event>
<event>
12    1  0.2404959E-007  0.4924429E+04  0.7818608E-02  0.7840272E-01
         -1   -1    0    0    0  501 -0.00000000000E+00  0.00000000000E+00  0.26201659860E+04  0.26201659860E+04  0.00000000000E+00 0.  1.
          1   -1    0    0  501    0  0.00000000000E+00 -0.00000000000E+00 -0.23137850555E+04  0.23137850555E+04  0.00000000000E+00 0. -1.
         23    2    1    2    0    0  0.21964999961E+04  0.84671355994E+03  0.49368823140E+03  0.24070109202E+04  0.91855402048E+02 0.  0.
        254    2    1    2    0    0 -0.21964999961E+04 -0.84671355994E+03 -0.18730730091E+03  0.25269401213E+04  0.89933657004E+03 0.  0.
        -24    2    4    4    0    0 -0.54536293311E+03  0.41465428528E+02  0.23966168005E+03  0.60242995688E+03  0.79649365919E+02 0.  0.
         24    2    4    4    0    0 -0.16511370630E+04 -0.88817898847E+03 -0.42696898097E+03  0.19245101644E+04  0.79506892133E+02 0.  0.
         13    1    3    3    0    0  0.44667336259E+03  0.19266705467E+03  0.13476470291E+03  0.50477639797E+03  0.00000000000E+00 0. -1.
        -13    1    3    3    0    0  0.17498266335E+04  0.65404650527E+03  0.35892352849E+03  0.19022345222E+04  0.00000000000E+00 0.  1.
          4    1    6    6  502    0 -0.12488500811E+04 -0.65813704964E+03 -0.28832407800E+03  0.14407989711E+04  0.00000000000E+00 0. -1.
          1    1    5    5  503    0 -0.12905356428E+02 -0.77974699157E+01 -0.27338424919E+01  0.15323924315E+02  0.00000000000E+00 0. -1.
         -2    1    5    5    0  503 -0.53245757668E+03  0.49262898444E+02  0.24239552255E+03  0.58710603257E+03  0.00000000000E+00 0.  1.
         -3    1    6    6    0  502 -0.40228698184E+03 -0.23004193883E+03 -0.13864490296E+03  0.48371119327E+03  0.00000000000E+00 0.  1.
<mgrwt>
<rscale>  0 0.49244293E+04</rscale>
<asrwt>0</asrwt>
<pdfrwt beam="1">  1        1 0.35596693E+00 0.49244293E+04</pdfrwt>
<pdfrwt beam="2">  1       -1 0.40310246E+00 0.49244293E+04</pdfrwt>
<totfact> 0.90140256E-03</totfact>
</mgrwt>
</event>
<event>
12    1  0.2404959E-007  0.2104241E+04  0.7818608E-02  0.8559377E-01
         -2   -1    0    0    0  501 -0.00000000000E+00  0.00000000000E+00  0.76009629935E+03  0.76009629935E+03  0.00000000000E+00 0.  1.
          2   -1    0    0  501    0  0.00000000000E+00 -0.00000000000E+00 -0.14563390060E+04  0.14563390060E+04  0.00000000000E+00 0. -1.
         23    2    1    2    0    0 -0.83061879942E+03 -0.53874472379E+02 -0.49992522798E+03  0.97505559121E+03  0.89320342906E+02 0.  0.
        254    2    1    2    0    0  0.83061879942E+03  0.53874472379E+02 -0.19631747869E+03  0.12413797142E+04  0.89980719799E+03 0.  0.
        -24    2    4    4    0    0  0.35437648012E+03  0.25637020063E+03  0.28695296367E+03  0.52883597127E+03  0.77570043931E+02 0.  0.
         24    2    4    4    0    0  0.47624231930E+03 -0.20249572825E+03 -0.48327044236E+03  0.71254374289E+03  0.79730787173E+02 0.  0.
         11    1    3    3    0    0 -0.18434539124E+03 -0.19424231393E+02 -0.15532608145E+03  0.24184026880E+03  0.00000000000E+00 0. -1.
        -11    1    3    3    0    0 -0.64627340818E+03 -0.34450240986E+02 -0.34459914653E+03  0.73321532241E+03  0.00000000000E+00 0.  1.
          4    1    6    6  502    0  0.31585192566E+03 -0.14882894517E+03 -0.37144122818E+03  0.50978532723E+03  0.00000000000E+00 0. -1.
          1    1    5    5  503    0  0.24733995030E+03  0.17684751275E+03  0.24035027213E+03  0.38758269711E+03  0.00000000000E+00 0. -1.
         -4    1    5    5    0  503  0.10703652982E+03  0.79522687875E+02  0.46602691531E+02  0.14125327416E+03  0.00000000000E+00 0.  1.
         -3    1    6    6    0  502  0.16039039365E+03 -0.53666783082E+02 -0.11182921417E+03  0.20275841566E+03  0.00000000000E+00 0.  1.
<mgrwt>
<rscale>  0 0.21042413E+04</rscale>
<asrwt>0</asrwt>
<pdfrwt beam="1">  1        2 0.22405215E+00 0.21042413E+04</pdfrwt>
<pdfrwt beam="2">  1       -2 0.11693789E+00 0.21042413E+04</pdfrwt>
<totfact> 0.70082209E+00</totfact>
</mgrwt>
</event>
<event>
12    1  0.2404959E-007  0.1832062E+04  0.7818608E-02  0.8689433E-01
          1   -1    0    0  501    0  0.00000000000E+00  0.00000000000E+00  0.11169490023E+04  0.11169490023E+04  0.00000000000E+00 0. -1.
         -1   -1    0    0    0  501 -0.00000000000E+00 -0.00000000000E+00 -0.75125398964E+03  0.75125398964E+03  0.00000000000E+00 0.  1.
         23    2    1    2    0    0 -0.71657590013E+02  0.50362554659E+03 -0.33807127801E+03  0.61804627021E+03  0.94421934523E+02 0.  0.
        254    2    1    2    0    0  0.71657590013E+02 -0.50362554659E+03  0.70376629063E+03  0.12501567217E+04  0.89935050763E+03 0.  0.
        -24    2    4    4    0    0 -0.33325997090E+03 -0.46300453048E+03  0.22924219301E+03  0.61988140516E+03  0.79155353347E+02 0.  0.
         24    2    4    4    0    0  0.40491756092E+03 -0.40621016118E+02  0.47452409762E+03  0.63027531652E+03  0.80408689283E+02 0.  0.
         13    1    3    3    0    0 -0.93703372249E+02  0.43470385695E+03 -0.28286065683E+03  0.52702743420E+03  0.00000000000E+00 0.  1.
        -13    1    3    3    0    0  0.22045782235E+02  0.68921689648E+02 -0.55210621183E+02  0.91018836016E+02  0.00000000000E+00 0. -1.
          2    1    6    6  502    0  0.25288632831E+03  0.13983210537E+02  0.28816187736E+03  0.38364605144E+03  0.00000000000E+00 0. -1.
          1    1    5    5  503    0 -0.23274038441E+03 -0.35794727555E+03  0.20038856519E+03  0.47164596433E+03  0.00000000000E+00 0. -1.
         -2    1    5    5    0  503 -0.10051958649E+03 -0.10505725492E+03  0.28853627824E+02  0.14823544083E+03  0.00000000000E+00 0.  1.
         -1    1    6    6    0  502  0.15203123261E+03 -0.54604226655E+02  0.18636222025E+03  0.24662926508E+03  0.00000000000E+00 0.  1.
<mgrwt>
<rscale>  0 0.18320616E+04</rscale>
<asrwt>0</asrwt>
<pdfrwt beam="1">  1        1 0.17183831E+00 0.18320616E+04</pdfrwt>
<pdfrwt beam="2">  1       -1 0.11557754E+00 0.18320616E+04</pdfrwt>
<totfact> 0.78585148E+00</totfact>
</mgrwt>
</event>
<event>
12    1  0.2404959E-007  0.3661588E+04  0.7818608E-02  0.8076528E-01
         -3   -1    0    0    0  501 -0.00000000000E+00  0.00000000000E+00  0.34217136380E+04  0.34217136380E+04  0.00000000000E+00 0.  1.
          3   -1    0    0  501    0  0.00000000000E+00 -0.00000000000E+00 -0.97956940476E+03  0.97956940476E+03  0.00000000000E+00 0. -1.
         23    2    1    2    0    0 -0.56781424447E+03  0.12663785963E+04  0.23667008126E+04  0.27450815776E+04  0.89846348258E+02 0.  0.
        254    2    1    2    0    0  0.56781424447E+03 -0.12663785963E+04  0.75443420629E+02  0.16562014651E+04  0.90065743644E+03 0.  0.
        -24    2    4    4    0    0  0.16461190015E+03 -0.33732275160E+03 -0.38119522276E+03  0.54228187347E+03  0.88747484568E+02 0.  0.
         24    2    4    4    0    0  0.40320234433E+03 -0.92905584470E+03  0.45663864339E+03  0.11139195916E+04  0.81124058669E+02 0.  0.
         11    1    3    3    0    0 -0.26436613055E+03  0.56672056569E+03  0.98049795234E+03  0.11629436294E+04  0.00000000000E+00 0. -1.
        -11    1    3    3    0    0 -0.30344811392E+03  0.69965803061E+03  0.13862028602E+04  0.15821379483E+04  0.00000000000E+00 0.  1.
          4    1    6    6  502    0  0.81457208115E+02 -0.19599193617E+03  0.13260536023E+03  0.25026445484E+03  0.00000000000E+00 0. -1.
          3    1    5    5  503    0  0.82582645881E+02 -0.14572636880E+03 -0.11057015013E+03  0.20070332848E+03  0.00000000000E+00 0. -1.
         -4    1    5    5    0  503  0.82029254265E+02 -0.19159638281E+03 -0.27062507263E+03  0.34157854499E+03  0.00000000000E+00 0.  1.
         -3    1    6    6    0  502  0.32174513621E+03 -0.73306390854E+03  0.32403328317E+03  0.86365513677E+03  0.00000000000E+00 0.  1.
<mgrwt>
<rscale>  0 0.36615876E+04</rscale>
<asrwt>0</asrwt>
<pdfrwt beam="1">  1        3 0.15070299E+00 0.36615876E+04</pdfrwt>
<pdfrwt beam="2">  1       -3 0.52641748E+00 0.36615876E+04</pdfrwt>
<totfact> 0.14759242E-03</totfact>
</mgrwt>
</event>
<event>
12    1  0.2404959E-007  0.1907156E+04  0.7818608E-02  0.8651302E-01
          2   -1    0    0  501    0  0.00000000000E+00  0.00000000000E+00  0.17766022281E+04  0.17766022281E+04  0.00000000000E+00 0. -1.
         -2   -1    0    0    0  501 -0.00000000000E+00 -0.00000000000E+00 -0.51182612388E+03  0.51182612388E+03  0.00000000000E+00 0.  1.
         23    2    1    2    0    0 -0.11818096769E+03 -0.47314333966E+03 -0.17178999186E+03  0.52441520234E+03  0.87567928789E+02 0.  0.
        254    2    1    2    0    0  0.11818096769E+03  0.47314333966E+03  0.14365660961E+04  0.17640131497E+04  0.90010492873E+03 0.  0.
        -24    2    4    4    0    0 -0.14185633919E+03 -0.22282091392E+03  0.35996593833E+03  0.45354173866E+03  0.79701011914E+02 0.  0.
         24    2    4    4    0    0  0.26003730688E+03  0.69596425358E+03  0.10766001578E+04  0.13104714110E+04  0.79257656510E+02 0.  0.
         13    1    3    3    0    0 -0.65823786253E+02 -0.39383024595E+03 -0.12442683632E+03  0.41823088248E+03  0.00000000000E+00 0.  1.
        -13    1    3    3    0    0 -0.52357181437E+02 -0.79313093713E+02 -0.47363155537E+02  0.10618431986E+03  0.00000000000E+00 0. -1.
          4    1    6    6  502    0  0.15892531516E+03  0.43197098197E+03  0.59813017330E+03  0.75472901711E+03  0.00000000000E+00 0. -1.
          3    1    5    5  503    0  0.49388806698E+01 -0.10367349098E+02  0.43997102749E+02  0.45471084437E+02  0.00000000000E+00 0. -1.
         -4    1    5    5    0  503 -0.14679521986E+03 -0.21245356482E+03  0.31596883558E+03  0.40807065422E+03  0.00000000000E+00 0.  1.
         -3    1    6    6    0  502  0.10111199172E+03  0.26399327161E+03  0.47846998450E+03  0.55574239391E+03  0.00000000000E+00 0.  1.
<mgrwt>
<rscale>  0 0.19071565E+04</rscale>
<asrwt>0</asrwt>
<pdfrwt beam="1">  1        2 0.27332342E+00 0.19071565E+04</pdfrwt>
<pdfrwt beam="2">  1       -2 0.78742481E-01 0.19071565E+04</pdfrwt>
<totfact> 0.11919567E+01</totfact>
</mgrwt>
</event>
<event>
12    1  0.2404959E-007  0.1093728E+04  0.7818608E-02  0.9211326E-01
         -1   -1    0    0    0  501 -0.00000000000E+00  0.00000000000E+00  0.18794258807E+03  0.18794258807E+03  0.00000000000E+00 0.  1.
          1   -1    0    0  501    0  0.00000000000E+00 -0.00000000000E+00 -0.15912327097E+04  0.15912327097E+04  0.00000000000E+00 0. -1.
         23    2    1    2    0    0 -0.85366038267E+02  0.11434646010E+03 -0.12792891692E+03  0.21176403954E+03  0.90087331136E+02 0.  0.
        254    2    1    2    0    0  0.85366038267E+02 -0.11434646010E+03 -0.12753612047E+04  0.15674112582E+04  0.89992742847E+03 0.  0.
        -24    2    4    4    0    0 -0.53965468505E+02  0.21121734317E+03 -0.11645869116E+04  0.11877751050E+04  0.83797300894E+02 0.  0.
         24    2    4    4    0    0  0.13933150677E+03 -0.32556380327E+03 -0.11077429305E+03  0.37963615314E+03  0.80296986174E+02 0.  0.
         11    1    3    3    0    0 -0.81430626646E+01  0.38688064286E+02 -0.88077252456E+02  0.96543659491E+02  0.00000000000E+00 0. -1.
        -11    1    3    3    0    0 -0.77222975602E+02  0.75658395815E+02 -0.39851664464E+02  0.11522038005E+03  0.00000000000E+00 0.  1.
          2    1    6    6  502    0  0.11321585609E+03 -0.28743664074E+03 -0.67274425951E+02  0.31617005060E+03  0.00000000000E+00 0. -1.
          1    1    5    5  503    0 -0.60931924578E+02  0.21400375180E+03 -0.11504524364E+04  0.11717726373E+04  0.00000000000E+00 0. -1.
         -2    1    5    5    0  503  0.69664560726E+01 -0.27864086255E+01 -0.14134475239E+02  0.16002467732E+02  0.00000000000E+00 0.  1.
         -1    1    6    6    0  502  0.26115650686E+02 -0.38127162531E+02 -0.43499867104E+02  0.63466102539E+02  0.00000000000E+00 0.  1.
<mgrwt>
<rscale>  0 0.10937283E+04</rscale>
<asrwt>0</asrwt>
<pdfrwt beam="1">  1        1 0.24480502E+00 0.10937283E+04</pdfrwt>
<pdfrwt beam="2">  1       -1 0.28914246E-01 0.10937283E+04</pdfrwt>
<totfact> 0.61406362E+01</totfact>
</mgrwt>
</event>
<event>
12    1  0.3987483E-007  0.3435907E+04  0.7818608E-02  0.8129149E-01
          2   -1    0    0  501    0  0.00000000000E+00  0.00000000000E+00  0.19749261871E+04  0.19749261871E+04  0.00000000000E+00 0.  1.
         -2   -1    0    0    0  501 -0.00000000000E+00 -0.00000000000E+00 -0.14944171072E+04  0.14944171072E+04  0.00000000000E+00 0. -1.
         23    2    1    2    0    0  0.12748610443E+04  0.37584869036E+03  0.11185712256E+04  0.17395135251E+04  0.90403522368E+02 0.  0.
        254    2    1    2    0    0 -0.12748610443E+04 -0.37584869036E+03 -0.63806214572E+03  0.17298297692E+04  0.90479545102E+03 0.  0.
        -24    2    4    4    0    0  0.50751384624E+02 -0.25760491172E+03 -0.11609142941E+03  0.29805872253E+03  0.80161016146E+02 0.  0.
         24    2    4    4    0    0 -0.13256124289E+04 -0.11824377864E+03 -0.52197071631E+03  0.14317710466E+04  0.79277981855E+02 0.  0.
         11    1    3    3    0    0  0.84975121350E+03  0.27182992476E+03  0.79840242286E+03  0.11972531318E+04  0.00000000000E+00 0.  1.
        -11    1    3    3    0    0  0.42510983079E+03  0.10401876560E+03  0.32016880278E+03  0.54226039326E+03  0.00000000000E+00 0. -1.
          2    1    6    6  502    0 -0.11101690007E+04 -0.84945587498E+02 -0.46372494188E+03  0.12061226242E+04  0.00000000000E+00 0. -1.
          3    1    5    5  503    0  0.40691085508E+02 -0.26030663800E+03 -0.10749594181E+03  0.28455348835E+03  0.00000000000E+00 0. -1.
         -4    1    5    5    0  503  0.10060299116E+02  0.27017262765E+01 -0.85954876058E+01  0.13505234184E+02  0.00000000000E+00 0.  1.
         -1    1    6    6    0  502 -0.21544342823E+03 -0.33298191142E+02 -0.58245774427E+02  0.22564842242E+03  0.00000000000E+00 0.  1.
<mgrwt>
<rscale>  0 0.34359066E+04</rscale>
<asrwt>0</asrwt>
<pdfrwt beam="1">  1        2 0.30383480E+00 0.34359066E+04</pdfrwt>
<pdfrwt beam="2">  1       -2 0.22991032E+00 0.34359066E+04</pdfrwt>
<totfact> 0.48791820E-01</totfact>
</mgrwt>
</event>
<event>
12    1  0.2404959E-007  0.1363801E+04  0.7818608E-02  0.8980446E-01
          2   -1    0    0  501    0  0.00000000000E+00  0.00000000000E+00  0.95931567518E+03  0.95931567518E+03  0.00000000000E+00 0. -1.
         -2   -1    0    0    0  501 -0.00000000000E+00 -0.00000000000E+00 -0.48470815524E+03  0.48470815524E+03  0.00000000000E+00 0.  1.
         23    2    1    2    0    0  0.37520534854E+03 -0.68418481870E+02  0.15690158556E+03  0.41703273818E+03  0.61952037310E+02 0.  0.
        254    2    1    2    0    0 -0.37520534854E+03  0.68418481870E+02  0.31770593438E+03  0.10269910922E+04  0.89906256766E+03 0.  0.
        -24    2    4    4    0    0 -0.37479731909E+03 -0.11952367391E+03  0.57296916022E+03  0.69971970380E+03  0.80963363902E+02 0.  0.
         24    2    4    4    0    0 -0.40802945207E+00  0.18794215578E+03 -0.25526322584E+03  0.32727138844E+03  0.81393039135E+02 0.  0.
         11    1    3    3    0    0  0.53657876452E+02 -0.33605481733E+01  0.45924902869E+02  0.70707550465E+02  0.00000000000E+00 0. -1.
        -11    1    3    3    0    0  0.32154747209E+03 -0.65057933697E+02  0.11097668269E+03  0.34632518771E+03  0.00000000000E+00 0.  1.
          4    1    6    6  502    0 -0.19892366196E+02  0.17354033377E+03 -0.19221507847E+03  0.25972791546E+03  0.00000000000E+00 0. -1.
          3    1    5    5  503    0 -0.36556146707E+03 -0.10328762592E+03  0.56107349930E+03  0.67757434388E+03  0.00000000000E+00 0. -1.
         -2    1    5    5    0  503 -0.92358520190E+01 -0.16236047989E+02  0.11895660922E+02  0.22145359912E+02  0.00000000000E+00 0.  1.
         -3    1    6    6    0  502  0.19484336744E+02  0.14401822006E+02 -0.63048147371E+02  0.67543472981E+02  0.00000000000E+00 0.  1.
<mgrwt>
<rscale>  0 0.13638008E+04</rscale>
<asrwt>0</asrwt>
<pdfrwt beam="1">  1        2 0.14758703E+00 0.13638008E+04</pdfrwt>
<pdfrwt beam="2">  1       -2 0.74570486E-01 0.13638008E+04</pdfrwt>
<totfact> 0.42259342E+01</totfact>
</mgrwt>
</event>
<event>
12    1  0.2404959E-007  0.1435176E+04  0.7818608E-02  0.8928743E-01
         -1   -1    0    0    0  501 -0.00000000000E+00  0.00000000000E+00  0.81020935019E+03  0.81020935019E+03  0.00000000000E+00 0.  1.
          1   -1    0    0  501    0  0.00000000000E+00 -0.00000000000E+00 -0.63555504585E+03  0.63555504585E+03  0.00000000000E+00 0. -1.
         23    2    1    2    0    0 -0.25696279204E+03 -0.27583008753E+03  0.26134089743E+03  0.46789978633E+03  0.92298600738E+02 0.  0.
        254    2    1    2    0    0  0.25696279204E+03  0.27583008753E+03 -0.86686593091E+02  0.97786460971E+03  0.89810495814E+03 0.  0.
        -24    2    4    4    0    0 -0.10217974669E+03  0.27484958526E+03  0.31210962895E+03  0.43554613738E+03  0.79404169593E+02 0.  0.
         24    2    4    4    0    0  0.35914253873E+03  0.98050227046E+00 -0.39879622204E+03  0.54231847234E+03  0.78016499620E+02 0.  0.
         13    1    3    3    0    0 -0.22444673317E+03 -0.27092718541E+03  0.21948065776E+03  0.41466810216E+03  0.00000000000E+00 0. -1.
        -13    1    3    3    0    0 -0.32516058875E+02 -0.49029021235E+01  0.41860239670E+02  0.53231684166E+02  0.00000000000E+00 0.  1.
          4    1    6    6  502    0  0.12471697060E+02 -0.16074049459E+02 -0.19495866654E+02  0.28178131772E+02  0.00000000000E+00 0. -1.
          1    1    5    5  503    0 -0.40253844442E+02  0.76762681589E+02  0.14568143701E+03  0.16951684980E+03  0.00000000000E+00 0. -1.
         -2    1    5    5    0  503 -0.61925902249E+02  0.19808690367E+03  0.16642819194E+03  0.26602928757E+03  0.00000000000E+00 0.  1.
         -3    1    6    6    0  502  0.34667084167E+03  0.17054551730E+02 -0.37930035539E+03  0.51414034057E+03  0.00000000000E+00 0.  1.
<mgrwt>
<rscale>  0 0.14351761E+04</rscale>
<asrwt>0</asrwt>
<pdfrwt beam="1">  1        1 0.97777699E-01 0.14351761E+04</pdfrwt>
<pdfrwt beam="2">  1       -1 0.12464759E+00 0.14351761E+04</pdfrwt>
<totfact> 0.17259931E+01</totfact>
</mgrwt>
</event>
<event>
12    1  0.2404959E-007  0.1500946E+04  0.7818608E-02  0.8883824E-01
          2   -1    0    0  501    0  0.00000000000E+00  0.00000000000E+00  0.46088823096E+03  0.46088823096E+03  0.00000000000E+00 0. -1.
         -2   -1    0    0    0  501 -0.00000000000E+00 -0.00000000000E+00 -0.12220098830E+04  0.12220098830E+04  0.00000000000E+00 0.  1.
         23    2    1    2    0    0 -0.17812421325E+03 -0.43428461367E+03 -0.16483695213E+03  0.50603308245E+03  0.92557542821E+02 0.  0.
        254    2    1    2    0    0  0.17812421325E+03  0.43428461367E+03 -0.59628469987E+03  0.11768650315E+04  0.89951347847E+03 0.  0.
        -24    2    4    4    0    0 -0.14582263410E+03 -0.58354599706E+02 -0.55367442486E+03  0.58110628486E+03  0.80371920681E+02 0.  0.
         24    2    4    4    0    0  0.32394684735E+03  0.49263921338E+03 -0.42610275006E+02  0.59575874659E+03  0.74012797147E+02 0.  0.
         11    1    3    3    0    0 -0.19461179439E+02 -0.26253779477E+02 -0.38241972740E+02  0.50303547798E+02  0.00000000000E+00 0.  1.
        -11    1    3    3    0    0 -0.15866303381E+03 -0.40803083420E+03 -0.12659497939E+03  0.45572953466E+03  0.00000000000E+00 0. -1.
          4    1    6    6  502    0  0.80221439903E+02  0.97374318945E+02 -0.36554967353E+02  0.13135259057E+03  0.00000000000E+00 0. -1.
          1    1    5    5  503    0 -0.11672504600E+03 -0.41675989447E+02 -0.29094131403E+03  0.31624116220E+03  0.00000000000E+00 0. -1.
         -2    1    5    5    0  503 -0.29097588098E+02 -0.16678610259E+02 -0.26273311083E+03  0.26486512266E+03  0.00000000000E+00 0.  1.
         -3    1    6    6    0  502  0.24372540745E+03  0.39526489443E+03 -0.60553076530E+01  0.46440615603E+03  0.00000000000E+00 0.  1.
<mgrwt>
<rscale>  0 0.15009463E+04</rscale>
<asrwt>0</asrwt>
<pdfrwt beam="1">  1        2 0.70905883E-01 0.15009463E+04</pdfrwt>
<pdfrwt beam="2">  1       -2 0.18800152E+00 0.15009463E+04</pdfrwt>
<totfact> 0.10440319E+01</totfact>
</mgrwt>
</event>
<event>
12    1  0.2404959E-007  0.1261842E+04  0.7818608E-02  0.9060384E-01
         -1   -1    0    0    0  501 -0.00000000000E+00  0.00000000000E+00  0.17105293178E+03  0.17105293178E+03  0.00000000000E+00 0.  1.
          1   -1    0    0  501    0  0.00000000000E+00 -0.00000000000E+00 -0.23271253226E+04  0.23271253226E+04  0.00000000000E+00 0. -1.
         23    2    1    2    0    0 -0.24480988791E+03  0.97887811196E+02 -0.80812719350E+03  0.85488231719E+03  0.90776156470E+02 0.  0.
        254    2    1    2    0    0  0.24480988791E+03 -0.97887811196E+02 -0.13479451973E+04  0.16432959372E+04  0.90219253897E+03 0.  0.
        -24    2    4    4    0    0  0.41706762219E+03  0.43551369223E+02 -0.13399510952E+04  0.14062770174E+04  0.79397662321E+02 0.  0.
         24    2    4    4    0    0 -0.17225773428E+03 -0.14143918042E+03 -0.79941021110E+01  0.23701891981E+03  0.80226516212E+02 0.  0.
         11    1    3    3    0    0 -0.38025028662E+02  0.10459523425E+01 -0.48262286555E+02  0.61451160482E+02  0.00000000000E+00 0.  1.
        -11    1    3    3    0    0 -0.20678485925E+03  0.96841858854E+02 -0.75986490694E+03  0.79343115671E+03  0.00000000000E+00 0. -1.
          2    1    6    6  502    0 -0.14849081650E+03 -0.11063292115E+03 -0.36562390098E+02  0.18874844157E+03  0.00000000000E+00 0. -1.
          1    1    5    5  503    0  0.11028516562E+03  0.12912994850E+02 -0.24978950253E+03  0.27335756578E+03  0.00000000000E+00 0. -1.
         -2    1    5    5    0  503  0.30678245657E+03  0.30638374373E+02 -0.10901615927E+04  0.11329194516E+04  0.00000000000E+00 0.  1.
         -1    1    6    6    0  502 -0.23766917783E+02 -0.30806259265E+02  0.28568287987E+02  0.48270478238E+02  0.00000000000E+00 0.  1.
<mgrwt>
<rscale>  0 0.12618425E+04</rscale>
<asrwt>0</asrwt>
<pdfrwt beam="1">  1        1 0.35801927E+00 0.12618425E+04</pdfrwt>
<pdfrwt beam="2">  1       -1 0.26315837E-01 0.12618425E+04</pdfrwt>
<totfact> 0.22609903E+01</totfact>
</mgrwt>
</event>
<event>
12    1  0.2404959E-007  0.1462469E+04  0.7818608E-02  0.8909801E-01
          1   -1    0    0  501    0  0.00000000000E+00  0.00000000000E+00  0.14256012206E+04  0.14256012206E+04  0.00000000000E+00 0. -1.
         -1   -1    0    0    0  501 -0.00000000000E+00 -0.00000000000E+00 -0.37507259682E+03  0.37507259682E+03  0.00000000000E+00 0.  1.
         23    2    1    2    0    0  0.95588373951E+02  0.16133226054E+03  0.83132311467E+03  0.85709698507E+03  0.91388649803E+02 0.  0.
        254    2    1    2    0    0 -0.95588373951E+02 -0.16133226054E+03  0.21920550908E+03  0.94357683231E+03  0.89839910270E+03 0.  0.
        -24    2    4    4    0    0 -0.19756800198E+03  0.63255307754E+02 -0.29394171732E+03  0.36851271893E+03  0.79784343503E+02 0.  0.
         24    2    4    4    0    0  0.10197962803E+03 -0.22458756830E+03  0.51314722639E+03  0.57506411338E+03  0.80865556163E+02 0.  0.
         13    1    3    3    0    0  0.38351449832E+02  0.13843143660E+03  0.64640579616E+03  0.66217410826E+03  0.00000000000E+00 0. -1.
        -13    1    3    3    0    0  0.57236924119E+02  0.22900823942E+02  0.18491731850E+03  0.19492287681E+03  0.00000000000E+00 0.  1.
          4    1    6    6  502    0  0.35994133486E+02 -0.15645285606E+03  0.37020492693E+03  0.40351550372E+03  0.00000000000E+00 0. -1.
          1    1    5    5  503    0 -0.16673573607E+03  0.26002957139E+02 -0.25789430507E+03  0.30819868924E+03  0.00000000000E+00 0. -1.
         -2    1    5    5    0  503 -0.30832265906E+02  0.37252350615E+02 -0.36047412247E+02  0.60314029686E+02  0.00000000000E+00 0.  1.
         -3    1    6    6    0  502  0.65985494541E+02 -0.68134712233E+02  0.14294229946E+03  0.17154860966E+03  0.00000000000E+00 0.  1.
<mgrwt>
<rscale>  0 0.14624691E+04</rscale>
<asrwt>0</asrwt>
<pdfrwt beam="1">  1        1 0.21932326E+00 0.14624691E+04</pdfrwt>
<pdfrwt beam="2">  1       -1 0.57703477E-01 0.14624691E+04</pdfrwt>
<totfact> 0.21756391E+01</totfact>
</mgrwt>
</event>
<event>
12    1  0.2404959E-007  0.3046173E+04  0.7818608E-02  0.8230668E-01
          2   -1    0    0  501    0  0.00000000000E+00  0.00000000000E+00  0.12400547284E+04  0.12400547284E+04  0.00000000000E+00 0. -1.
         -2   -1    0    0    0  501 -0.00000000000E+00 -0.00000000000E+00 -0.18707176425E+04  0.18707176425E+04  0.00000000000E+00 0.  1.
         23    2    1    2    0    0  0.11251641054E+04  0.77878270365E+03 -0.51152767887E+03  0.14636740340E+04  0.90467386947E+02 0.  0.
        254    2    1    2    0    0 -0.11251641054E+04 -0.77878270365E+03 -0.11913523529E+03  0.16470983369E+04  0.90897907766E+03 0.  0.
        -24    2    4    4    0    0 -0.84567265684E+03 -0.95192253349E+03  0.33047705783E+02  0.12761821411E+04  0.78930059064E+02 0.  0.
         24    2    4    4    0    0 -0.27949144851E+03  0.17313982985E+03 -0.15218294108E+03  0.37091619574E+03  0.79538080435E+02 0.  0.
         13    1    3    3    0    0  0.51610650801E+03  0.32531610382E+03 -0.26694296263E+03  0.66592420013E+03  0.00000000000E+00 0. -1.
        -13    1    3    3    0    0  0.60905759734E+03  0.45346659983E+03 -0.24458471625E+03  0.79774983388E+03  0.00000000000E+00 0.  1.
          4    1    6    6  502    0 -0.12035573403E+03  0.11997411707E+03 -0.66119966881E+02  0.18234895530E+03  0.00000000000E+00 0. -1.
          1    1    5    5  503    0 -0.80680954136E+03 -0.92976729243E+03  0.31895127149E+02  0.12314325614E+04  0.00000000000E+00 0. -1.
         -2    1    5    5    0  503 -0.38863115475E+02 -0.22155241061E+02  0.11525786343E+01  0.44749579756E+02  0.00000000000E+00 0.  1.
         -3    1    6    6    0  502 -0.15913571449E+03  0.53165712777E+02 -0.86062974195E+02  0.18856724044E+03  0.00000000000E+00 0.  1.
<mgrwt>
<rscale>  0 0.30461729E+04</rscale>
<asrwt>0</asrwt>
<pdfrwt beam="1">  1        2 0.19077765E+00 0.30461729E+04</pdfrwt>
<pdfrwt beam="2">  1       -2 0.28780271E+00 0.30461729E+04</pdfrwt>
<totfact> 0.57696646E-01</totfact>
</mgrwt>
</event>
<event>
12    1  0.2404959E-007  0.1972227E+04  0.7818608E-02  0.8619717E-01
          1   -1    0    0  501    0  0.00000000000E+00  0.00000000000E+00  0.16111292540E+04  0.16111292540E+04  0.00000000000E+00 0. -1.
         -1   -1    0    0    0  501 -0.00000000000E+00 -0.00000000000E+00 -0.60356423498E+03  0.60356423498E+03  0.00000000000E+00 0.  1.
         23    2    1    2    0    0  0.48695228820E+03  0.46381959889E+03  0.83813238769E+03  0.10785330025E+04  0.92284272444E+02 0.  0.
        254    2    1    2    0    0 -0.48695228820E+03 -0.46381959889E+03  0.16943263136E+03  0.11361604865E+04  0.89994560014E+03 0.  0.
        -24    2    4    4    0    0  0.18518509274E+03 -0.16231718242E+03 -0.18120827711E+03  0.31657278502E+03  0.82106651618E+02 0.  0.
         24    2    4    4    0    0 -0.67213738094E+03 -0.30150241647E+03  0.35064090847E+03  0.81958770147E+03  0.78119061192E+02 0.  0.
         11    1    3    3    0    0  0.11606385853E+03  0.16851335753E+03  0.24465805650E+03  0.31894378115E+03  0.00000000000E+00 0.  1.
        -11    1    3    3    0    0  0.37088842967E+03  0.29530624136E+03  0.59347433119E+03  0.75958922137E+03  0.00000000000E+00 0. -1.
          2    1    6    6  502    0 -0.17079521271E+03 -0.90638860615E+02  0.57430473641E+02  0.20170440511E+03  0.00000000000E+00 0. -1.
          1    1    5    5  503    0  0.14927275870E+01 -0.11919907152E+02  0.67399276907E+01  0.13774579755E+02  0.00000000000E+00 0. -1.
         -2    1    5    5    0  503  0.18369236516E+03 -0.15039727527E+03 -0.18794820480E+03  0.30279820527E+03  0.00000000000E+00 0.  1.
         -1    1    6    6    0  502 -0.50134216823E+03 -0.21086355585E+03  0.29321043483E+03  0.61788329636E+03  0.00000000000E+00 0.  1.
<mgrwt>
<rscale>  0 0.19722272E+04</rscale>
<asrwt>0</asrwt>
<pdfrwt beam="1">  1        1 0.24786604E+00 0.19722272E+04</pdfrwt>
<pdfrwt beam="2">  1       -1 0.92856037E-01 0.19722272E+04</pdfrwt>
<totfact> 0.57449953E+00</totfact>
</mgrwt>
</event>
<event>
12    1  0.2404959E-007  0.2571210E+04  0.7818608E-02  0.8378047E-01
         -2   -1    0    0    0  501 -0.00000000000E+00  0.00000000000E+00  0.91264709112E+03  0.91264709112E+03  0.00000000000E+00 0.  1.
          2   -1    0    0  501    0  0.00000000000E+00 -0.00000000000E+00 -0.18109736328E+04  0.18109736328E+04  0.00000000000E+00 0. -1.
         23    2    1    2    0    0 -0.41804242770E+02 -0.57010660089E+03  0.63279822744E+03  0.85806858924E+03  0.95283661286E+02 0.  0.
        254    2    1    2    0    0  0.41804242770E+02  0.57010660089E+03 -0.15311247691E+04  0.18655521347E+04  0.89954020339E+03 0.  0.
        -24    2    4    4    0    0 -0.38261613556E+03  0.60778665780E+02 -0.63348700707E+03  0.74679260631E+03  0.79399340717E+02 0.  0.
         24    2    4    4    0    0  0.42442037833E+03  0.50932793511E+03 -0.89763776207E+03  0.11187595284E+04  0.79509291503E+02 0.  0.
         11    1    3    3    0    0 -0.49308623138E+02 -0.43025026737E+03  0.41974537730E+03  0.60310265681E+03  0.00000000000E+00 0. -1.
        -11    1    3    3    0    0  0.75043803682E+01 -0.13985633352E+03  0.21305285013E+03  0.25496593243E+03  0.00000000000E+00 0.  1.
          4    1    6    6  502    0  0.16793940342E+01  0.13745555546E+01 -0.20092977229E+02  0.20209836744E+02  0.00000000000E+00 0. -1.
          1    1    5    5  503    0 -0.33223421107E+03  0.65016024170E+02 -0.49793054500E+03  0.60211417692E+03  0.00000000000E+00 0. -1.
         -2    1    5    5    0  503 -0.50381924493E+02 -0.42373583893E+01 -0.13555646208E+03  0.14467842940E+03  0.00000000000E+00 0.  1.
         -3    1    6    6    0  502  0.42274098430E+03  0.50795337955E+03 -0.87754478484E+03  0.10985496916E+04  0.00000000000E+00 0.  1.
<mgrwt>
<rscale>  0 0.25712097E+04</rscale>
<asrwt>0</asrwt>
<pdfrwt beam="1">  1        2 0.27861133E+00 0.25712097E+04</pdfrwt>
<pdfrwt beam="2">  1       -2 0.14040724E+00 0.25712097E+04</pdfrwt>
<totfact> 0.26895348E+00</totfact>
</mgrwt>
</event>
<event>
12    1  0.2404959E-007  0.3211740E+04  0.7818608E-02  0.8185723E-01
          1   -1    0    0  501    0  0.00000000000E+00  0.00000000000E+00  0.17357047198E+04  0.17357047198E+04  0.00000000000E+00 0. -1.
         -1   -1    0    0    0  501 -0.00000000000E+00 -0.00000000000E+00 -0.14857475168E+04  0.14857475168E+04  0.00000000000E+00 0.  1.
         23    2    1    2    0    0 -0.13741863722E+04 -0.23128967664E+03  0.60970149185E+03  0.15239506717E+04  0.93843703326E+02 0.  0.
        254    2    1    2    0    0  0.13741863722E+04  0.23128967664E+03 -0.35974428893E+03  0.16975015649E+04  0.90011805308E+03 0.  0.
        -24    2    4    4    0    0  0.12788859408E+04  0.48318357193E+03 -0.23150155325E+03  0.13889375947E+04  0.80864449682E+02 0.  0.
         24    2    4    4    0    0  0.95300431377E+02 -0.25189389528E+03 -0.12824273569E+03  0.30856397016E+03  0.78948196457E+02 0.  0.
         13    1    3    3    0    0 -0.22941409966E+03 -0.29722608316E+02  0.13900083458E+03  0.26988051908E+03  0.00000000000E+00 0. -1.
        -13    1    3    3    0    0 -0.11447722725E+04 -0.20156706833E+03  0.47070065727E+03  0.12540701526E+04  0.00000000000E+00 0.  1.
          4    1    6    6  502    0  0.29367670849E+02 -0.12289648106E+02 -0.19251164946E+02  0.37203533346E+02  0.00000000000E+00 0. -1.
          3    1    5    5  503    0  0.20716158444E+02  0.27881069409E+01  0.51801123497E+01  0.21535234499E+02  0.00000000000E+00 0. -1.
         -4    1    5    5    0  503  0.12581697823E+04  0.48039546499E+03 -0.23668166560E+03  0.13674023602E+04  0.00000000000E+00 0.  1.
         -3    1    6    6    0  502  0.65932760528E+02 -0.23960424718E+03 -0.10899157074E+03  0.27136043682E+03  0.00000000000E+00 0.  1.
<mgrwt>
<rscale>  0 0.32117403E+04</rscale>
<asrwt>0</asrwt>
<pdfrwt beam="1">  1        1 0.26703150E+00 0.32117403E+04</pdfrwt>
<pdfrwt beam="2">  1       -1 0.22857654E+00 0.32117403E+04</pdfrwt>
<totfact> 0.36334827E-01</totfact>
</mgrwt>
</event>
<event>
12    1  0.2404959E-007  0.1265368E+04  0.7818608E-02  0.9057489E-01
          1   -1    0    0  501    0  0.00000000000E+00  0.00000000000E+00  0.35212006191E+04  0.35212006191E+04  0.00000000000E+00 0. -1.
         -1   -1    0    0    0  501 -0.00000000000E+00 -0.00000000000E+00 -0.11367969002E+03  0.11367969002E+03  0.00000000000E+00 0.  1.
         23    2    1    2    0    0  0.81900064633E+02 -0.24644284211E+03  0.40619999412E+03  0.49050469438E+03  0.90303515807E+02 0.  0.
        254    2    1    2    0    0 -0.81900064633E+02  0.24644284211E+03  0.30013209349E+04  0.31443756147E+04  0.90096001959E+03 0.  0.
        -24    2    4    4    0    0 -0.55814636894E+02  0.53703544733E+01 -0.29347690529E+02  0.10300576356E+03  0.81269834427E+02 0.  0.
         24    2    4    4    0    0 -0.26085427739E+02  0.24107248764E+03  0.30306686255E+04  0.30413698512E+04  0.78624807167E+02 0.  0.
         13    1    3    3    0    0  0.58152465541E+02 -0.10258005434E+03  0.11434371651E+03  0.16425243469E+03  0.00000000000E+00 0.  1.
        -13    1    3    3    0    0  0.23747599092E+02 -0.14386278777E+03  0.29185627762E+03  0.32625225969E+03  0.00000000000E+00 0. -1.
          4    1    6    6  502    0 -0.45145121537E+02  0.12866080661E+03  0.13610886048E+04  0.13679012666E+04  0.00000000000E+00 0. -1.
          3    1    5    5  503    0  0.75325271238E+01  0.24034857901E+02 -0.27000048112E+02  0.36924462857E+02  0.00000000000E+00 0. -1.
         -4    1    5    5    0  503 -0.63347164018E+02 -0.18664503427E+02 -0.23476424162E+01  0.66081300700E+02  0.00000000000E+00 0.  1.
         -3    1    6    6    0  502  0.19059693798E+02  0.11241168103E+03  0.16695800207E+04  0.16734685845E+04  0.00000000000E+00 0.  1.
<mgrwt>
<rscale>  0 0.12653679E+04</rscale>
<asrwt>0</asrwt>
<pdfrwt beam="1">  1        1 0.54172309E+00 0.12653679E+04</pdfrwt>
<pdfrwt beam="2">  1       -1 0.17489186E-01 0.12653679E+04</pdfrwt>
<totfact> 0.61772040E+00</totfact>
</mgrwt>
</event>
<event>
12    1  0.2404959E-007  0.2035067E+04  0.7818608E-02  0.8590399E-01
          2   -1    0    0  501    0  0.00000000000E+00  0.00000000000E+00  0.36201045678E+03  0.36201045678E+03  0.00000000000E+00 0.  1.
         -2   -1    0    0    0  501 -0.00000000000E+00 -0.00000000000E+00 -0.28600682692E+04  0.28600682692E+04  0.00000000000E+00 0. -1.
         23    2    1    2    0    0  0.69735031386E+03  0.15827688215E+03 -0.16410143244E+04  0.17924607268E+04  0.92943060523E+02 0.  0.
        254    2    1    2    0    0 -0.69735031386E+03 -0.15827688215E+03 -0.85704348803E+03  0.14296179992E+04  0.89327210391E+03 0.  0.
        -24    2    4    4    0    0  0.93965780370E+01  0.19587445580E+03  0.53577704189E+02  0.22120452586E+03  0.87211087365E+02 0.  0.
         24    2    4    4    0    0 -0.70674689190E+03 -0.35415133796E+03 -0.91062119222E+03  0.12084134734E+04  0.78216542159E+02 0.  0.
         11    1    3    3    0    0  0.43877696434E+03  0.92842297219E+02 -0.11362249974E+04  0.12215368031E+04  0.00000000000E+00 0. -1.
        -11    1    3    3    0    0  0.25857334952E+03  0.65434584935E+02 -0.50478932699E+03  0.57092392368E+03  0.00000000000E+00 0.  1.
          4    1    6    6  502    0 -0.15167635545E+03 -0.11165571931E+03 -0.23040153449E+03  0.29758626237E+03  0.00000000000E+00 0. -1.
          3    1    5    5  503    0 -0.21811772360E+02  0.77021133164E+01  0.11684977406E+02  0.25915529321E+02  0.00000000000E+00 0. -1.
         -2    1    5    5    0  503  0.31208350397E+02  0.18817234249E+03  0.41892726783E+02  0.19528899654E+03  0.00000000000E+00 0.  1.
         -1    1    6    6    0  502 -0.55507053644E+03 -0.24249561865E+03 -0.68021965774E+03  0.91082721098E+03  0.00000000000E+00 0.  1.
<mgrwt>
<rscale>  0 0.20350672E+04</rscale>
<asrwt>0</asrwt>
<pdfrwt beam="1">  1        2 0.55693915E-01 0.20350672E+04</pdfrwt>
<pdfrwt beam="2">  1       -2 0.44001051E+00 0.20350672E+04</pdfrwt>
<totfact> 0.33375891E-01</totfact>
</mgrwt>
</event>
<event>
12    1  0.2404959E-007  0.1806391E+04  0.7818608E-02  0.8702908E-01
         -2   -1    0    0    0  501 -0.00000000000E+00  0.00000000000E+00  0.42598857977E+03  0.42598857977E+03  0.00000000000E+00 0.  1.
          2   -1    0    0  501    0  0.00000000000E+00 -0.00000000000E+00 -0.19149865079E+04  0.19149865079E+04  0.00000000000E+00 0. -1.
         23    2    1    2    0    0  0.62954287954E+03  0.22200055583E+03 -0.68685847973E+03  0.96244516945E+03  0.94433304785E+02 0.  0.
        254    2    1    2    0    0 -0.62954287954E+03 -0.22200055583E+03 -0.80213944843E+03  0.13785299183E+04  0.90072668264E+03 0.  0.
        -24    2    4    4    0    0 -0.40518900729E+03 -0.26955281069E+03  0.46948526847E+02  0.49536993986E+03  0.79689169650E+02 0.  0.
         24    2    4    4    0    0 -0.22435387225E+03  0.47552254859E+02 -0.84908797528E+03  0.88315997839E+03  0.80157848907E+02 0.  0.
         13    1    3    3    0    0  0.34408106189E+03  0.15610946249E+03 -0.33870686728E+03  0.50742909196E+03  0.00000000000E+00 0.  1.
        -13    1    3    3    0    0  0.28546181765E+03  0.65891093339E+02 -0.34815161245E+03  0.45501607749E+03  0.00000000000E+00 0. -1.
          4    1    6    6  502    0 -0.20205334265E+03  0.23415968318E+02 -0.64116596154E+03  0.67265715716E+03  0.00000000000E+00 0. -1.
          3    1    5    5  503    0 -0.40135433620E+03 -0.26889657381E+03  0.55198734832E+02  0.48624846624E+03  0.00000000000E+00 0. -1.
         -4    1    5    5    0  503 -0.38346710953E+01 -0.65623688529E+00 -0.82502079848E+01  0.91214736228E+01  0.00000000000E+00 0.  1.
         -3    1    6    6    0  502 -0.22300529595E+02  0.24136286540E+02 -0.20792201374E+03  0.21050282123E+03  0.00000000000E+00 0.  1.
<mgrwt>
<rscale>  0 0.18063913E+04</rscale>
<asrwt>0</asrwt>
<pdfrwt beam="1">  1        2 0.29461331E+00 0.18063913E+04</pdfrwt>
<pdfrwt beam="2">  1       -2 0.65536705E-01 0.18063913E+04</pdfrwt>
<totfact> 0.15075023E+01</totfact>
</mgrwt>
</event>
<event>
12    1  0.2404959E-007  0.4048042E+04  0.7818608E-02  0.7994925E-01
          1   -1    0    0  501    0  0.00000000000E+00  0.00000000000E+00  0.19433002651E+04  0.19433002651E+04  0.00000000000E+00 0. -1.
         -1   -1    0    0    0  501 -0.00000000000E+00 -0.00000000000E+00 -0.21080944378E+04  0.21080944378E+04  0.00000000000E+00 0.  1.
         23    2    1    2    0    0  0.18735001725E+03 -0.51485144003E+02  0.18381424446E+04  0.18506091027E+04  0.90750511946E+02 0.  0.
        254    2    1    2    0    0 -0.18735001725E+03  0.51485144003E+02 -0.20029366173E+04  0.22007856002E+04  0.89103951436E+03 0.  0.
        -24    2    4    4    0    0 -0.35424902105E+03  0.13970622374E+03 -0.31535610340E+03  0.50075509074E+03  0.79347281506E+02 0.  0.
         24    2    4    4    0    0  0.16689900380E+03 -0.88221079741E+02 -0.16875805139E+04  0.17000305095E+04  0.80854844378E+02 0.  0.
         13    1    3    3    0    0  0.13563755676E+03 -0.32581359902E+02  0.16051211554E+04  0.16111713178E+04  0.00000000000E+00 0. -1.
        -13    1    3    3    0    0  0.51712460488E+02 -0.18903784101E+02  0.23302128917E+03  0.23943778488E+03  0.00000000000E+00 0.  1.
          4    1    6    6  502    0  0.21759617379E+02  0.13987772807E+02 -0.14726415813E+03  0.14951879817E+03  0.00000000000E+00 0. -1.
          1    1    5    5  503    0 -0.23368438118E+03  0.51094341533E+02 -0.18720744638E+03  0.30375261271E+03  0.00000000000E+00 0. -1.
         -2    1    5    5    0  503 -0.12056463986E+03  0.88611882212E+02 -0.12814865702E+03  0.19700247803E+03  0.00000000000E+00 0.  1.
         -3    1    6    6    0  502  0.14513938642E+03 -0.10220885255E+03 -0.15403163558E+04  0.15505117113E+04  0.00000000000E+00 0.  1.
<mgrwt>
<rscale>  0 0.40480417E+04</rscale>
<asrwt>0</asrwt>
<pdfrwt beam="1">  1        1 0.29896927E+00 0.40480417E+04</pdfrwt>
<pdfrwt beam="2">  1       -1 0.32432222E+00 0.40480417E+04</pdfrwt>
<totfact> 0.58207438E-02</totfact>
</mgrwt>
</event>
<event>
12    1  0.2404959E-007  0.2673061E+04  0.7818608E-02  0.8343799E-01
          2   -1    0    0  501    0  0.00000000000E+00  0.00000000000E+00  0.18888136022E+04  0.18888136022E+04  0.00000000000E+00 0. -1.
         -2   -1    0    0    0  501 -0.00000000000E+00 -0.00000000000E+00 -0.94573350889E+03  0.94573350889E+03  0.00000000000E+00 0.  1.
         23    2    1    2    0    0  0.39079370920E+03 -0.55174483072E+03  0.14475014943E+04  0.16002895677E+04  0.92325744881E+02 0.  0.
        254    2    1    2    0    0 -0.39079370920E+03  0.55174483072E+03 -0.50442140097E+03  0.12342575434E+04  0.90100424655E+03 0.  0.
        -24    2    4    4    0    0 -0.44648771315E+02  0.70906136705E+03 -0.20516043809E+03  0.74368600309E+03  0.78844979655E+02 0.  0.
         24    2    4    4    0    0 -0.34614493788E+03 -0.15731653633E+03 -0.29926096288E+03  0.49057154030E+03  0.80861001898E+02 0.  0.
         13    1    3    3    0    0  0.18858399688E+03 -0.18851182515E+03  0.57241740228E+03  0.63147629768E+03  0.00000000000E+00 0. -1.
        -13    1    3    3    0    0  0.20220971232E+03 -0.36323300556E+03  0.87508409198E+03  0.96881326999E+03  0.00000000000E+00 0.  1.
          4    1    6    6  502    0 -0.14255953940E+03 -0.10867423953E+03 -0.14478173015E+03  0.23042365764E+03  0.00000000000E+00 0. -1.
          1    1    5    5  503    0 -0.51433077991E+02  0.52617918039E+03 -0.18240515805E+03  0.55926874852E+03  0.00000000000E+00 0. -1.
         -4    1    5    5    0  503  0.67843066760E+01  0.18288218665E+03 -0.22755280037E+02  0.18441725457E+03  0.00000000000E+00 0.  1.
         -3    1    6    6    0  502 -0.20358539848E+03 -0.48642296797E+02 -0.15447923273E+03  0.26014788267E+03  0.00000000000E+00 0.  1.
<mgrwt>
<rscale>  0 0.26730614E+04</rscale>
<asrwt>0</asrwt>
<pdfrwt beam="1">  1        2 0.29058671E+00 0.26730614E+04</pdfrwt>
<pdfrwt beam="2">  1       -2 0.14549746E+00 0.26730614E+04</pdfrwt>
<totfact> 0.21995772E+00</totfact>
</mgrwt>
</event>
<event>
12    1  0.2404959E-007  0.1863517E+04  0.7818608E-02  0.8673233E-01
         -2   -1    0    0    0  501 -0.00000000000E+00  0.00000000000E+00  0.39416059225E+03  0.39416059225E+03  0.00000000000E+00 0.  1.
          2   -1    0    0  501    0  0.00000000000E+00 -0.00000000000E+00 -0.22025887785E+04  0.22025887785E+04  0.00000000000E+00 0. -1.
         23    2    1    2    0    0  0.70129994310E+03  0.95137446984E+02 -0.76357733347E+03  0.10454791750E+04  0.95412876932E+02 0.  0.
        254    2    1    2    0    0 -0.70129994310E+03 -0.95137446984E+02 -0.10448508527E+04  0.15512701957E+04  0.90213811121E+03 0.  0.
        -24    2    4    4    0    0 -0.68689034910E+03 -0.29220357069E+03 -0.35875360002E+03  0.83288914008E+03  0.88311356759E+02 0.  0.
         24    2    4    4    0    0 -0.14409594005E+02  0.19706612370E+03 -0.68609725272E+03  0.71838105566E+03  0.79367546430E+02 0.  0.
         13    1    3    3    0    0  0.32889737697E+03 -0.33654486739E+01 -0.35045117998E+03  0.48062546788E+03  0.00000000000E+00 0. -1.
        -13    1    3    3    0    0  0.37240256614E+03  0.98502895658E+02 -0.41312615349E+03  0.56485370709E+03  0.00000000000E+00 0.  1.
          2    1    6    6  502    0 -0.29300900583E+02  0.51180296642E+02 -0.29174238806E+03  0.29764338818E+03  0.00000000000E+00 0. -1.
          3    1    5    5  503    0 -0.13953205318E+03 -0.29087535867E+02 -0.45976874834E+02  0.14976365255E+03  0.00000000000E+00 0. -1.
         -4    1    5    5    0  503 -0.54735829592E+03 -0.26311603482E+03 -0.31277672519E+03  0.68312548753E+03  0.00000000000E+00 0.  1.
         -1    1    6    6    0  502  0.14891306578E+02  0.14588582706E+03 -0.39435486466E+03  0.42073766748E+03  0.00000000000E+00 0.  1.
<mgrwt>
<rscale>  0 0.18635168E+04</rscale>
<asrwt>0</asrwt>
<pdfrwt beam="1">  1        2 0.33885981E+00 0.18635168E+04</pdfrwt>
<pdfrwt beam="2">  1       -2 0.60640092E-01 0.18635168E+04</pdfrwt>
<totfact> 0.12243856E+01</totfact>
</mgrwt>
</event>
<event>
12    1  0.2404959E-007  0.2124024E+04  0.7818608E-02  0.8550734E-01
          1   -1    0    0  501    0  0.00000000000E+00  0.00000000000E+00  0.13718551727E+04  0.13718551727E+04  0.00000000000E+00 0. -1.
         -1   -1    0    0    0  501 -0.00000000000E+00 -0.00000000000E+00 -0.82214893098E+03  0.82214893098E+03  0.00000000000E+00 0.  1.
         23    2    1    2    0    0  0.49334732344E+03 -0.19484615555E+03  0.93670620709E+03  0.10803078268E+04  0.91048757796E+02 0.  0.
        254    2    1    2    0    0 -0.49334732344E+03  0.19484615555E+03 -0.38699996543E+03  0.11136962769E+04  0.89955200960E+03 0.  0.
        -24    2    4    4    0    0  0.71966344078E+02  0.73774511220E+02 -0.50206296463E+03  0.51873721229E+03  0.79995260941E+02 0.  0.
         24    2    4    4    0    0 -0.56531366752E+03  0.12107164433E+03  0.11506299921E+03  0.59495906457E+03  0.80615811015E+02 0.  0.
         13    1    3    3    0    0  0.35226109723E+03 -0.17813279481E+03  0.65358863568E+03  0.76354258421E+03  0.00000000000E+00 0.  1.
        -13    1    3    3    0    0  0.14108622621E+03 -0.16713360745E+02  0.28311757141E+03  0.31676524256E+03  0.00000000000E+00 0. -1.
          2    1    6    6  502    0 -0.22899022055E+03  0.88048973405E+01  0.45674830054E+02  0.23366693695E+03  0.00000000000E+00 0. -1.
          3    1    5    5  503    0  0.58762790764E+02  0.67426202742E+02 -0.23771866295E+03  0.25398724596E+03  0.00000000000E+00 0. -1.
         -2    1    5    5    0  503  0.13203553313E+02  0.63483084775E+01 -0.26434430168E+03  0.26474996633E+03  0.00000000000E+00 0.  1.
         -1    1    6    6    0  502 -0.33632344697E+03  0.11226674699E+03  0.69388169152E+02  0.36129212762E+03  0.00000000000E+00 0.  1.
<mgrwt>
<rscale>  0 0.21240238E+04</rscale>
<asrwt>0</asrwt>
<pdfrwt beam="1">  1        1 0.21105464E+00 0.21240238E+04</pdfrwt>
<pdfrwt beam="2">  1       -1 0.12648445E+00 0.21240238E+04</pdfrwt>
<totfact> 0.40105354E+00</totfact>
</mgrwt>
</event>
<event>
12    1  0.2404959E-007  0.1680105E+04  0.7818608E-02  0.8772793E-01
          2   -1    0    0  501    0  0.00000000000E+00  0.00000000000E+00  0.79722176366E+03  0.79722176366E+03  0.00000000000E+00 0. -1.
         -2   -1    0    0    0  501 -0.00000000000E+00 -0.00000000000E+00 -0.88518445439E+03  0.88518445439E+03  0.00000000000E+00 0.  1.
         23    2    1    2    0    0 -0.56634498650E+03  0.17379389078E+03 -0.87513020306E+02  0.60593517117E+03  0.92455084942E+02 0.  0.
        254    2    1    2    0    0  0.56634498650E+03 -0.17379389078E+03 -0.44967042315E+00  0.10764710469E+04  0.89879850488E+03 0.  0.
        -24    2    4    4    0    0  0.39622038813E+03 -0.21631667203E+03  0.41518695543E+03  0.61829813361E+03  0.78287134937E+02 0.  0.
         24    2    4    4    0    0  0.17012459837E+03  0.42522781248E+02 -0.41563662585E+03  0.45817291328E+03  0.80112719472E+02 0.  0.
         11    1    3    3    0    0 -0.21696128684E+03  0.54346424912E+02  0.10497877538E+02  0.22391056099E+03  0.00000000000E+00 0. -1.
        -11    1    3    3    0    0 -0.34938369966E+03  0.11944746587E+03 -0.98010897844E+02  0.38202461018E+03  0.00000000000E+00 0.  1.
          4    1    6    6  502    0  0.14654232809E+03  0.31734642312E+02 -0.40161661551E+03  0.42869295223E+03  0.00000000000E+00 0. -1.
          3    1    5    5  503    0  0.23696704683E+03 -0.16449652578E+03  0.29149301399E+03  0.41009836074E+03  0.00000000000E+00 0. -1.
         -4    1    5    5    0  503  0.15925334130E+03 -0.51820146244E+02  0.12369394143E+03  0.20819977286E+03  0.00000000000E+00 0.  1.
         -3    1    6    6    0  502  0.23582270283E+02  0.10788138936E+02 -0.14020010345E+02  0.29479961049E+02  0.00000000000E+00 0.  1.
<mgrwt>
<rscale>  0 0.16801051E+04</rscale>
<asrwt>0</asrwt>
<pdfrwt beam="1">  1        2 0.12264950E+00 0.16801051E+04</pdfrwt>
<pdfrwt beam="2">  1       -2 0.13618222E+00 0.16801051E+04</pdfrwt>
<totfact> 0.12720644E+01</totfact>
</mgrwt>
</event>
<event>
12    1  0.2404959E-007  0.1545747E+04  0.7818608E-02  0.8854589E-01
          3   -1    0    0  501    0  0.00000000000E+00  0.00000000000E+00  0.10105518274E+04  0.10105518274E+04  0.00000000000E+00 0. -1.
         -3   -1    0    0    0  501 -0.00000000000E+00 -0.00000000000E+00 -0.59109641766E+03  0.59109641766E+03  0.00000000000E+00 0.  1.
         23    2    1    2    0    0 -0.16663470110E+03  0.46630053348E+03  0.35895647219E+02  0.50480103910E+03  0.91281325851E+02 0.  0.
        254    2    1    2    0    0  0.16663470110E+03 -0.46630053348E+03  0.38355976252E+03  0.10968472060E+04  0.90041789780E+03 0.  0.
        -24    2    4    4    0    0 -0.15934316100E+03 -0.37053084689E+03 -0.16818780583E+03  0.44348232579E+03  0.75538624554E+02 0.  0.
         24    2    4    4    0    0  0.32597786210E+03 -0.95769686586E+02  0.55174756835E+03  0.65336488018E+03  0.83826535288E+02 0.  0.
         11    1    3    3    0    0 -0.86691299486E+02  0.22618118076E+03  0.62976933710E+02  0.25027864894E+03  0.00000000000E+00 0. -1.
        -11    1    3    3    0    0 -0.79943401618E+02  0.24011935272E+03 -0.27081286490E+02  0.25452239015E+03  0.00000000000E+00 0.  1.
          2    1    6    6  502    0  0.33078904940E+03 -0.90798193529E+02  0.54067290857E+03  0.64030688050E+03  0.00000000000E+00 0. -1.
          3    1    5    5  503    0 -0.13502387702E+03 -0.29772198246E+03 -0.10293389283E+03  0.34273198348E+03  0.00000000000E+00 0. -1.
         -4    1    5    5    0  503 -0.24319283972E+02 -0.72808864429E+02 -0.65253913002E+02  0.10075034230E+03  0.00000000000E+00 0.  1.
         -1    1    6    6    0  502 -0.48111872952E+01 -0.49714930571E+01  0.11074659785E+02  0.13057999684E+02  0.00000000000E+00 0.  1.
<mgrwt>
<rscale>  0 0.15457472E+04</rscale>
<asrwt>0</asrwt>
<pdfrwt beam="1">  1        3 0.15546951E+00 0.15457472E+04</pdfrwt>
<pdfrwt beam="2">  1       -3 0.90937911E-01 0.15457472E+04</pdfrwt>
<totfact> 0.80910799E-01</totfact>
</mgrwt>
</event>
<event>
12    1  0.2404959E-007  0.1986763E+04  0.7818608E-02  0.8612835E-01
          2   -1    0    0  501    0  0.00000000000E+00  0.00000000000E+00  0.94498134814E+03  0.94498134814E+03  0.00000000000E+00 0. -1.
         -2   -1    0    0    0  501 -0.00000000000E+00 -0.00000000000E+00 -0.10442605753E+04  0.10442605753E+04  0.00000000000E+00 0.  1.
         23    2    1    2    0    0 -0.55577366080E+03 -0.50058623885E+03  0.20502473369E+03  0.78075887392E+03  0.89879548409E+02 0.  0.
        254    2    1    2    0    0  0.55577366080E+03  0.50058623885E+03 -0.30430396088E+03  0.12084830495E+04  0.89908811351E+03 0.  0.
        -24    2    4    4    0    0 -0.12794918891E+03  0.17069595674E+02 -0.33233229159E+03  0.36671706021E+03  0.85873652390E+02 0.  0.
         24    2    4    4    0    0  0.68372284971E+03  0.48351664318E+03  0.28028330709E+02  0.84176598933E+03  0.80741030638E+02 0.  0.
         11    1    3    3    0    0 -0.27648763105E+03 -0.20586725972E+03  0.61797359298E+02  0.35020801299E+03  0.00000000000E+00 0. -1.
        -11    1    3    3    0    0 -0.27928602975E+03 -0.29471897913E+03  0.14322737439E+03  0.43055086093E+03  0.00000000000E+00 0.  1.
          2    1    6    6  502    0  0.50977093850E+03  0.39245617049E+03 -0.62285608454E+00  0.64334177809E+03  0.00000000000E+00 0. -1.
          3    1    5    5  503    0 -0.10309513537E+03 -0.16386530153E+02 -0.17327738956E+03  0.20229231088E+03  0.00000000000E+00 0. -1.
         -4    1    5    5    0  503 -0.24854053540E+02  0.33456125827E+02 -0.15905490202E+03  0.16442474932E+03  0.00000000000E+00 0.  1.
         -1    1    6    6    0  502  0.17395191121E+03  0.91060472690E+02  0.28651186794E+02  0.19842421124E+03  0.00000000000E+00 0.  1.
<mgrwt>
<rscale>  0 0.19867630E+04</rscale>
<asrwt>0</asrwt>
<pdfrwt beam="1">  1        2 0.14538175E+00 0.19867630E+04</pdfrwt>
<pdfrwt beam="2">  1       -2 0.16065547E+00 0.19867630E+04</pdfrwt>
<totfact> 0.63366964E+00</totfact>
</mgrwt>
</event>
<event>
12    1  0.2404959E-007  0.3780125E+04  0.7818608E-02  0.8050434E-01
          2   -1    0    0  501    0  0.00000000000E+00  0.00000000000E+00  0.24228109719E+04  0.24228109719E+04  0.00000000000E+00 0.  1.
         -2   -1    0    0    0  501 -0.00000000000E+00 -0.00000000000E+00 -0.14744591113E+04  0.14744591113E+04  0.00000000000E+00 0. -1.
         23    2    1    2    0    0 -0.56063268493E+03  0.12932958695E+04 -0.67726761481E+03  0.15664530390E+04  0.90335419693E+02 0.  0.
        254    2    1    2    0    0  0.56063268493E+03 -0.12932958695E+04  0.16256194754E+04  0.23308170442E+04  0.89618424503E+03 0.  0.
        -24    2    4    4    0    0  0.60433188961E+03 -0.42298098924E+03  0.10408894760E+04  0.12782970369E+04  0.80389448144E+02 0.  0.
         24    2    4    4    0    0 -0.43699204680E+02 -0.87031488024E+03  0.58472999946E+03  0.10525200072E+04  0.80818204057E+02 0.  0.
         13    1    3    3    0    0 -0.53876810610E+03  0.11812534555E+04 -0.62252991670E+03  0.14398521783E+04  0.00000000000E+00 0. -1.
        -13    1    3    3    0    0 -0.21864578837E+02  0.11204241402E+03 -0.54737698111E+02  0.12660086075E+03  0.00000000000E+00 0.  1.
          2    1    6    6  502    0 -0.48092403391E+02 -0.27365380386E+03  0.16739318829E+03  0.32437595953E+03  0.00000000000E+00 0. -1.
          3    1    5    5  503    0  0.21157013203E+03 -0.17390951303E+03  0.33079592887E+03  0.42945591863E+03  0.00000000000E+00 0. -1.
         -4    1    5    5    0  503  0.39276175759E+03 -0.24907147622E+03  0.71009354711E+03  0.84884111831E+03  0.00000000000E+00 0.  1.
         -1    1    6    6    0  502  0.43931987106E+01 -0.59666107637E+03  0.41733681116E+03  0.72814404770E+03  0.00000000000E+00 0.  1.
<mgrwt>
<rscale>  0 0.37801247E+04</rscale>
<asrwt>0</asrwt>
<pdfrwt beam="1">  1        2 0.37274015E+00 0.37801247E+04</pdfrwt>
<pdfrwt beam="2">  1       -2 0.22683986E+00 0.37801247E+04</pdfrwt>
<totfact> 0.27723365E-01</totfact>
</mgrwt>
</event>
<event>
12    1  0.2404959E-007  0.1121783E+04  0.7818608E-02  0.9184217E-01
          1   -1    0    0  501    0  0.00000000000E+00  0.00000000000E+00  0.15326974811E+04  0.15326974811E+04  0.00000000000E+00 0. -1.
         -1   -1    0    0    0  501 -0.00000000000E+00 -0.00000000000E+00 -0.20525870079E+03  0.20525870079E+03  0.00000000000E+00 0.  1.
         23    2    1    2    0    0  0.14059610736E+02 -0.11278059162E+03  0.46203931572E+03  0.48432957643E+03  0.90430497251E+02 0.  0.
        254    2    1    2    0    0 -0.14059610736E+02  0.11278059162E+03  0.86539946463E+03  0.12536266055E+04  0.89985904349E+03 0.  0.
        -24    2    4    4    0    0  0.36805583256E+03 -0.13428839933E+03  0.59886435494E+03  0.72030146315E+03  0.81836496294E+02 0.  0.
         24    2    4    4    0    0 -0.38211544329E+03  0.24706899094E+03  0.26653510969E+03  0.53332514235E+03  0.79620628488E+02 0.  0.
         13    1    3    3    0    0 -0.13573822542E+02  0.52414500712E+01  0.14033537296E+02  0.20215380933E+02  0.00000000000E+00 0.  1.
        -13    1    3    3    0    0  0.27633433278E+02 -0.11802204169E+03  0.44800577842E+03  0.46411419549E+03  0.00000000000E+00 0. -1.
          4    1    6    6  502    0 -0.20186112777E+03  0.11517811571E+03  0.92365913830E+02  0.25009073410E+03  0.00000000000E+00 0. -1.
          3    1    5    5  503    0  0.30434464368E+03 -0.10015344887E+03  0.53623229126E+03  0.62466106462E+03  0.00000000000E+00 0. -1.
         -4    1    5    5    0  503  0.63711188878E+02 -0.34134950461E+02  0.62632063682E+02  0.95640398537E+02  0.00000000000E+00 0.  1.
         -3    1    6    6    0  502 -0.18025431552E+03  0.13189087523E+03  0.17416919586E+03  0.28323440826E+03  0.00000000000E+00 0.  1.
<mgrwt>
<rscale>  0 0.11217834E+04</rscale>
<asrwt>0</asrwt>
<pdfrwt beam="1">  1        1 0.23579961E+00 0.11217834E+04</pdfrwt>
<pdfrwt beam="2">  1       -1 0.31578263E-01 0.11217834E+04</pdfrwt>
<totfact> 0.57585081E+01</totfact>
</mgrwt>
</event>
<event>
12    1  0.2404959E-007  0.2854876E+04  0.7818608E-02  0.8286431E-01
         -2   -1    0    0    0  501 -0.00000000000E+00  0.00000000000E+00  0.68219932587E+03  0.68219932587E+03  0.00000000000E+00 0. -1.
          2   -1    0    0  501    0  0.00000000000E+00 -0.00000000000E+00 -0.29867791540E+04  0.29867791540E+04  0.00000000000E+00 0.  1.
         23    2    1    2    0    0 -0.52272398034E+03  0.11692435537E+04 -0.93877084379E+03  0.15906008461E+04  0.91375636588E+02 0.  0.
        254    2    1    2    0    0  0.52272398034E+03 -0.11692435537E+04 -0.13658089844E+04  0.20783776338E+04  0.90213555495E+03 0.  0.
        -24    2    4    4    0    0  0.76508391869E+02 -0.60029475954E+03 -0.10003975913E+03  0.61854910916E+03  0.79923179883E+02 0.  0.
         24    2    4    4    0    0  0.44621558847E+03 -0.56894879414E+03 -0.12657692252E+04  0.14598285246E+04  0.78208107540E+02 0.  0.
         11    1    3    3    0    0 -0.22816121443E+03  0.40342134302E+03 -0.33327849604E+03  0.57085976886E+03  0.00000000000E+00 0. -1.
        -11    1    3    3    0    0 -0.29456276591E+03  0.76582221066E+03 -0.60549234774E+03  0.10197410772E+04  0.00000000000E+00 0.  1.
          2    1    6    6  502    0  0.59319161409E+01 -0.30192506367E+02 -0.67958402500E+02  0.74599728821E+02  0.00000000000E+00 0. -1.
          3    1    5    5  503    0  0.34369668804E+02 -0.67096486719E+02 -0.77491762388E+01  0.75784314974E+02  0.00000000000E+00 0. -1.
         -4    1    5    5    0  503  0.42138723065E+02 -0.53319827282E+03 -0.92290582895E+02  0.54276479419E+03  0.00000000000E+00 0.  1.
         -1    1    6    6    0  502  0.44028367233E+03 -0.53875628777E+03 -0.11978108227E+04  0.13852287958E+04  0.00000000000E+00 0.  1.
<mgrwt>
<rscale>  0 0.28548756E+04</rscale>
<asrwt>0</asrwt>
<pdfrwt beam="1">  1        2 0.45950450E+00 0.28548756E+04</pdfrwt>
<pdfrwt beam="2">  1       -2 0.10495374E+00 0.28548756E+04</pdfrwt>
<totfact> 0.11307282E+00</totfact>
</mgrwt>
</event>
<event>
12    1  0.2404959E-007  0.2547478E+04  0.7818608E-02  0.8386264E-01
         -1   -1    0    0    0  501 -0.00000000000E+00  0.00000000000E+00  0.12505791950E+04  0.12505791950E+04  0.00000000000E+00 0.  1.
          1   -1    0    0  501    0  0.00000000000E+00 -0.00000000000E+00 -0.12973279296E+04  0.12973279296E+04  0.00000000000E+00 0. -1.
         23    2    1    2    0    0  0.66599578288E+03 -0.85742503992E+03 -0.26443932624E+03  0.11209771204E+04  0.89070002164E+02 0.  0.
        254    2    1    2    0    0 -0.66599578288E+03  0.85742503992E+03  0.21769059161E+03  0.14269300043E+04  0.90000664525E+03 0.  0.
        -24    2    4    4    0    0 -0.73283878177E+03  0.96523877372E+03  0.30600824168E+03  0.12525738299E+04  0.81003610400E+02 0.  0.
         24    2    4    4    0    0  0.66842998887E+02 -0.10781373380E+03 -0.88317650072E+02  0.17435617441E+03  0.80673914894E+02 0.  0.
         11    1    3    3    0    0  0.47947055626E+03 -0.58772340389E+03 -0.14661200320E+03  0.77253213091E+03  0.00000000000E+00 0.  1.
        -11    1    3    3    0    0  0.18652522662E+03 -0.26970163603E+03 -0.11782732304E+03  0.34844498949E+03  0.00000000000E+00 0. -1.
          4    1    6    6  502    0  0.28621588454E+02 -0.83424548427E+02 -0.16961668309E+02  0.89813967720E+02  0.00000000000E+00 0. -1.
          1    1    5    5  503    0 -0.22220103501E+03  0.34075557585E+03  0.77073546622E+02  0.41403863832E+03  0.00000000000E+00 0. -1.
         -2    1    5    5    0  503 -0.51063774676E+03  0.62448319787E+03  0.22893469506E+03  0.83853519153E+03  0.00000000000E+00 0.  1.
         -3    1    6    6    0  502  0.38221410433E+02 -0.24389185376E+02 -0.71355981763E+02  0.84542206691E+02  0.00000000000E+00 0.  1.
<mgrwt>
<rscale>  0 0.25474782E+04</rscale>
<asrwt>0</asrwt>
<pdfrwt beam="1">  1        1 0.19958891E+00 0.25474782E+04</pdfrwt>
<pdfrwt beam="2">  1       -1 0.19239680E+00 0.25474782E+04</pdfrwt>
<totfact> 0.13665463E+00</totfact>
</mgrwt>
</event>
<event>
12    1  0.2404959E-007  0.2184390E+04  0.7818608E-02  0.8524953E-01
          2   -1    0    0  501    0  0.00000000000E+00  0.00000000000E+00  0.69094027895E+03  0.69094027895E+03  0.00000000000E+00 0. -1.
         -2   -1    0    0    0  501 -0.00000000000E+00 -0.00000000000E+00 -0.17264737738E+04  0.17264737738E+04  0.00000000000E+00 0.  1.
         23    2    1    2    0    0 -0.37821029570E+03 -0.20883939974E+03  0.44733439384E+03  0.62960615242E+03  0.98178025014E+02 0.  0.
        254    2    1    2    0    0  0.37821029570E+03  0.20883939974E+03 -0.14828678887E+04  0.17878079003E+04  0.90039046559E+03 0.  0.
        -24    2    4    4    0    0  0.52121836675E+01  0.50259793838E+03 -0.87950096650E+03  0.10159821890E+04  0.77884553748E+02 0.  0.
         24    2    4    4    0    0  0.37299811203E+03 -0.29375853863E+03 -0.60336692221E+03  0.77182571138E+03  0.79003894392E+02 0.  0.
         11    1    3    3    0    0 -0.35331562124E+03 -0.20099726206E+03  0.37628919317E+03  0.55391821099E+03  0.00000000000E+00 0.  1.
        -11    1    3    3    0    0 -0.24894674457E+02 -0.78421376809E+01  0.71045200670E+02  0.75687941430E+02  0.00000000000E+00 0. -1.
          4    1    6    6  502    0  0.18567143166E+03 -0.98090994920E+02 -0.27995902106E+03  0.34996110825E+03  0.00000000000E+00 0. -1.
          3    1    5    5  503    0 -0.25775702190E+02  0.30723918464E+03 -0.58397267652E+03  0.66036686040E+03  0.00000000000E+00 0. -1.
         -4    1    5    5    0  503  0.30987885858E+02  0.19535875373E+03 -0.29552828998E+03  0.35561532856E+03  0.00000000000E+00 0.  1.
         -3    1    6    6    0  502  0.18732668038E+03 -0.19566754371E+03 -0.32340790115E+03  0.42186460312E+03  0.00000000000E+00 0.  1.
<mgrwt>
<rscale>  0 0.21843903E+04</rscale>
<asrwt>0</asrwt>
<pdfrwt beam="1">  1        2 0.10629851E+00 0.21843903E+04</pdfrwt>
<pdfrwt beam="2">  1       -2 0.26561135E+00 0.21843903E+04</pdfrwt>
<totfact> 0.19653772E+00</totfact>
</mgrwt>
</event>
<event>
12    1  0.2404959E-007  0.1571545E+04  0.7818608E-02  0.8838222E-01
         -2   -1    0    0    0  501 -0.00000000000E+00  0.00000000000E+00  0.38164941849E+03  0.38164941849E+03  0.00000000000E+00 0.  1.
          2   -1    0    0  501    0  0.00000000000E+00 -0.00000000000E+00 -0.16178159803E+04  0.16178159803E+04  0.00000000000E+00 0. -1.
         23    2    1    2    0    0  0.77077887631E+02  0.39570644832E+03 -0.84105419213E+03  0.93722996051E+03  0.92213072614E+02 0.  0.
        254    2    1    2    0    0 -0.77077887631E+02 -0.39570644832E+03 -0.39511236967E+03  0.10622354383E+04  0.89983651164E+03 0.  0.
        -24    2    4    4    0    0  0.22394232062E+03  0.15756465102E+03 -0.30881293231E+03  0.42083516625E+03  0.82219388098E+02 0.  0.
         24    2    4    4    0    0 -0.30102020825E+03 -0.55327109934E+03 -0.86299437362E+02  0.64140027203E+03  0.84997887818E+02 0.  0.
         13    1    3    3    0    0  0.73779522737E+02  0.28676940199E+03 -0.69100595674E+03  0.75177745387E+03  0.00000000000E+00 0. -1.
        -13    1    3    3    0    0  0.32983648939E+01  0.10893704633E+03 -0.15004823539E+03  0.18545250664E+03  0.00000000000E+00 0.  1.
          4    1    6    6  502    0 -0.12118565089E+03 -0.30979203522E+03 -0.53693520947E+02  0.33695706145E+03  0.00000000000E+00 0. -1.
          3    1    5    5  503    0  0.13677165504E+02  0.45714764128E+02 -0.53222949566E+02  0.71481374329E+02  0.00000000000E+00 0. -1.
         -4    1    5    5    0  503  0.21026515512E+03  0.11184988689E+03 -0.25558998274E+03  0.34935379192E+03  0.00000000000E+00 0.  1.
         -3    1    6    6    0  502 -0.17983455736E+03 -0.24347906411E+03 -0.32605916414E+02  0.30444321058E+03  0.00000000000E+00 0.  1.
<mgrwt>
<rscale>  0 0.15715451E+04</rscale>
<asrwt>0</asrwt>
<pdfrwt beam="1">  1        2 0.24889477E+00 0.15715451E+04</pdfrwt>
<pdfrwt beam="2">  1       -2 0.58715295E-01 0.15715451E+04</pdfrwt>
<totfact> 0.28391970E+01</totfact>
</mgrwt>
</event>
<event>
12    1  0.2404959E-007  0.1754690E+04  0.7818608E-02  0.8730773E-01
         -1   -1    0    0    0  501 -0.00000000000E+00  0.00000000000E+00  0.74616966187E+03  0.74616966187E+03  0.00000000000E+00 0.  1.
          1   -1    0    0  501    0  0.00000000000E+00 -0.00000000000E+00 -0.10315806946E+04  0.10315806946E+04  0.00000000000E+00 0. -1.
         23    2    1    2    0    0 -0.52366878853E+03 -0.23398449784E+03  0.18593292676E+03  0.60951020646E+03  0.89184601928E+02 0.  0.
        254    2    1    2    0    0  0.52366878853E+03  0.23398449784E+03 -0.47134395950E+03  0.11682401500E+04  0.90202116085E+03 0.  0.
        -24    2    4    4    0    0  0.59376064953E+03  0.17132779250E+03 -0.68214688269E+03  0.92397751683E+03  0.80654576049E+02 0.  0.
         24    2    4    4    0    0 -0.70091860999E+02  0.62656705332E+02  0.21080292318E+03  0.24426263318E+03  0.79922649124E+02 0.  0.
         13    1    3    3    0    0 -0.27878966653E+03 -0.12888068796E+03  0.52875500152E+02  0.31165642687E+03  0.00000000000E+00 0. -1.
        -13    1    3    3    0    0 -0.24487912200E+03 -0.10510380987E+03  0.13305742661E+03  0.29785377959E+03  0.00000000000E+00 0.  1.
          2    1    6    6  502    0 -0.36687681596E+02  0.58744354425E+02  0.19532257497E+03  0.20723849413E+03  0.00000000000E+00 0. -1.
          3    1    5    5  503    0  0.52615933641E+03  0.16460876458E+03 -0.57099794017E+03  0.79371174890E+03  0.00000000000E+00 0. -1.
         -4    1    5    5    0  503  0.67601313119E+02  0.67190279280E+01 -0.11114894252E+03  0.13026576793E+03  0.00000000000E+00 0.  1.
         -1    1    6    6    0  502 -0.33404179403E+02  0.39123509078E+01  0.15480348213E+02  0.37024139045E+02  0.00000000000E+00 0.  1.
<mgrwt>
<rscale>  0 0.17546900E+04</rscale>
<asrwt>0</asrwt>
<pdfrwt beam="1">  1        1 0.15870472E+00 0.17546900E+04</pdfrwt>
<pdfrwt beam="2">  1       -1 0.11479533E+00 0.17546900E+04</pdfrwt>
<totfact> 0.93385120E+00</totfact>
</mgrwt>
</event>
<event>
12    1  0.2404959E-007  0.2058748E+04  0.7818608E-02  0.8579636E-01
         -2   -1    0    0    0  501 -0.00000000000E+00  0.00000000000E+00  0.33969592294E+03  0.33969592294E+03  0.00000000000E+00 0.  1.
          2   -1    0    0  501    0  0.00000000000E+00 -0.00000000000E+00 -0.31192924859E+04  0.31192924859E+04  0.00000000000E+00 0. -1.
         23    2    1    2    0    0  0.65153223449E+03  0.50880136998E+03 -0.10408187613E+04  0.13325093002E+04  0.94362358730E+02 0.  0.
        254    2    1    2    0    0 -0.65153223449E+03 -0.50880136998E+03 -0.17387778017E+04  0.21264791086E+04  0.90287987516E+03 0.  0.
        -24    2    4    4    0    0 -0.57648676443E+03  0.67609557170E+02 -0.56531196459E+03  0.81453316739E+03  0.83538145154E+02 0.  0.
         24    2    4    4    0    0 -0.75045470068E+02 -0.57641092715E+03 -0.11734658371E+04  0.13119459412E+04  0.79364364055E+02 0.  0.
         13    1    3    3    0    0  0.41346968568E+03  0.37522790410E+03 -0.67293819741E+03  0.87441350546E+03  0.00000000000E+00 0. -1.
        -13    1    3    3    0    0  0.23806254881E+03  0.13357346588E+03 -0.36788056386E+03  0.45809579479E+03  0.00000000000E+00 0.  1.
          4    1    6    6  502    0  0.17015267916E+02 -0.96008188548E+02 -0.19911600840E+03  0.22170763724E+03  0.00000000000E+00 0. -1.
          1    1    5    5  503    0 -0.29011707808E+02  0.92012529495E+01 -0.87865909275E+01  0.31678800892E+02  0.00000000000E+00 0. -1.
         -2    1    5    5    0  503 -0.54747505662E+03  0.58408304221E+02 -0.55652537366E+03  0.78285436650E+03  0.00000000000E+00 0.  1.
         -3    1    6    6    0  502 -0.92060737984E+02 -0.48040273861E+03 -0.97434982869E+03  0.10902383040E+04  0.00000000000E+00 0.  1.
<mgrwt>
<rscale>  0 0.20587481E+04</rscale>
<asrwt>0</asrwt>
<pdfrwt beam="1">  1        2 0.47989115E+00 0.20587481E+04</pdfrwt>
<pdfrwt beam="2">  1       -2 0.52260911E-01 0.20587481E+04</pdfrwt>
<totfact> 0.46860319E+00</totfact>
</mgrwt>
</event>
<event>
12    1  0.2404959E-007  0.4268958E+04  0.7818608E-02  0.7952383E-01
          2   -1    0    0  501    0  0.00000000000E+00  0.00000000000E+00  0.39678844340E+04  0.39678844340E+04  0.00000000000E+00 0. -1.
         -2   -1    0    0    0  501 -0.00000000000E+00 -0.00000000000E+00 -0.11482190832E+04  0.11482190832E+04  0.00000000000E+00 0.  1.
         23    2    1    2    0    0  0.64456569279E+03 -0.19003361045E+04  0.17788677970E+04  0.26832529314E+04  0.93452727553E+02 0.  0.
        254    2    1    2    0    0 -0.64456569279E+03  0.19003361045E+04  0.10407975538E+04  0.24328505857E+04  0.89931094846E+03 0.  0.
        -24    2    4    4    0    0 -0.62265848760E+03  0.15487858190E+04  0.11789327409E+04  0.20451269190E+04  0.78870791326E+02 0.  0.
         24    2    4    4    0    0 -0.21907205184E+02  0.35155028552E+03 -0.13813518713E+03  0.38772366676E+03  0.84739500557E+02 0.  0.
         11    1    3    3    0    0  0.40919141543E+03 -0.11233877547E+04  0.11090775920E+04  0.16307945201E+04  0.00000000000E+00 0. -1.
        -11    1    3    3    0    0  0.23537427736E+03 -0.77694834987E+03  0.66979020502E+03  0.10524584113E+04  0.00000000000E+00 0.  1.
          4    1    6    6  502    0 -0.46115313082E+01  0.26898639844E+03 -0.14015125469E+03  0.30334357247E+03  0.00000000000E+00 0. -1.
          3    1    5    5  503    0 -0.56702954086E+03  0.13799773278E+04  0.10262644511E+04  0.18108226443E+04  0.00000000000E+00 0. -1.
         -4    1    5    5    0  503 -0.55628946740E+02  0.16880849121E+03  0.15266828981E+03  0.23430427468E+03  0.00000000000E+00 0.  1.
         -1    1    6    6    0  502 -0.17295673876E+02  0.82563887074E+02  0.20160675575E+01  0.84380094287E+02  0.00000000000E+00 0.  1.
<mgrwt>
<rscale>  0 0.42689580E+04</rscale>
<asrwt>0</asrwt>
<pdfrwt beam="1">  1        2 0.61044375E+00 0.42689580E+04</pdfrwt>
<pdfrwt beam="2">  1       -2 0.17664909E+00 0.42689580E+04</pdfrwt>
<totfact> 0.53428059E-02</totfact>
</mgrwt>
</event>
<event>
12    1  0.2404959E-007  0.2216592E+04  0.7818608E-02  0.8511554E-01
          1   -1    0    0  501    0  0.00000000000E+00  0.00000000000E+00  0.45189752937E+03  0.45189752937E+03  0.00000000000E+00 0. -1.
         -1   -1    0    0    0  501 -0.00000000000E+00 -0.00000000000E+00 -0.27181373429E+04  0.27181373429E+04  0.00000000000E+00 0.  1.
         23    2    1    2    0    0 -0.68047225121E+03 -0.62272348730E+03 -0.96886621156E+03  0.13409270974E+04  0.92502531997E+02 0.  0.
        254    2    1    2    0    0  0.68047225121E+03  0.62272348730E+03 -0.12973736019E+04  0.18291077748E+04  0.90090507964E+03 0.  0.
        -24    2    4    4    0    0  0.47501372908E+03 -0.64430591893E+02 -0.85231949693E+03  0.98108138090E+03  0.79264160436E+02 0.  0.
         24    2    4    4    0    0  0.20545852213E+03  0.68715407920E+03 -0.44505410502E+03  0.84802639390E+03  0.81741516308E+02 0.  0.
         11    1    3    3    0    0 -0.18343884835E+03 -0.22428164588E+03 -0.28823485786E+03  0.40869475290E+03  0.00000000000E+00 0. -1.
        -11    1    3    3    0    0 -0.49703340286E+03 -0.39844184142E+03 -0.68063135370E+03  0.93223234453E+03  0.00000000000E+00 0.  1.
          2    1    6    6  502    0  0.51026516761E+02  0.79368359466E+02 -0.67925725981E+02  0.11626240212E+03  0.00000000000E+00 0. -1.
          1    1    5    5  503    0  0.16526750217E+01  0.10560083059E+01 -0.29468730068E+02  0.29533921854E+02  0.00000000000E+00 0. -1.
         -2    1    5    5    0  503  0.47336105406E+03 -0.65486600199E+02 -0.82285076686E+03  0.95154745905E+03  0.00000000000E+00 0.  1.
         -1    1    6    6    0  502  0.15443200537E+03  0.60778571973E+03 -0.37712837904E+03  0.73176399178E+03  0.00000000000E+00 0.  1.
<mgrwt>
<rscale>  0 0.22165916E+04</rscale>
<asrwt>0</asrwt>
<pdfrwt beam="1">  1        1 0.69522697E-01 0.22165916E+04</pdfrwt>
<pdfrwt beam="2">  1       -1 0.41817497E+00 0.22165916E+04</pdfrwt>
<totfact> 0.24891859E-01</totfact>
</mgrwt>
</event>
<event>
12    1  0.2404959E-007  0.2124944E+04  0.7818608E-02  0.8550334E-01
          2   -1    0    0  501    0  0.00000000000E+00  0.00000000000E+00  0.33791436948E+04  0.33791436948E+04  0.00000000000E+00 0. -1.
         -2   -1    0    0    0  501 -0.00000000000E+00 -0.00000000000E+00 -0.33406293520E+03  0.33406293520E+03  0.00000000000E+00 0.  1.
         23    2    1    2    0    0  0.60054173295E+03 -0.61395255734E+03  0.14838835296E+04  0.17170171764E+04  0.93002897394E+02 0.  0.
        254    2    1    2    0    0 -0.60054173295E+03  0.61395255734E+03  0.15611972300E+04  0.19961894536E+04  0.89991523384E+03 0.  0.
        -24    2    4    4    0    0 -0.27149663215E+03 -0.16676902941E+03  0.18229141696E+03  0.37587565366E+03  0.80808513641E+02 0.  0.
         24    2    4    4    0    0 -0.32904510080E+03  0.78072158675E+03  0.13789058131E+04  0.16203138000E+04  0.78985408298E+02 0.  0.
         13    1    3    3    0    0  0.23419810424E+03 -0.29954065577E+03  0.69192296100E+03  0.78951297674E+03  0.00000000000E+00 0.  1.
        -13    1    3    3    0    0  0.36634362871E+03 -0.31441190157E+03  0.79196056861E+03  0.92750419965E+03  0.00000000000E+00 0. -1.
          4    1    6    6  502    0 -0.11104349268E+03  0.31858910255E+03  0.48792326374E+03  0.59321057376E+03  0.00000000000E+00 0. -1.
          1    1    5    5  503    0 -0.25648167034E+03 -0.16667629002E+03  0.18885792725E+03  0.35948734270E+03  0.00000000000E+00 0. -1.
         -2    1    5    5    0  503 -0.15014961807E+02 -0.92739391388E-01 -0.65665102907E+01  0.16388310958E+02  0.00000000000E+00 0.  1.
         -3    1    6    6    0  502 -0.21800160812E+03  0.46213248420E+03  0.89098254934E+03  0.10271032262E+04  0.00000000000E+00 0.  1.
<mgrwt>
<rscale>  0 0.21249439E+04</rscale>
<asrwt>0</asrwt>
<pdfrwt beam="1">  1        2 0.51986824E+00 0.21249439E+04</pdfrwt>
<pdfrwt beam="2">  1       -2 0.51394300E-01 0.21249439E+04</pdfrwt>
<totfact> 0.32521229E+00</totfact>
</mgrwt>
</event>
<event>
12    1  0.2404959E-007  0.1134745E+04  0.7818608E-02  0.9171974E-01
          1   -1    0    0  501    0  0.00000000000E+00  0.00000000000E+00  0.37064272388E+03  0.37064272388E+03  0.00000000000E+00 0. -1.
         -1   -1    0    0    0  501 -0.00000000000E+00 -0.00000000000E+00 -0.86852222115E+03  0.86852222115E+03  0.00000000000E+00 0.  1.
         23    2    1    2    0    0 -0.93476650584E+02  0.15992985810E+03 -0.15082553095E+03  0.25581325535E+03  0.91523970154E+02 0.  0.
        254    2    1    2    0    0  0.93476650584E+02 -0.15992985810E+03 -0.34705396632E+03  0.98335168968E+03  0.90123173842E+03 0.  0.
        -24    2    4    4    0    0 -0.32127466410E+03 -0.27678970921E+03 -0.33250985696E+03  0.54473419896E+03  0.79640376875E+02 0.  0.
         24    2    4    4    0    0  0.41475131468E+03  0.11685985111E+03 -0.14544109366E+02  0.43861749072E+03  0.80615719391E+02 0.  0.
         11    1    3    3    0    0 -0.27734622117E+01 -0.43187407598E+01 -0.34868452671E+02  0.35244185422E+02  0.00000000000E+00 0.  1.
        -11    1    3    3    0    0 -0.90703188373E+02  0.16424859886E+03 -0.11595707828E+03  0.22056906993E+03  0.00000000000E+00 0. -1.
          2    1    6    6  502    0  0.21948225556E+03  0.38520331860E+02 -0.40953993866E+02  0.22656898748E+03  0.00000000000E+00 0. -1.
          1    1    5    5  503    0 -0.94063872816E+01 -0.31657649533E+01  0.38320450343E+01  0.10638926571E+02  0.00000000000E+00 0. -1.
         -2    1    5    5    0  503 -0.31186827681E+03 -0.27362394426E+03 -0.33634190199E+03  0.53409527239E+03  0.00000000000E+00 0.  1.
         -1    1    6    6    0  502  0.19526905912E+03  0.78339519254E+02  0.26409884501E+02  0.21204850324E+03  0.00000000000E+00 0.  1.
<mgrwt>
<rscale>  0 0.11347448E+04</rscale>
<asrwt>0</asrwt>
<pdfrwt beam="1">  1        1 0.57021958E-01 0.11347448E+04</pdfrwt>
<pdfrwt beam="2">  1       -1 0.13361880E+00 0.11347448E+04</pdfrwt>
<totfact> 0.31225793E+01</totfact>
</mgrwt>
</event>
<event>
12    1  0.2404959E-007  0.1053989E+04  0.7818608E-02  0.9251235E-01
          2   -1    0    0  501    0  0.00000000000E+00  0.00000000000E+00  0.14452797845E+04  0.14452797845E+04  0.00000000000E+00 0. -1.
         -2   -1    0    0    0  501 -0.00000000000E+00 -0.00000000000E+00 -0.19215885660E+03  0.19215885660E+03  0.00000000000E+00 0.  1.
         23    2    1    2    0    0  0.10749177788E+03 -0.29646003216E+02  0.21095331990E+03  0.25648790223E+03  0.94081735720E+02 0.  0.
        254    2    1    2    0    0 -0.10749177788E+03  0.29646003216E+02  0.10421676080E+04  0.13809507389E+04  0.89915418711E+03 0.  0.
        -24    2    4    4    0    0  0.19448845492E+02  0.36384837132E+03  0.12562957162E+03  0.39411853351E+03  0.82357357243E+02 0.  0.
         24    2    4    4    0    0 -0.12694062337E+03 -0.33420236810E+03  0.91653803639E+03  0.98683220536E+03  0.77399513384E+02 0.  0.
         13    1    3    3    0    0  0.43581298544E+02  0.11769765287E+01  0.16795523430E+03  0.17352139806E+03  0.00000000000E+00 0. -1.
        -13    1    3    3    0    0  0.63910479333E+02 -0.30822979745E+02  0.42998085602E+02  0.82966504171E+02  0.00000000000E+00 0.  1.
          4    1    6    6  502    0  0.49768291321E+01 -0.84738026425E+00  0.32116510183E+02  0.32510876762E+02  0.00000000000E+00 0. -1.
          3    1    5    5  503    0 -0.58560598480E+01  0.73839390966E+02  0.60913399465E+02  0.95900945405E+02  0.00000000000E+00 0. -1.
         -4    1    5    5    0  503  0.25304905340E+02  0.29000898035E+03  0.64716172153E+02  0.29821758811E+03  0.00000000000E+00 0.  1.
         -3    1    6    6    0  502 -0.13191745250E+03 -0.33335498784E+03  0.88442152621E+03  0.95432132860E+03  0.00000000000E+00 0.  1.
<mgrwt>
<rscale>  0 0.10539892E+04</rscale>
<asrwt>0</asrwt>
<pdfrwt beam="1">  1        2 0.22235073E+00 0.10539892E+04</pdfrwt>
<pdfrwt beam="2">  1       -2 0.29562902E-01 0.10539892E+04</pdfrwt>
<totfact> 0.14290400E+02</totfact>
</mgrwt>
</event>
<event>
12    1  0.2404959E-007  0.1373032E+04  0.7818608E-02  0.8973574E-01
          2   -1    0    0  501    0  0.00000000000E+00  0.00000000000E+00  0.16126901655E+04  0.16126901655E+04  0.00000000000E+00 0. -1.
         -2   -1    0    0    0  501 -0.00000000000E+00 -0.00000000000E+00 -0.29224719103E+03  0.29224719103E+03  0.00000000000E+00 0.  1.
         23    2    1    2    0    0  0.36540572594E+03 -0.30823779576E+02  0.53533210424E+03  0.65513436481E+03  0.90272499653E+02 0.  0.
        254    2    1    2    0    0 -0.36540572594E+03  0.30823779576E+02  0.78511087023E+03  0.12498029917E+04  0.90063143940E+03 0.  0.
        -24    2    4    4    0    0  0.20799158143E+03 -0.22516645889E+03  0.14079014957E+03  0.34647227568E+03  0.79124834550E+02 0.  0.
         24    2    4    4    0    0 -0.57339730737E+03  0.25599023847E+03  0.64432072065E+03  0.90333071604E+03  0.80880882684E+02 0.  0.
         11    1    3    3    0    0  0.22449387117E+03 -0.55279779966E+02  0.37244851808E+03  0.43837341489E+03  0.00000000000E+00 0.  1.
        -11    1    3    3    0    0  0.14091185477E+03  0.24456000390E+02  0.16288358616E+03  0.21676094992E+03  0.00000000000E+00 0. -1.
          4    1    6    6  502    0 -0.17136895939E+02 -0.33239982648E+01  0.77981699948E+01  0.19118933604E+02  0.00000000000E+00 0. -1.
          3    1    5    5  503    0  0.98511860997E+02 -0.55415382406E+02  0.34248661837E+02  0.11810343857E+03  0.00000000000E+00 0. -1.
         -4    1    5    5    0  503  0.10947972043E+03 -0.16975107649E+03  0.10654148774E+03  0.22836883711E+03  0.00000000000E+00 0.  1.
         -3    1    6    6    0  502 -0.55626041143E+03  0.25931423673E+03  0.63652255066E+03  0.88421178243E+03  0.00000000000E+00 0.  1.
<mgrwt>
<rscale>  0 0.13730319E+04</rscale>
<asrwt>0</asrwt>
<pdfrwt beam="1">  1        2 0.24810617E+00 0.13730319E+04</pdfrwt>
<pdfrwt beam="2">  1       -2 0.44961107E-01 0.13730319E+04</pdfrwt>
<totfact> 0.50179888E+01</totfact>
</mgrwt>
</event>
<event>
12    1  0.2404959E-007  0.1887734E+04  0.7818608E-02  0.8660986E-01
          1   -1    0    0  501    0  0.00000000000E+00  0.00000000000E+00  0.16772833942E+04  0.16772833942E+04  0.00000000000E+00 0. -1.
         -1   -1    0    0    0  501 -0.00000000000E+00 -0.00000000000E+00 -0.53114761174E+03  0.53114761174E+03  0.00000000000E+00 0.  1.
         23    2    1    2    0    0  0.18477739207E+01  0.34441986394E+03 -0.30283333514E+03  0.46785388577E+03  0.92470387758E+02 0.  0.
        254    2    1    2    0    0 -0.18477739207E+01 -0.34441986394E+03  0.14489691176E+04  0.17405771202E+04  0.90081560295E+03 0.  0.
        -24    2    4    4    0    0  0.98483531998E+02  0.27544405473E+03  0.68029480983E+03  0.74479041525E+03  0.79644842974E+02 0.  0.
         24    2    4    4    0    0 -0.10033130592E+03 -0.61986391867E+03  0.76867430777E+03  0.99578670491E+03  0.80207989760E+02 0.  0.
         11    1    3    3    0    0 -0.44595608227E+02  0.15464178348E+03 -0.14635641116E+03  0.21753861395E+03  0.00000000000E+00 0.  1.
        -11    1    3    3    0    0  0.46443382147E+02  0.18977808046E+03 -0.15647692399E+03  0.25031527182E+03  0.00000000000E+00 0. -1.
          4    1    6    6  502    0 -0.46605602728E+01 -0.12823161238E+02  0.41678210347E+02  0.43854617817E+02  0.00000000000E+00 0. -1.
          1    1    5    5  503    0  0.21844680935E+02  0.12278562987E+02  0.29993104797E+02  0.39083750198E+02  0.00000000000E+00 0. -1.
         -4    1    5    5    0  503  0.76638851064E+02  0.26316549174E+03  0.65030170503E+03  0.70570666506E+03  0.00000000000E+00 0.  1.
         -3    1    6    6    0  502 -0.95670745646E+02 -0.60704075744E+03  0.72699609742E+03  0.95193208709E+03  0.00000000000E+00 0.  1.
<mgrwt>
<rscale>  0 0.18877342E+04</rscale>
<asrwt>0</asrwt>
<pdfrwt beam="1">  1        1 0.25804360E+00 0.18877342E+04</pdfrwt>
<pdfrwt beam="2">  1       -1 0.81715018E-01 0.18877342E+04</pdfrwt>
<totfact> 0.68956199E+00</totfact>
</mgrwt>
</event>
<event>
12    1  0.2404959E-007  0.1622683E+04  0.7818608E-02  0.8806733E-01
          2   -1    0    0  501    0  0.00000000000E+00  0.00000000000E+00  0.36763793813E+04  0.36763793813E+04  0.00000000000E+00 0. -1.
         -2   -1    0    0    0  501 -0.00000000000E+00 -0.00000000000E+00 -0.17905519064E+03  0.17905519064E+03  0.00000000000E+00 0.  1.
         23    2    1    2    0    0  0.44157001677E+03 -0.33907535998E+03  0.12218003969E+04  0.13457791637E+04  0.91483156930E+02 0.  0.
        254    2    1    2    0    0 -0.44157001677E+03  0.33907535998E+03  0.22755237938E+04  0.25096554083E+04  0.90022527898E+03 0.  0.
        -24    2    4    4    0    0 -0.53965531325E+03  0.47537865509E+03  0.21870869790E+04  0.23036836827E+04  0.79977081297E+02 0.  0.
         24    2    4    4    0    0  0.98085296480E+02 -0.13630329511E+03  0.88436814788E+02  0.20597172558E+03  0.80024795449E+02 0.  0.
         11    1    3    3    0    0  0.15292078016E+03 -0.12794141097E+03  0.54456161129E+03  0.57991475075E+03  0.00000000000E+00 0.  1.
        -11    1    3    3    0    0  0.28864923660E+03 -0.21113394901E+03  0.67723878564E+03  0.76586441293E+03  0.00000000000E+00 0. -1.
          4    1    6    6  502    0 -0.80124867089E+00 -0.59031480509E+02  0.40679215344E+02  0.71694883022E+02  0.00000000000E+00 0. -1.
          1    1    5    5  503    0 -0.44078744645E+03  0.41456849656E+03  0.17606882333E+04  0.18617689615E+04  0.00000000000E+00 0. -1.
         -2    1    5    5    0  503 -0.98867866800E+02  0.60810158524E+02  0.42639874571E+03  0.44191472119E+03  0.00000000000E+00 0.  1.
         -3    1    6    6    0  502  0.98886545151E+02 -0.77271814596E+02  0.47757599444E+02  0.13427684256E+03  0.00000000000E+00 0.  1.
<mgrwt>
<rscale>  0 0.16226827E+04</rscale>
<asrwt>0</asrwt>
<pdfrwt beam="1">  1        2 0.56559677E+00 0.16226827E+04</pdfrwt>
<pdfrwt beam="2">  1       -2 0.27546955E-01 0.16226827E+04</pdfrwt>
<totfact> 0.70854706E+00</totfact>
</mgrwt>
</event>
<event>
12    1  0.2404959E-007  0.1515878E+04  0.7818608E-02  0.8873962E-01
          1   -1    0    0  501    0  0.00000000000E+00  0.00000000000E+00  0.20156645853E+04  0.20156645853E+04  0.00000000000E+00 0. -1.
         -1   -1    0    0    0  501 -0.00000000000E+00 -0.00000000000E+00 -0.28500361634E+03  0.28500361634E+03  0.00000000000E+00 0.  1.
         23    2    1    2    0    0 -0.36940601651E+03 -0.28137003485E+03  0.77568385677E+03  0.90873625755E+03  0.92120782617E+02 0.  0.
        254    2    1    2    0    0  0.36940601651E+03  0.28137003485E+03  0.95497711217E+03  0.13919319441E+04  0.89992408047E+03 0.  0.
        -24    2    4    4    0    0  0.15467294299E+03  0.30173114075E+03 -0.57902773264E+02  0.35326863753E+03  0.80502164659E+02 0.  0.
         24    2    4    4    0    0  0.21473307352E+03 -0.20361105908E+02  0.10128798854E+04  0.10386633065E+04  0.79818134194E+02 0.  0.
         13    1    3    3    0    0 -0.36372837166E+03 -0.26214443843E+03  0.76310809540E+03  0.88507174862E+03  0.00000000000E+00 0. -1.
        -13    1    3    3    0    0 -0.56776448495E+01 -0.19225596417E+02  0.12575761370E+02  0.23664508925E+02  0.00000000000E+00 0.  1.
          4    1    6    6  502    0  0.21138189884E+03 -0.25381080637E+02  0.10095806842E+04  0.10317846986E+04  0.00000000000E+00 0. -1.
          3    1    5    5  503    0  0.14337158115E+03  0.20225667372E+03 -0.49421157634E+02  0.25279561541E+03  0.00000000000E+00 0. -1.
         -4    1    5    5    0  503  0.11301361843E+02  0.99474467031E+02 -0.84816156301E+01  0.10047302212E+03  0.00000000000E+00 0.  1.
         -1    1    6    6    0  502  0.33511746803E+01  0.50199747293E+01  0.32992012245E+01  0.68786079071E+01  0.00000000000E+00 0.  1.
<mgrwt>
<rscale>  0 0.15158782E+04</rscale>
<asrwt>0</asrwt>
<pdfrwt beam="1">  1        1 0.31010223E+00 0.15158782E+04</pdfrwt>
<pdfrwt beam="2">  1       -1 0.43846712E-01 0.15158782E+04</pdfrwt>
<totfact> 0.14450668E+01</totfact>
</mgrwt>
</event>
<event>
12    1  0.2404959E-007  0.1874661E+04  0.7818608E-02  0.8667573E-01
         -2   -1    0    0    0  501 -0.00000000000E+00  0.00000000000E+00  0.36861060665E+03  0.36861060665E+03  0.00000000000E+00 0.  1.
          2   -1    0    0  501    0  0.00000000000E+00 -0.00000000000E+00 -0.23835144464E+04  0.23835144464E+04  0.00000000000E+00 0. -1.
         23    2    1    2    0    0  0.15569732703E+03  0.57199434144E+03 -0.18403187424E+03  0.62766443814E+03  0.93143608947E+02 0.  0.
        254    2    1    2    0    0 -0.15569732703E+03 -0.57199434144E+03 -0.18308719655E+04  0.21244606149E+04  0.89990086450E+03 0.  0.
        -24    2    4    4    0    0 -0.31894593230E+03 -0.55796550620E+03 -0.18309025994E+04  0.19422740994E+04  0.84689638961E+02 0.  0.
         24    2    4    4    0    0  0.16324860527E+03 -0.14028835232E+02  0.30633854290E-01  0.18218651552E+03  0.79655572056E+02 0.  0.
         13    1    3    3    0    0  0.53747234028E+02  0.22891436796E+03 -0.26519667565E+02  0.23663018783E+03  0.00000000000E+00 0.  1.
        -13    1    3    3    0    0  0.10195009301E+03  0.34307997348E+03 -0.15751220667E+03  0.39103425031E+03  0.00000000000E+00 0. -1.
          2    1    6    6  502    0  0.12416966562E+02 -0.18458564444E+02 -0.20064050796E+02  0.29957733463E+02  0.00000000000E+00 0. -1.
          1    1    5    5  503    0 -0.90586639249E+02 -0.19517713743E+03 -0.50937897542E+03  0.55296201930E+03  0.00000000000E+00 0. -1.
         -2    1    5    5    0  503 -0.22835929305E+03 -0.36278836878E+03 -0.13215236239E+04  0.13893120801E+04  0.00000000000E+00 0.  1.
         -1    1    6    6    0  502  0.15083163871E+03  0.44297292120E+01  0.20094684651E+02  0.15222878206E+03  0.00000000000E+00 0.  1.
<mgrwt>
<rscale>  0 0.18746613E+04</rscale>
<asrwt>0</asrwt>
<pdfrwt beam="1">  1        2 0.36669454E+00 0.18746613E+04</pdfrwt>
<pdfrwt beam="2">  1       -2 0.56709322E-01 0.18746613E+04</pdfrwt>
<totfact> 0.11126559E+01</totfact>
</mgrwt>
</event>
<event>
12    1  0.2404959E-007  0.2748568E+04  0.7818608E-02  0.8319416E-01
          1   -1    0    0  501    0  0.00000000000E+00  0.00000000000E+00  0.14212520864E+04  0.14212520864E+04  0.00000000000E+00 0. -1.
         -1   -1    0    0    0  501 -0.00000000000E+00 -0.00000000000E+00 -0.13288684921E+04  0.13288684921E+04  0.00000000000E+00 0.  1.
         23    2    1    2    0    0  0.47340488256E+02 -0.86958947918E+03 -0.82245452562E+03  0.12013316422E+04  0.91319679037E+02 0.  0.
        254    2    1    2    0    0 -0.47340488256E+02  0.86958947918E+03  0.91483811998E+03  0.15487889363E+04  0.89632103577E+03 0.  0.
        -24    2    4    4    0    0  0.40543473408E+03  0.26903260776E+03  0.36487297761E+03  0.61357911577E+03  0.81186044906E+02 0.  0.
         24    2    4    4    0    0 -0.45277522233E+03  0.60055687143E+03  0.54996514237E+03  0.93520982048E+03  0.80509581582E+02 0.  0.
         11    1    3    3    0    0 -0.11140246255E+02 -0.21973484144E+03 -0.25315480033E+03  0.33540253213E+03  0.00000000000E+00 0.  1.
        -11    1    3    3    0    0  0.58480734511E+02 -0.64985463775E+03 -0.56929972529E+03  0.86592911011E+03  0.00000000000E+00 0. -1.
          4    1    6    6  502    0 -0.21295935514E+03  0.33333171342E+03  0.32043674308E+03  0.50905935257E+03  0.00000000000E+00 0. -1.
          1    1    5    5  503    0  0.84324838602E+02  0.23757742621E+02  0.84878949442E+02  0.12198173961E+03  0.00000000000E+00 0. -1.
         -2    1    5    5    0  503  0.32110989548E+03  0.24527486514E+03  0.27999402817E+03  0.49159737616E+03  0.00000000000E+00 0.  1.
         -3    1    6    6    0  502 -0.23981586719E+03  0.26722515800E+03  0.22952839929E+03  0.42615046792E+03  0.00000000000E+00 0.  1.
<mgrwt>
<rscale>  0 0.27485684E+04</rscale>
<asrwt>0</asrwt>
<pdfrwt beam="1">  1        1 0.21865417E+00 0.27485684E+04</pdfrwt>
<pdfrwt beam="2">  1       -1 0.20444131E+00 0.27485684E+04</pdfrwt>
<totfact> 0.90555543E-01</totfact>
</mgrwt>
</event>
<event>
12    1  0.2404959E-007  0.2525378E+04  0.7818608E-02  0.8394000E-01
         -2   -1    0    0    0  501 -0.00000000000E+00  0.00000000000E+00  0.48228470770E+03  0.48228470770E+03  0.00000000000E+00 0.  1.
          2   -1    0    0  501    0  0.00000000000E+00 -0.00000000000E+00 -0.33058959276E+04  0.33058959276E+04  0.00000000000E+00 0. -1.
         23    2    1    2    0    0  0.52755359402E+02  0.99408752848E+03 -0.19373169682E+04  0.21800426938E+04  0.91629522203E+02 0.  0.
        254    2    1    2    0    0 -0.52755359402E+02 -0.99408752848E+03 -0.88629425172E+03  0.16081379415E+04  0.89977608107E+03 0.  0.
        -24    2    4    4    0    0 -0.33221082719E+03 -0.98305406343E+03 -0.60817572802E+03  0.12054392805E+04  0.80292076361E+02 0.  0.
         24    2    4    4    0    0  0.27945546779E+03 -0.11033465047E+02 -0.27811852370E+03  0.40269866099E+03  0.81235475702E+02 0.  0.
         13    1    3    3    0    0 -0.62190108261E+01  0.42365217830E+03 -0.74740877787E+03  0.85915058372E+03  0.00000000000E+00 0.  1.
        -13    1    3    3    0    0  0.58974370228E+02  0.57043535018E+03 -0.11899081903E+04  0.13208921101E+04  0.00000000000E+00 0. -1.
          4    1    6    6  502    0  0.15290362074E+03 -0.39418648779E+02 -0.18391610008E+03  0.24240148303E+03  0.00000000000E+00 0. -1.
          1    1    5    5  503    0 -0.22446127687E+03 -0.58266422565E+03 -0.33122097653E+03  0.70681525165E+03  0.00000000000E+00 0. -1.
         -2    1    5    5    0  503 -0.10774955032E+03 -0.40038983778E+03 -0.27695475149E+03  0.49862402887E+03  0.00000000000E+00 0.  1.
         -3    1    6    6    0  502  0.12655184705E+03  0.28385183732E+02 -0.94202423623E+02  0.16029717796E+03  0.00000000000E+00 0.  1.
<mgrwt>
<rscale>  0 0.25253776E+04</rscale>
<asrwt>0</asrwt>
<pdfrwt beam="1">  1        2 0.50859935E+00 0.25253776E+04</pdfrwt>
<pdfrwt beam="2">  1       -2 0.74197650E-01 0.25253776E+04</pdfrwt>
<totfact> 0.16075780E+00</totfact>
</mgrwt>
</event>
<event>
12    1  0.2404959E-007  0.1974693E+04  0.7818608E-02  0.8618545E-01
         -3   -1    0    0    0  501 -0.00000000000E+00  0.00000000000E+00  0.93590033094E+03  0.93590033094E+03  0.00000000000E+00 0.  1.
          3   -1    0    0  501    0  0.00000000000E+00 -0.00000000000E+00 -0.10416201318E+04  0.10416201318E+04  0.00000000000E+00 0. -1.
         23    2    1    2    0    0  0.65048566309E+03 -0.29909521984E+02  0.38824774015E+03  0.76347216255E+03  0.90151305445E+02 0.  0.
        254    2    1    2    0    0 -0.65048566309E+03  0.29909521984E+02 -0.49396754102E+03  0.12140483002E+04  0.89770995663E+03 0.  0.
        -24    2    4    4    0    0 -0.53326159983E+03  0.14112830345E+02 -0.74798177592E+03  0.92200524132E+03  0.77780602163E+02 0.  0.
         24    2    4    4    0    0 -0.11722406326E+03  0.15796691639E+02  0.25401423490E+03  0.29204305888E+03  0.82309782118E+02 0.  0.
         13    1    3    3    0    0  0.55912420183E+03 -0.32477136199E+01  0.30435022795E+03  0.63659993872E+03  0.00000000000E+00 0. -1.
        -13    1    3    3    0    0  0.91361461254E+02 -0.26661808364E+02  0.83897512205E+02  0.12687222384E+03  0.00000000000E+00 0.  1.
          2    1    6    6  502    0 -0.33479343676E+02  0.13670101194E+02  0.16848719870E+03  0.17232432865E+03  0.00000000000E+00 0. -1.
          1    1    5    5  503    0 -0.34517262384E+03  0.18790906809E+02 -0.42078850974E+03  0.54457341870E+03  0.00000000000E+00 0. -1.
         -2    1    5    5    0  503 -0.18808897599E+03 -0.46780764644E+01 -0.32719326618E+03  0.37743182261E+03  0.00000000000E+00 0.  1.
         -1    1    6    6    0  502 -0.83744719587E+02  0.21265904454E+01  0.85527036198E+02  0.11971873022E+03  0.00000000000E+00 0.  1.
<mgrwt>
<rscale>  0 0.19746925E+04</rscale>
<asrwt>0</asrwt>
<pdfrwt beam="1">  1        3 0.16024925E+00 0.19746925E+04</pdfrwt>
<pdfrwt beam="2">  1       -3 0.14398467E+00 0.19746925E+04</pdfrwt>
<totfact> 0.23728768E-01</totfact>
</mgrwt>
</event>
<event>
12    1  0.2404959E-007  0.2655124E+04  0.7818608E-02  0.8349714E-01
         -2   -1    0    0    0  501 -0.00000000000E+00  0.00000000000E+00  0.60010302230E+03  0.60010302230E+03  0.00000000000E+00 0. -1.
          2   -1    0    0  501    0  0.00000000000E+00 -0.00000000000E+00 -0.29368647910E+04  0.29368647910E+04  0.00000000000E+00 0.  1.
         23    2    1    2    0    0  0.10237190063E+04  0.34907711601E+03 -0.16377362423E+04  0.19647763658E+04  0.91163213141E+02 0.  0.
        254    2    1    2    0    0 -0.10237190063E+04 -0.34907711601E+03 -0.69902552642E+03  0.15721914475E+04  0.90182804592E+03 0.  0.
        -24    2    4    4    0    0 -0.28847070898E+03 -0.44283079112E+02 -0.71068026561E+03  0.77233012099E+03  0.79063485972E+02 0.  0.
         24    2    4    4    0    0 -0.73524829730E+03 -0.30479403690E+03  0.11654739192E+02  0.79986132656E+03  0.78440073776E+02 0.  0.
         11    1    3    3    0    0  0.74811474189E+03  0.21172041416E+03 -0.11742449091E+04  0.14083154147E+04  0.00000000000E+00 0. -1.
        -11    1    3    3    0    0  0.27560426438E+03  0.13735670185E+03 -0.46349133321E+03  0.55646095106E+03  0.00000000000E+00 0.  1.
          2    1    6    6  502    0 -0.51917935017E+03 -0.25308213350E+03  0.55125169408E+01  0.57760553302E+03  0.00000000000E+00 0. -1.
          3    1    5    5  503    0 -0.15556011246E+03  0.12684324711E+02 -0.32802192011E+03  0.36326054115E+03  0.00000000000E+00 0. -1.
         -4    1    5    5    0  503 -0.13291059652E+03 -0.56967403823E+02 -0.38265834551E+03  0.40906957984E+03  0.00000000000E+00 0.  1.
         -1    1    6    6    0  502 -0.21606894713E+03 -0.51711903405E+02  0.61422222507E+01  0.22225579354E+03  0.00000000000E+00 0.  1.
<mgrwt>
<rscale>  0 0.26551244E+04</rscale>
<asrwt>0</asrwt>
<pdfrwt beam="1">  1        2 0.45182535E+00 0.26551244E+04</pdfrwt>
<pdfrwt beam="2">  1       -2 0.92323542E-01 0.26551244E+04</pdfrwt>
<totfact> 0.16719099E+00</totfact>
</mgrwt>
</event>
<event>
12    1  0.2404959E-007  0.3366337E+04  0.7818608E-02  0.8146218E-01
         -2   -1    0    0    0  501 -0.00000000000E+00  0.00000000000E+00  0.15419098043E+04  0.15419098043E+04  0.00000000000E+00 0. -1.
          2   -1    0    0  501    0  0.00000000000E+00 -0.00000000000E+00 -0.18373681315E+04  0.18373681315E+04  0.00000000000E+00 0.  1.
         23    2    1    2    0    0  0.15220707376E+04 -0.21938035254E+03  0.13480329605E+03  0.15462971639E+04  0.89643299291E+02 0.  0.
        254    2    1    2    0    0 -0.15220707376E+04  0.21938035254E+03 -0.43026162329E+03  0.18329807719E+04  0.89992576145E+03 0.  0.
        -24    2    4    4    0    0 -0.69105281159E+02 -0.22131662528E+03 -0.14764859440E+03  0.28654155397E+03  0.80928154663E+02 0.  0.
         24    2    4    4    0    0 -0.14529654565E+04  0.44069697782E+03 -0.28261302889E+03  0.15464392179E+04  0.79257091687E+02 0.  0.
         13    1    3    3    0    0  0.88778324488E+03 -0.16314958636E+03  0.10625721908E+03  0.90888254138E+03  0.00000000000E+00 0. -1.
        -13    1    3    3    0    0  0.63428749276E+03 -0.56230766181E+02  0.28546076972E+02  0.63741462255E+03  0.00000000000E+00 0.  1.
          4    1    6    6  502    0 -0.43183473568E+03  0.13849742637E+03 -0.12072739282E+03  0.46929508780E+03  0.00000000000E+00 0. -1.
          1    1    5    5  503    0 -0.47492436794E+02 -0.19744500099E+03 -0.93558950004E+02  0.22359189855E+03  0.00000000000E+00 0. -1.
         -2    1    5    5    0  503 -0.21612844365E+02 -0.23871624284E+02 -0.54089644396E+02  0.62949655427E+02  0.00000000000E+00 0.  1.
         -3    1    6    6    0  502 -0.10211307208E+04  0.30219955144E+03 -0.16188563607E+03  0.10771441301E+04  0.00000000000E+00 0.  1.
<mgrwt>
<rscale>  0 0.33663368E+04</rscale>
<asrwt>0</asrwt>
<pdfrwt beam="1">  1        2 0.28267202E+00 0.33663368E+04</pdfrwt>
<pdfrwt beam="2">  1       -2 0.23721689E+00 0.33663368E+04</pdfrwt>
<totfact> 0.52677664E-01</totfact>
</mgrwt>
</event>
<event>
12    1  0.2404959E-007  0.4548272E+04  0.7818608E-02  0.7902240E-01
          2   -1    0    0  501    0  0.00000000000E+00  0.00000000000E+00  0.35446358207E+04  0.35446358207E+04  0.00000000000E+00 0. -1.
         -2   -1    0    0    0  501 -0.00000000000E+00 -0.00000000000E+00 -0.14590199366E+04  0.14590199366E+04  0.00000000000E+00 0.  1.
         23    2    1    2    0    0 -0.13082049367E+04  0.16173094944E+04  0.17346095853E+04  0.27100203171E+04  0.90827027937E+02 0.  0.
        254    2    1    2    0    0  0.13082049367E+04 -0.16173094944E+04  0.35100629875E+03  0.22936354402E+04  0.90025993685E+03 0.  0.
        -24    2    4    4    0    0  0.42947561701E+03 -0.20348419838E+02  0.12815979475E+03  0.45552275008E+03  0.78820549674E+02 0.  0.
         24    2    4    4    0    0  0.87872931967E+03 -0.15969610745E+04  0.22284650400E+03  0.18381126901E+04  0.80918517566E+02 0.  0.
         13    1    3    3    0    0 -0.11172023829E+04  0.13459081402E+04  0.14896117257E+04  0.22975101696E+04  0.00000000000E+00 0. -1.
        -13    1    3    3    0    0 -0.19100255377E+03  0.27140135419E+03  0.24499785963E+03  0.41251014754E+03  0.00000000000E+00 0.  1.
          2    1    6    6  502    0  0.54115119042E+03 -0.93380988450E+03  0.16387373076E+03  0.10916501779E+04  0.00000000000E+00 0. -1.
          1    1    5    5  503    0  0.11012531530E+03 -0.87796524558E+01 -0.19472330289E+01  0.11049189601E+03  0.00000000000E+00 0. -1.
         -4    1    5    5    0  503  0.31935030171E+03 -0.11568767383E+02  0.13010702778E+03  0.34503085407E+03  0.00000000000E+00 0.  1.
         -3    1    6    6    0  502  0.33757812925E+03 -0.66315119002E+03  0.58972773231E+02  0.74646251222E+03  0.00000000000E+00 0.  1.
<mgrwt>
<rscale>  0 0.45482719E+04</rscale>
<asrwt>0</asrwt>
<pdfrwt beam="1">  1        2 0.54532859E+00 0.45482719E+04</pdfrwt>
<pdfrwt beam="2">  1       -2 0.22446461E+00 0.45482719E+04</pdfrwt>
<totfact> 0.52751373E-02</totfact>
</mgrwt>
</event>
<event>
12    1  0.2404959E-007  0.2011721E+04  0.7818608E-02  0.8601160E-01
         -1   -1    0    0    0  501 -0.00000000000E+00  0.00000000000E+00  0.65089258917E+03  0.65089258917E+03  0.00000000000E+00 0.  1.
          1   -1    0    0  501    0  0.00000000000E+00 -0.00000000000E+00 -0.15544127872E+04  0.15544127872E+04  0.00000000000E+00 0. -1.
         23    2    1    2    0    0  0.69171482323E+03  0.38375438764E+03 -0.22283124092E+03  0.82679902166E+03  0.90587160073E+02 0.  0.
        254    2    1    2    0    0 -0.69171482323E+03 -0.38375438764E+03 -0.68068895712E+03  0.13785063547E+04  0.90066946598E+03 0.  0.
        -24    2    4    4    0    0  0.16104862946E+03  0.28382171687E+02  0.40320847393E+02  0.18541763813E+03  0.77535289220E+02 0.  0.
         24    2    4    4    0    0 -0.85276345269E+03 -0.41213655933E+03 -0.72100980451E+03  0.11930887166E+04  0.80891888791E+02 0.  0.
         13    1    3    3    0    0  0.18550278790E+03  0.66317653907E+02 -0.78796820798E+02  0.21217505628E+03  0.00000000000E+00 0. -1.
        -13    1    3    3    0    0  0.50621203533E+03  0.31743673374E+03 -0.14403442012E+03  0.61462396538E+03  0.00000000000E+00 0.  1.
          2    1    6    6  502    0 -0.34183350119E+03 -0.19430708769E+03 -0.33679358956E+03  0.51772126558E+03  0.00000000000E+00 0. -1.
          3    1    5    5  503    0  0.60541827503E+02  0.47991107754E+02  0.62994741094E+01  0.77512209844E+02  0.00000000000E+00 0. -1.
         -4    1    5    5    0  503  0.10050680196E+03 -0.19608936067E+02  0.34021373284E+02  0.10790542828E+03  0.00000000000E+00 0.  1.
         -1    1    6    6    0  502 -0.51092995150E+03 -0.21782947164E+03 -0.38421621495E+03  0.67536745101E+03  0.00000000000E+00 0.  1.
<mgrwt>
<rscale>  0 0.20117214E+04</rscale>
<asrwt>0</asrwt>
<pdfrwt beam="1">  1        1 0.23914042E+00 0.20117214E+04</pdfrwt>
<pdfrwt beam="2">  1       -1 0.10013732E+00 0.20117214E+04</pdfrwt>
<totfact> 0.52813356E+00</totfact>
</mgrwt>
</event>
<event>
12    1  0.2404959E-007  0.4785185E+04  0.7818608E-02  0.7862527E-01
          2   -1    0    0  501    0  0.00000000000E+00  0.00000000000E+00  0.17606451572E+04  0.17606451572E+04  0.00000000000E+00 0. -1.
         -2   -1    0    0    0  501 -0.00000000000E+00 -0.00000000000E+00 -0.32513642040E+04  0.32513642040E+04  0.00000000000E+00 0.  1.
         23    2    1    2    0    0  0.18025947632E+04 -0.13091972292E+02 -0.22270432929E+04  0.28666719517E+04  0.92557930367E+02 0.  0.
        254    2    1    2    0    0 -0.18025947632E+04  0.13091972292E+02  0.73632424603E+03  0.21453374095E+04  0.90043318761E+03 0.  0.
        -24    2    4    4    0    0 -0.51942342984E+03  0.91580228007E+02  0.66883858243E+03  0.85547291166E+03  0.79380196563E+02 0.  0.
         24    2    4    4    0    0 -0.12831713333E+04 -0.78488255714E+02  0.67485663601E+02  0.12898644978E+04  0.80666170247E+02 0.  0.
         11    1    3    3    0    0  0.12345017109E+04  0.11884201686E+02 -0.14641662854E+04  0.19151810932E+04  0.00000000000E+00 0.  1.
        -11    1    3    3    0    0  0.56809305231E+03 -0.24976173979E+02 -0.76287700745E+03  0.95149085852E+03  0.00000000000E+00 0. -1.
          2    1    6    6  502    0 -0.19075626556E+01 -0.31639246600E+01  0.30179560568E+01  0.47704583952E+01  0.00000000000E+00 0. -1.
          1    1    5    5  503    0 -0.14644184936E+03  0.52639992806E+02  0.23711611657E+03  0.28361988087E+03  0.00000000000E+00 0. -1.
         -2    1    5    5    0  503 -0.37298158048E+03  0.38940235200E+02  0.43172246586E+03  0.57185303079E+03  0.00000000000E+00 0.  1.
         -1    1    6    6    0  502 -0.12812637707E+04 -0.75324331054E+02  0.64467707544E+02  0.12850940394E+04  0.00000000000E+00 0.  1.
<mgrwt>
<rscale>  0 0.47851849E+04</rscale>
<asrwt>0</asrwt>
<pdfrwt beam="1">  1        2 0.27086849E+00 0.47851849E+04</pdfrwt>
<pdfrwt beam="2">  1       -2 0.50020987E+00 0.47851849E+04</pdfrwt>
<totfact> 0.11113246E-02</totfact>
</mgrwt>
</event>
<event>
12    1  0.2404959E-007  0.1999295E+04  0.7818608E-02  0.8606950E-01
          2   -1    0    0  501    0  0.00000000000E+00  0.00000000000E+00  0.12311916984E+04  0.12311916984E+04  0.00000000000E+00 0.  1.
         -2   -1    0    0    0  501 -0.00000000000E+00 -0.00000000000E+00 -0.81164846166E+03  0.81164846166E+03  0.00000000000E+00 0. -1.
         23    2    1    2    0    0  0.35219240661E+03  0.46688911332E+03  0.71494435202E+03  0.92789109827E+03  0.88382851063E+02 0.  0.
        254    2    1    2    0    0 -0.35219240661E+03 -0.46688911332E+03 -0.29540111528E+03  0.11149490618E+04  0.90212230659E+03 0.  0.
        -24    2    4    4    0    0 -0.32590869297E+03 -0.53655600985E+03 -0.54978910082E+03  0.83831960135E+03  0.80017940209E+02 0.  0.
         24    2    4    4    0    0 -0.26283713638E+02  0.69666896539E+02  0.25438798554E+03  0.27662946043E+03  0.79159971678E+02 0.  0.
         11    1    3    3    0    0  0.19901011237E+03  0.32364436797E+03  0.49477576540E+03  0.62382189748E+03  0.00000000000E+00 0.  1.
        -11    1    3    3    0    0  0.15318229425E+03  0.14324474534E+03  0.22016858662E+03  0.30406920079E+03  0.00000000000E+00 0. -1.
          4    1    6    6  502    0  0.13792215767E+02  0.57192289405E+02  0.94438503746E+02  0.11126461330E+03  0.00000000000E+00 0. -1.
          3    1    5    5  503    0 -0.24900274635E+03 -0.42346464347E+03 -0.38479183353E+03  0.62401075881E+03  0.00000000000E+00 0. -1.
         -2    1    5    5    0  503 -0.76905946620E+02 -0.11309136639E+03 -0.16499726729E+03  0.21430884254E+03  0.00000000000E+00 0.  1.
         -3    1    6    6    0  502 -0.40075929405E+02  0.12474607134E+02  0.15994948180E+03  0.16536484713E+03  0.00000000000E+00 0.  1.
<mgrwt>
<rscale>  0 0.19992947E+04</rscale>
<asrwt>0</asrwt>
<pdfrwt beam="1">  1        2 0.18941411E+00 0.19992947E+04</pdfrwt>
<pdfrwt beam="2">  1       -2 0.12486899E+00 0.19992947E+04</pdfrwt>
<totfact> 0.81070383E+00</totfact>
</mgrwt>
</event>
<event>
12    1  0.2404959E-007  0.1378022E+04  0.7818608E-02  0.8969883E-01
         -2   -1    0    0    0  501 -0.00000000000E+00  0.00000000000E+00  0.29813337913E+03  0.29813337913E+03  0.00000000000E+00 0.  1.
          2   -1    0    0  501    0  0.00000000000E+00 -0.00000000000E+00 -0.15923613760E+04  0.15923613760E+04  0.00000000000E+00 0. -1.
         23    2    1    2    0    0 -0.15023082543E+03  0.16064288428E+03  0.64902630180E+02  0.24571704765E+03  0.88255758567E+02 0.  0.
        254    2    1    2    0    0  0.15023082543E+03 -0.16064288428E+03 -0.13591306271E+04  0.16447777075E+04  0.89982343184E+03 0.  0.
        -24    2    4    4    0    0  0.39771745992E+03 -0.37912789560E+03 -0.10399370885E+04  0.11788790018E+04  0.79808607028E+02 0.  0.
         24    2    4    4    0    0 -0.24748663449E+03  0.21848501131E+03 -0.31919353860E+03  0.46589870571E+03  0.78687702215E+02 0.  0.
         11    1    3    3    0    0 -0.26802958655E+02  0.42866944627E+02  0.55177106549E+02  0.74836399041E+02  0.00000000000E+00 0.  1.
        -11    1    3    3    0    0 -0.12342786677E+03  0.11777593966E+03  0.97255236314E+01  0.17088064860E+03  0.00000000000E+00 0. -1.
          4    1    6    6  502    0 -0.40595948801E+02  0.66040604423E+02 -0.10978023687E+03  0.13439156558E+03  0.00000000000E+00 0. -1.
          1    1    5    5  503    0  0.65486535669E+02 -0.51057396220E+02 -0.10528173980E+03  0.13408798901E+03  0.00000000000E+00 0. -1.
         -2    1    5    5    0  503  0.33223092425E+03 -0.32807049938E+03 -0.93465534870E+03  0.10447910128E+04  0.00000000000E+00 0.  1.
         -3    1    6    6    0  502 -0.20689068569E+03  0.15244440689E+03 -0.20941330173E+03  0.33150714013E+03  0.00000000000E+00 0.  1.
<mgrwt>
<rscale>  0 0.13780219E+04</rscale>
<asrwt>0</asrwt>
<pdfrwt beam="1">  1        2 0.24497867E+00 0.13780219E+04</pdfrwt>
<pdfrwt beam="2">  1       -2 0.45866674E-01 0.13780219E+04</pdfrwt>
<totfact> 0.49474102E+01</totfact>
</mgrwt>
</event>
<event>
12    1  0.2404959E-007  0.1115306E+04  0.7818608E-02  0.9190401E-01
         -2   -1    0    0    0  501 -0.00000000000E+00  0.00000000000E+00  0.37203358957E+03  0.37203358957E+03  0.00000000000E+00 0.  1.
          2   -1    0    0  501    0  0.00000000000E+00 -0.00000000000E+00 -0.83588354052E+03  0.83588354052E+03  0.00000000000E+00 0. -1.
         23    2    1    2    0    0 -0.11480187248E+03  0.13466655911E+03 -0.57029586683E+02  0.20655922428E+03  0.89998818377E+02 0.  0.
        254    2    1    2    0    0  0.11480187248E+03 -0.13466655911E+03 -0.40682036428E+03  0.10013579058E+04  0.89771949665E+03 0.  0.
        -24    2    4    4    0    0 -0.19703749647E+03 -0.39448225062E+03 -0.37666418632E+03  0.58551844888E+03  0.80721271386E+02 0.  0.
         24    2    4    4    0    0  0.31183936895E+03  0.25981569150E+03 -0.30156177952E+02  0.41583945693E+03  0.85235399275E+02 0.  0.
         11    1    3    3    0    0 -0.28001694422E+02  0.49415874998E+02 -0.62906546480E+02  0.84754098322E+02  0.00000000000E+00 0. -1.
        -11    1    3    3    0    0 -0.86800178057E+02  0.85250684116E+02  0.58769597966E+01  0.12180512596E+03  0.00000000000E+00 0.  1.
          4    1    6    6  502    0  0.15989908521E+03  0.18756412542E+03 -0.20342952953E+02  0.24730922816E+03  0.00000000000E+00 0. -1.
          3    1    5    5  503    0 -0.68634932688E+02 -0.22096950723E+03 -0.17490729833E+03  0.29005316775E+03  0.00000000000E+00 0. -1.
         -4    1    5    5    0  503 -0.12840256379E+03 -0.17351274339E+03 -0.20175688799E+03  0.29546528114E+03  0.00000000000E+00 0.  1.
         -3    1    6    6    0  502  0.15194028374E+03  0.72251566078E+02 -0.98132249986E+01  0.16853022877E+03  0.00000000000E+00 0.  1.
<mgrwt>
<rscale>  0 0.11153058E+04</rscale>
<asrwt>0</asrwt>
<pdfrwt beam="1">  1        2 0.12859747E+00 0.11153058E+04</pdfrwt>
<pdfrwt beam="2">  1       -2 0.57235937E-01 0.11153058E+04</pdfrwt>
<totfact> 0.92160619E+01</totfact>
</mgrwt>
</event>
<event>
12    1  0.2404959E-007  0.1959672E+04  0.7818608E-02  0.8625711E-01
         -2   -1    0    0    0  501 -0.00000000000E+00  0.00000000000E+00  0.87993526720E+03  0.87993526720E+03  0.00000000000E+00 0. -1.
          2   -1    0    0  501    0  0.00000000000E+00 -0.00000000000E+00 -0.10910781073E+04  0.10910781073E+04  0.00000000000E+00 0.  1.
         23    2    1    2    0    0  0.29403501954E+03 -0.63092012304E+03 -0.41564234507E+03  0.81696542860E+03  0.10078272739E+03 0.  0.
        254    2    1    2    0    0 -0.29403501954E+03  0.63092012304E+03  0.20449950494E+03  0.11540479459E+04  0.89749084654E+03 0.  0.
        -24    2    4    4    0    0  0.23804758013E+03 -0.61076039161E+02  0.61078871270E+02  0.26578907088E+03  0.80723408744E+02 0.  0.
         24    2    4    4    0    0 -0.53208259967E+03  0.69199616220E+03  0.14342063367E+03  0.88825887505E+03  0.80397572017E+02 0.  0.
         11    1    3    3    0    0  0.42160718291E+02 -0.98641388783E+02 -0.24509184978E+02  0.11003794753E+03  0.00000000000E+00 0. -1.
        -11    1    3    3    0    0  0.25187430125E+03 -0.53227873425E+03 -0.39113316009E+03  0.70692748107E+03  0.00000000000E+00 0.  1.
          4    1    6    6  502    0 -0.17060376826E+03  0.20637085727E+03  0.80547337979E+02  0.27961124821E+03  0.00000000000E+00 0. -1.
          3    1    5    5  503    0  0.41062645040E+02 -0.41413563087E+02  0.29383365896E+02  0.65303952535E+02  0.00000000000E+00 0. -1.
         -4    1    5    5    0  503  0.19698493509E+03 -0.19662476074E+02  0.31695505373E+02  0.20048511835E+03  0.00000000000E+00 0.  1.
         -3    1    6    6    0  502 -0.36147883141E+03  0.48562530493E+03  0.62873295687E+02  0.60864762684E+03  0.00000000000E+00 0.  1.
<mgrwt>
<rscale>  0 0.19596715E+04</rscale>
<asrwt>0</asrwt>
<pdfrwt beam="1">  1        2 0.16785817E+00 0.19596715E+04</pdfrwt>
<pdfrwt beam="2">  1       -2 0.13537466E+00 0.19596715E+04</pdfrwt>
<totfact> 0.80568605E+00</totfact>
</mgrwt>
</event>
<event>
12    1  0.2404959E-007  0.1514093E+04  0.7818608E-02  0.8875135E-01
          1   -1    0    0  501    0  0.00000000000E+00  0.00000000000E+00  0.24667306574E+04  0.24667306574E+04  0.00000000000E+00 0. -1.
         -1   -1    0    0    0  501 -0.00000000000E+00 -0.00000000000E+00 -0.23233970302E+03  0.23233970302E+03  0.00000000000E+00 0.  1.
         23    2    1    2    0    0 -0.42030807168E+03 -0.21622024728E+03  0.63153538327E+03  0.79362007260E+03  0.87096548998E+02 0.  0.
        254    2    1    2    0    0  0.42030807168E+03  0.21622024728E+03  0.16028555711E+04  0.19054502878E+04  0.91552430174E+03 0.  0.
        -24    2    4    4    0    0 -0.27974896170E+03  0.26749856714E+02  0.35215786118E+03  0.45770396515E+03  0.80639469999E+02 0.  0.
         24    2    4    4    0    0  0.70005703339E+03  0.18947039057E+03  0.12506977099E+04  0.14477463226E+04  0.75800885714E+02 0.  0.
         11    1    3    3    0    0 -0.21728607388E+03 -0.93885401073E+02  0.24861758372E+03  0.34327599591E+03  0.00000000000E+00 0. -1.
        -11    1    3    3    0    0 -0.20302199781E+03 -0.12233484621E+03  0.38291779955E+03  0.45034407669E+03  0.00000000000E+00 0.  1.
          4    1    6    6  502    0  0.44609033762E+02  0.32535294965E+02  0.92988901294E+02  0.10814549032E+03  0.00000000000E+00 0. -1.
          1    1    5    5  503    0 -0.11295304144E+03  0.15754364331E+02  0.83725644756E+02  0.14147993905E+03  0.00000000000E+00 0. -1.
         -2    1    5    5    0  503 -0.16679592027E+03  0.10995492383E+02  0.26843221642E+03  0.31622402610E+03  0.00000000000E+00 0.  1.
         -3    1    6    6    0  502  0.65544799962E+03  0.15693509561E+03  0.11577088086E+04  0.13396008323E+04  0.00000000000E+00 0.  1.
<mgrwt>
<rscale>  0 0.15140931E+04</rscale>
<asrwt>0</asrwt>
<pdfrwt beam="1">  1        1 0.37949701E+00 0.15140931E+04</pdfrwt>
<pdfrwt beam="2">  1       -1 0.35744571E-01 0.15140931E+04</pdfrwt>
<totfact> 0.10338436E+01</totfact>
</mgrwt>
</event>
<event>
12    1  0.2404959E-007  0.1558980E+04  0.7818608E-02  0.8846152E-01
         -1   -1    0    0    0  501 -0.00000000000E+00  0.00000000000E+00  0.34372135559E+03  0.34372135559E+03  0.00000000000E+00 0.  1.
          1   -1    0    0  501    0  0.00000000000E+00 -0.00000000000E+00 -0.17677248446E+04  0.17677248446E+04  0.00000000000E+00 0. -1.
         23    2    1    2    0    0  0.24203359510E+03  0.32246223519E+03 -0.43798722491E+02  0.41547322889E+03  0.90208212259E+02 0.  0.
        254    2    1    2    0    0 -0.24203359510E+03 -0.32246223519E+03 -0.13802047665E+04  0.16959729713E+04  0.89933140028E+03 0.  0.
        -24    2    4    4    0    0 -0.13483105083E+03 -0.59181687128E+03 -0.59287666156E+03  0.85319886660E+03  0.89548583147E+02 0.  0.
         24    2    4    4    0    0 -0.10720254427E+03  0.26935463609E+03 -0.78732810492E+03  0.84277410465E+03  0.79613699848E+02 0.  0.
         11    1    3    3    0    0  0.22989508521E+03  0.25877503130E+03 -0.21123981410E+02  0.34678882569E+03  0.00000000000E+00 0. -1.
        -11    1    3    3    0    0  0.12138509883E+02  0.63687203886E+02 -0.22674741080E+02  0.68684403208E+02  0.00000000000E+00 0.  1.
          4    1    6    6  502    0 -0.11310746539E+03  0.19440848408E+03 -0.61129559000E+03  0.65136031178E+03  0.00000000000E+00 0. -1.
          3    1    5    5  503    0 -0.20293817750E+01 -0.19430715515E+03 -0.19594093879E+03  0.27595695394E+03  0.00000000000E+00 0. -1.
         -4    1    5    5    0  503 -0.13280166905E+03 -0.39750971613E+03 -0.39693572277E+03  0.57724191266E+03  0.00000000000E+00 0.  1.
         -3    1    6    6    0  502  0.59049211224E+01  0.74946152007E+02 -0.17603251492E+03  0.19141379288E+03  0.00000000000E+00 0.  1.
<mgrwt>
<rscale>  0 0.15589802E+04</rscale>
<asrwt>0</asrwt>
<pdfrwt beam="1">  1        1 0.27195767E+00 0.15589802E+04</pdfrwt>
<pdfrwt beam="2">  1       -1 0.52880208E-01 0.15589802E+04</pdfrwt>
<totfact> 0.14875433E+01</totfact>
</mgrwt>
</event>
<event>
12    1  0.2404959E-007  0.3539468E+04  0.7818608E-02  0.8104500E-01
          1   -1    0    0  501    0  0.00000000000E+00  0.00000000000E+00  0.60945234769E+03  0.60945234769E+03  0.00000000000E+00 0. -1.
         -1   -1    0    0    0  501 -0.00000000000E+00 -0.00000000000E+00 -0.51389720323E+04  0.51389720323E+04  0.00000000000E+00 0.  1.
         23    2    1    2    0    0 -0.11555554670E+04 -0.30584522411E+03 -0.26307266840E+03  0.12273511439E+04  0.91289994161E+02 0.  0.
        254    2    1    2    0    0  0.11555554670E+04  0.30584522411E+03 -0.42664470162E+04  0.45210732361E+04  0.89926821675E+03 0.  0.
        -24    2    4    4    0    0  0.12987948622E+03 -0.27356807726E+03 -0.81232178603E+03  0.87065999616E+03  0.80460990672E+02 0.  0.
         24    2    4    4    0    0  0.10256759808E+04  0.57941330137E+03 -0.34541252302E+04  0.36504132399E+04  0.82490758251E+02 0.  0.
         11    1    3    3    0    0 -0.14827995616E+03 -0.15332744979E+02 -0.52750436243E+02  0.15812857740E+03  0.00000000000E+00 0. -1.
        -11    1    3    3    0    0 -0.10072755109E+04 -0.29051247913E+03 -0.21032223216E+03  0.10692225665E+04  0.00000000000E+00 0.  1.
          4    1    6    6  502    0  0.65864264672E+03  0.40220242079E+03 -0.23490968423E+04  0.24726166096E+04  0.00000000000E+00 0. -1.
          3    1    5    5  503    0  0.45206036529E+02 -0.27995698859E+02 -0.15540710408E+03  0.16425197987E+03  0.00000000000E+00 0. -1.
         -4    1    5    5    0  503  0.84673449689E+02 -0.24557237841E+03 -0.65691468195E+03  0.70640801629E+03  0.00000000000E+00 0.  1.
         -3    1    6    6    0  502  0.36703333409E+03  0.17721088058E+03 -0.11050283878E+04  0.11777966304E+04  0.00000000000E+00 0.  1.
<mgrwt>
<rscale>  0 0.35394681E+04</rscale>
<asrwt>0</asrwt>
<pdfrwt beam="1">  1        1 0.93761897E-01 0.35394681E+04</pdfrwt>
<pdfrwt beam="2">  1       -1 0.79061110E+00 0.35394681E+04</pdfrwt>
<totfact> 0.21701830E-03</totfact>
</mgrwt>
</event>
<event>
12    1  0.2404959E-007  0.1281718E+04  0.7818608E-02  0.9044190E-01
         -2   -1    0    0    0  501 -0.00000000000E+00  0.00000000000E+00  0.60340831061E+03  0.60340831061E+03  0.00000000000E+00 0.  1.
          2   -1    0    0  501    0  0.00000000000E+00 -0.00000000000E+00 -0.68063450980E+03  0.68063450980E+03  0.00000000000E+00 0. -1.
         23    2    1    2    0    0 -0.17618392544E+03 -0.11315990017E+03  0.21655928445E+03  0.31458775889E+03  0.90673015678E+02 0.  0.
        254    2    1    2    0    0  0.17618392544E+03  0.11315990017E+03 -0.29378548364E+03  0.96945506152E+03  0.89982624285E+03 0.  0.
        -24    2    4    4    0    0 -0.27672340990E+03  0.22254316031E+03  0.72734316892E+02  0.37119178282E+03  0.79948452141E+02 0.  0.
         24    2    4    4    0    0  0.45290733533E+03 -0.10938326014E+03 -0.36651980053E+03  0.59826327869E+03  0.80575644331E+02 0.  0.
         11    1    3    3    0    0 -0.11141210708E+03 -0.92654263367E+02  0.19571939689E+03  0.24352320720E+03  0.00000000000E+00 0.  1.
        -11    1    3    3    0    0 -0.64771818355E+02 -0.20505636801E+02  0.20839887562E+02  0.71064551692E+02  0.00000000000E+00 0. -1.
          4    1    6    6  502    0  0.24744135529E+03 -0.34143177097E+02 -0.23508780579E+03  0.34301495198E+03  0.00000000000E+00 0. -1.
          1    1    5    5  503    0 -0.25513206398E+03  0.22155652315E+03  0.81941982692E+02  0.34769836288E+03  0.00000000000E+00 0. -1.
         -2    1    5    5    0  503 -0.21591345915E+02  0.98663715683E+00 -0.92076657997E+01  0.23493419946E+02  0.00000000000E+00 0.  1.
         -3    1    6    6    0  502  0.20546598004E+03 -0.75240083042E+02 -0.13143199474E+03  0.25524832671E+03  0.00000000000E+00 0.  1.
<mgrwt>
<rscale>  0 0.12817184E+04</rscale>
<asrwt>0</asrwt>
<pdfrwt beam="1">  1        2 0.10471300E+00 0.12817184E+04</pdfrwt>
<pdfrwt beam="2">  1       -2 0.92832048E-01 0.12817184E+04</pdfrwt>
<totfact> 0.40991592E+01</totfact>
</mgrwt>
</event>
<event>
12    1  0.2404959E-007  0.1837159E+04  0.7818608E-02  0.8686785E-01
          2   -1    0    0  501    0  0.00000000000E+00  0.00000000000E+00  0.16241522809E+04  0.16241522809E+04  0.00000000000E+00 0. -1.
         -2   -1    0    0    0  501 -0.00000000000E+00 -0.00000000000E+00 -0.51952529006E+03  0.51952529006E+03  0.00000000000E+00 0.  1.
         23    2    1    2    0    0 -0.38806810604E+03  0.34470591021E+03 -0.11899549879E+03  0.54015123539E+03  0.90467723003E+02 0.  0.
        254    2    1    2    0    0  0.38806810604E+03 -0.34470591021E+03  0.12236224896E+04  0.16035263356E+04  0.89700930445E+03 0.  0.
        -24    2    4    4    0    0  0.52399402221E+03 -0.46590940189E+03  0.12165597320E+04  0.14062823618E+04  0.77273498488E+02 0.  0.
         24    2    4    4    0    0 -0.13592591616E+03  0.12120349168E+03  0.70627576495E+01  0.19724397377E+03  0.75426530886E+02 0.  0.
         11    1    3    3    0    0 -0.29921733268E+03  0.26401254546E+03 -0.12985145898E+03  0.41963679263E+03  0.00000000000E+00 0.  1.
        -11    1    3    3    0    0 -0.88850773366E+02  0.80693364750E+02  0.10855960184E+02  0.12051444276E+03  0.00000000000E+00 0. -1.
          2    1    6    6  502    0 -0.66946413418E+02  0.72062607208E+02  0.40253773074E+02  0.10627891547E+03  0.00000000000E+00 0. -1.
          1    1    5    5  503    0  0.44840574481E+02 -0.55432856080E+02  0.87265329456E+02  0.11268858140E+03  0.00000000000E+00 0. -1.
         -2    1    5    5    0  503  0.47915344773E+03 -0.41047654580E+03  0.11292944025E+04  0.12935937804E+04  0.00000000000E+00 0.  1.
         -1    1    6    6    0  502 -0.68979502746E+02  0.49140884469E+02 -0.33191015425E+02  0.90965058294E+02  0.00000000000E+00 0.  1.
<mgrwt>
<rscale>  0 0.18371589E+04</rscale>
<asrwt>0</asrwt>
<pdfrwt beam="1">  1        2 0.24986958E+00 0.18371589E+04</pdfrwt>
<pdfrwt beam="2">  1       -2 0.79926969E-01 0.18371589E+04</pdfrwt>
<totfact> 0.14093618E+01</totfact>
</mgrwt>
</event>
<event>
12    1  0.2404959E-007  0.1429940E+04  0.7818608E-02  0.8932427E-01
          2   -1    0    0  501    0  0.00000000000E+00  0.00000000000E+00  0.12026807369E+04  0.12026807369E+04  0.00000000000E+00 0. -1.
         -2   -1    0    0    0  501 -0.00000000000E+00 -0.00000000000E+00 -0.42503558733E+03  0.42503558733E+03  0.00000000000E+00 0.  1.
         23    2    1    2    0    0  0.32636677890E+03  0.87189515457E+02  0.53141109435E+03  0.63585518454E+03  0.88299368804E+02 0.  0.
        254    2    1    2    0    0 -0.32636677890E+03 -0.87189515457E+02  0.24623405521E+03  0.99186113968E+03  0.89946652215E+03 0.  0.
        -24    2    4    4    0    0 -0.14377223981E+00  0.28461921141E+03 -0.16945524296E+03  0.34091891207E+03  0.80638136541E+02 0.  0.
         24    2    4    4    0    0 -0.32622300666E+03 -0.37180872686E+03  0.41568929818E+03  0.65094222761E+03  0.79151826366E+02 0.  0.
         13    1    3    3    0    0  0.43702940830E+02  0.43060315584E+01  0.13513121651E+03  0.14208777084E+03  0.00000000000E+00 0. -1.
        -13    1    3    3    0    0  0.28266383807E+03  0.82883483898E+02  0.39627987783E+03  0.49376741370E+03  0.00000000000E+00 0.  1.
          2    1    6    6  502    0 -0.32610342451E+03 -0.37542308608E+03  0.41203279215E+03  0.64579947263E+03  0.00000000000E+00 0. -1.
          1    1    5    5  503    0  0.29382751519E+01  0.27807999168E+03 -0.14146220394E+03  0.31200748449E+03  0.00000000000E+00 0. -1.
         -2    1    5    5    0  503 -0.30820473917E+01  0.65392197280E+01 -0.27993039027E+02  0.28911427581E+02  0.00000000000E+00 0.  1.
         -1    1    6    6    0  502 -0.11958215506E+00  0.36143592197E+01  0.36565060292E+01  0.51427549818E+01  0.00000000000E+00 0.  1.
<mgrwt>
<rscale>  0 0.14299400E+04</rscale>
<asrwt>0</asrwt>
<pdfrwt beam="1">  1        2 0.18502780E+00 0.14299400E+04</pdfrwt>
<pdfrwt beam="2">  1       -2 0.65390091E-01 0.14299400E+04</pdfrwt>
<totfact> 0.39501379E+01</totfact>
</mgrwt>
</event>
<event>
12    1  0.2404959E-007  0.2479198E+04  0.7818608E-02  0.8410434E-01
          2   -1    0    0  501    0  0.00000000000E+00  0.00000000000E+00  0.24759118279E+04  0.24759118279E+04  0.00000000000E+00 0. -1.
         -2   -1    0    0    0  501 -0.00000000000E+00 -0.00000000000E+00 -0.62062234815E+03  0.62062234815E+03  0.00000000000E+00 0.  1.
         23    2    1    2    0    0  0.98004692804E+03  0.42656747793E+03  0.67134012911E+03  0.12655065825E+04  0.91419621232E+02 0.  0.
        254    2    1    2    0    0 -0.98004692804E+03 -0.42656747793E+03  0.11839493506E+04  0.18310275935E+04  0.89915192757E+03 0.  0.
        -24    2    4    4    0    0 -0.41115318979E+03 -0.45908630201E+03  0.13832947292E+03  0.63737195300E+03  0.85444632513E+02 0.  0.
         24    2    4    4    0    0 -0.56889373825E+03  0.32518824078E+02  0.10456198777E+04  0.11936556405E+04  0.82433610126E+02 0.  0.
         13    1    3    3    0    0  0.74818934192E+03  0.36665333002E+03  0.51482768874E+03  0.97942304694E+03  0.00000000000E+00 0. -1.
        -13    1    3    3    0    0  0.23185758612E+03  0.59914147913E+02  0.15651244036E+03  0.28608353561E+03  0.00000000000E+00 0.  1.
          4    1    6    6  502    0 -0.11677541320E+03  0.39193095593E+02  0.24275418378E+03  0.27221717362E+03  0.00000000000E+00 0. -1.
          1    1    5    5  503    0 -0.10941996057E+03 -0.74905714975E+02  0.14335748532E+02  0.13337581338E+03  0.00000000000E+00 0. -1.
         -2    1    5    5    0  503 -0.30173322921E+03 -0.38418058703E+03  0.12399372439E+03  0.50399613962E+03  0.00000000000E+00 0.  1.
         -3    1    6    6    0  502 -0.45211832505E+03 -0.66742715149E+01  0.80286569390E+03  0.92143846685E+03  0.00000000000E+00 0.  1.
<mgrwt>
<rscale>  0 0.24791984E+04</rscale>
<asrwt>0</asrwt>
<pdfrwt beam="1">  1        2 0.38090951E+00 0.24791984E+04</pdfrwt>
<pdfrwt beam="2">  1       -2 0.95480363E-01 0.24791984E+04</pdfrwt>
<totfact> 0.29576214E+00</totfact>
</mgrwt>
</event>
<event>
12    1  0.2404959E-007  0.1612662E+04  0.7818608E-02  0.8812807E-01
          2   -1    0    0  501    0  0.00000000000E+00  0.00000000000E+00  0.68548578051E+03  0.68548578051E+03  0.00000000000E+00 0. -1.
         -2   -1    0    0    0  501 -0.00000000000E+00 -0.00000000000E+00 -0.94848072347E+03  0.94848072347E+03  0.00000000000E+00 0.  1.
         23    2    1    2    0    0 -0.86942547366E+02 -0.52226001795E+03 -0.24927063696E+03  0.59209790468E+03  0.90163991611E+02 0.  0.
        254    2    1    2    0    0  0.86942547366E+02  0.52226001795E+03 -0.13724306008E+02  0.10418685993E+04  0.89721083851E+03 0.  0.
        -24    2    4    4    0    0  0.27808186966E+03 -0.14762707309E+03  0.80274355644E+02  0.33448635297E+03  0.79459859083E+02 0.  0.
         24    2    4    4    0    0 -0.19113932229E+03  0.66988709105E+03 -0.93998661653E+02  0.70738224633E+03  0.79189259064E+02 0.  0.
         13    1    3    3    0    0 -0.14898524120E+02 -0.27004148751E+03 -0.89077307624E+02  0.28474398629E+03  0.00000000000E+00 0.  1.
        -13    1    3    3    0    0 -0.72044023246E+02 -0.25221853045E+03 -0.16019332933E+03  0.30735391839E+03  0.00000000000E+00 0. -1.
          2    1    6    6  502    0 -0.61780793880E+02  0.34962824962E+03 -0.32223701289E+02  0.35650406218E+03  0.00000000000E+00 0. -1.
          1    1    5    5  503    0  0.26553777319E+03 -0.12976337612E+03  0.54192684699E+02  0.30047577248E+03  0.00000000000E+00 0. -1.
         -2    1    5    5    0  503  0.12544096467E+02 -0.17863696977E+02  0.26081670946E+02  0.34010580489E+02  0.00000000000E+00 0.  1.
         -1    1    6    6    0  502 -0.12935852841E+03  0.32025884143E+03 -0.61774960363E+02  0.35087818415E+03  0.00000000000E+00 0.  1.
<mgrwt>
<rscale>  0 0.16126625E+04</rscale>
<asrwt>0</asrwt>
<pdfrwt beam="1">  1        2 0.10545935E+00 0.16126625E+04</pdfrwt>
<pdfrwt beam="2">  1       -2 0.14592011E+00 0.16126625E+04</pdfrwt>
<totfact> 0.12982486E+01</totfact>
</mgrwt>
</event>
<event>
12    1  0.2404959E-007  0.1143226E+04  0.7818608E-02  0.9164056E-01
          2   -1    0    0  501    0  0.00000000000E+00  0.00000000000E+00  0.25367529297E+04  0.25367529297E+04  0.00000000000E+00 0. -1.
         -2   -1    0    0    0  501 -0.00000000000E+00 -0.00000000000E+00 -0.12880302250E+03  0.12880302250E+03  0.00000000000E+00 0.  1.
         23    2    1    2    0    0  0.13538051555E+03 -0.67744473964E+02  0.15081298220E+03  0.23091388884E+03  0.87518402164E+02 0.  0.
        254    2    1    2    0    0 -0.13538051555E+03  0.67744473964E+02  0.22571369250E+04  0.24346420634E+04  0.89994315420E+03 0.  0.
        -24    2    4    4    0    0 -0.22710807841E+03 -0.37924516340E+03  0.10903559130E+04  0.11792703393E+04  0.79984641803E+02 0.  0.
         24    2    4    4    0    0  0.91727562865E+02  0.44698963737E+03  0.11667810121E+04  0.12553717241E+04  0.79790688022E+02 0.  0.
         11    1    3    3    0    0  0.76404821178E+02 -0.83648690878E+02  0.10608870296E+03  0.15520828934E+03  0.00000000000E+00 0. -1.
        -11    1    3    3    0    0  0.58975694370E+02  0.15904216914E+02  0.44724279243E+02  0.75705599501E+02  0.00000000000E+00 0.  1.
          2    1    6    6  502    0  0.94161613001E+02  0.29019238592E+03  0.81453432771E+03  0.86979549391E+03  0.00000000000E+00 0. -1.
          1    1    5    5  503    0 -0.23175303521E+03 -0.35996628836E+03  0.10577876601E+04  0.11411397513E+04  0.00000000000E+00 0. -1.
         -2    1    5    5    0  503  0.46449567998E+01 -0.19278875046E+02  0.32568252839E+02  0.38130587980E+02  0.00000000000E+00 0.  1.
         -1    1    6    6    0  502 -0.24340501358E+01  0.15679725145E+03  0.35224668435E+03  0.38557623021E+03  0.00000000000E+00 0.  1.
<mgrwt>
<rscale>  0 0.11432260E+04</rscale>
<asrwt>0</asrwt>
<pdfrwt beam="1">  1        2 0.39026964E+00 0.11432260E+04</pdfrwt>
<pdfrwt beam="2">  1       -2 0.19815852E-01 0.11432260E+04</pdfrwt>
<totfact> 0.71886535E+01</totfact>
</mgrwt>
</event>
<event>
12    1  0.2404959E-007  0.2184369E+04  0.7818608E-02  0.8524962E-01
         -2   -1    0    0    0  501 -0.00000000000E+00  0.00000000000E+00  0.56053349691E+03  0.56053349691E+03  0.00000000000E+00 0.  1.
          2   -1    0    0  501    0  0.00000000000E+00 -0.00000000000E+00 -0.21280925426E+04  0.21280925426E+04  0.00000000000E+00 0. -1.
         23    2    1    2    0    0 -0.13284666231E+03  0.83593547996E+03 -0.10335808777E+04  0.13389790163E+04  0.90216478473E+02 0.  0.
        254    2    1    2    0    0  0.13284666231E+03 -0.83593547996E+03 -0.53397816795E+03  0.13496470232E+04  0.90552638890E+03 0.  0.
        -24    2    4    4    0    0 -0.16212597632E+03 -0.10291964538E+03  0.18573890469E+03  0.27823664373E+03  0.77713599821E+02 0.  0.
         24    2    4    4    0    0  0.29497263862E+03 -0.73301583459E+03 -0.71971707264E+03  0.10714103794E+04  0.74876333015E+02 0.  0.
         13    1    3    3    0    0 -0.90111361796E+02  0.29329321800E+03 -0.38106063318E+03  0.48923223056E+03  0.00000000000E+00 0.  1.
        -13    1    3    3    0    0 -0.42735300511E+02  0.54264226196E+03 -0.65252024454E+03  0.84974678576E+03  0.00000000000E+00 0. -1.
          2    1    6    6  502    0  0.12927442732E+03 -0.35997674373E+03 -0.39484084353E+03  0.54972213464E+03  0.00000000000E+00 0. -1.
          1    1    5    5  503    0 -0.16122135279E+02  0.10339146874E+02  0.50821118811E+01  0.19815374465E+02  0.00000000000E+00 0. -1.
         -2    1    5    5    0  503 -0.14600384104E+03 -0.11325879225E+03  0.18065679281E+03  0.25842126927E+03  0.00000000000E+00 0.  1.
         -3    1    6    6    0  502  0.16569821131E+03 -0.37303909085E+03 -0.32487622911E+03  0.52168824481E+03  0.00000000000E+00 0.  1.
<mgrwt>
<rscale>  0 0.21843692E+04</rscale>
<asrwt>0</asrwt>
<pdfrwt beam="1">  1        2 0.32739885E+00 0.21843692E+04</pdfrwt>
<pdfrwt beam="2">  1       -2 0.86235922E-01 0.21843692E+04</pdfrwt>
<totfact> 0.60459101E+00</totfact>
</mgrwt>
</event>
<event>
12    1  0.2404959E-007  0.3211596E+04  0.7818608E-02  0.8185761E-01
         -1   -1    0    0    0  501 -0.00000000000E+00  0.00000000000E+00  0.23887663630E+04  0.23887663630E+04  0.00000000000E+00 0.  1.
          1   -1    0    0  501    0  0.00000000000E+00 -0.00000000000E+00 -0.10794640438E+04  0.10794640438E+04  0.00000000000E+00 0. -1.
         23    2    1    2    0    0  0.30133721528E+02 -0.14637907899E+04  0.82430727142E+03  0.16826594530E+04  0.90933157656E+02 0.  0.
        254    2    1    2    0    0 -0.30133721528E+02  0.14637907899E+04  0.48499504780E+03  0.17855709538E+04  0.89969545782E+03 0.  0.
        -24    2    4    4    0    0 -0.42145491215E+03  0.93514999933E+03  0.44857094279E+03  0.11223254434E+04  0.79175412230E+02 0.  0.
         24    2    4    4    0    0  0.39132119062E+03  0.52864079058E+03  0.36424105006E+02  0.66324551042E+03  0.77295096650E+02 0.  0.
         11    1    3    3    0    0  0.38264745567E+02 -0.98059493628E+03  0.59633079741E+03  0.11483209655E+04  0.00000000000E+00 0.  1.
        -11    1    3    3    0    0 -0.81310240386E+01 -0.48319585363E+03  0.22797647400E+03  0.53433848750E+03  0.00000000000E+00 0. -1.
          4    1    6    6  502    0  0.28476532496E+03  0.40067828476E+03 -0.52489014794E+01  0.49159122159E+03  0.00000000000E+00 0. -1.
          3    1    5    5  503    0 -0.12046878739E+03  0.21222419692E+03  0.13420142940E+03  0.27849930368E+03  0.00000000000E+00 0. -1.
         -4    1    5    5    0  503 -0.30098612476E+03  0.72292580241E+03  0.31436951339E+03  0.84382613969E+03  0.00000000000E+00 0.  1.
         -3    1    6    6    0  502  0.10655586566E+03  0.12796250582E+03  0.41673006485E+02  0.17165428882E+03  0.00000000000E+00 0.  1.
<mgrwt>
<rscale>  0 0.32115961E+04</rscale>
<asrwt>0</asrwt>
<pdfrwt beam="1">  1        1 0.16607139E+00 0.32115961E+04</pdfrwt>
<pdfrwt beam="2">  1       -1 0.36750252E+00 0.32115961E+04</pdfrwt>
<totfact> 0.13036263E-01</totfact>
</mgrwt>
</event>
<event>
12    1  0.2404959E-007  0.1524201E+04  0.7818608E-02  0.8868517E-01
         -1   -1    0    0    0  501 -0.00000000000E+00  0.00000000000E+00  0.10479241117E+04  0.10479241117E+04  0.00000000000E+00 0.  1.
          1   -1    0    0  501    0  0.00000000000E+00 -0.00000000000E+00 -0.55423568825E+03  0.55423568825E+03  0.00000000000E+00 0. -1.
         23    2    1    2    0    0 -0.17487365046E+03 -0.68747646301E+02 -0.31549712955E+03  0.37862189060E+03  0.92244592211E+02 0.  0.
        254    2    1    2    0    0  0.17487365046E+03  0.68747646301E+02  0.80918555298E+03  0.12235379093E+04  0.89830770002E+03 0.  0.
        -24    2    4    4    0    0  0.25062214655E+03 -0.34716947476E+03  0.20160395380E+03  0.47930407943E+03  0.75829689595E+02 0.  0.
         24    2    4    4    0    0 -0.75748496093E+02  0.41591712106E+03  0.60758159918E+03  0.74423382990E+03  0.77483595998E+02 0.  0.
         13    1    3    3    0    0 -0.56001816437E+02 -0.40682551366E+02 -0.19552576683E+03  0.20741648663E+03  0.00000000000E+00 0.  1.
        -13    1    3    3    0    0 -0.11887183402E+03 -0.28065094935E+02 -0.11997136272E+03  0.17120540398E+03  0.00000000000E+00 0. -1.
          2    1    6    6  502    0 -0.55044038464E+02  0.20583746675E+03  0.24511894101E+03  0.32478023975E+03  0.00000000000E+00 0. -1.
          3    1    5    5  503    0  0.14492180387E+03 -0.24366807717E+03  0.16039952314E+03  0.32573680801E+03  0.00000000000E+00 0. -1.
         -4    1    5    5    0  503  0.10570034268E+03 -0.10350139759E+03  0.41204430665E+02  0.15356727142E+03  0.00000000000E+00 0.  1.
         -3    1    6    6    0  502 -0.20704457628E+02  0.21007965431E+03  0.36246265817E+03  0.41945359015E+03  0.00000000000E+00 0.  1.
<mgrwt>
<rscale>  0 0.15242007E+04</rscale>
<asrwt>0</asrwt>
<pdfrwt beam="1">  1        1 0.85267029E-01 0.15242007E+04</pdfrwt>
<pdfrwt beam="2">  1       -1 0.16121909E+00 0.15242007E+04</pdfrwt>
<totfact> 0.10598477E+01</totfact>
</mgrwt>
</event>
<event>
12    1  0.2404959E-007  0.2141686E+04  0.7818608E-02  0.8543099E-01
          1   -1    0    0  501    0  0.00000000000E+00  0.00000000000E+00  0.10583761171E+04  0.10583761171E+04  0.00000000000E+00 0. -1.
         -1   -1    0    0    0  501 -0.00000000000E+00 -0.00000000000E+00 -0.10834570287E+04  0.10834570287E+04  0.00000000000E+00 0.  1.
         23    2    1    2    0    0  0.44005852342E+03  0.74965581562E+03  0.11747890544E+03  0.88191180288E+03  0.91278633445E+02 0.  0.
        254    2    1    2    0    0 -0.44005852342E+03 -0.74965581562E+03 -0.14255981708E+03  0.12599213429E+04  0.90080138929E+03 0.  0.
        -24    2    4    4    0    0  0.76194455043E+01  0.12031121857E+03  0.17607930992E+03  0.22783554897E+03  0.79826491370E+02 0.  0.
         24    2    4    4    0    0 -0.44767796892E+03 -0.86996703419E+03 -0.31863912700E+03  0.10320857939E+04  0.80074892184E+02 0.  0.
         13    1    3    3    0    0  0.29803818902E+03  0.47506989904E+03  0.11639509503E+03  0.57277045074E+03  0.00000000000E+00 0. -1.
        -13    1    3    3    0    0  0.14202033439E+03  0.27458591657E+03  0.10838104167E+01  0.30914135215E+03  0.00000000000E+00 0.  1.
          4    1    6    6  502    0 -0.14204429552E+02 -0.22989306815E+02 -0.23753822715E+02  0.35979412729E+02  0.00000000000E+00 0. -1.
          3    1    5    5  503    0  0.42740303063E+02  0.82892349922E+02  0.11444291317E+03  0.14763148566E+03  0.00000000000E+00 0. -1.
         -4    1    5    5    0  503 -0.35120857559E+02  0.37418868653E+02  0.61636396749E+02  0.80204063308E+02  0.00000000000E+00 0.  1.
         -3    1    6    6    0  502 -0.43347353937E+03 -0.84697772738E+03 -0.29488530429E+03  0.99610638121E+03  0.00000000000E+00 0.  1.
<mgrwt>
<rscale>  0 0.21416863E+04</rscale>
<asrwt>0</asrwt>
<pdfrwt beam="1">  1        1 0.16282709E+00 0.21416863E+04</pdfrwt>
<pdfrwt beam="2">  1       -1 0.16668570E+00 0.21416863E+04</pdfrwt>
<totfact> 0.32533846E+00</totfact>
</mgrwt>
</event>
<event>
12    1  0.2404959E-007  0.2161253E+04  0.7818608E-02  0.8534731E-01
         -2   -1    0    0    0  501 -0.00000000000E+00  0.00000000000E+00  0.80125863045E+03  0.80125863045E+03  0.00000000000E+00 0.  1.
          2   -1    0    0  501    0  0.00000000000E+00 -0.00000000000E+00 -0.14573992986E+04  0.14573992986E+04  0.00000000000E+00 0. -1.
         23    2    1    2    0    0  0.67860237390E+03  0.57601968864E+03 -0.26042975565E+03  0.93193044711E+03  0.91492278713E+02 0.  0.
        254    2    1    2    0    0 -0.67860237390E+03 -0.57601968864E+03 -0.39571091254E+03  0.13267274820E+04  0.90073238065E+03 0.  0.
        -24    2    4    4    0    0 -0.77440890543E+03 -0.49144861073E+03 -0.58018931147E+03  0.10882727980E+04  0.80542881935E+02 0.  0.
         24    2    4    4    0    0  0.95806531528E+02 -0.84571077906E+02  0.18447839893E+03  0.23845468401E+03  0.80605198057E+02 0.  0.
         11    1    3    3    0    0  0.26034231284E+03  0.22103605697E+03 -0.53887598380E+02  0.34574402612E+03  0.00000000000E+00 0.  1.
        -11    1    3    3    0    0  0.41826006106E+03  0.35498363167E+03 -0.20654215727E+03  0.58618642099E+03  0.00000000000E+00 0. -1.
          4    1    6    6  502    0  0.85415760681E+02 -0.87347148731E+02  0.11379307184E+03  0.16695580182E+03  0.00000000000E+00 0. -1.
          3    1    5    5  503    0 -0.69464723068E+03 -0.41027209088E+03 -0.51493207131E+03  0.95708568149E+03  0.00000000000E+00 0. -1.
         -4    1    5    5    0  503 -0.79761674750E+02 -0.81176519850E+02 -0.65257240156E+02  0.13118711647E+03  0.00000000000E+00 0.  1.
         -3    1    6    6    0  502  0.10390770847E+02  0.27760708254E+01  0.70685327094E+02  0.71498882190E+02  0.00000000000E+00 0.  1.
<mgrwt>
<rscale>  0 0.21612531E+04</rscale>
<asrwt>0</asrwt>
<pdfrwt beam="1">  1        2 0.22421528E+00 0.21612531E+04</pdfrwt>
<pdfrwt beam="2">  1       -2 0.12327056E+00 0.21612531E+04</pdfrwt>
<totfact> 0.61108927E+00</totfact>
</mgrwt>
</event>
<event>
12    1  0.2404959E-007  0.3206014E+04  0.7818608E-02  0.8187231E-01
         -1   -1    0    0    0  501 -0.00000000000E+00  0.00000000000E+00  0.10150841906E+04  0.10150841906E+04  0.00000000000E+00 0.  1.
          1   -1    0    0  501    0  0.00000000000E+00 -0.00000000000E+00 -0.25314469469E+04  0.25314469469E+04  0.00000000000E+00 0. -1.
         23    2    1    2    0    0  0.13496079008E+03 -0.13370984073E+04 -0.28099856263E+02  0.13473345411E+04  0.92055407108E+02 0.  0.
        254    2    1    2    0    0 -0.13496079008E+03  0.13370984073E+04 -0.14882629001E+04  0.21991965964E+04  0.90304631356E+03 0.  0.
        -24    2    4    4    0    0 -0.21870082445E+03  0.58613384630E+02 -0.57493443288E+03  0.62368792458E+03  0.84684388707E+02 0.  0.
         24    2    4    4    0    0  0.83740034369E+02  0.12784850226E+04 -0.91332846720E+03  0.15755086719E+04  0.80761002987E+02 0.  0.
         11    1    3    3    0    0  0.68748910375E+02 -0.97342946509E+03 -0.49124393106E+02  0.97708983322E+03  0.00000000000E+00 0.  1.
        -11    1    3    3    0    0  0.66211879707E+02 -0.36366894219E+03  0.21024536843E+02  0.37024470783E+03  0.00000000000E+00 0. -1.
          2    1    6    6  502    0  0.43914309321E+01  0.64381184455E+03 -0.44039914720E+03  0.78004127115E+03  0.00000000000E+00 0. -1.
          1    1    5    5  503    0 -0.14627531172E+03  0.23321200579E+02 -0.46050761332E+03  0.48374332774E+03  0.00000000000E+00 0. -1.
         -4    1    5    5    0  503 -0.72425512735E+02  0.35292184051E+02 -0.11442681956E+03  0.13994459684E+03  0.00000000000E+00 0.  1.
         -1    1    6    6    0  502  0.79348603437E+02  0.63467317810E+03 -0.47292932000E+03  0.79546740071E+03  0.00000000000E+00 0.  1.
<mgrwt>
<rscale>  0 0.32060142E+04</rscale>
<asrwt>0</asrwt>
<pdfrwt beam="1">  1        1 0.38945337E+00 0.32060142E+04</pdfrwt>
<pdfrwt beam="2">  1       -1 0.15616680E+00 0.32060142E+04</pdfrwt>
<totfact> 0.33663174E-01</totfact>
</mgrwt>
</event>
<event>
12    1  0.2404959E-007  0.1405808E+04  0.7818608E-02  0.8949625E-01
         -2   -1    0    0    0  501 -0.00000000000E+00  0.00000000000E+00  0.83044938935E+03  0.83044938935E+03  0.00000000000E+00 0.  1.
          2   -1    0    0  501    0  0.00000000000E+00 -0.00000000000E+00 -0.59494787926E+03  0.59494787926E+03  0.00000000000E+00 0. -1.
         23    2    1    2    0    0 -0.24801004717E+03 -0.29046003728E+03  0.21627948281E+03  0.44777928388E+03  0.88619724849E+02 0.  0.
        254    2    1    2    0    0  0.24801004717E+03  0.29046003728E+03  0.19222027273E+02  0.97761798472E+03  0.89971741172E+03 0.  0.
        -24    2    4    4    0    0 -0.13794916441E+03  0.40607874915E+03 -0.23396722804E+03  0.49527098360E+03  0.81380347310E+02 0.  0.
         24    2    4    4    0    0  0.38595921158E+03 -0.11561871187E+03  0.25318925531E+03  0.48234700112E+03  0.78877315747E+02 0.  0.
         13    1    3    3    0    0 -0.12771744505E+03 -0.19378344291E+03  0.16646484295E+03  0.28561217141E+03  0.00000000000E+00 0. -1.
        -13    1    3    3    0    0 -0.12029260212E+03 -0.96676594370E+02  0.49814639863E+02  0.16216711248E+03  0.00000000000E+00 0.  1.
          4    1    6    6  502    0  0.84668517903E+02 -0.51193961556E+02  0.35575722979E+02  0.10514376676E+03  0.00000000000E+00 0. -1.
          1    1    5    5  503    0 -0.25491212818E+02  0.19828573937E+03 -0.97607249468E+02  0.22247294558E+03  0.00000000000E+00 0. -1.
         -2    1    5    5    0  503 -0.11245795159E+03  0.20779300978E+03 -0.13635997857E+03  0.27279803802E+03  0.00000000000E+00 0.  1.
         -3    1    6    6    0  502  0.30129069368E+03 -0.64424750312E+02  0.21761353233E+03  0.37720323435E+03  0.00000000000E+00 0.  1.
<mgrwt>
<rscale>  0 0.14058081E+04</rscale>
<asrwt>0</asrwt>
<pdfrwt beam="1">  1        2 0.91530442E-01 0.14058081E+04</pdfrwt>
<pdfrwt beam="2">  1       -2 0.12776145E+00 0.14058081E+04</pdfrwt>
<totfact> 0.22114469E+01</totfact>
</mgrwt>
</event>
<event>
12    1  0.2404959E-007  0.1247847E+04  0.7818608E-02  0.9071977E-01
          2   -1    0    0  501    0  0.00000000000E+00  0.00000000000E+00  0.24198216591E+04  0.24198216591E+04  0.00000000000E+00 0.  1.
         -2   -1    0    0    0  501 -0.00000000000E+00 -0.00000000000E+00 -0.16087157749E+03  0.16087157749E+03  0.00000000000E+00 0. -1.
         23    2    1    2    0    0  0.26673755477E+03  0.98121987270E+02  0.44342639226E+03  0.53439426070E+03  0.90406930113E+02 0.  0.
        254    2    1    2    0    0 -0.26673755477E+03 -0.98121987270E+02  0.18155236893E+04  0.20462989758E+04  0.90024240325E+03 0.  0.
        -24    2    4    4    0    0 -0.48114162985E+03 -0.25112863139E+03  0.16169897039E+04  0.17075097459E+04  0.79818371084E+02 0.  0.
         24    2    4    4    0    0  0.21440407508E+03  0.15300664412E+03  0.19853398537E+03  0.33878922991E+03  0.77345060596E+02 0.  0.
         13    1    3    3    0    0  0.66581659856E+02 -0.27796719104E+01  0.57134379763E+02  0.87779162425E+02  0.00000000000E+00 0. -1.
        -13    1    3    3    0    0  0.20015589492E+03  0.10090165918E+03  0.38629201249E+03  0.44661509828E+03  0.00000000000E+00 0.  1.
          2    1    6    6  502    0  0.82095830330E+02  0.10608320426E+03  0.97175283087E+02  0.16563938912E+03  0.00000000000E+00 0. -1.
          1    1    5    5  503    0 -0.44533883667E+03 -0.21322485171E+03  0.14061411822E+04  0.14903102164E+04  0.00000000000E+00 0. -1.
         -2    1    5    5    0  503 -0.35802793187E+02 -0.37903779679E+02  0.21084852170E+03  0.21719952951E+03  0.00000000000E+00 0.  1.
         -1    1    6    6    0  502  0.13230824475E+03  0.46923439856E+02  0.10135870229E+03  0.17314984079E+03  0.00000000000E+00 0.  1.
<mgrwt>
<rscale>  0 0.12478470E+04</rscale>
<asrwt>0</asrwt>
<pdfrwt beam="1">  1        2 0.37228023E+00 0.12478470E+04</pdfrwt>
<pdfrwt beam="2">  1       -2 0.24749475E-01 0.12478470E+04</pdfrwt>
<totfact> 0.55914684E+01</totfact>
</mgrwt>
</event>
<event>
12    1  0.2404959E-007  0.1679230E+04  0.7818608E-02  0.8773299E-01
         -1   -1    0    0    0  501 -0.00000000000E+00  0.00000000000E+00  0.51171356707E+03  0.51171356707E+03  0.00000000000E+00 0.  1.
          1   -1    0    0  501    0  0.00000000000E+00 -0.00000000000E+00 -0.13776332791E+04  0.13776332791E+04  0.00000000000E+00 0. -1.
         23    2    1    2    0    0  0.87048677995E+02 -0.26563399893E+03  0.28145086542E+03  0.40670152691E+03  0.89736551160E+02 0.  0.
        254    2    1    2    0    0 -0.87048677995E+02  0.26563399893E+03 -0.11473705775E+04  0.14826453193E+04  0.89645914967E+03 0.  0.
        -24    2    4    4    0    0 -0.41425938308E+03  0.35396304702E+03 -0.47968102485E+03  0.73033779882E+03  0.79992122532E+02 0.  0.
         24    2    4    4    0    0  0.32721070508E+03 -0.88329048093E+02 -0.66768955264E+03  0.75230752048E+03  0.72721388921E+02 0.  0.
         11    1    3    3    0    0  0.38742904052E+02 -0.21432028503E+02  0.50110898774E+02  0.66868876438E+02  0.00000000000E+00 0.  1.
        -11    1    3    3    0    0  0.48305773943E+02 -0.24420197043E+03  0.23133996665E+03  0.33983265047E+03  0.00000000000E+00 0. -1.
          4    1    6    6  502    0  0.25119532611E+03 -0.82022558477E+02 -0.57077857567E+03  0.62897931159E+03  0.00000000000E+00 0. -1.
          1    1    5    5  503    0 -0.21307993701E+03  0.21135086524E+03 -0.21922142109E+03  0.37165882104E+03  0.00000000000E+00 0. -1.
         -2    1    5    5    0  503 -0.20117944607E+03  0.14261218178E+03 -0.26045960376E+03  0.35867897778E+03  0.00000000000E+00 0.  1.
         -3    1    6    6    0  502  0.76015378971E+02 -0.63064896164E+01 -0.96910976970E+02  0.12332820889E+03  0.00000000000E+00 0.  1.
<mgrwt>
<rscale>  0 0.16792303E+04</rscale>
<asrwt>0</asrwt>
<pdfrwt beam="1">  1        1 0.21194358E+00 0.16792303E+04</pdfrwt>
<pdfrwt beam="2">  1       -1 0.78725163E-01 0.16792303E+04</pdfrwt>
<totfact> 0.12258467E+01</totfact>
</mgrwt>
</event>
<event>
12    1  0.2404959E-007  0.3485932E+04  0.7818608E-02  0.8117132E-01
         -2   -1    0    0    0  501 -0.00000000000E+00  0.00000000000E+00  0.18195261293E+04  0.18195261293E+04  0.00000000000E+00 0. -1.
          2   -1    0    0  501    0  0.00000000000E+00 -0.00000000000E+00 -0.16696268383E+04  0.16696268383E+04  0.00000000000E+00 0.  1.
         23    2    1    2    0    0 -0.62456497639E+03  0.14974901167E+04 -0.95876826762E+02  0.16278989709E+04  0.91129764771E+02 0.  0.
        254    2    1    2    0    0  0.62456497639E+03 -0.14974901167E+04  0.24577611773E+03  0.18612539966E+04  0.87823828230E+03 0.  0.
        -24    2    4    4    0    0  0.47786072775E+03 -0.19526460759E+03  0.15600237264E+03  0.54520531718E+03  0.80205707461E+02 0.  0.
         24    2    4    4    0    0  0.14670424864E+03 -0.13022255092E+04  0.89773745095E+02  0.13160486795E+04  0.81310442983E+02 0.  0.
         13    1    3    3    0    0 -0.18018210798E+03  0.54459952150E+03 -0.29601771054E+02  0.57439576574E+03  0.00000000000E+00 0.  1.
        -13    1    3    3    0    0 -0.44438286841E+03  0.95289059525E+03 -0.66275055708E+02  0.10535032051E+04  0.00000000000E+00 0. -1.
          2    1    6    6  502    0  0.12392660118E+03 -0.12475949603E+04  0.83122378879E+02  0.12564872929E+04  0.00000000000E+00 0. -1.
          3    1    5    5  503    0  0.20777651977E+03 -0.12592044403E+03  0.85796839834E+02  0.25765895699E+03  0.00000000000E+00 0. -1.
         -4    1    5    5    0  503  0.27008420799E+03 -0.69344163554E+02  0.70205532804E+02  0.28754636019E+03  0.00000000000E+00 0.  1.
         -1    1    6    6    0  502  0.22777647465E+02 -0.54630548893E+02  0.66513662155E+01  0.59561386560E+02  0.00000000000E+00 0.  1.
<mgrwt>
<rscale>  0 0.34859315E+04</rscale>
<asrwt>0</asrwt>
<pdfrwt beam="1">  1        2 0.25686567E+00 0.34859315E+04</pdfrwt>
<pdfrwt beam="2">  1       -2 0.27992710E+00 0.34859315E+04</pdfrwt>
<totfact> 0.35360566E-01</totfact>
</mgrwt>
</event>
<event>
12    1  0.2404959E-007  0.1676025E+04  0.7818608E-02  0.8775157E-01
          2   -1    0    0  501    0  0.00000000000E+00  0.00000000000E+00  0.11901134027E+04  0.11901134027E+04  0.00000000000E+00 0.  1.
         -2   -1    0    0    0  501 -0.00000000000E+00 -0.00000000000E+00 -0.59008249234E+03  0.59008249234E+03  0.00000000000E+00 0. -1.
         23    2    1    2    0    0  0.18866883977E+03 -0.54806724491E+03  0.32713392199E+03  0.67182930590E+03  0.91456969734E+02 0.  0.
        254    2    1    2    0    0 -0.18866883977E+03  0.54806724491E+03  0.27289698839E+03  0.11083665892E+04  0.90445016095E+03 0.  0.
        -24    2    4    4    0    0  0.12250915911E+03 -0.15626389494E+03  0.25717058472E+03  0.33459740378E+03  0.79948821424E+02 0.  0.
         24    2    4    4    0    0 -0.31117799888E+03  0.70433113985E+03  0.15726403674E+02  0.77376918537E+03  0.74547507794E+02 0.  0.
         13    1    3    3    0    0  0.12075683063E+03 -0.21567625204E+03  0.12622657033E+03  0.27754568074E+03  0.00000000000E+00 0.  1.
        -13    1    3    3    0    0  0.67912009143E+02 -0.33239099286E+03  0.20090735166E+03  0.39428362517E+03  0.00000000000E+00 0. -1.
          2    1    6    6  502    0 -0.29377498065E+03  0.68747854923E+03  0.24462439476E+02  0.74801664811E+03  0.00000000000E+00 0. -1.
          1    1    5    5  503    0  0.13364351930E+03 -0.14208327894E+03  0.22553619024E+03  0.29818588416E+03  0.00000000000E+00 0. -1.
         -2    1    5    5    0  503 -0.11134360195E+02 -0.14180616001E+02  0.31634394473E+02  0.36411519617E+02  0.00000000000E+00 0.  1.
         -1    1    6    6    0  502 -0.17403018225E+02  0.16852590616E+02 -0.87360358021E+01  0.25752537260E+02  0.00000000000E+00 0.  1.
<mgrwt>
<rscale>  0 0.16760252E+04</rscale>
<asrwt>0</asrwt>
<pdfrwt beam="1">  1        2 0.18309437E+00 0.16760252E+04</pdfrwt>
<pdfrwt beam="2">  1       -2 0.90781922E-01 0.16760252E+04</pdfrwt>
<totfact> 0.18964924E+01</totfact>
</mgrwt>
</event>
<event>
12    1  0.2404959E-007  0.1489154E+04  0.7818608E-02  0.8891697E-01
         -1   -1    0    0    0  501 -0.00000000000E+00  0.00000000000E+00  0.16244353629E+04  0.16244353629E+04  0.00000000000E+00 0.  1.
          1   -1    0    0  501    0  0.00000000000E+00 -0.00000000000E+00 -0.34128484491E+03  0.34128484491E+03  0.00000000000E+00 0. -1.
         23    2    1    2    0    0  0.12136299988E+02 -0.46226598321E+03  0.33018622881E+03  0.57509123352E+03  0.88712187278E+02 0.  0.
        254    2    1    2    0    0 -0.12136299988E+02  0.46226598321E+03  0.95296428918E+03  0.13906289743E+04  0.90103877756E+03 0.  0.
        -24    2    4    4    0    0 -0.15939111947E+03  0.59346577508E+03  0.27222139502E+03  0.67748119476E+03  0.85259170691E+02 0.  0.
         24    2    4    4    0    0  0.14725481948E+03 -0.13119979187E+03  0.68074289416E+03  0.71314777953E+03  0.79192804290E+02 0.  0.
         13    1    3    3    0    0  0.55687022517E+01 -0.32127271008E+03  0.27706944091E+03  0.42428132150E+03  0.00000000000E+00 0.  1.
        -13    1    3    3    0    0  0.65675977359E+01 -0.14099327313E+03  0.53116787895E+02  0.15080991203E+03  0.00000000000E+00 0. -1.
          2    1    6    6  502    0  0.12537244066E+03 -0.14075533319E+03  0.61248432299E+03  0.64083333138E+03  0.00000000000E+00 0. -1.
          1    1    5    5  503    0 -0.81727023759E+02  0.44636635966E+03  0.19055066142E+03  0.49217048674E+03  0.00000000000E+00 0. -1.
         -2    1    5    5    0  503 -0.77664095714E+02  0.14709941541E+03  0.81670733604E+02  0.18531070802E+03  0.00000000000E+00 0.  1.
         -1    1    6    6    0  502  0.21882378823E+02  0.95555413249E+01  0.68258571167E+02  0.72314448147E+02  0.00000000000E+00 0.  1.
<mgrwt>
<rscale>  0 0.14891544E+04</rscale>
<asrwt>0</asrwt>
<pdfrwt beam="1">  1        1 0.52505362E-01 0.14891544E+04</pdfrwt>
<pdfrwt beam="2">  1       -1 0.24991313E+00 0.14891544E+04</pdfrwt>
<totfact> 0.50075947E+00</totfact>
</mgrwt>
</event>
<event>
12    1  0.2404959E-007  0.2085355E+04  0.7818608E-02  0.8567722E-01
         -2   -1    0    0    0  501 -0.00000000000E+00  0.00000000000E+00  0.52332600191E+03  0.52332600191E+03  0.00000000000E+00 0.  1.
          2   -1    0    0  501    0  0.00000000000E+00 -0.00000000000E+00 -0.20774363971E+04  0.20774363971E+04  0.00000000000E+00 0. -1.
         23    2    1    2    0    0  0.24673189595E+02 -0.80370266191E+03 -0.95994885114E+03  0.12554073759E+04  0.89437954521E+02 0.  0.
        254    2    1    2    0    0 -0.24673189595E+02  0.80370266191E+03 -0.59416154404E+03  0.13453550231E+04  0.90022522882E+03 0.  0.
        -24    2    4    4    0    0  0.40973347566E+03  0.21163414216E+03 -0.24605354549E+03  0.52871991822E+03  0.79573070017E+02 0.  0.
         24    2    4    4    0    0 -0.43440666525E+03  0.59206851975E+03 -0.34810799855E+03  0.81663510484E+03  0.80370597238E+02 0.  0.
         13    1    3    3    0    0 -0.28463057138E+02 -0.40539935723E+03 -0.51077392854E+03  0.65272413050E+03  0.00000000000E+00 0.  1.
        -13    1    3    3    0    0  0.53136246733E+02 -0.39830330468E+03 -0.44917492260E+03  0.60268324543E+03  0.00000000000E+00 0. -1.
          2    1    6    6  502    0 -0.12265488040E+03  0.23039141299E+03 -0.11343005389E+03  0.28458882619E+03  0.00000000000E+00 0. -1.
          1    1    5    5  503    0  0.73501182934E+01  0.21546846498E+02 -0.88351626117E+01  0.24420297527E+02  0.00000000000E+00 0. -1.
         -4    1    5    5    0  503  0.40238335737E+03  0.19008729567E+03 -0.23721838287E+03  0.50429962069E+03  0.00000000000E+00 0.  1.
         -1    1    6    6    0  502 -0.31175178485E+03  0.36167710676E+03 -0.23467794466E+03  0.53204627864E+03  0.00000000000E+00 0.  1.
<mgrwt>
<rscale>  0 0.20853551E+04</rscale>
<asrwt>0</asrwt>
<pdfrwt beam="1">  1        2 0.31960560E+00 0.20853551E+04</pdfrwt>
<pdfrwt beam="2">  1       -2 0.80511692E-01 0.20853551E+04</pdfrwt>
<totfact> 0.76040268E+00</totfact>
</mgrwt>
</event>
<event>
12    1  0.2404959E-007  0.1286855E+04  0.7818608E-02  0.9040055E-01
          2   -1    0    0  501    0  0.00000000000E+00  0.00000000000E+00  0.30263501631E+04  0.30263501631E+04  0.00000000000E+00 0. -1.
         -2   -1    0    0    0  501 -0.00000000000E+00 -0.00000000000E+00 -0.13679806924E+03  0.13679806924E+03  0.00000000000E+00 0.  1.
         23    2    1    2    0    0  0.33212908815E+02 -0.28148780732E+03  0.38590025073E+03  0.48746211963E+03  0.91443051017E+02 0.  0.
        254    2    1    2    0    0 -0.33212908815E+02  0.28148780732E+03  0.25036518432E+04  0.26756861127E+04  0.90038055244E+03 0.  0.
        -24    2    4    4    0    0  0.15178319256E+03 -0.85038813989E+02  0.20499545684E+04  0.20588133869E+04  0.78288520736E+02 0.  0.
         24    2    4    4    0    0 -0.18499610138E+03  0.36652662131E+03  0.45369727479E+03  0.61687272580E+03  0.78265069041E+02 0.  0.
         11    1    3    3    0    0  0.11743085791E+02 -0.26563523072E+03  0.31806904459E+03  0.41456952733E+03  0.00000000000E+00 0.  1.
        -11    1    3    3    0    0  0.21469823024E+02 -0.15852576593E+02  0.67831206143E+02  0.72892592299E+02  0.00000000000E+00 0. -1.
          4    1    6    6  502    0 -0.18944298868E+03  0.36070993048E+03  0.45336855261E+03  0.60954355414E+03  0.00000000000E+00 0. -1.
          3    1    5    5  503    0  0.72172934643E+02 -0.82196678622E+02  0.13201600945E+04  0.13246840761E+04  0.00000000000E+00 0. -1.
         -4    1    5    5    0  503  0.79610257917E+02 -0.28421353665E+01  0.72979447390E+03  0.73412931084E+03  0.00000000000E+00 0.  1.
         -3    1    6    6    0  502  0.44468873017E+01  0.58166908317E+01  0.32872218233E+00  0.73291716571E+01  0.00000000000E+00 0.  1.
<mgrwt>
<rscale>  0 0.12868549E+04</rscale>
<asrwt>0</asrwt>
<pdfrwt beam="1">  1        2 0.46559228E+00 0.12868549E+04</pdfrwt>
<pdfrwt beam="2">  1       -2 0.21045859E-01 0.12868549E+04</pdfrwt>
<totfact> 0.32515241E+01</totfact>
</mgrwt>
</event>
<event>
12    1  0.2574598E-007  0.2228248E+04  0.7818608E-02  0.8506762E-01
          2   -1    0    0  501    0  0.00000000000E+00  0.00000000000E+00  0.14362921110E+04  0.14362921110E+04  0.00000000000E+00 0. -1.
         -2   -1    0    0    0  501 -0.00000000000E+00 -0.00000000000E+00 -0.86421967397E+03  0.86421967397E+03  0.00000000000E+00 0.  1.
         23    2    1    2    0    0 -0.79236091173E+02  0.82818168033E+03 -0.19006056956E+03  0.85823788180E+03  0.91027401736E+02 0.  0.
        254    2    1    2    0    0  0.79236091173E+02 -0.82818168033E+03  0.76213300663E+03  0.14422739032E+04  0.89841195358E+03 0.  0.
        -24    2    4    4    0    0 -0.14069521061E+03 -0.93354945473E+03  0.70344726267E+03  0.11799653085E+04  0.78551582456E+02 0.  0.
         24    2    4    4    0    0  0.21993130178E+03  0.10536777440E+03  0.58685743966E+02  0.26230859476E+03  0.76743970165E+02 0.  0.
         11    1    3    3    0    0 -0.71217746312E+02  0.43623636556E+03 -0.13625109357E+03  0.46253485763E+03  0.00000000000E+00 0.  1.
        -11    1    3    3    0    0 -0.80183448612E+01  0.39194531477E+03 -0.53809475996E+02  0.39570302417E+03  0.00000000000E+00 0. -1.
          4    1    6    6  502    0  0.14684938483E+03  0.28492311563E+02  0.34816329372E+02  0.15358623127E+03  0.00000000000E+00 0. -1.
          3    1    5    5  503    0 -0.10093274600E+03 -0.41833189134E+03  0.33364234902E+03  0.54452383564E+03  0.00000000000E+00 0. -1.
         -4    1    5    5    0  503 -0.39762464606E+02 -0.51521756339E+03  0.36980491365E+03  0.63544147282E+03  0.00000000000E+00 0.  1.
         -3    1    6    6    0  502  0.73081916948E+02  0.76875462835E+02  0.23869414594E+02  0.10872236349E+03  0.00000000000E+00 0.  1.
<mgrwt>
<rscale>  0 0.22282477E+04</rscale>
<asrwt>0</asrwt>
<pdfrwt beam="1">  1        2 0.22096802E+00 0.22282477E+04</pdfrwt>
<pdfrwt beam="2">  1       -2 0.13295687E+00 0.22282477E+04</pdfrwt>
<totfact> 0.51612713E+00</totfact>
</mgrwt>
</event>
<event>
12    1  0.2404959E-007  0.2176689E+04  0.7818608E-02  0.8528194E-01
          2   -1    0    0  501    0  0.00000000000E+00  0.00000000000E+00  0.29157234414E+04  0.29157234414E+04  0.00000000000E+00 0. -1.
         -2   -1    0    0    0  501 -0.00000000000E+00 -0.00000000000E+00 -0.40624358974E+03  0.40624358974E+03  0.00000000000E+00 0.  1.
         23    2    1    2    0    0 -0.51688458579E+03 -0.61775972597E+03  0.43252214450E+03  0.91889685940E+03  0.92191532489E+02 0.  0.
        254    2    1    2    0    0  0.51688458579E+03  0.61775972597E+03  0.20769577071E+04  0.24030701717E+04  0.90121927350E+03 0.  0.
        -24    2    4    4    0    0  0.38011233533E+03 -0.14689840476E+03  0.55941443911E+03  0.69675489726E+03  0.80363818811E+02 0.  0.
         24    2    4    4    0    0  0.13677225046E+03  0.76465813073E+03  0.15175432680E+04  0.17063152745E+04  0.71871692365E+02 0.  0.
         13    1    3    3    0    0 -0.22646172176E+03 -0.27941474312E+03  0.14184889103E+03  0.38662464741E+03  0.00000000000E+00 0.  1.
        -13    1    3    3    0    0 -0.29042286404E+03 -0.33834498285E+03  0.29067325347E+03  0.53227221199E+03  0.00000000000E+00 0. -1.
          2    1    6    6  502    0  0.10862047086E+03  0.40848229391E+03  0.83890035669E+03  0.93936680779E+03  0.00000000000E+00 0. -1.
          1    1    5    5  503    0  0.23258077628E+03 -0.12755046248E+03  0.33141547773E+03  0.42449871243E+03  0.00000000000E+00 0. -1.
         -2    1    5    5    0  503  0.14753155905E+03 -0.19347942277E+02  0.22799896139E+03  0.27225618483E+03  0.00000000000E+00 0.  1.
         -1    1    6    6    0  502  0.28151779603E+02  0.35617583682E+03  0.67864291134E+03  0.76694846668E+03  0.00000000000E+00 0.  1.
<mgrwt>
<rscale>  0 0.21766892E+04</rscale>
<asrwt>0</asrwt>
<pdfrwt beam="1">  1        2 0.44857282E+00 0.21766892E+04</pdfrwt>
<pdfrwt beam="2">  1       -2 0.62499016E-01 0.21766892E+04</pdfrwt>
<totfact> 0.42773119E+00</totfact>
</mgrwt>
</event>
<event>
12    1  0.3655151E-007  0.2184043E+04  0.7818608E-02  0.8525099E-01
          1   -1    0    0  501    0  0.00000000000E+00  0.00000000000E+00  0.28373711902E+04  0.28373711902E+04  0.00000000000E+00 0. -1.
         -1   -1    0    0    0  501 -0.00000000000E+00 -0.00000000000E+00 -0.42028706554E+03  0.42028706554E+03  0.00000000000E+00 0.  1.
         23    2    1    2    0    0  0.84480161454E+02 -0.86410843268E+03  0.63299908173E+03  0.10783941724E+04  0.91792551446E+02 0.  0.
        254    2    1    2    0    0 -0.84480161454E+02  0.86410843268E+03  0.17840850429E+04  0.21792640833E+04  0.90133912782E+03 0.  0.
        -24    2    4    4    0    0  0.38058798735E+03  0.46071036984E+03  0.11051281090E+04  0.12589481765E+04  0.80877145471E+02 0.  0.
         24    2    4    4    0    0 -0.46506814881E+03  0.40339806285E+03  0.67895693389E+03  0.92031590685E+03  0.83549208161E+02 0.  0.
         11    1    3    3    0    0  0.63118530537E+02 -0.25633840137E+03  0.21469985609E+03  0.34027834654E+03  0.00000000000E+00 0.  1.
        -11    1    3    3    0    0  0.21361630917E+02 -0.60777003131E+03  0.41829922564E+03  0.73811582588E+03  0.00000000000E+00 0. -1.
          2    1    6    6  502    0 -0.53134646025E+02  0.20078132936E+02  0.43569950755E+02  0.71587447497E+02  0.00000000000E+00 0. -1.
          1    1    5    5  503    0  0.16925413817E+01  0.12699422886E+02  0.89991107878E+01  0.15656437428E+02  0.00000000000E+00 0. -1.
         -2    1    5    5    0  503  0.37889544597E+03  0.44801094695E+03  0.10961289982E+04  0.12432917390E+04  0.00000000000E+00 0.  1.
         -1    1    6    6    0  502 -0.41193350278E+03  0.38331992991E+03  0.63538698314E+03  0.84872845936E+03  0.00000000000E+00 0.  1.
<mgrwt>
<rscale>  0 0.21840425E+04</rscale>
<asrwt>0</asrwt>
<pdfrwt beam="1">  1        1 0.43651863E+00 0.21840425E+04</pdfrwt>
<pdfrwt beam="2">  1       -1 0.64659550E-01 0.21840425E+04</pdfrwt>
<totfact> 0.17362552E+00</totfact>
</mgrwt>
</event>
<event>
12    1  0.2404959E-007  0.3001082E+04  0.7818608E-02  0.8243422E-01
         -1   -1    0    0    0  501 -0.00000000000E+00  0.00000000000E+00  0.19174137142E+04  0.19174137142E+04  0.00000000000E+00 0.  1.
          1   -1    0    0  501    0  0.00000000000E+00 -0.00000000000E+00 -0.11743021719E+04  0.11743021719E+04  0.00000000000E+00 0. -1.
         23    2    1    2    0    0 -0.57189658021E+03  0.10067433813E+04  0.10802644453E+04  0.15861850690E+04  0.91727135263E+02 0.  0.
        254    2    1    2    0    0  0.57189658021E+03 -0.10067433813E+04 -0.33715290304E+03  0.15055308170E+04  0.90130628911E+03 0.  0.
        -24    2    4    4    0    0  0.19835273489E+03 -0.46941953339E+03  0.29328120482E+03  0.59341155587E+03  0.80155497440E+02 0.  0.
         24    2    4    4    0    0  0.37354384533E+03 -0.53732384787E+03 -0.63043410786E+03  0.91211926115E+03  0.79135708387E+02 0.  0.
         11    1    3    3    0    0 -0.64455402911E+02  0.11337705998E+03  0.84500822736E+02  0.15540027586E+03  0.00000000000E+00 0. -1.
        -11    1    3    3    0    0 -0.50744117730E+03  0.89336632128E+03  0.99576362255E+03  0.14307847932E+04  0.00000000000E+00 0.  1.
          4    1    6    6  502    0  0.37337160809E+03 -0.51627550109E+03 -0.60051011489E+03  0.87553363662E+03  0.00000000000E+00 0. -1.
          3    1    5    5  503    0  0.70222515482E+02 -0.25788276918E+03  0.17319536722E+03  0.31848290307E+03  0.00000000000E+00 0. -1.
         -4    1    5    5    0  503  0.12813021940E+03 -0.21153676421E+03  0.12008583760E+03  0.27492865280E+03  0.00000000000E+00 0.  1.
         -3    1    6    6    0  502  0.17223723631E+00 -0.21048346773E+02 -0.29923992965E+02  0.36585624533E+02  0.00000000000E+00 0.  1.
<mgrwt>
<rscale>  0 0.30010819E+04</rscale>
<asrwt>0</asrwt>
<pdfrwt beam="1">  1        1 0.18066187E+00 0.30010819E+04</pdfrwt>
<pdfrwt beam="2">  1       -1 0.29498672E+00 0.30010819E+04</pdfrwt>
<totfact> 0.33798604E-01</totfact>
</mgrwt>
</event>
<event>
12    1  0.2404959E-007  0.1381641E+04  0.7818608E-02  0.8967216E-01
         -4   -1    0    0    0  501 -0.00000000000E+00  0.00000000000E+00  0.28513653648E+03  0.28513653648E+03  0.00000000000E+00 0.  1.
          4   -1    0    0  501    0  0.00000000000E+00 -0.00000000000E+00 -0.16736997671E+04  0.16736997671E+04  0.00000000000E+00 0. -1.
         23    2    1    2    0    0 -0.17739412972E+03  0.25958543065E+03 -0.73099894393E+03  0.80073713796E+03  0.89259369320E+02 0.  0.
        254    2    1    2    0    0  0.17739412972E+03 -0.25958543065E+03 -0.65756428667E+03  0.11580991656E+04  0.89997200688E+03 0.  0.
        -24    2    4    4    0    0 -0.14087963115E+03  0.27740811798E+03 -0.24878134481E+03  0.40745247859E+03  0.85574706491E+02 0.  0.
         24    2    4    4    0    0  0.31827376087E+03 -0.53699354863E+03 -0.40878294186E+03  0.75064668700E+03  0.81894426023E+02 0.  0.
         11    1    3    3    0    0 -0.15756586124E+03  0.16153215845E+03 -0.53635978886E+03  0.58189471724E+03  0.00000000000E+00 0. -1.
        -11    1    3    3    0    0 -0.19828268486E+02  0.98053272208E+02 -0.19463915507E+03  0.21884242072E+03  0.00000000000E+00 0.  1.
          2    1    6    6  502    0  0.30941359781E+01 -0.54528961106E+01  0.40597441409E+01  0.74692219095E+01  0.00000000000E+00 0. -1.
          3    1    5    5  503    0 -0.44378518656E+02  0.17250363562E+03 -0.11537289335E+03  0.21222125657E+03  0.00000000000E+00 0. -1.
         -4    1    5    5    0  503 -0.96501112492E+02  0.10490448236E+03 -0.13340845146E+03  0.19523122202E+03  0.00000000000E+00 0.  1.
         -1    1    6    6    0  502  0.31517962489E+03 -0.53154065252E+03 -0.41284268601E+03  0.74317746509E+03  0.00000000000E+00 0.  1.
<mgrwt>
<rscale>  0 0.13816410E+04</rscale>
<asrwt>0</asrwt>
<pdfrwt beam="1">  1        4 0.25749226E+00 0.13816410E+04</pdfrwt>
<pdfrwt beam="2">  1       -4 0.43867161E-01 0.13816410E+04</pdfrwt>
<totfact> 0.56113382E-01</totfact>
</mgrwt>
</event>
<event>
12    1  0.2404959E-007  0.1830858E+04  0.7818608E-02  0.8690059E-01
          2   -1    0    0  501    0  0.00000000000E+00  0.00000000000E+00  0.29317802485E+04  0.29317802485E+04  0.00000000000E+00 0. -1.
         -2   -1    0    0    0  501 -0.00000000000E+00 -0.00000000000E+00 -0.28583677316E+03  0.28583677316E+03  0.00000000000E+00 0.  1.
         23    2    1    2    0    0  0.46070363377E+03 -0.30232988926E+03  0.28016602413E+03  0.62504457270E+03  0.92393271827E+02 0.  0.
        254    2    1    2    0    0 -0.46070363377E+03  0.30232988926E+03  0.23657774512E+04  0.25925724489E+04  0.90602304292E+03 0.  0.
        -24    2    4    4    0    0 -0.13308165025E+02 -0.25575514655E+03  0.28762580511E+03  0.39333173732E+03  0.79959049382E+02 0.  0.
         24    2    4    4    0    0 -0.44739546874E+03  0.55808503581E+03  0.20781516461E+04  0.21992407116E+04  0.79522518014E+02 0.  0.
         11    1    3    3    0    0  0.49991181735E+02 -0.71762702412E+02  0.51083216279E+02  0.10128424702E+03  0.00000000000E+00 0. -1.
        -11    1    3    3    0    0  0.41071245203E+03 -0.23056718685E+03  0.22908280785E+03  0.52376032568E+03  0.00000000000E+00 0.  1.
          2    1    6    6  502    0 -0.42946289500E+03  0.54439976959E+03  0.20430731168E+04  0.21575349934E+04  0.00000000000E+00 0. -1.
          3    1    5    5  503    0 -0.43887591131E+02 -0.18876360120E+03  0.19399688305E+03  0.27421270654E+03  0.00000000000E+00 0. -1.
         -4    1    5    5    0  503  0.30579426105E+02 -0.66991545342E+02  0.93628922063E+02  0.11911903078E+03  0.00000000000E+00 0.  1.
         -1    1    6    6    0  502 -0.17932573739E+02  0.13685266219E+02  0.35078529298E+02  0.41705718194E+02  0.00000000000E+00 0.  1.
<mgrwt>
<rscale>  0 0.18308584E+04</rscale>
<asrwt>0</asrwt>
<pdfrwt beam="1">  1        2 0.45104309E+00 0.18308584E+04</pdfrwt>
<pdfrwt beam="2">  1       -2 0.43974890E-01 0.18308584E+04</pdfrwt>
<totfact> 0.88961964E+00</totfact>
</mgrwt>
</event>
<event>
12    1  0.3155052E-007  0.1718124E+04  0.7818608E-02  0.8751094E-01
          2   -1    0    0  501    0  0.00000000000E+00  0.00000000000E+00  0.13374165747E+04  0.13374165747E+04  0.00000000000E+00 0.  1.
         -2   -1    0    0    0  501 -0.00000000000E+00 -0.00000000000E+00 -0.55180102318E+03  0.55180102318E+03  0.00000000000E+00 0. -1.
         23    2    1    2    0    0 -0.79824953957E+02 -0.61464754783E+03  0.30048558213E+03  0.69463849774E+03  0.89818851827E+02 0.  0.
        254    2    1    2    0    0  0.79824953957E+02  0.61464754783E+03  0.48512996940E+03  0.11945791001E+04  0.89861254608E+03 0.  0.
        -24    2    4    4    0    0 -0.11500372704E+03  0.15872055582E+02 -0.21038472162E+03  0.25316780326E+03  0.79714654442E+02 0.  0.
         24    2    4    4    0    0  0.19482868100E+03  0.59877549224E+03  0.69551469102E+03  0.94141129689E+03  0.77615974083E+02 0.  0.
         13    1    3    3    0    0 -0.47026940860E+02 -0.33190787951E+03  0.21171445344E+03  0.39648125232E+03  0.00000000000E+00 0.  1.
        -13    1    3    3    0    0 -0.32798013097E+02 -0.28273966832E+03  0.88771128691E+02  0.29815724541E+03  0.00000000000E+00 0. -1.
          4    1    6    6  502    0  0.35307911116E+02  0.56173411164E+02  0.49309886129E+02  0.82665383198E+02  0.00000000000E+00 0. -1.
          1    1    5    5  503    0 -0.60296637336E+01  0.79011607583E+01  0.53888982958E+01  0.11305990046E+02  0.00000000000E+00 0. -1.
         -2    1    5    5    0  503 -0.10897406331E+03  0.79708948235E+01 -0.21577361992E+03  0.24186181321E+03  0.00000000000E+00 0.  1.
         -1    1    6    6    0  502  0.15952076988E+03  0.54260208108E+03  0.64620480489E+03  0.85874591369E+03  0.00000000000E+00 0.  1.
<mgrwt>
<rscale>  0 0.17181244E+04</rscale>
<asrwt>0</asrwt>
<pdfrwt beam="1">  1        2 0.20575640E+00 0.17181244E+04</pdfrwt>
<pdfrwt beam="2">  1       -2 0.84892465E-01 0.17181244E+04</pdfrwt>
<totfact> 0.18055332E+01</totfact>
</mgrwt>
</event>
<event>
12    1  0.2404959E-007  0.2808115E+04  0.7818608E-02  0.8300753E-01
         -2   -1    0    0    0  501 -0.00000000000E+00  0.00000000000E+00  0.27405486674E+04  0.27405486674E+04  0.00000000000E+00 0.  1.
          2   -1    0    0  501    0  0.00000000000E+00 -0.00000000000E+00 -0.71933671949E+03  0.71933671949E+03  0.00000000000E+00 0. -1.
         23    2    1    2    0    0 -0.99786422779E+03 -0.60489827897E+03  0.32567409359E+03  0.12128673513E+04  0.57867535390E+02 0.  0.
        254    2    1    2    0    0  0.99786422779E+03  0.60489827897E+03  0.16955378543E+04  0.22470180355E+04  0.90144688791E+03 0.  0.
        -24    2    4    4    0    0  0.10836150392E+04  0.67514611438E+03  0.16765591828E+04  0.21088794347E+04  0.80485696913E+02 0.  0.
         24    2    4    4    0    0 -0.85750811396E+02 -0.70247835414E+02  0.18978671447E+02  0.13813860089E+03  0.80212985550E+02 0.  0.
         13    1    3    3    0    0 -0.52074766812E+02 -0.47482321309E+02  0.21461656857E+02  0.73667868779E+02  0.00000000000E+00 0. -1.
        -13    1    3    3    0    0 -0.94578946098E+03 -0.55741595766E+03  0.30421243673E+03  0.11391994825E+04  0.00000000000E+00 0.  1.
          4    1    6    6  502    0 -0.64689890713E+01 -0.23517326040E+02  0.37044381382E+02  0.44353113032E+02  0.00000000000E+00 0. -1.
          1    1    5    5  503    0  0.55342772503E+03  0.35938053899E+03  0.80316997475E+03  0.10394799791E+04  0.00000000000E+00 0. -1.
         -2    1    5    5    0  503  0.53018731416E+03  0.31576557540E+03  0.87338920810E+03  0.10693994555E+04  0.00000000000E+00 0.  1.
         -3    1    6    6    0  502 -0.79281822325E+02 -0.46730509374E+02 -0.18065709935E+02  0.93785487859E+02  0.00000000000E+00 0.  1.
<mgrwt>
<rscale>  0 0.28081149E+04</rscale>
<asrwt>0</asrwt>
<pdfrwt beam="1">  1        2 0.11066719E+00 0.28081149E+04</pdfrwt>
<pdfrwt beam="2">  1       -2 0.42162287E+00 0.28081149E+04</pdfrwt>
<totfact> 0.18394365E-01</totfact>
</mgrwt>
</event>
<event>
12    1  0.2404959E-007  0.3465645E+04  0.7818608E-02  0.8121980E-01
          2   -1    0    0  501    0  0.00000000000E+00  0.00000000000E+00  0.25993791366E+04  0.25993791366E+04  0.00000000000E+00 0.  1.
         -2   -1    0    0    0  501 -0.00000000000E+00 -0.00000000000E+00 -0.11551500650E+04  0.11551500650E+04  0.00000000000E+00 0. -1.
         23    2    1    2    0    0 -0.10714164704E+04 -0.11831952960E+04  0.39462080301E+03  0.16467632441E+04  0.90660039273E+02 0.  0.
        254    2    1    2    0    0  0.10714164704E+04  0.11831952960E+04  0.10496082686E+04  0.21077659575E+04  0.89057029624E+03 0.  0.
        -24    2    4    4    0    0  0.10926998166E+04  0.12818357553E+04  0.90588653522E+03  0.19141799776E+04  0.79741953786E+02 0.  0.
         24    2    4    4    0    0 -0.21283346223E+02 -0.98640459270E+02  0.14372173343E+03  0.19358597993E+03  0.81465783830E+02 0.  0.
         11    1    3    3    0    0 -0.85979481882E+03 -0.91301309752E+03  0.28073076906E+03  0.12851652856E+04  0.00000000000E+00 0. -1.
        -11    1    3    3    0    0 -0.21162165154E+03 -0.27018219846E+03  0.11389003395E+03  0.36159795851E+03  0.00000000000E+00 0.  1.
          2    1    6    6  502    0 -0.39975551081E+02 -0.90983725030E+02  0.82635718738E+02  0.12924683716E+03  0.00000000000E+00 0. -1.
          1    1    5    5  503    0  0.56539818891E+03  0.63343391137E+03  0.49608848911E+03  0.98337043942E+03  0.00000000000E+00 0. -1.
         -2    1    5    5    0  503  0.52730162767E+03  0.64840184388E+03  0.40979804610E+03  0.93080953813E+03  0.00000000000E+00 0.  1.
         -1    1    6    6    0  502  0.18692204858E+02 -0.76567342393E+01  0.61086014695E+02  0.64339142774E+02  0.00000000000E+00 0.  1.
<mgrwt>
<rscale>  0 0.34656445E+04</rscale>
<asrwt>0</asrwt>
<pdfrwt beam="1">  1        2 0.39990448E+00 0.34656445E+04</pdfrwt>
<pdfrwt beam="2">  1       -2 0.17771540E+00 0.34656445E+04</pdfrwt>
<totfact> 0.47191611E-01</totfact>
</mgrwt>
</event>
<event>
12    1  0.2404959E-007  0.2289979E+04  0.7818608E-02  0.8481883E-01
         -2   -1    0    0    0  501 -0.00000000000E+00  0.00000000000E+00  0.19212790839E+04  0.19212790839E+04  0.00000000000E+00 0.  1.
          2   -1    0    0  501    0  0.00000000000E+00 -0.00000000000E+00 -0.68235834626E+03  0.68235834626E+03  0.00000000000E+00 0. -1.
         23    2    1    2    0    0 -0.54837918656E+03 -0.32212882884E+03 -0.30221838876E+03  0.70998679975E+03  0.90876766478E+02 0.  0.
        254    2    1    2    0    0  0.54837918656E+03  0.32212882884E+03  0.15411391264E+04  0.18936506304E+04  0.89795110586E+03 0.  0.
        -24    2    4    4    0    0 -0.73110623694E+02 -0.30371316994E+02 -0.67814272415E+02  0.13140893461E+03  0.80012201318E+02 0.  0.
         24    2    4    4    0    0  0.62148981026E+03  0.35250014584E+03  0.16089533988E+04  0.17622416958E+04  0.79112690435E+02 0.  0.
         11    1    3    3    0    0 -0.14150880593E+03 -0.56920182703E+02 -0.10813014677E+03  0.18696731799E+03  0.00000000000E+00 0. -1.
        -11    1    3    3    0    0 -0.40687038064E+03 -0.26520864614E+03 -0.19408824199E+03  0.52301948176E+03  0.00000000000E+00 0.  1.
          2    1    6    6  502    0  0.61682509004E+03  0.35282450931E+03  0.16071334577E+04  0.17572240258E+04  0.00000000000E+00 0. -1.
          1    1    5    5  503    0 -0.72602273989E+02  0.52758764749E+01 -0.61303435380E+02  0.95168462478E+02  0.00000000000E+00 0. -1.
         -2    1    5    5    0  503 -0.50834970512E+00 -0.35647193469E+02 -0.65108370355E+01  0.36240472135E+02  0.00000000000E+00 0.  1.
         -1    1    6    6    0  502  0.46647202176E+01 -0.32436347596E+00  0.18199411241E+01  0.50176699840E+01  0.00000000000E+00 0.  1.
<mgrwt>
<rscale>  0 0.22899789E+04</rscale>
<asrwt>0</asrwt>
<pdfrwt beam="1">  1        2 0.10497821E+00 0.22899789E+04</pdfrwt>
<pdfrwt beam="2">  1       -2 0.29558140E+00 0.22899789E+04</pdfrwt>
<totfact> 0.12991899E+00</totfact>
</mgrwt>
</event>
<event>
12    1  0.2404959E-007  0.2705234E+04  0.7818608E-02  0.8333309E-01
          1   -1    0    0  501    0  0.00000000000E+00  0.00000000000E+00  0.24465878148E+04  0.24465878148E+04  0.00000000000E+00 0. -1.
         -1   -1    0    0    0  501 -0.00000000000E+00 -0.00000000000E+00 -0.74780564815E+03  0.74780564815E+03  0.00000000000E+00 0.  1.
         23    2    1    2    0    0 -0.76335190235E+03 -0.85106873522E+03  0.33962602242E+03  0.11959944965E+04  0.89626345045E+02 0.  0.
        254    2    1    2    0    0  0.76335190235E+03  0.85106873522E+03  0.13591561442E+04  0.19983989664E+04  0.91611619663E+03 0.  0.
        -24    2    4    4    0    0  0.56857264585E+03  0.16444071764E+03  0.19189558041E+03  0.62766703666E+03  0.82621981983E+02 0.  0.
         24    2    4    4    0    0  0.19477925651E+03  0.68662801757E+03  0.11672605638E+04  0.13707319298E+04  0.83736528102E+02 0.  0.
         13    1    3    3    0    0 -0.42272813132E+03 -0.42181193919E+03  0.20859222353E+03  0.63256232955E+03  0.00000000000E+00 0. -1.
        -13    1    3    3    0    0 -0.34062377103E+03 -0.42925679603E+03  0.13103379889E+03  0.56343216697E+03  0.00000000000E+00 0.  1.
          2    1    6    6  502    0  0.82028691328E+02  0.41029653112E+03  0.63368172467E+03  0.75935793788E+03  0.00000000000E+00 0. -1.
          3    1    5    5  503    0  0.18876060350E+03  0.30055823604E+02  0.94274695814E+02  0.21312352342E+03  0.00000000000E+00 0. -1.
         -4    1    5    5    0  503  0.37981204235E+03  0.13438489404E+03  0.97620884596E+02  0.41454351324E+03  0.00000000000E+00 0.  1.
         -1    1    6    6    0  502  0.11275056518E+03  0.27633148645E+03  0.53357883916E+03  0.61137399188E+03  0.00000000000E+00 0.  1.
<mgrwt>
<rscale>  0 0.27052336E+04</rscale>
<asrwt>0</asrwt>
<pdfrwt beam="1">  1        1 0.37639812E+00 0.27052336E+04</pdfrwt>
<pdfrwt beam="2">  1       -1 0.11504702E+00 0.27052336E+04</pdfrwt>
<totfact> 0.88255368E-01</totfact>
</mgrwt>
</event>
<event>
12    1  0.2404959E-007  0.1804913E+04  0.7818608E-02  0.8703691E-01
         -2   -1    0    0    0  501 -0.00000000000E+00  0.00000000000E+00  0.97197076747E+03  0.97197076747E+03  0.00000000000E+00 0.  1.
          2   -1    0    0  501    0  0.00000000000E+00 -0.00000000000E+00 -0.83791336646E+03  0.83791336646E+03  0.00000000000E+00 0. -1.
         23    2    1    2    0    0  0.26303357359E+03  0.53757622280E+03 -0.26050829685E+03  0.65923120819E+03  0.92446508734E+02 0.  0.
        254    2    1    2    0    0 -0.26303357359E+03 -0.53757622280E+03  0.39456569785E+03  0.11506529257E+04  0.90008066829E+03 0.  0.
        -24    2    4    4    0    0 -0.65634585472E+02 -0.11021086818E+03  0.60762361986E+03  0.62673912568E+03  0.84505230425E+02 0.  0.
         24    2    4    4    0    0 -0.19739898811E+03 -0.42736535462E+03 -0.21305792201E+03  0.52391380005E+03  0.86512917643E+02 0.  0.
         13    1    3    3    0    0  0.16002230892E+03  0.23308259672E+03 -0.14431335434E+03  0.31742870142E+03  0.00000000000E+00 0.  1.
        -13    1    3    3    0    0  0.10301126467E+03  0.30449362608E+03 -0.11619494251E+03  0.34180250677E+03  0.00000000000E+00 0. -1.
          4    1    6    6  502    0 -0.16280889859E+03 -0.37705701841E+03 -0.21344958121E+03  0.46286008286E+03  0.00000000000E+00 0. -1.
          3    1    5    5  503    0 -0.55561475894E+02 -0.10856135483E+03  0.38438450496E+03  0.40326677649E+03  0.00000000000E+00 0. -1.
         -4    1    5    5    0  503 -0.10073109578E+02 -0.16495133485E+01  0.22323911490E+03  0.22347234919E+03  0.00000000000E+00 0.  1.
         -3    1    6    6    0  502 -0.34590089526E+02 -0.50308336214E+02  0.39165920191E+00  0.61053717192E+02  0.00000000000E+00 0.  1.
<mgrwt>
<rscale>  0 0.18049125E+04</rscale>
<asrwt>0</asrwt>
<pdfrwt beam="1">  1        2 0.12890975E+00 0.18049125E+04</pdfrwt>
<pdfrwt beam="2">  1       -2 0.14953396E+00 0.18049125E+04</pdfrwt>
<totfact> 0.92239484E+00</totfact>
</mgrwt>
</event>
<event>
12    1  0.2404959E-007  0.2897552E+04  0.7818608E-02  0.8273606E-01
         -2   -1    0    0    0  501 -0.00000000000E+00  0.00000000000E+00  0.12712523368E+04  0.12712523368E+04  0.00000000000E+00 0.  1.
          2   -1    0    0  501    0  0.00000000000E+00 -0.00000000000E+00 -0.16510904580E+04  0.16510904580E+04  0.00000000000E+00 0. -1.
         23    2    1    2    0    0 -0.69932956288E+03 -0.52347342097E+03 -0.11486179150E+04  0.14459538674E+04  0.91505256897E+02 0.  0.
        254    2    1    2    0    0  0.69932956288E+03  0.52347342097E+03  0.76877979380E+03  0.14763889274E+04  0.90863393814E+03 0.  0.
        -24    2    4    4    0    0  0.16285118674E+03  0.54655699117E+03  0.73335422161E+03  0.93244473337E+03  0.79998205089E+02 0.  0.
         24    2    4    4    0    0  0.53647837614E+03 -0.23083570193E+02  0.35425572191E+02  0.54394419401E+03  0.79236454687E+02 0.  0.
         13    1    3    3    0    0 -0.16621197662E+03 -0.15034438222E+03 -0.35271686265E+03  0.41789836041E+03  0.00000000000E+00 0. -1.
        -13    1    3    3    0    0 -0.53311758626E+03 -0.37312903875E+03 -0.79590105233E+03  0.10280555070E+04  0.00000000000E+00 0.  1.
          4    1    6    6  502    0  0.10067046400E+03 -0.34951464682E+02  0.13589519549E+02  0.10742821904E+03  0.00000000000E+00 0. -1.
          3    1    5    5  503    0  0.30696026539E+02  0.23062290161E+03  0.27321860294E+03  0.35885592343E+03  0.00000000000E+00 0. -1.
         -4    1    5    5    0  503  0.13215516020E+03  0.31593408956E+03  0.46013561867E+03  0.57358880994E+03  0.00000000000E+00 0.  1.
         -1    1    6    6    0  502  0.43580791215E+03  0.11867894490E+02  0.21836052641E+02  0.43651597497E+03  0.00000000000E+00 0.  1.
<mgrwt>
<rscale>  0 0.28975525E+04</rscale>
<asrwt>0</asrwt>
<pdfrwt beam="1">  1        2 0.25401391E+00 0.28975525E+04</pdfrwt>
<pdfrwt beam="2">  1       -2 0.19557728E+00 0.28975525E+04</pdfrwt>
<totfact> 0.12824661E+00</totfact>
</mgrwt>
</event>
<event>
12    1  0.2404959E-007  0.1794081E+04  0.7818608E-02  0.8709454E-01
         -2   -1    0    0    0  501 -0.00000000000E+00  0.00000000000E+00  0.24454984605E+03  0.24454984605E+03  0.00000000000E+00 0.  1.
          2   -1    0    0  501    0  0.00000000000E+00 -0.00000000000E+00 -0.32904594325E+04  0.32904594325E+04  0.00000000000E+00 0. -1.
         23    2    1    2    0    0 -0.61707010566E+03  0.90835948185E+02 -0.16052160084E+04  0.17247092563E+04  0.94217304034E+02 0.  0.
        254    2    1    2    0    0  0.61707010566E+03 -0.90835948185E+02 -0.14406935780E+04  0.18103000223E+04  0.90142193226E+03 0.  0.
        -24    2    4    4    0    0 -0.17300677611E+03  0.14054724539E+03 -0.52772794215E+03  0.57830221410E+03  0.79068306768E+02 0.  0.
         24    2    4    4    0    0  0.79007688177E+03 -0.23138319358E+03 -0.91296563590E+03  0.12319978082E+04  0.80948660182E+02 0.  0.
         11    1    3    3    0    0 -0.23838264807E+03  0.11492609728E+01 -0.52689142857E+03  0.57830976578E+03  0.00000000000E+00 0.  1.
        -11    1    3    3    0    0 -0.37868745759E+03  0.89686687212E+02 -0.10783245799E+04  0.11463994906E+04  0.00000000000E+00 0. -1.
          2    1    6    6  502    0  0.26753630847E+02 -0.15813261388E+02 -0.57754103040E+02  0.65584696516E+02  0.00000000000E+00 0. -1.
          3    1    5    5  503    0  0.82370678800E+01  0.22816015005E+01 -0.19118579156E+02  0.20942183784E+02  0.00000000000E+00 0. -1.
         -4    1    5    5    0  503 -0.18124384399E+03  0.13826564389E+03 -0.50860936299E+03  0.55736003031E+03  0.00000000000E+00 0.  1.
         -1    1    6    6    0  502  0.76332325092E+03 -0.21556993219E+03 -0.85521153286E+03  0.11664131116E+04  0.00000000000E+00 0.  1.
<mgrwt>
<rscale>  0 0.17940807E+04</rscale>
<asrwt>0</asrwt>
<pdfrwt beam="1">  1        2 0.50622454E+00 0.17940807E+04</pdfrwt>
<pdfrwt beam="2">  1       -2 0.37623052E-01 0.17940807E+04</pdfrwt>
<totfact> 0.71597756E+00</totfact>
</mgrwt>
</event>
<event>
12    1  0.2404959E-007  0.3752536E+04  0.7818608E-02  0.8056418E-01
          2   -1    0    0  501    0  0.00000000000E+00  0.00000000000E+00  0.17275909487E+04  0.17275909487E+04  0.00000000000E+00 0. -1.
         -2   -1    0    0    0  501 -0.00000000000E+00 -0.00000000000E+00 -0.20377400929E+04  0.20377400929E+04  0.00000000000E+00 0.  1.
         23    2    1    2    0    0 -0.56206419583E+03 -0.35327689130E+03 -0.17895593428E+04  0.19107931736E+04  0.88809844638E+02 0.  0.
        254    2    1    2    0    0  0.56206419583E+03  0.35327689130E+03  0.14794101985E+04  0.18545378680E+04  0.89996413611E+03 0.  0.
        -24    2    4    4    0    0  0.66274352323E+03  0.36244853818E+02  0.55452255929E+03  0.86846056168E+03  0.78649929585E+02 0.  0.
         24    2    4    4    0    0 -0.10067932740E+03  0.31703203748E+03  0.92488763924E+03  0.98607730635E+03  0.79282211864E+02 0.  0.
         13    1    3    3    0    0 -0.19895792588E+02  0.93705139205E+00 -0.86269771424E+02  0.88539223453E+02  0.00000000000E+00 0. -1.
        -13    1    3    3    0    0 -0.54216840324E+03 -0.35421394269E+03 -0.17032895714E+04  0.18222539501E+04  0.00000000000E+00 0.  1.
          4    1    6    6  502    0 -0.14438937894E+02  0.86450094184E+02  0.34779196349E+03  0.35866607253E+03  0.00000000000E+00 0. -1.
          1    1    5    5  503    0  0.96982482642E+02 -0.12991446807E+02  0.55683331877E+02  0.11258336058E+03  0.00000000000E+00 0. -1.
         -2    1    5    5    0  503  0.56576104059E+03  0.49236300626E+02  0.49883922741E+03  0.75587720111E+03  0.00000000000E+00 0.  1.
         -3    1    6    6    0  502 -0.86240389510E+02  0.23058194330E+03  0.57709567575E+03  0.62741123382E+03  0.00000000000E+00 0.  1.
<mgrwt>
<rscale>  0 0.37525359E+04</rscale>
<asrwt>0</asrwt>
<pdfrwt beam="1">  1        2 0.26578322E+00 0.37525359E+04</pdfrwt>
<pdfrwt beam="2">  1       -2 0.31349848E+00 0.37525359E+04</pdfrwt>
<totfact> 0.20007689E-01</totfact>
</mgrwt>
</event>
<event>
12    1  0.2404959E-007  0.2305590E+04  0.7818608E-02  0.8475720E-01
         -1   -1    0    0    0  501 -0.00000000000E+00  0.00000000000E+00  0.51208060894E+03  0.51208060894E+03  0.00000000000E+00 0.  1.
          1   -1    0    0  501    0  0.00000000000E+00 -0.00000000000E+00 -0.25951691640E+04  0.25951691640E+04  0.00000000000E+00 0. -1.
         23    2    1    2    0    0 -0.67837916548E+03 -0.66171931072E+02 -0.18230993263E+04  0.19484541064E+04  0.90582750287E+02 0.  0.
        254    2    1    2    0    0  0.67837916548E+03  0.66171931072E+02 -0.25998922880E+03  0.11587956666E+04  0.90035325354E+03 0.  0.
        -24    2    4    4    0    0  0.20327618906E+03 -0.14716407694E+03 -0.51106731888E+03  0.57503114152E+03  0.80576266463E+02 0.  0.
         24    2    4    4    0    0  0.47510297641E+03  0.21333600801E+03  0.25107809007E+03  0.58376452505E+03  0.80658061468E+02 0.  0.
         11    1    3    3    0    0 -0.47167644938E+03 -0.50217412449E+02 -0.13801654906E+04  0.14594030434E+04  0.00000000000E+00 0. -1.
        -11    1    3    3    0    0 -0.20670271610E+03 -0.15954518623E+02 -0.44293383563E+03  0.48905106304E+03  0.00000000000E+00 0.  1.
          4    1    6    6  502    0  0.89632789106E+02  0.76899620378E+02  0.54951992248E+02  0.13025862716E+03  0.00000000000E+00 0. -1.
          3    1    5    5  503    0  0.63190607263E+02 -0.50812356579E+01 -0.10658862615E+03  0.12401615631E+03  0.00000000000E+00 0. -1.
         -4    1    5    5    0  503  0.14008558180E+03 -0.14208284128E+03 -0.40447869273E+03  0.45101498521E+03  0.00000000000E+00 0.  1.
         -3    1    6    6    0  502  0.38547018731E+03  0.13643638763E+03  0.19612609783E+03  0.45350589789E+03  0.00000000000E+00 0.  1.
<mgrwt>
<rscale>  0 0.23055896E+04</rscale>
<asrwt>0</asrwt>
<pdfrwt beam="1">  1        1 0.39925679E+00 0.23055896E+04</pdfrwt>
<pdfrwt beam="2">  1       -1 0.78781632E-01 0.23055896E+04</pdfrwt>
<totfact> 0.16931474E+00</totfact>
</mgrwt>
</event>
<event>
12    1  0.2404959E-007  0.1948565E+04  0.7818608E-02  0.8631053E-01
         -2   -1    0    0    0  501 -0.00000000000E+00  0.00000000000E+00  0.79770037842E+03  0.79770037842E+03  0.00000000000E+00 0.  1.
          2   -1    0    0  501    0  0.00000000000E+00 -0.00000000000E+00 -0.11899532551E+04  0.11899532551E+04  0.00000000000E+00 0. -1.
         23    2    1    2    0    0  0.55313578183E+03  0.10985029558E+03  0.37268718390E+03  0.68203126403E+03  0.90799931150E+02 0.  0.
        254    2    1    2    0    0 -0.55313578183E+03 -0.10985029558E+03 -0.76494006060E+03  0.13056223695E+04  0.89525984768E+03 0.  0.
        -24    2    4    4    0    0 -0.22314187598E+03 -0.25170137609E+03  0.10418167510E+03  0.36192798471E+03  0.83619167355E+02 0.  0.
         24    2    4    4    0    0 -0.32999390585E+03  0.14185108051E+03 -0.86912173570E+03  0.94369438480E+03  0.78541667210E+02 0.  0.
         11    1    3    3    0    0  0.14781130046E+03 -0.66933625997E+01  0.11887587734E+03  0.18980109552E+03  0.00000000000E+00 0.  1.
        -11    1    3    3    0    0  0.40532448137E+03  0.11654365818E+03  0.25381130656E+03  0.49223016852E+03  0.00000000000E+00 0. -1.
          2    1    6    6  502    0 -0.73619969203E+02  0.60870113061E+01 -0.12754062870E+03  0.14738915680E+03  0.00000000000E+00 0. -1.
          1    1    5    5  503    0 -0.22938171258E+02 -0.64239563753E+02  0.43883889918E+02  0.81109044170E+02  0.00000000000E+00 0. -1.
         -2    1    5    5    0  503 -0.20020370472E+03 -0.18746181234E+03  0.60297785180E+02  0.28081894054E+03  0.00000000000E+00 0.  1.
         -1    1    6    6    0  502 -0.25637393665E+03  0.13576406921E+03 -0.74158110700E+03  0.79630522800E+03  0.00000000000E+00 0.  1.
<mgrwt>
<rscale>  0 0.19485648E+04</rscale>
<asrwt>0</asrwt>
<pdfrwt beam="1">  1        2 0.18306973E+00 0.19485648E+04</pdfrwt>
<pdfrwt beam="2">  1       -2 0.12272314E+00 0.19485648E+04</pdfrwt>
<totfact> 0.89973989E+00</totfact>
</mgrwt>
</event>
<event>
12    1  0.2404959E-007  0.2880851E+04  0.7818608E-02  0.8278598E-01
         -2   -1    0    0    0  501 -0.00000000000E+00  0.00000000000E+00  0.86650533333E+03  0.86650533333E+03  0.00000000000E+00 0.  1.
          2   -1    0    0  501    0  0.00000000000E+00 -0.00000000000E+00 -0.23944760572E+04  0.23944760572E+04  0.00000000000E+00 0. -1.
         23    2    1    2    0    0 -0.11864314400E+04 -0.40791871152E+03 -0.30574413182E+03  0.12944563972E+04  0.90114665844E+02 0.  0.
        254    2    1    2    0    0  0.11864314400E+04  0.40791871152E+03 -0.12222265921E+04  0.19665249934E+04  0.89407240761E+03 0.  0.
        -24    2    4    4    0    0  0.22433075949E+03  0.50717274097E+03 -0.55623283079E+03  0.78953395444E+03  0.80127550393E+02 0.  0.
         24    2    4    4    0    0  0.96210068054E+03 -0.99254029452E+02 -0.66599376129E+03  0.11769910389E+04  0.79190490387E+02 0.  0.
         11    1    3    3    0    0 -0.85130883352E+03 -0.31590708769E+03 -0.25568888477E+03  0.94334554850E+03  0.00000000000E+00 0. -1.
        -11    1    3    3    0    0 -0.33512260651E+03 -0.92011623828E+02 -0.50055247050E+02  0.35111084870E+03  0.00000000000E+00 0.  1.
          4    1    6    6  502    0  0.75422558524E+03 -0.10390678689E+03 -0.49897079421E+03  0.91028825504E+03  0.00000000000E+00 0. -1.
          1    1    5    5  503    0  0.82946572567E+02  0.12672653949E+03 -0.18888218937E+03  0.24210789159E+03  0.00000000000E+00 0. -1.
         -2    1    5    5    0  503  0.14138418692E+03  0.38044620148E+03 -0.36735064142E+03  0.54742606285E+03  0.00000000000E+00 0.  1.
         -3    1    6    6    0  502  0.20787509530E+03  0.46527574341E+01 -0.16702296708E+03  0.26670278388E+03  0.00000000000E+00 0.  1.
<mgrwt>
<rscale>  0 0.28808515E+04</rscale>
<asrwt>0</asrwt>
<pdfrwt beam="1">  1        2 0.36838093E+00 0.28808515E+04</pdfrwt>
<pdfrwt beam="2">  1       -2 0.13330851E+00 0.28808515E+04</pdfrwt>
<totfact> 0.14101337E+00</totfact>
</mgrwt>
</event>
<event>
12    1  0.2404959E-007  0.1920743E+04  0.7818608E-02  0.8644599E-01
         -2   -1    0    0    0  501 -0.00000000000E+00  0.00000000000E+00  0.51206503492E+03  0.51206503492E+03  0.00000000000E+00 0.  1.
          2   -1    0    0  501    0  0.00000000000E+00 -0.00000000000E+00 -0.18011650707E+04  0.18011650707E+04  0.00000000000E+00 0. -1.
         23    2    1    2    0    0  0.60844452999E+03 -0.17291016342E+02 -0.10315336931E+04  0.12014359623E+04  0.94249063828E+02 0.  0.
        254    2    1    2    0    0 -0.60844452999E+03  0.17291016342E+02 -0.25756634266E+03  0.11117941434E+04  0.89400339543E+03 0.  0.
        -24    2    4    4    0    0 -0.34138371813E+03 -0.47192901762E+02  0.31369928952E+03  0.47291842078E+03  0.80464746817E+02 0.  0.
         24    2    4    4    0    0 -0.26706081186E+03  0.64483918104E+02 -0.57126563219E+03  0.63887572260E+03  0.79612269657E+02 0.  0.
         13    1    3    3    0    0  0.58261620235E+03 -0.74411037448E+01 -0.10114277028E+04  0.11672544741E+04  0.00000000000E+00 0. -1.
        -13    1    3    3    0    0  0.25828327642E+02 -0.98499125971E+01 -0.20105990311E+02  0.34181488168E+02  0.00000000000E+00 0.  1.
          2    1    6    6  502    0 -0.11251738650E+03  0.48718340521E+02 -0.32876601888E+03  0.35088564254E+03  0.00000000000E+00 0. -1.
          3    1    5    5  503    0 -0.12566313187E+03 -0.19325558709E+02  0.65926734627E+02  0.14321673879E+03  0.00000000000E+00 0. -1.
         -4    1    5    5    0  503 -0.21572058626E+03 -0.27867343052E+02  0.24777255490E+03  0.32970168199E+03  0.00000000000E+00 0.  1.
         -1    1    6    6    0  502 -0.15454342536E+03  0.15765577582E+02 -0.24249961331E+03  0.28799008006E+03  0.00000000000E+00 0.  1.
<mgrwt>
<rscale>  0 0.19207432E+04</rscale>
<asrwt>0</asrwt>
<pdfrwt beam="1">  1        2 0.27710231E+00 0.19207432E+04</pdfrwt>
<pdfrwt beam="2">  1       -2 0.78779237E-01 0.19207432E+04</pdfrwt>
<totfact> 0.11526367E+01</totfact>
</mgrwt>
</event>
<event>
12    1  0.2404959E-007  0.2271386E+04  0.7818608E-02  0.8489289E-01
         -2   -1    0    0    0  501 -0.00000000000E+00  0.00000000000E+00  0.14267163808E+04  0.14267163808E+04  0.00000000000E+00 0.  1.
          2   -1    0    0  501    0  0.00000000000E+00 -0.00000000000E+00 -0.90403286654E+03  0.90403286654E+03  0.00000000000E+00 0. -1.
         23    2    1    2    0    0 -0.72669148284E+03 -0.17852106397E+03  0.82721531784E+03  0.11191649819E+04  0.91075755414E+02 0.  0.
        254    2    1    2    0    0  0.72669148284E+03  0.17852106397E+03 -0.30453180355E+03  0.12115842654E+04  0.90291003501E+03 0.  0.
        -24    2    4    4    0    0  0.86378664735E+03  0.29245177995E+03 -0.87032031235E+02  0.91952973845E+03  0.79403713326E+02 0.  0.
         24    2    4    4    0    0 -0.13709516452E+03 -0.11393071597E+03 -0.21749977232E+03  0.29205452697E+03  0.78831488566E+02 0.  0.
         11    1    3    3    0    0 -0.22836586668E+03 -0.47394107031E+02  0.19851165947E+03  0.30627446741E+03  0.00000000000E+00 0. -1.
        -11    1    3    3    0    0 -0.49832561615E+03 -0.13112695694E+03  0.62870365837E+03  0.81289051452E+03  0.00000000000E+00 0.  1.
          2    1    6    6  502    0 -0.90123542946E+01 -0.11635111173E+02 -0.70037403575E+02  0.71567005257E+02  0.00000000000E+00 0. -1.
          1    1    5    5  503    0  0.49478024220E+02  0.19103476027E+02 -0.24122495059E+02  0.58265877192E+02  0.00000000000E+00 0. -1.
         -2    1    5    5    0  503  0.81430862313E+03  0.27334830392E+03 -0.62909536176E+02  0.86126386126E+03  0.00000000000E+00 0.  1.
         -1    1    6    6    0  502 -0.12808281022E+03 -0.10229560480E+03 -0.14746236874E+03  0.22048752171E+03  0.00000000000E+00 0.  1.
<mgrwt>
<rscale>  0 0.22713859E+04</rscale>
<asrwt>0</asrwt>
<pdfrwt beam="1">  1        2 0.13908198E+00 0.22713859E+04</pdfrwt>
<pdfrwt beam="2">  1       -2 0.21949483E+00 0.22713859E+04</pdfrwt>
<totfact> 0.26355917E+00</totfact>
</mgrwt>
</event>
<event>
12    1  0.2404959E-007  0.1410447E+04  0.7818608E-02  0.8946291E-01
          2   -1    0    0  501    0  0.00000000000E+00  0.00000000000E+00  0.13661956617E+04  0.13661956617E+04  0.00000000000E+00 0. -1.
         -2   -1    0    0    0  501 -0.00000000000E+00 -0.00000000000E+00 -0.36403269173E+03  0.36403269173E+03  0.00000000000E+00 0.  1.
         23    2    1    2    0    0  0.34793951310E+03  0.10887132614E+03  0.67053299254E+02  0.38216084985E+03  0.92929542070E+02 0.  0.
        254    2    1    2    0    0 -0.34793951310E+03 -0.10887132614E+03  0.93510967074E+03  0.13480675036E+04  0.89996723693E+03 0.  0.
        -24    2    4    4    0    0  0.12490642507E+03  0.10927815427E+03  0.77535220513E+03  0.79721289656E+03  0.82668194702E+02 0.  0.
         24    2    4    4    0    0 -0.47284593816E+03 -0.21814948041E+03  0.15975746561E+03  0.55085460705E+03  0.82133265178E+02 0.  0.
         11    1    3    3    0    0  0.93809615341E+01  0.26052759543E+02  0.46898415351E+01  0.28084574640E+02  0.00000000000E+00 0. -1.
        -11    1    3    3    0    0  0.33855855156E+03  0.82818566596E+02  0.62363457719E+02  0.35407627521E+03  0.00000000000E+00 0.  1.
          4    1    6    6  502    0 -0.14105060964E+03 -0.25050212565E+02  0.40951384491E+02  0.14899598492E+03  0.00000000000E+00 0. -1.
          1    1    5    5  503    0  0.37776169510E+02  0.52977138066E+02  0.47532424842E+03  0.47975697731E+03  0.00000000000E+00 0. -1.
         -2    1    5    5    0  503  0.87130255557E+02  0.56301016206E+02  0.30002795672E+03  0.31745591926E+03  0.00000000000E+00 0.  1.
         -1    1    6    6    0  502 -0.33179532852E+03 -0.19309926785E+03  0.11880608112E+03  0.40185862213E+03  0.00000000000E+00 0.  1.
<mgrwt>
<rscale>  0 0.14104466E+04</rscale>
<asrwt>0</asrwt>
<pdfrwt beam="1">  1        2 0.21018395E+00 0.14104466E+04</pdfrwt>
<pdfrwt beam="2">  1       -2 0.56005030E-01 0.14104466E+04</pdfrwt>
<totfact> 0.44054656E+01</totfact>
</mgrwt>
</event>
<event>
12    1  0.2404959E-007  0.1877822E+04  0.7818608E-02  0.8665975E-01
         -1   -1    0    0    0  501 -0.00000000000E+00  0.00000000000E+00  0.11314060234E+04  0.11314060234E+04  0.00000000000E+00 0.  1.
          1   -1    0    0  501    0  0.00000000000E+00 -0.00000000000E+00 -0.77916648268E+03  0.77916648268E+03  0.00000000000E+00 0. -1.
         23    2    1    2    0    0 -0.48008443958E+03  0.24416288668E+03  0.62145001648E+03  0.82708580556E+03  0.88171551037E+02 0.  0.
        254    2    1    2    0    0  0.48008443958E+03 -0.24416288668E+03 -0.26921047580E+03  0.10834867005E+04  0.90076221363E+03 0.  0.
        -24    2    4    4    0    0 -0.18248419003E+03  0.12235530452E+02 -0.30882092355E+03  0.36748832998E+03  0.78912115909E+02 0.  0.
         24    2    4    4    0    0  0.66256862960E+03 -0.25639841714E+03  0.39610447753E+02  0.71599837051E+03  0.79670206222E+02 0.  0.
         13    1    3    3    0    0 -0.36222359434E+03  0.16750492902E+03  0.40194108685E+03  0.56641016131E+03  0.00000000000E+00 0. -1.
        -13    1    3    3    0    0 -0.11786084524E+03  0.76657957665E+02  0.21950892964E+03  0.26067564425E+03  0.00000000000E+00 0.  1.
          2    1    6    6  502    0  0.50718963747E+03 -0.20318145653E+03  0.63419627263E+02  0.55004189091E+03  0.00000000000E+00 0. -1.
          1    1    5    5  503    0 -0.15055288837E+03 -0.16681637137E+01 -0.29260891881E+03  0.32907284047E+03  0.00000000000E+00 0. -1.
         -2    1    5    5    0  503 -0.31931301654E+02  0.13903694166E+02 -0.16212004735E+02  0.38415489510E+02  0.00000000000E+00 0.  1.
         -1    1    6    6    0  502  0.15537899213E+03 -0.53216960608E+02 -0.23809179510E+02  0.16595647960E+03  0.00000000000E+00 0.  1.
<mgrwt>
<rscale>  0 0.18778218E+04</rscale>
<asrwt>0</asrwt>
<pdfrwt beam="1">  1        1 0.11987177E+00 0.18778218E+04</pdfrwt>
<pdfrwt beam="2">  1       -1 0.17406247E+00 0.18778218E+04</pdfrwt>
<totfact> 0.49671918E+00</totfact>
</mgrwt>
</event>
<event>
12    1  0.2404959E-007  0.1544300E+04  0.7818608E-02  0.8855517E-01
          2   -1    0    0  501    0  0.00000000000E+00  0.00000000000E+00  0.29622557232E+04  0.29622557232E+04  0.00000000000E+00 0.  1.
         -2   -1    0    0    0  501 -0.00000000000E+00 -0.00000000000E+00 -0.20127093873E+03  0.20127093873E+03  0.00000000000E+00 0. -1.
         23    2    1    2    0    0  0.38025863350E+03 -0.33262133835E+03  0.92305516100E+03  0.10562013358E+04  0.91087037767E+02 0.  0.
        254    2    1    2    0    0 -0.38025863350E+03  0.33262133835E+03  0.18379296235E+04  0.21073253261E+04  0.89866631526E+03 0.  0.
        -24    2    4    4    0    0  0.24018833254E+03  0.28592206793E+03  0.91567386080E+03  0.99211160624E+03  0.79905918810E+02 0.  0.
         24    2    4    4    0    0 -0.62044696605E+03  0.46699270419E+02  0.92225576267E+03  0.11152137199E+04  0.77528637870E+02 0.  0.
         11    1    3    3    0    0  0.58204208364E+02 -0.94060178288E+02  0.23959970423E+03  0.26389972580E+03  0.00000000000E+00 0.  1.
        -11    1    3    3    0    0  0.32205442514E+03 -0.23856116006E+03  0.68345545678E+03  0.79230161002E+03  0.00000000000E+00 0. -1.
          4    1    6    6  502    0 -0.13905548666E+03 -0.12159176065E+02  0.24921778406E+03  0.28564624595E+03  0.00000000000E+00 0. -1.
          3    1    5    5  503    0  0.39905915488E+01  0.20779646030E+02  0.10451127453E+03  0.10663172611E+03  0.00000000000E+00 0. -1.
         -4    1    5    5    0  503  0.23619774099E+03  0.26514242190E+03  0.81116258627E+03  0.88547988013E+03  0.00000000000E+00 0.  1.
         -3    1    6    6    0  502 -0.48139147939E+03  0.58858446483E+02  0.67303797861E+03  0.82956747393E+03  0.00000000000E+00 0.  1.
<mgrwt>
<rscale>  0 0.15443005E+04</rscale>
<asrwt>0</asrwt>
<pdfrwt beam="1">  1        2 0.45573162E+00 0.15443005E+04</pdfrwt>
<pdfrwt beam="2">  1       -2 0.30964762E-01 0.15443005E+04</pdfrwt>
<totfact> 0.17216724E+01</totfact>
</mgrwt>
</event>
<event>
12    1  0.2404959E-007  0.1502925E+04  0.7818608E-02  0.8882510E-01
          2   -1    0    0  501    0  0.00000000000E+00  0.00000000000E+00  0.52044515846E+04  0.52044515846E+04  0.00000000000E+00 0. -1.
         -2   -1    0    0    0  501 -0.00000000000E+00 -0.00000000000E+00 -0.10850245726E+03  0.10850245726E+03  0.00000000000E+00 0.  1.
         23    2    1    2    0    0  0.70803330930E+02  0.24026438240E+03  0.30736610998E+04  0.30851986295E+04  0.91202751186E+02 0.  0.
        254    2    1    2    0    0 -0.70803330930E+02 -0.24026438240E+03  0.20222880275E+04  0.22277554124E+04  0.90028063732E+03 0.  0.
        -24    2    4    4    0    0 -0.31729437430E+03 -0.35702733306E+03  0.57030746716E+03  0.74810471095E+03  0.79156900747E+02 0.  0.
         24    2    4    4    0    0  0.24649104337E+03  0.11676295067E+03  0.14519805604E+04  0.14796507014E+04  0.82019689107E+02 0.  0.
         13    1    3    3    0    0  0.16713812000E+02  0.13852337226E+03  0.12184829697E+04  0.12264456056E+04  0.00000000000E+00 0.  1.
        -13    1    3    3    0    0  0.54089518930E+02  0.10174101014E+03  0.18551781301E+04  0.18587530238E+04  0.00000000000E+00 0. -1.
          4    1    6    6  502    0  0.92048349518E+02  0.18572245453E+02  0.34082917081E+03  0.35352842973E+03  0.00000000000E+00 0. -1.
          1    1    5    5  503    0 -0.26467042502E+03 -0.29439905116E+03  0.51406738122E+03  0.64883473061E+03  0.00000000000E+00 0. -1.
         -2    1    5    5    0  503 -0.52623949279E+02 -0.62628281897E+02  0.56240085934E+02  0.99269980341E+02  0.00000000000E+00 0.  1.
         -3    1    6    6    0  502  0.15444269385E+03  0.98190705213E+02  0.11111513896E+04  0.11261222717E+04  0.00000000000E+00 0.  1.
<mgrwt>
<rscale>  0 0.15029249E+04</rscale>
<asrwt>0</asrwt>
<pdfrwt beam="1">  1        2 0.80068467E+00 0.15029249E+04</pdfrwt>
<pdfrwt beam="2">  1       -2 0.16692690E-01 0.15029249E+04</pdfrwt>
<totfact> 0.54523938E-01</totfact>
</mgrwt>
</event>
<event>
12    1  0.2404959E-007  0.1464770E+04  0.7818608E-02  0.8908225E-01
         -1   -1    0    0    0  501 -0.00000000000E+00  0.00000000000E+00  0.33690566508E+03  0.33690566508E+03  0.00000000000E+00 0.  1.
          1   -1    0    0  501    0  0.00000000000E+00 -0.00000000000E+00 -0.15921001288E+04  0.15921001288E+04  0.00000000000E+00 0. -1.
         23    2    1    2    0    0 -0.43433012882E+03 -0.58655918644E+02 -0.52543350279E+03  0.69045808136E+03  0.92567913792E+02 0.  0.
        254    2    1    2    0    0  0.43433012882E+03  0.58655918644E+02 -0.72976096088E+03  0.12385477125E+04  0.89964781912E+03 0.  0.
        -24    2    4    4    0    0 -0.18725513783E+03  0.17590405485E+03 -0.48588961436E+03  0.55544420149E+03  0.80142500952E+02 0.  0.
         24    2    4    4    0    0  0.62158526666E+03 -0.11724813621E+03 -0.24387134652E+03  0.68310351098E+03  0.83915456848E+02 0.  0.
         13    1    3    3    0    0 -0.27583695709E+03 -0.25946200555E+01 -0.36989427968E+03  0.46142663240E+03  0.00000000000E+00 0. -1.
        -13    1    3    3    0    0 -0.15849317173E+03 -0.56061298589E+02 -0.15553922311E+03  0.22903144895E+03  0.00000000000E+00 0.  1.
          2    1    6    6  502    0  0.59492514355E+03 -0.98049131700E+02 -0.24345823748E+03  0.65024723917E+03  0.00000000000E+00 0. -1.
          1    1    5    5  503    0 -0.14245040370E+03  0.94504886708E+02 -0.36431867042E+03  0.40243183863E+03  0.00000000000E+00 0. -1.
         -2    1    5    5    0  503 -0.44804734134E+02  0.81399168146E+02 -0.12157094394E+03  0.15301236286E+03  0.00000000000E+00 0.  1.
         -1    1    6    6    0  502  0.26660123106E+02 -0.19199004511E+02 -0.41310903652E+00  0.32856271811E+02  0.00000000000E+00 0.  1.
<mgrwt>
<rscale>  0 0.14647697E+04</rscale>
<asrwt>0</asrwt>
<pdfrwt beam="1">  1        1 0.24493848E+00 0.14647697E+04</pdfrwt>
<pdfrwt beam="2">  1       -1 0.51831641E-01 0.14647697E+04</pdfrwt>
<totfact> 0.20537412E+01</totfact>
</mgrwt>
</event>
<event>
12    1  0.2404959E-007  0.1996595E+04  0.7818608E-02  0.8608214E-01
         -2   -1    0    0    0  501 -0.00000000000E+00  0.00000000000E+00  0.15972183069E+04  0.15972183069E+04  0.00000000000E+00 0.  1.
          2   -1    0    0  501    0  0.00000000000E+00 -0.00000000000E+00 -0.62395865449E+03  0.62395865449E+03  0.00000000000E+00 0. -1.
         23    2    1    2    0    0  0.77767077141E+03  0.14863775509E+03  0.40455387078E+03  0.89369399734E+03  0.90333358066E+02 0.  0.
        254    2    1    2    0    0 -0.77767077141E+03 -0.14863775509E+03  0.56870578168E+03  0.13274829641E+04  0.90106589265E+03 0.  0.
        -24    2    4    4    0    0 -0.15149406201E+03 -0.21693812192E+03 -0.19159413522E+03  0.33625238942E+03  0.79653984040E+02 0.  0.
         24    2    4    4    0    0 -0.62617670940E+03  0.68300366831E+02  0.76029991690E+03  0.99123057467E+03  0.87862830683E+02 0.  0.
         13    1    3    3    0    0  0.33310929371E+03  0.64363678968E+02  0.22386007459E+03  0.40646994689E+03  0.00000000000E+00 0.  1.
        -13    1    3    3    0    0  0.44456147770E+03  0.84274076122E+02  0.18069379618E+03  0.48722405045E+03  0.00000000000E+00 0. -1.
          4    1    6    6  502    0 -0.20398576716E+03  0.61572509125E+02  0.23379988920E+03  0.31632855589E+03  0.00000000000E+00 0. -1.
          1    1    5    5  503    0 -0.61327919381E+02 -0.14807411517E+03 -0.89194153018E+02  0.18341933980E+03  0.00000000000E+00 0. -1.
         -2    1    5    5    0  503 -0.90166142625E+02 -0.68864006750E+02 -0.10239998220E+03  0.15283304962E+03  0.00000000000E+00 0.  1.
         -3    1    6    6    0  502 -0.42219094224E+03  0.67278577059E+01  0.52650002770E+03  0.67490201878E+03  0.00000000000E+00 0.  1.
<mgrwt>
<rscale>  0 0.19965953E+04</rscale>
<asrwt>0</asrwt>
<pdfrwt beam="1">  1        2 0.95993640E-01 0.19965953E+04</pdfrwt>
<pdfrwt beam="2">  1       -2 0.24572589E+00 0.19965953E+04</pdfrwt>
<totfact> 0.29996489E+00</totfact>
</mgrwt>
</event>
<event>
12    1  0.2404959E-007  0.3058765E+04  0.7818608E-02  0.8227146E-01
         -2   -1    0    0    0  501 -0.00000000000E+00  0.00000000000E+00  0.14701262960E+04  0.14701262960E+04  0.00000000000E+00 0.  1.
          2   -1    0    0  501    0  0.00000000000E+00 -0.00000000000E+00 -0.15910271575E+04  0.15910271575E+04  0.00000000000E+00 0. -1.
         23    2    1    2    0    0  0.13234339002E+04 -0.13630488428E+03  0.36604741895E+03  0.13827299433E+04  0.88854226656E+02 0.  0.
        254    2    1    2    0    0 -0.13234339002E+04  0.13630488428E+03 -0.48694828047E+03  0.16784235101E+04  0.89996141128E+03 0.  0.
        -24    2    4    4    0    0 -0.14422388510E+04  0.13988471907E+03 -0.38488908176E+03  0.15010837292E+04  0.74108830700E+02 0.  0.
         24    2    4    4    0    0  0.11880495081E+03 -0.35798347955E+01 -0.10205919871E+03  0.17733978093E+03  0.83101662478E+02 0.  0.
         13    1    3    3    0    0  0.10290514349E+04 -0.14012609289E+03  0.27034352374E+03  0.10731578627E+04  0.00000000000E+00 0.  1.
        -13    1    3    3    0    0  0.29438246535E+03  0.38212086150E+01  0.95703895213E+02  0.30957208062E+03  0.00000000000E+00 0. -1.
          2    1    6    6  502    0  0.16761382365E+02  0.32002000768E+02 -0.34104484911E+02  0.49680860328E+02  0.00000000000E+00 0. -1.
          1    1    5    5  503    0 -0.14527254303E+01  0.26547528539E+01 -0.29562757615E+01  0.42305661878E+01  0.00000000000E+00 0. -1.
         -2    1    5    5    0  503 -0.14407861256E+04  0.13722996622E+03 -0.38193280600E+03  0.14968531630E+04  0.00000000000E+00 0.  1.
         -1    1    6    6    0  502  0.10204356844E+03 -0.35581835563E+02 -0.67954713801E+02  0.12765892061E+03  0.00000000000E+00 0.  1.
<mgrwt>
<rscale>  0 0.30587650E+04</rscale>
<asrwt>0</asrwt>
<pdfrwt beam="1">  1        2 0.24477341E+00 0.30587650E+04</pdfrwt>
<pdfrwt beam="2">  1       -2 0.22617328E+00 0.30587650E+04</pdfrwt>
<totfact> 0.86846247E-01</totfact>
</mgrwt>
</event>
<event>
12    1  0.2404959E-007  0.1643478E+04  0.7818608E-02  0.8794274E-01
          1   -1    0    0  501    0  0.00000000000E+00  0.00000000000E+00  0.29003917706E+04  0.29003917706E+04  0.00000000000E+00 0. -1.
         -1   -1    0    0    0  501 -0.00000000000E+00 -0.00000000000E+00 -0.23281521167E+03  0.23281521167E+03  0.00000000000E+00 0.  1.
         23    2    1    2    0    0  0.46315393613E+03  0.93822376513E+02  0.33001528029E+03  0.58352916798E+03  0.91005482119E+02 0.  0.
        254    2    1    2    0    0 -0.46315393613E+03 -0.93822376513E+02  0.23375612787E+04  0.25496778143E+04  0.90185920095E+03 0.  0.
        -24    2    4    4    0    0 -0.38697428976E+03 -0.12591484400E+02  0.23731722028E+04  0.24058402741E+04  0.78825591584E+02 0.  0.
         24    2    4    4    0    0 -0.76179646367E+02 -0.81230892113E+02 -0.35610924128E+02  0.14383754021E+03  0.83781284925E+02 0.  0.
         13    1    3    3    0    0  0.29315633878E+03  0.53816204749E+02  0.25948718275E+03  0.39518403418E+03  0.00000000000E+00 0. -1.
        -13    1    3    3    0    0  0.16999759735E+03  0.40006171763E+02  0.70528097537E+02  0.18834513380E+03  0.00000000000E+00 0.  1.
          2    1    6    6  502    0  0.18286051662E+02 -0.14610450070E+02 -0.21874787823E+01  0.23508083717E+02  0.00000000000E+00 0. -1.
          1    1    5    5  503    0  0.24443096435E+01  0.46398502241E+01  0.26479286523E+02  0.26993619145E+02  0.00000000000E+00 0. -1.
         -2    1    5    5    0  503 -0.38941859941E+03 -0.17231334624E+02  0.23466929163E+04  0.23788466549E+04  0.00000000000E+00 0.  1.
         -1    1    6    6    0  502 -0.94465698029E+02 -0.66620442043E+02 -0.33423445345E+02  0.12032945650E+03  0.00000000000E+00 0.  1.
<mgrwt>
<rscale>  0 0.16434784E+04</rscale>
<asrwt>0</asrwt>
<pdfrwt beam="1">  1        1 0.44621409E+00 0.16434784E+04</pdfrwt>
<pdfrwt beam="2">  1       -1 0.35817727E-01 0.16434784E+04</pdfrwt>
<totfact> 0.50445701E+00</totfact>
</mgrwt>
</event>
<event>
12    1  0.2404959E-007  0.2515152E+04  0.7818608E-02  0.8397607E-01
          1   -1    0    0  501    0  0.00000000000E+00  0.00000000000E+00  0.12603078891E+04  0.12603078891E+04  0.00000000000E+00 0. -1.
         -1   -1    0    0    0  501 -0.00000000000E+00 -0.00000000000E+00 -0.12548501950E+04  0.12548501950E+04  0.00000000000E+00 0.  1.
         23    2    1    2    0    0  0.17546095661E+03  0.10789904189E+04 -0.33067980332E+02  0.10975509390E+04  0.92291392106E+02 0.  0.
        254    2    1    2    0    0 -0.17546095661E+03 -0.10789904189E+04  0.38525674405E+02  0.14176071450E+04  0.90173106781E+03 0.  0.
        -24    2    4    4    0    0 -0.26223386807E+03 -0.64695108973E+03  0.42885650471E+03  0.82340854272E+03  0.82288592953E+02 0.  0.
         24    2    4    4    0    0  0.86772911463E+02 -0.43203932918E+03 -0.39033083030E+03  0.59419860230E+03  0.80785529487E+02 0.  0.
         11    1    3    3    0    0  0.58699154778E+02  0.22340590027E+03 -0.37570350301E+02  0.23402418309E+03  0.00000000000E+00 0.  1.
        -11    1    3    3    0    0  0.11676180183E+03  0.85558451863E+03  0.45023699693E+01  0.86352675594E+03  0.00000000000E+00 0. -1.
          4    1    6    6  502    0  0.11632928266E+01 -0.29373554280E+02 -0.58403180460E+02  0.65384175678E+02  0.00000000000E+00 0. -1.
          1    1    5    5  503    0 -0.24349136563E+02 -0.18687315850E+02  0.24846425121E+02  0.39489759005E+02  0.00000000000E+00 0. -1.
         -2    1    5    5    0  503 -0.23788473151E+03 -0.62826377388E+03  0.40401007959E+03  0.78391878372E+03  0.00000000000E+00 0.  1.
         -3    1    6    6    0  502  0.85609618636E+02 -0.40266577490E+03 -0.33192764984E+03  0.52881442662E+03  0.00000000000E+00 0.  1.
<mgrwt>
<rscale>  0 0.25151522E+04</rscale>
<asrwt>0</asrwt>
<pdfrwt beam="1">  1        1 0.19389352E+00 0.25151522E+04</pdfrwt>
<pdfrwt beam="2">  1       -1 0.19305388E+00 0.25151522E+04</pdfrwt>
<totfact> 0.14416189E+00</totfact>
</mgrwt>
</event>
<event>
12    1  0.2404959E-007  0.1704002E+04  0.7818608E-02  0.8759085E-01
         -1   -1    0    0    0  501 -0.00000000000E+00  0.00000000000E+00  0.55611042290E+03  0.55611042290E+03  0.00000000000E+00 0.  1.
          1   -1    0    0  501    0  0.00000000000E+00 -0.00000000000E+00 -0.13053261116E+04  0.13053261116E+04  0.00000000000E+00 0. -1.
         23    2    1    2    0    0 -0.32549420754E+03  0.35071672878E+03  0.13998529590E+03  0.50655011282E+03  0.89713046674E+02 0.  0.
        254    2    1    2    0    0  0.32549420754E+03 -0.35071672878E+03 -0.88920098457E+03  0.13548864217E+04  0.90337706504E+03 0.  0.
        -24    2    4    4    0    0  0.35865795805E+03  0.14766572103E+03 -0.71968900304E+03  0.82148131758E+03  0.80240874881E+02 0.  0.
         24    2    4    4    0    0 -0.33163750519E+02 -0.49838244981E+03 -0.16951198153E+03  0.53340510407E+03  0.79383830453E+02 0.  0.
         11    1    3    3    0    0 -0.24051209033E+02  0.73280832261E+02  0.23666248317E+02  0.80676095234E+02  0.00000000000E+00 0. -1.
        -11    1    3    3    0    0 -0.30144299850E+03  0.27743589652E+03  0.11631904758E+03  0.42587401759E+03  0.00000000000E+00 0.  1.
          4    1    6    6  502    0 -0.53903397354E+02 -0.39383161105E+03 -0.15102147404E+03  0.42522511653E+03  0.00000000000E+00 0. -1.
          3    1    5    5  503    0  0.34888868681E+03  0.13699643963E+03 -0.65018457006E+03  0.75048738524E+03  0.00000000000E+00 0. -1.
         -4    1    5    5    0  503  0.97692712401E+01  0.10669281403E+02 -0.69504432980E+02  0.70993932347E+02  0.00000000000E+00 0.  1.
         -3    1    6    6    0  502  0.20739646836E+02 -0.10455083876E+03 -0.18490507493E+02  0.10817998754E+03  0.00000000000E+00 0.  1.
<mgrwt>
<rscale>  0 0.17040017E+04</rscale>
<asrwt>0</asrwt>
<pdfrwt beam="1">  1        1 0.20081940E+00 0.17040017E+04</pdfrwt>
<pdfrwt beam="2">  1       -1 0.85555449E-01 0.17040017E+04</pdfrwt>
<totfact> 0.11514492E+01</totfact>
</mgrwt>
</event>
<event>
12    1  0.2404959E-007  0.2115583E+04  0.7818608E-02  0.8554410E-01
          2   -1    0    0  501    0  0.00000000000E+00  0.00000000000E+00  0.26501291334E+04  0.26501291334E+04  0.00000000000E+00 0.  1.
         -2   -1    0    0    0  501 -0.00000000000E+00 -0.00000000000E+00 -0.42221431381E+03  0.42221431381E+03  0.00000000000E+00 0. -1.
         23    2    1    2    0    0 -0.64737340708E+03  0.56240925318E+03  0.76708286194E+03  0.11543747479E+04  0.93639976370E+02 0.  0.
        254    2    1    2    0    0  0.64737340708E+03 -0.56240925318E+03  0.14608319577E+04  0.19179686994E+04  0.89954289890E+03 0.  0.
        -24    2    4    4    0    0 -0.13220987839E+03  0.11116073572E+03  0.36671782969E+03  0.41301907778E+03  0.79162054585E+02 0.  0.
         24    2    4    4    0    0  0.77958328547E+03 -0.67356998890E+03  0.10941141280E+04  0.15049496216E+04  0.79630456244E+02 0.  0.
         13    1    3    3    0    0 -0.23484362465E+03  0.15073925928E+03  0.22545487565E+03  0.35875305334E+03  0.00000000000E+00 0. -1.
        -13    1    3    3    0    0 -0.41252978243E+03  0.41166999389E+03  0.54162798629E+03  0.79562169452E+03  0.00000000000E+00 0.  1.
          2    1    6    6  502    0  0.48168041628E+03 -0.37686352808E+03  0.68513162929E+03  0.91839397411E+03  0.00000000000E+00 0. -1.
          1    1    5    5  503    0 -0.12625106713E+03  0.68433365574E+02  0.31098006498E+03  0.34253621457E+03  0.00000000000E+00 0. -1.
         -2    1    5    5    0  503 -0.59588112580E+01  0.42727370147E+02  0.55737764704E+02  0.70482863204E+02  0.00000000000E+00 0.  1.
         -1    1    6    6    0  502  0.29790286919E+03 -0.29670646082E+03  0.40898249869E+03  0.58655564749E+03  0.00000000000E+00 0.  1.
<mgrwt>
<rscale>  0 0.21155826E+04</rscale>
<asrwt>0</asrwt>
<pdfrwt beam="1">  1        2 0.40771216E+00 0.21155826E+04</pdfrwt>
<pdfrwt beam="2">  1       -2 0.64956050E-01 0.21155826E+04</pdfrwt>
<totfact> 0.57240867E+00</totfact>
</mgrwt>
</event>
<event>
12    1  0.2404959E-007  0.1470038E+04  0.7818608E-02  0.8904625E-01
         -2   -1    0    0    0  501 -0.00000000000E+00  0.00000000000E+00  0.87338264770E+03  0.87338264770E+03  0.00000000000E+00 0. -1.
          2   -1    0    0  501    0  0.00000000000E+00 -0.00000000000E+00 -0.61857526190E+03  0.61857526190E+03  0.00000000000E+00 0.  1.
         23    2    1    2    0    0 -0.23174494003E+03  0.38772970186E+03  0.32207621477E+02  0.46216756865E+03  0.92311926078E+02 0.  0.
        254    2    1    2    0    0  0.23174494003E+03 -0.38772970186E+03  0.22259976432E+03  0.10297903409E+04  0.89826357619E+03 0.  0.
        -24    2    4    4    0    0 -0.27051073747E+03 -0.19099418399E+03  0.33008149324E+03  0.47420363385E+03  0.79123048296E+02 0.  0.
         24    2    4    4    0    0  0.50225567751E+03 -0.19673551787E+03 -0.10748172892E+03  0.55558670710E+03  0.78476986915E+02 0.  0.
         13    1    3    3    0    0 -0.21351140913E+03  0.28379035028E+03  0.16950760992E+02  0.35554382717E+03  0.00000000000E+00 0. -1.
        -13    1    3    3    0    0 -0.18233530908E+02  0.10393935158E+03  0.15256860485E+02  0.10662374148E+03  0.00000000000E+00 0.  1.
          2    1    6    6  502    0  0.21288707104E+03 -0.12407280252E+03 -0.58312223648E+02  0.25320995393E+03  0.00000000000E+00 0. -1.
          3    1    5    5  503    0 -0.10069555587E+03 -0.28882925749E+02  0.85945173227E+02  0.13550052093E+03  0.00000000000E+00 0. -1.
         -2    1    5    5    0  503 -0.16981518160E+03 -0.16211125824E+03  0.24413632001E+03  0.33870311292E+03  0.00000000000E+00 0.  1.
         -1    1    6    6    0  502  0.28936860646E+03 -0.72662715346E+02 -0.49169505273E+02  0.30237675317E+03  0.00000000000E+00 0.  1.
<mgrwt>
<rscale>  0 0.14700380E+04</rscale>
<asrwt>0</asrwt>
<pdfrwt beam="1">  1        2 0.95165425E-01 0.14700380E+04</pdfrwt>
<pdfrwt beam="2">  1       -2 0.13436656E+00 0.14700380E+04</pdfrwt>
<totfact> 0.18469058E+01</totfact>
</mgrwt>
</event>
<event>
12    1  0.2404959E-007  0.1310676E+04  0.7818608E-02  0.9021142E-01
         -1   -1    0    0    0  501 -0.00000000000E+00  0.00000000000E+00  0.10789695381E+04  0.10789695381E+04  0.00000000000E+00 0.  1.
          1   -1    0    0  501    0  0.00000000000E+00 -0.00000000000E+00 -0.39803525328E+03  0.39803525328E+03  0.00000000000E+00 0. -1.
         23    2    1    2    0    0  0.33816463704E+03  0.99606566607E+01  0.16155356696E+03  0.38588624913E+03  0.91400797849E+02 0.  0.
        254    2    1    2    0    0 -0.33816463704E+03 -0.99606566607E+01  0.51938071787E+03  0.10911185423E+04  0.89795813195E+03 0.  0.
        -24    2    4    4    0    0 -0.48129889385E+03  0.28486583875E+03  0.13839527181E+03  0.58190448660E+03  0.81623580895E+02 0.  0.
         24    2    4    4    0    0  0.14313425681E+03 -0.29482649542E+03  0.38098544606E+03  0.50921405565E+03  0.82091208348E+02 0.  0.
         13    1    3    3    0    0  0.22511836451E+03 -0.27714226411E+02  0.76063212808E+02  0.23923203951E+03  0.00000000000E+00 0.  1.
        -13    1    3    3    0    0  0.11304627253E+03  0.37674883072E+02  0.85490354151E+02  0.14665420962E+03  0.00000000000E+00 0. -1.
          4    1    6    6  502    0  0.15399098290E+03 -0.27881378451E+03  0.35894796990E+03  0.47988956473E+03  0.00000000000E+00 0. -1.
          1    1    5    5  503    0 -0.35091940029E+03  0.22288378784E+03  0.67819951101E+02  0.42121390546E+03  0.00000000000E+00 0. -1.
         -2    1    5    5    0  503 -0.13037949356E+03  0.61982050917E+02  0.70575320705E+02  0.16069058115E+03  0.00000000000E+00 0.  1.
         -3    1    6    6    0  502 -0.10856726084E+02 -0.16012710903E+02  0.22037476164E+02  0.29324490914E+02  0.00000000000E+00 0.  1.
<mgrwt>
<rscale>  0 0.13106760E+04</rscale>
<asrwt>0</asrwt>
<pdfrwt beam="1">  1        1 0.61236193E-01 0.13106760E+04</pdfrwt>
<pdfrwt beam="2">  1       -1 0.16599531E+00 0.13106760E+04</pdfrwt>
<totfact> 0.15618814E+01</totfact>
</mgrwt>
</event>
<event>
12    1  0.2404959E-007  0.2414160E+04  0.7818608E-02  0.8434221E-01
          1   -1    0    0  501    0  0.00000000000E+00  0.00000000000E+00  0.11253189471E+04  0.11253189471E+04  0.00000000000E+00 0. -1.
         -1   -1    0    0    0  501 -0.00000000000E+00 -0.00000000000E+00 -0.12947817190E+04  0.12947817190E+04  0.00000000000E+00 0.  1.
         23    2    1    2    0    0  0.22878885697E+03  0.99530211930E+03  0.10570664491E+03  0.10309852706E+04  0.93734112028E+02 0.  0.
        254    2    1    2    0    0 -0.22878885697E+03 -0.99530211930E+03 -0.27516941685E+03  0.13891153955E+04  0.90052913571E+03 0.  0.
        -24    2    4    4    0    0 -0.48278515184E+03 -0.93814625081E+03 -0.33033717180E+03  0.11085267855E+04  0.80678971534E+02 0.  0.
         24    2    4    4    0    0  0.25399629487E+03 -0.57155868492E+02  0.55167754950E+02  0.28058860995E+03  0.88913304623E+02 0.  0.
         11    1    3    3    0    0  0.12343117569E+03  0.40995857549E+03  0.80935087992E+02  0.43571983799E+03  0.00000000000E+00 0. -1.
        -11    1    3    3    0    0  0.10535768128E+03  0.58534354381E+03  0.24771556918E+02  0.59526543265E+03  0.00000000000E+00 0.  1.
          2    1    6    6  502    0  0.32236361338E+02 -0.30094857171E+02 -0.14743867994E+02  0.46500161977E+02  0.00000000000E+00 0. -1.
          3    1    5    5  503    0 -0.60058753138E+02 -0.94660990152E+02 -0.11824176730E+02  0.11272784944E+03  0.00000000000E+00 0. -1.
         -4    1    5    5    0  503 -0.42272639870E+03 -0.84348526065E+03 -0.31851299507E+03  0.99579893609E+03  0.00000000000E+00 0.  1.
         -1    1    6    6    0  502  0.22175993353E+03 -0.27061011321E+02  0.69911622944E+02  0.23408844797E+03  0.00000000000E+00 0.  1.
<mgrwt>
<rscale>  0 0.24141602E+04</rscale>
<asrwt>0</asrwt>
<pdfrwt beam="1">  1        1 0.17312599E+00 0.24141602E+04</pdfrwt>
<pdfrwt beam="2">  1       -1 0.19919719E+00 0.24141602E+04</pdfrwt>
<totfact> 0.16557513E+00</totfact>
</mgrwt>
</event>
<event>
12    1  0.2404959E-007  0.2245577E+04  0.7818608E-02  0.8499694E-01
         -1   -1    0    0    0  501 -0.00000000000E+00  0.00000000000E+00  0.55574539347E+03  0.55574539347E+03  0.00000000000E+00 0. -1.
          1   -1    0    0  501    0  0.00000000000E+00 -0.00000000000E+00 -0.22684016793E+04  0.22684016793E+04  0.00000000000E+00 0.  1.
         23    2    1    2    0    0 -0.77792278618E+03 -0.19456924686E+03 -0.10288327217E+03  0.81356376940E+03  0.90994428990E+02 0.  0.
        254    2    1    2    0    0  0.77792278618E+03  0.19456924686E+03 -0.16097730136E+04  0.20105833034E+04  0.89891880122E+03 0.  0.
        -24    2    4    4    0    0 -0.43955553168E+02  0.11211365351E+03 -0.92052965739E+03  0.93172455224E+03  0.78957134951E+02 0.  0.
         24    2    4    4    0    0  0.82187833934E+03  0.82455593346E+02 -0.68924335626E+03  0.10788587511E+04  0.81221125010E+02 0.  0.
         13    1    3    3    0    0 -0.19750078836E+03 -0.13507275966E+02 -0.73657350734E+01  0.19809912155E+03  0.00000000000E+00 0. -1.
        -13    1    3    3    0    0 -0.58042199782E+03 -0.18106197089E+03 -0.95517537098E+02  0.61546464784E+03  0.00000000000E+00 0.  1.
          4    1    6    6  502    0  0.43727898568E+03  0.57588350725E+01 -0.38202422276E+03  0.58067941437E+03  0.00000000000E+00 0. -1.
          3    1    5    5  503    0  0.69551975314E+01  0.83775092852E+02 -0.47217418282E+03  0.47959889479E+03  0.00000000000E+00 0. -1.
         -4    1    5    5    0  503 -0.50910750699E+02  0.28338560660E+02 -0.44835547457E+03  0.45212565746E+03  0.00000000000E+00 0.  1.
         -3    1    6    6    0  502  0.38459935367E+03  0.76696758273E+02 -0.30721913350E+03  0.49817933674E+03  0.00000000000E+00 0.  1.
<mgrwt>
<rscale>  0 0.22455768E+04</rscale>
<asrwt>0</asrwt>
<pdfrwt beam="1">  1        1 0.34898488E+00 0.22455768E+04</pdfrwt>
<pdfrwt beam="2">  1       -1 0.85499290E-01 0.22455768E+04</pdfrwt>
<totfact> 0.24010603E+00</totfact>
</mgrwt>
</event>
<event>
12    1  0.2404959E-007  0.1685497E+04  0.7818608E-02  0.8769679E-01
          2   -1    0    0  501    0  0.00000000000E+00  0.00000000000E+00  0.16413794365E+04  0.16413794365E+04  0.00000000000E+00 0.  1.
         -2   -1    0    0    0  501 -0.00000000000E+00 -0.00000000000E+00 -0.43270028943E+03  0.43270028943E+03  0.00000000000E+00 0. -1.
         23    2    1    2    0    0 -0.37412816995E+03 -0.45337605240E+03  0.56790233508E+03  0.82259039641E+03  0.92844847114E+02 0.  0.
        254    2    1    2    0    0  0.37412816995E+03  0.45337605240E+03  0.64077681194E+03  0.12514893295E+04  0.90006049054E+03 0.  0.
        -24    2    4    4    0    0  0.38333491720E+03  0.66909447591E+03  0.66539019551E+03  0.10215792259E+04  0.79037498359E+02 0.  0.
         24    2    4    4    0    0 -0.92067472521E+01 -0.21571842351E+03 -0.24613383578E+02  0.22991010354E+03  0.75057542067E+02 0.  0.
         11    1    3    3    0    0 -0.44238649401E+02 -0.85687581026E+02  0.13405406725E+03  0.16513604267E+03  0.00000000000E+00 0.  1.
        -11    1    3    3    0    0 -0.32988952055E+03 -0.36768847137E+03  0.43384826783E+03  0.65745435373E+03  0.00000000000E+00 0. -1.
          2    1    6    6  502    0  0.61191699253E+01 -0.20510628535E+03 -0.86699132282E+01  0.20538062208E+03  0.00000000000E+00 0. -1.
          3    1    5    5  503    0  0.16600375656E+03  0.33269421945E+03  0.36421487746E+03  0.52047590512E+03  0.00000000000E+00 0. -1.
         -4    1    5    5    0  503  0.21733116064E+03  0.33640025645E+03  0.30117531806E+03  0.50110332081E+03  0.00000000000E+00 0.  1.
         -1    1    6    6    0  502 -0.15325917177E+02 -0.10612138155E+02 -0.15943470350E+02  0.24529481453E+02  0.00000000000E+00 0.  1.
<mgrwt>
<rscale>  0 0.16854974E+04</rscale>
<asrwt>0</asrwt>
<pdfrwt beam="1">  1        2 0.25251991E+00 0.16854974E+04</pdfrwt>
<pdfrwt beam="2">  1       -2 0.66569276E-01 0.16854974E+04</pdfrwt>
<totfact> 0.20884095E+01</totfact>
</mgrwt>
</event>
<event>
12    1  0.2404959E-007  0.1489143E+04  0.7818608E-02  0.8891705E-01
          2   -1    0    0  501    0  0.00000000000E+00  0.00000000000E+00  0.12568207914E+04  0.12568207914E+04  0.00000000000E+00 0. -1.
         -2   -1    0    0    0  501 -0.00000000000E+00 -0.00000000000E+00 -0.44110236376E+03  0.44110236376E+03  0.00000000000E+00 0.  1.
         23    2    1    2    0    0  0.40137308711E+02  0.46495944421E+03  0.23896872796E+03  0.53215839212E+03  0.91039623498E+02 0.  0.
        254    2    1    2    0    0 -0.40137308711E+02 -0.46495944421E+03  0.57674969972E+03  0.11657647631E+04  0.89920463655E+03 0.  0.
        -24    2    4    4    0    0 -0.33570284739E+03 -0.58414837383E+03  0.32935273320E+03  0.75407665286E+03  0.78947141320E+02 0.  0.
         24    2    4    4    0    0  0.29556553868E+03  0.11918892962E+03  0.24739696652E+03  0.41168811022E+03  0.81956405807E+02 0.  0.
         11    1    3    3    0    0 -0.13165577471E+02  0.33115729250E+03  0.16347283723E+03  0.36954276250E+03  0.00000000000E+00 0.  1.
        -11    1    3    3    0    0  0.53302886183E+02  0.13380215171E+03  0.75495890734E+02  0.16261562962E+03  0.00000000000E+00 0. -1.
          4    1    6    6  502    0  0.12704136256E+03  0.72103317279E+02  0.15805644818E+03  0.21522136737E+03  0.00000000000E+00 0. -1.
          3    1    5    5  503    0 -0.19358889596E+03 -0.34617015938E+03  0.15059231956E+03  0.42425049982E+03  0.00000000000E+00 0. -1.
         -4    1    5    5    0  503 -0.14211395143E+03 -0.23797821445E+03  0.17876041364E+03  0.32982615304E+03  0.00000000000E+00 0.  1.
         -3    1    6    6    0  502  0.16852417612E+03  0.47085612339E+02  0.89340518347E+02  0.19646674285E+03  0.00000000000E+00 0.  1.
<mgrwt>
<rscale>  0 0.14891429E+04</rscale>
<asrwt>0</asrwt>
<pdfrwt beam="1">  1        2 0.19335704E+00 0.14891429E+04</pdfrwt>
<pdfrwt beam="2">  1       -2 0.67861903E-01 0.14891429E+04</pdfrwt>
<totfact> 0.33705243E+01</totfact>
</mgrwt>
</event>
<event>
12    1  0.2404959E-007  0.6458676E+04  0.7818608E-02  0.7635994E-01
          1   -1    0    0  501    0  0.00000000000E+00  0.00000000000E+00  0.30442231324E+04  0.30442231324E+04  0.00000000000E+00 0. -1.
         -1   -1    0    0    0  501 -0.00000000000E+00 -0.00000000000E+00 -0.34257091309E+04  0.34257091309E+04  0.00000000000E+00 0.  1.
         23    2    1    2    0    0 -0.28049589191E+04  0.13055186894E+04 -0.86288602337E+03  0.32132337743E+04  0.90141070754E+02 0.  0.
        254    2    1    2    0    0  0.28049589191E+04 -0.13055186894E+04  0.48140002488E+03  0.32566984891E+04  0.89563691233E+03 0.  0.
        -24    2    4    4    0    0  0.93780268004E+03 -0.88800070260E+03  0.58163801323E+02  0.12956270288E+04  0.85130813684E+02 0.  0.
         24    2    4    4    0    0  0.18671562390E+04 -0.41751798680E+03  0.42323622355E+03  0.19610714603E+04  0.77965897323E+02 0.  0.
         13    1    3    3    0    0 -0.85094307603E+03  0.43457770628E+03 -0.24290407209E+03  0.98588249283E+03  0.00000000000E+00 0.  1.
        -13    1    3    3    0    0 -0.19540158430E+04  0.87094098312E+03 -0.61998195128E+03  0.22273512814E+04  0.00000000000E+00 0. -1.
          4    1    6    6  502    0  0.10286419064E+04 -0.20703574194E+03  0.19959600389E+03  0.10680854530E+04  0.00000000000E+00 0. -1.
          3    1    5    5  503    0  0.92427874304E+03 -0.87681874096E+03  0.47096563607E+02  0.12748805378E+04  0.00000000000E+00 0. -1.
         -4    1    5    5    0  503  0.13523936997E+02 -0.11181961640E+02  0.11067237716E+02  0.20746490997E+02  0.00000000000E+00 0.  1.
         -3    1    6    6    0  502  0.83851433262E+03 -0.21048224486E+03  0.22364021967E+03  0.89298600731E+03  0.00000000000E+00 0.  1.
<mgrwt>
<rscale>  0 0.64586757E+04</rscale>
<asrwt>0</asrwt>
<pdfrwt beam="1">  1        1 0.46834202E+00 0.64586757E+04</pdfrwt>
<pdfrwt beam="2">  1       -1 0.52703217E+00 0.64586757E+04</pdfrwt>
<totfact> 0.36822432E-04</totfact>
</mgrwt>
</event>
<event>
12    1  0.2404959E-007  0.2635602E+04  0.7818608E-02  0.8356207E-01
         -1   -1    0    0    0  501 -0.00000000000E+00  0.00000000000E+00  0.78446536708E+03  0.78446536708E+03  0.00000000000E+00 0. -1.
          1   -1    0    0  501    0  0.00000000000E+00 -0.00000000000E+00 -0.22137370931E+04  0.22137370931E+04  0.00000000000E+00 0.  1.
         23    2    1    2    0    0 -0.45649418802E+03  0.10690438715E+04 -0.67729720303E+03  0.13483398297E+04  0.89705364037E+02 0.  0.
        254    2    1    2    0    0  0.45649418802E+03 -0.10690438715E+04 -0.75197452298E+03  0.16498626305E+04  0.89740697198E+03 0.  0.
        -24    2    4    4    0    0 -0.72447156803E+02  0.11008350067E+03 -0.17179490312E+03  0.23100887018E+03  0.80527273103E+02 0.  0.
         24    2    4    4    0    0  0.52894134482E+03 -0.11791273721E+04 -0.58017961985E+03  0.14188537603E+04  0.80108025598E+02 0.  0.
         13    1    3    3    0    0 -0.43308068308E+03  0.99939980986E+03 -0.65741150020E+03  0.12722219691E+04  0.00000000000E+00 0.  1.
        -13    1    3    3    0    0 -0.23413504943E+02  0.69644061617E+02 -0.19885702837E+02  0.76117860648E+02  0.00000000000E+00 0. -1.
          4    1    6    6  502    0  0.95073108426E+02 -0.15211129883E+03 -0.66519412736E+02  0.19131538215E+03  0.00000000000E+00 0. -1.
          1    1    5    5  503    0 -0.34778478358E+02  0.31474219480E+02 -0.12180252965E+03  0.13052212563E+03  0.00000000000E+00 0. -1.
         -2    1    5    5    0  503 -0.37668678445E+02  0.78609281191E+02 -0.49992373472E+02  0.10048674455E+03  0.00000000000E+00 0.  1.
         -3    1    6    6    0  502  0.43386823640E+03 -0.10270160733E+04 -0.51366020711E+03  0.12275383781E+04  0.00000000000E+00 0.  1.
<mgrwt>
<rscale>  0 0.26356025E+04</rscale>
<asrwt>0</asrwt>
<pdfrwt beam="1">  1        1 0.34057493E+00 0.26356025E+04</pdfrwt>
<pdfrwt beam="2">  1       -1 0.12068698E+00 0.26356025E+04</pdfrwt>
<totfact> 0.11424428E+00</totfact>
</mgrwt>
</event>
<event>
12    1  0.2404959E-007  0.3709234E+04  0.7818608E-02  0.8065918E-01
          2   -1    0    0  501    0  0.00000000000E+00  0.00000000000E+00  0.18811096799E+04  0.18811096799E+04  0.00000000000E+00 0.  1.
         -2   -1    0    0    0  501 -0.00000000000E+00 -0.00000000000E+00 -0.18284977114E+04  0.18284977114E+04  0.00000000000E+00 0. -1.
         23    2    1    2    0    0 -0.15141239549E+04  0.27730092428E+03  0.84406998084E+03  0.17579184301E+04  0.91410725577E+02 0.  0.
        254    2    1    2    0    0  0.15141239549E+04 -0.27730092428E+03 -0.79145801235E+03  0.19516889612E+04  0.90178537492E+03 0.  0.
        -24    2    4    4    0    0  0.25932410239E+03 -0.13697800631E+03  0.18295122812E+03  0.35482542657E+03  0.80112216121E+02 0.  0.
         24    2    4    4    0    0  0.12547998525E+04 -0.14032291797E+03 -0.97440924047E+03  0.15968635346E+04  0.79288013328E+02 0.  0.
         13    1    3    3    0    0 -0.12547134476E+03  0.18594230303E+01  0.53333513999E+02  0.13634874229E+03  0.00000000000E+00 0. -1.
        -13    1    3    3    0    0 -0.13886526102E+04  0.27544150125E+03  0.79073646684E+03  0.16215696878E+04  0.00000000000E+00 0.  1.
          4    1    6    6  502    0  0.33656637011E+03 -0.24364616786E+02 -0.30216599093E+03  0.45296229657E+03  0.00000000000E+00 0. -1.
          1    1    5    5  503    0  0.79548956767E+02 -0.26291658823E+01  0.48246855294E+02  0.93073670185E+02  0.00000000000E+00 0. -1.
         -2    1    5    5    0  503  0.17977514562E+03 -0.13434884043E+03  0.13470437283E+03  0.26175175638E+03  0.00000000000E+00 0.  1.
         -3    1    6    6    0  502  0.91823348241E+03 -0.11595830118E+03 -0.67224324954E+03  0.11439012380E+04  0.00000000000E+00 0.  1.
<mgrwt>
<rscale>  0 0.37092343E+04</rscale>
<asrwt>0</asrwt>
<pdfrwt beam="1">  1        2 0.28940149E+00 0.37092343E+04</pdfrwt>
<pdfrwt beam="2">  1       -2 0.28130734E+00 0.37092343E+04</pdfrwt>
<totfact> 0.25981997E-01</totfact>
</mgrwt>
</event>
<event>
12    1  0.2493707E-007  0.3316658E+04  0.7818608E-02  0.8158670E-01
          2   -1    0    0  501    0  0.00000000000E+00  0.00000000000E+00  0.28077092405E+04  0.28077092405E+04  0.00000000000E+00 0. -1.
         -2   -1    0    0    0  501 -0.00000000000E+00 -0.00000000000E+00 -0.97946591585E+03  0.97946591585E+03  0.00000000000E+00 0.  1.
         23    2    1    2    0    0  0.93937402902E+03 -0.81869264716E+03 -0.17558709646E+03  0.12616686149E+04  0.91080450626E+02 0.  0.
        254    2    1    2    0    0 -0.93937402902E+03  0.81869264716E+03  0.20038304211E+04  0.25255065414E+04  0.90009206047E+03 0.  0.
        -24    2    4    4    0    0 -0.11226366126E+03  0.21581407478E+03  0.11846165779E+04  0.12120056873E+04  0.80389706949E+02 0.  0.
         24    2    4    4    0    0 -0.82711036776E+03  0.60287857238E+03  0.81921384315E+03  0.13135008540E+04  0.81234471007E+02 0.  0.
         13    1    3    3    0    0  0.44065385354E+03 -0.35207884571E+03 -0.40676282465E+02  0.56549968363E+03  0.00000000000E+00 0. -1.
        -13    1    3    3    0    0  0.49872017548E+03 -0.46661380146E+03 -0.13491081400E+03  0.69616893127E+03  0.00000000000E+00 0.  1.
          2    1    6    6  502    0 -0.70669062919E+02  0.82244838779E+02  0.86414767705E+02  0.13865728267E+03  0.00000000000E+00 0. -1.
          3    1    5    5  503    0 -0.25511807709E+02  0.43720678227E+02  0.12251330748E+03  0.13255889463E+03  0.00000000000E+00 0. -1.
         -4    1    5    5    0  503 -0.86751853550E+02  0.17209339655E+03  0.10621032704E+04  0.10794467927E+04  0.00000000000E+00 0.  1.
         -1    1    6    6    0  502 -0.75644130484E+03  0.52063373360E+03  0.73279907545E+03  0.11748435714E+04  0.00000000000E+00 0.  1.
<mgrwt>
<rscale>  0 0.33166583E+04</rscale>
<asrwt>0</asrwt>
<pdfrwt beam="1">  1        2 0.43195526E+00 0.33166583E+04</pdfrwt>
<pdfrwt beam="2">  1       -2 0.15068707E+00 0.33166583E+04</pdfrwt>
<totfact> 0.56453063E-01</totfact>
</mgrwt>
</event>
<event>
12    1  0.2404959E-007  0.2972820E+04  0.7818608E-02  0.8251535E-01
         -1   -1    0    0    0  501 -0.00000000000E+00  0.00000000000E+00  0.79926513101E+03  0.79926513101E+03  0.00000000000E+00 0.  1.
          1   -1    0    0  501    0  0.00000000000E+00 -0.00000000000E+00 -0.27643068209E+04  0.27643068209E+04  0.00000000000E+00 0. -1.
         23    2    1    2    0    0 -0.81081169050E+03 -0.10683799067E+04 -0.10612961713E+04  0.17127941024E+04  0.91993757898E+02 0.  0.
        254    2    1    2    0    0  0.81081169050E+03  0.10683799067E+04 -0.90374551863E+03  0.18507778495E+04  0.89987302627E+03 0.  0.
        -24    2    4    4    0    0  0.80986658838E+03  0.34004554423E+03 -0.48200974835E+03  0.10055305978E+04  0.85108886494E+02 0.  0.
         24    2    4    4    0    0  0.94510211385E+00  0.72833436247E+03 -0.42173577028E+03  0.84524725170E+03  0.78166615559E+02 0.  0.
         11    1    3    3    0    0 -0.25984447287E+03 -0.40561271265E+03 -0.35261612814E+03  0.59697483747E+03  0.00000000000E+00 0.  1.
        -11    1    3    3    0    0 -0.55096721763E+03 -0.66276719405E+03 -0.70868004314E+03  0.11158192649E+04  0.00000000000E+00 0. -1.
          4    1    6    6  502    0  0.29411537954E+02  0.54872695666E+03 -0.29603375419E+03  0.62418129990E+03  0.00000000000E+00 0. -1.
          3    1    5    5  503    0  0.80843621932E+03  0.33526275138E+03 -0.48405041725E+03  0.10001375104E+04  0.00000000000E+00 0. -1.
         -4    1    5    5    0  503  0.14303690673E+01  0.47827928448E+01  0.20406689074E+01  0.53930874881E+01  0.00000000000E+00 0.  1.
         -3    1    6    6    0  502 -0.28466435840E+02  0.17960740582E+03 -0.12570201609E+03  0.22106595179E+03  0.00000000000E+00 0.  1.
<mgrwt>
<rscale>  0 0.29728196E+04</rscale>
<asrwt>0</asrwt>
<pdfrwt beam="1">  1        1 0.42527797E+00 0.29728196E+04</pdfrwt>
<pdfrwt beam="2">  1       -1 0.12296387E+00 0.29728196E+04</pdfrwt>
<totfact> 0.43913607E-01</totfact>
</mgrwt>
</event>
<event>
12    1  0.2404959E-007  0.1412423E+04  0.7818608E-02  0.8944875E-01
         -1   -1    0    0    0  501 -0.00000000000E+00  0.00000000000E+00  0.75978287313E+03  0.75978287313E+03  0.00000000000E+00 0.  1.
          1   -1    0    0  501    0  0.00000000000E+00 -0.00000000000E+00 -0.65641698899E+03  0.65641698899E+03  0.00000000000E+00 0. -1.
         23    2    1    2    0    0 -0.31703790451E+03 -0.66769191518E+02  0.28316782781E+03  0.43989273524E+03  0.91380752797E+02 0.  0.
        254    2    1    2    0    0  0.31703790451E+03  0.66769191518E+02 -0.17980194367E+03  0.97630712688E+03  0.90325838452E+03 0.  0.
        -24    2    4    4    0    0 -0.21663952752E+02  0.13484075494E+03 -0.48457672592E+03  0.50964813124E+03  0.79216528081E+02 0.  0.
         24    2    4    4    0    0  0.33870185726E+03 -0.68071563427E+02  0.30477478225E+03  0.46665899564E+03  0.74365747878E+02 0.  0.
         11    1    3    3    0    0 -0.16812680797E+03 -0.11831387826E+01  0.18442554966E+03  0.24956122844E+03  0.00000000000E+00 0.  1.
        -11    1    3    3    0    0 -0.14891109654E+03 -0.65586052735E+02  0.98742278151E+02  0.19033150680E+03  0.00000000000E+00 0. -1.
          4    1    6    6  502    0  0.43093613193E+00 -0.67002668252E+00 -0.37825374152E+01  0.38655182062E+01  0.00000000000E+00 0. -1.
          3    1    5    5  503    0 -0.74875147418E+01 -0.93079520524E+01 -0.55900399811E+02  0.57162536223E+02  0.00000000000E+00 0. -1.
         -4    1    5    5    0  503 -0.14176438010E+02  0.14414870700E+03 -0.42867632611E+03  0.45248559501E+03  0.00000000000E+00 0.  1.
         -3    1    6    6    0  502  0.33827092113E+03 -0.67401536744E+02  0.30855731967E+03  0.46279347743E+03  0.00000000000E+00 0.  1.
<mgrwt>
<rscale>  0 0.14124226E+04</rscale>
<asrwt>0</asrwt>
<pdfrwt beam="1">  1        1 0.10098723E+00 0.14124226E+04</pdfrwt>
<pdfrwt beam="2">  1       -1 0.11688967E+00 0.14124226E+04</pdfrwt>
<totfact> 0.19303182E+01</totfact>
</mgrwt>
</event>
<event>
12    1  0.2404959E-007  0.2189054E+04  0.7818608E-02  0.8522998E-01
         -1   -1    0    0    0  501 -0.00000000000E+00  0.00000000000E+00  0.10648597956E+04  0.10648597956E+04  0.00000000000E+00 0.  1.
          1   -1    0    0  501    0  0.00000000000E+00 -0.00000000000E+00 -0.11250211190E+04  0.11250211190E+04  0.00000000000E+00 0. -1.
         23    2    1    2    0    0  0.58800546061E+03 -0.58056645158E+03  0.34036443503E+03  0.89754712162E+03  0.83277010564E+02 0.  0.
        254    2    1    2    0    0 -0.58800546061E+03  0.58056645158E+03 -0.40052575845E+03  0.12923337930E+04  0.90933927820E+03 0.  0.
        -24    2    4    4    0    0  0.12168747448E+03  0.47118173030E+03 -0.25511621231E+03  0.55542181427E+03  0.81172936210E+02 0.  0.
         24    2    4    4    0    0 -0.70969293509E+03  0.10938472128E+03 -0.14540954614E+03  0.73691197870E+03  0.79159641716E+02 0.  0.
         11    1    3    3    0    0  0.24308550866E+03 -0.20155650481E+03  0.97796378466E+02  0.33057483388E+03  0.00000000000E+00 0.  1.
        -11    1    3    3    0    0  0.34491995195E+03 -0.37900994677E+03  0.24256805656E+03  0.56697228774E+03  0.00000000000E+00 0. -1.
          4    1    6    6  502    0 -0.25644472088E+03  0.75138829447E+02 -0.38696254533E+02  0.27001321944E+03  0.00000000000E+00 0. -1.
          1    1    5    5  503    0  0.38361890007E+02  0.56680164563E+02 -0.18403207206E+02  0.70872799403E+02  0.00000000000E+00 0. -1.
         -2    1    5    5    0  503  0.83325584478E+02  0.41450156574E+03 -0.23671300510E+03  0.48454901487E+03  0.00000000000E+00 0.  1.
         -3    1    6    6    0  502 -0.45324821421E+03  0.34245891833E+02 -0.10671329161E+03  0.46689875926E+03  0.00000000000E+00 0.  1.
<mgrwt>
<rscale>  0 0.21890544E+04</rscale>
<asrwt>0</asrwt>
<pdfrwt beam="1">  1        1 0.17308017E+00 0.21890544E+04</pdfrwt>
<pdfrwt beam="2">  1       -1 0.16382458E+00 0.21890544E+04</pdfrwt>
<totfact> 0.30303620E+00</totfact>
</mgrwt>
</event>
<event>
12    1  0.2404959E-007  0.3052510E+04  0.7818608E-02  0.8228893E-01
          2   -1    0    0  501    0  0.00000000000E+00  0.00000000000E+00  0.36357463056E+04  0.36357463056E+04  0.00000000000E+00 0.  1.
         -2   -1    0    0    0  501 -0.00000000000E+00 -0.00000000000E+00 -0.64070875994E+03  0.64070875994E+03  0.00000000000E+00 0. -1.
         23    2    1    2    0    0  0.12428483366E+04 -0.59992069245E+03  0.11132838510E+04  0.17753507528E+04  0.88839953582E+02 0.  0.
        254    2    1    2    0    0 -0.12428483366E+04  0.59992069245E+03  0.18817536946E+04  0.25011043128E+04  0.89997166131E+03 0.  0.
        -24    2    4    4    0    0 -0.81207699751E+03  0.36890898060E+03  0.17857081261E+04  0.19976763846E+04  0.79965866853E+02 0.  0.
         24    2    4    4    0    0 -0.43077133909E+03  0.23101171185E+03  0.96045568468E+02  0.50342792820E+03  0.72695048479E+02 0.  0.
         13    1    3    3    0    0  0.80725489283E+03 -0.40082288016E+03  0.67356737410E+03  0.11251721871E+04  0.00000000000E+00 0. -1.
        -13    1    3    3    0    0  0.43559344377E+03 -0.19909781229E+03  0.43971647693E+03  0.65017856562E+03  0.00000000000E+00 0.  1.
          4    1    6    6  502    0 -0.39074863352E+03  0.21443479092E+03  0.65699479681E+02  0.45053656432E+03  0.00000000000E+00 0. -1.
          3    1    5    5  503    0 -0.81219863684E+03  0.37069246320E+03  0.17848625970E+04  0.19956988796E+04  0.00000000000E+00 0. -1.
         -4    1    5    5    0  503  0.12163932856E+00 -0.17834826049E+01  0.84552915748E+00  0.19775049644E+01  0.00000000000E+00 0.  1.
         -3    1    6    6    0  502 -0.40022705563E+02  0.16576920938E+02  0.30346088787E+02  0.52891363880E+02  0.00000000000E+00 0.  1.
<mgrwt>
<rscale>  0 0.30525101E+04</rscale>
<asrwt>0</asrwt>
<pdfrwt beam="1">  1        2 0.55934557E+00 0.30525101E+04</pdfrwt>
<pdfrwt beam="2">  1       -2 0.98570581E-01 0.30525101E+04</pdfrwt>
<totfact> 0.47340372E-01</totfact>
</mgrwt>
</event>
<event>
12    1  0.2404959E-007  0.3168736E+04  0.7818608E-02  0.8197123E-01
         -1   -1    0    0    0  501 -0.00000000000E+00  0.00000000000E+00  0.12130016019E+04  0.12130016019E+04  0.00000000000E+00 0.  1.
          1   -1    0    0  501    0  0.00000000000E+00 -0.00000000000E+00 -0.20694299702E+04  0.20694299702E+04  0.00000000000E+00 0. -1.
         23    2    1    2    0    0  0.10257231284E+04 -0.73430769878E+03  0.35737333285E+03  0.13140238738E+04  0.87334467832E+02 0.  0.
        254    2    1    2    0    0 -0.10257231284E+04  0.73430769878E+03 -0.12138017011E+04  0.19684076983E+04  0.89999920255E+03 0.  0.
        -24    2    4    4    0    0 -0.86045965850E+03  0.57163310913E+03 -0.38873001420E+03  0.11069091993E+04  0.83556664193E+02 0.  0.
         24    2    4    4    0    0 -0.16526346991E+03  0.16267458966E+03 -0.82507168687E+03  0.86149849904E+03  0.87529073817E+02 0.  0.
         11    1    3    3    0    0  0.60501374837E+03 -0.47451372664E+03  0.19025222375E+03  0.79208637227E+03  0.00000000000E+00 0. -1.
        -11    1    3    3    0    0  0.42070938004E+03 -0.25979397214E+03  0.16712110909E+03  0.52193750154E+03  0.00000000000E+00 0.  1.
          2    1    6    6  502    0 -0.13177802504E+03  0.12157490209E+03 -0.73876521015E+03  0.76021045799E+03  0.00000000000E+00 0. -1.
          3    1    5    5  503    0 -0.57441721563E+03  0.34197497458E+03 -0.27493658271E+03  0.72283618155E+03  0.00000000000E+00 0. -1.
         -4    1    5    5    0  503 -0.28604244287E+03  0.22965813455E+03 -0.11379343149E+03  0.38407301771E+03  0.00000000000E+00 0.  1.
         -1    1    6    6    0  502 -0.33485444875E+02  0.41099687568E+02 -0.86306476716E+02  0.10128804105E+03  0.00000000000E+00 0.  1.
<mgrwt>
<rscale>  0 0.31687359E+04</rscale>
<asrwt>0</asrwt>
<pdfrwt beam="1">  1        1 0.31837384E+00 0.31687359E+04</pdfrwt>
<pdfrwt beam="2">  1       -1 0.18661563E+00 0.31687359E+04</pdfrwt>
<totfact> 0.41866187E-01</totfact>
</mgrwt>
</event>
<event>
12    1  0.2404959E-007  0.2003902E+04  0.7818608E-02  0.8604798E-01
          1   -1    0    0  501    0  0.00000000000E+00  0.00000000000E+00  0.60358866478E+03  0.60358866478E+03  0.00000000000E+00 0. -1.
         -1   -1    0    0    0  501 -0.00000000000E+00 -0.00000000000E+00 -0.16632288413E+04  0.16632288413E+04  0.00000000000E+00 0.  1.
         23    2    1    2    0    0  0.27328537601E+03  0.74092530948E+03 -0.53906690302E+03  0.96080298492E+03  0.94308212454E+02 0.  0.
        254    2    1    2    0    0 -0.27328537601E+03 -0.74092530948E+03 -0.52057327351E+03  0.13060145212E+04  0.90056770174E+03 0.  0.
        -24    2    4    4    0    0  0.61051111963E+02 -0.81546356001E+03 -0.48112293566E+03  0.95200375507E+03  0.78254804740E+02 0.  0.
         24    2    4    4    0    0 -0.33433648797E+03  0.74538250528E+02 -0.39450337850E+02  0.35401076610E+03  0.80190120185E+02 0.  0.
         13    1    3    3    0    0  0.20626350891E+03  0.64409017803E+03 -0.43934245000E+03  0.80648532592E+03  0.00000000000E+00 0.  1.
        -13    1    3    3    0    0  0.67021867092E+02  0.96835131453E+02 -0.99724453017E+02  0.15431765901E+03  0.00000000000E+00 0. -1.
          4    1    6    6  502    0 -0.38362184008E+02 -0.13900131976E+02 -0.17281285972E+02  0.44311552395E+02  0.00000000000E+00 0. -1.
          1    1    5    5  503    0  0.37602197710E+02 -0.16968974940E+03 -0.79140452481E+02  0.19097577737E+03  0.00000000000E+00 0. -1.
         -4    1    5    5    0  503  0.23448914253E+02 -0.64577381061E+03 -0.40198248318E+03  0.76102797770E+03  0.00000000000E+00 0.  1.
         -3    1    6    6    0  502 -0.29597430396E+03  0.88438382504E+02 -0.22169051878E+02  0.30969921370E+03  0.00000000000E+00 0.  1.
<mgrwt>
<rscale>  0 0.20039023E+04</rscale>
<asrwt>0</asrwt>
<pdfrwt beam="1">  1        1 0.92859797E-01 0.20039023E+04</pdfrwt>
<pdfrwt beam="2">  1       -1 0.25588135E+00 0.20039023E+04</pdfrwt>
<totfact> 0.20096233E+00</totfact>
</mgrwt>
</event>
<event>
12    1  0.2404959E-007  0.1782832E+04  0.7818608E-02  0.8715483E-01
          2   -1    0    0  501    0  0.00000000000E+00  0.00000000000E+00  0.98740599072E+03  0.98740599072E+03  0.00000000000E+00 0.  1.
         -2   -1    0    0    0  501 -0.00000000000E+00 -0.00000000000E+00 -0.80475749766E+03  0.80475749766E+03  0.00000000000E+00 0. -1.
         23    2    1    2    0    0  0.10846567921E+02 -0.64669972275E+03  0.19779089853E+03  0.68356739799E+03  0.99020041465E+02 0.  0.
        254    2    1    2    0    0 -0.10846567921E+02  0.64669972275E+03 -0.15142405471E+02  0.11085960904E+04  0.90023209216E+03 0.  0.
        -24    2    4    4    0    0 -0.35595311788E+03  0.11242367300E+03  0.20260199036E+03  0.43156189424E+03  0.76527104229E+02 0.  0.
         24    2    4    4    0    0  0.34510654996E+03  0.53427604975E+03 -0.21774439583E+03  0.67703419615E+03  0.80082786432E+02 0.  0.
         13    1    3    3    0    0  0.49065610199E+02 -0.35106156692E+03  0.13231171112E+03  0.37836232208E+03  0.00000000000E+00 0. -1.
        -13    1    3    3    0    0 -0.38219042278E+02 -0.29563815584E+03  0.65479187415E+02  0.30520507591E+03  0.00000000000E+00 0.  1.
          4    1    6    6  502    0  0.16585671413E+03  0.30464718342E+03 -0.86295451717E+02  0.35744266810E+03  0.00000000000E+00 0. -1.
          3    1    5    5  503    0 -0.17762047041E+03  0.31597025781E+02  0.13153603290E+03  0.22326919066E+03  0.00000000000E+00 0. -1.
         -4    1    5    5    0  503 -0.17833264747E+03  0.80826647222E+02  0.71065957462E+02  0.20829270358E+03  0.00000000000E+00 0.  1.
         -3    1    6    6    0  502  0.17924983583E+03  0.22962886633E+03 -0.13144894412E+03  0.31959152806E+03  0.00000000000E+00 0.  1.
<mgrwt>
<rscale>  0 0.17828319E+04</rscale>
<asrwt>0</asrwt>
<pdfrwt beam="1">  1        2 0.15190861E+00 0.17828319E+04</pdfrwt>
<pdfrwt beam="2">  1       -2 0.12380885E+00 0.17828319E+04</pdfrwt>
<totfact> 0.11916494E+01</totfact>
</mgrwt>
</event>
<event>
12    1  0.2404959E-007  0.1243280E+04  0.7818608E-02  0.9075795E-01
         -1   -1    0    0    0  501 -0.00000000000E+00  0.00000000000E+00  0.52980155061E+03  0.52980155061E+03  0.00000000000E+00 0.  1.
          1   -1    0    0  501    0  0.00000000000E+00 -0.00000000000E+00 -0.72939826976E+03  0.72939826976E+03  0.00000000000E+00 0. -1.
         23    2    1    2    0    0  0.42444574846E+01 -0.24798250538E+03 -0.18927530087E+03  0.32493354829E+03  0.90792801971E+02 0.  0.
        254    2    1    2    0    0 -0.42444574846E+01  0.24798250538E+03 -0.10321418285E+02  0.93426627208E+03  0.90068507098E+03 0.  0.
        -24    2    4    4    0    0 -0.84924148557E+02  0.57576189844E+03  0.79528514383E+01  0.58753882912E+03  0.80154558072E+02 0.  0.
         24    2    4    4    0    0  0.80679691073E+02 -0.32777939306E+03 -0.18274269723E+02  0.34672744296E+03  0.77054705916E+02 0.  0.
         11    1    3    3    0    0 -0.25164493304E+02 -0.19370284661E+03 -0.17339448153E+03  0.26118899428E+03  0.00000000000E+00 0. -1.
        -11    1    3    3    0    0  0.29408950788E+02 -0.54279658768E+02 -0.15880819339E+02  0.63744554005E+02  0.00000000000E+00 0.  1.
          4    1    6    6  502    0  0.66292561263E+02 -0.32456430848E+03 -0.20090708094E+02  0.33187396790E+03  0.00000000000E+00 0. -1.
          1    1    5    5  503    0 -0.55354075830E+02  0.44922521193E+03 -0.25550863838E+02  0.45334337029E+03  0.00000000000E+00 0. -1.
         -4    1    5    5    0  503 -0.29570072727E+02  0.12653668650E+03  0.33503715276E+02  0.13419545883E+03  0.00000000000E+00 0.  1.
         -3    1    6    6    0  502  0.14387129810E+02 -0.32150845763E+01  0.18164383703E+01  0.14853475060E+02  0.00000000000E+00 0.  1.
<mgrwt>
<rscale>  0 0.12432801E+04</rscale>
<asrwt>0</asrwt>
<pdfrwt beam="1">  1        1 0.11221512E+00 0.12432801E+04</pdfrwt>
<pdfrwt beam="2">  1       -1 0.81507932E-01 0.12432801E+04</pdfrwt>
<totfact> 0.37841058E+01</totfact>
</mgrwt>
</event>
<event>
12    1  0.2404959E-007  0.1384429E+04  0.7818608E-02  0.8965168E-01
          1   -1    0    0  501    0  0.00000000000E+00  0.00000000000E+00  0.14904856773E+04  0.14904856773E+04  0.00000000000E+00 0. -1.
         -1   -1    0    0    0  501 -0.00000000000E+00 -0.00000000000E+00 -0.32147951005E+03  0.32147951005E+03  0.00000000000E+00 0.  1.
         23    2    1    2    0    0  0.27314206077E+03  0.44506171288E+02 -0.23575435682E+02  0.29225888789E+03  0.90950930398E+02 0.  0.
        254    2    1    2    0    0 -0.27314206077E+03 -0.44506171288E+02  0.11925816029E+04  0.15197062994E+04  0.90037157455E+03 0.  0.
        -24    2    4    4    0    0 -0.53226066604E+03 -0.19599494393E+03  0.49850303079E+03  0.75931199252E+03  0.79586403493E+02 0.  0.
         24    2    4    4    0    0  0.25911860527E+03  0.15148877264E+03  0.69407857210E+03  0.76039430688E+03  0.79769278948E+02 0.  0.
         11    1    3    3    0    0  0.34136984231E+02  0.25860376041E+02  0.22135312703E+02  0.48208555359E+02  0.00000000000E+00 0. -1.
        -11    1    3    3    0    0  0.23900507654E+03  0.18645795247E+02 -0.45710748385E+02  0.24405033254E+03  0.00000000000E+00 0.  1.
          2    1    6    6  502    0  0.10358511126E+03  0.10149152960E+03  0.28177921304E+03  0.31690681715E+03  0.00000000000E+00 0. -1.
          3    1    5    5  503    0 -0.12749437386E+03 -0.77574541152E+02  0.15736103309E+03  0.21687581593E+03  0.00000000000E+00 0. -1.
         -4    1    5    5    0  503 -0.40476629218E+03 -0.11842040278E+03  0.34114199770E+03  0.54243617659E+03  0.00000000000E+00 0.  1.
         -1    1    6    6    0  502  0.15553349401E+03  0.49997243039E+02  0.41229935905E+03  0.44348748973E+03  0.00000000000E+00 0.  1.
<mgrwt>
<rscale>  0 0.13844286E+04</rscale>
<asrwt>0</asrwt>
<pdfrwt beam="1">  1        1 0.22930549E+00 0.13844286E+04</pdfrwt>
<pdfrwt beam="2">  1       -1 0.49458387E-01 0.13844286E+04</pdfrwt>
<totfact> 0.26569659E+01</totfact>
</mgrwt>
</event>
<event>
12    1  0.2404959E-007  0.2950917E+04  0.7818608E-02  0.8257887E-01
         -1   -1    0    0    0  501 -0.00000000000E+00  0.00000000000E+00  0.11071441204E+04  0.11071441204E+04  0.00000000000E+00 0.  1.
          1   -1    0    0  501    0  0.00000000000E+00 -0.00000000000E+00 -0.19662998311E+04  0.19662998311E+04  0.00000000000E+00 0. -1.
         23    2    1    2    0    0  0.12689989463E+04  0.36940172451E+03 -0.59522756117E+03  0.14523344149E+04  0.90351774734E+02 0.  0.
        254    2    1    2    0    0 -0.12689989463E+04 -0.36940172451E+03 -0.26392814959E+03  0.16211095366E+04  0.90084521520E+03 0.  0.
        -24    2    4    4    0    0 -0.58923892611E+03 -0.56979423472E+03 -0.36490727468E+03  0.90079091718E+03  0.79993595921E+02 0.  0.
         24    2    4    4    0    0 -0.67976002019E+03  0.20039251021E+03  0.10097912509E+03  0.72031861943E+03  0.80195302849E+02 0.  0.
         11    1    3    3    0    0  0.34244840519E+03  0.98115400801E+02 -0.20501444502E+03  0.41100908112E+03  0.00000000000E+00 0. -1.
        -11    1    3    3    0    0  0.92655054111E+03  0.27128632371E+03 -0.39021311615E+03  0.10413253337E+04  0.00000000000E+00 0.  1.
          2    1    6    6  502    0 -0.38842055362E+03  0.79373649894E+02  0.77667649426E+02  0.40398386916E+03  0.00000000000E+00 0. -1.
          3    1    5    5  503    0 -0.46589183736E+02 -0.67417979899E+02 -0.17681610386E+02  0.83835406605E+02  0.00000000000E+00 0. -1.
         -4    1    5    5    0  503 -0.54264974238E+03 -0.50237625482E+03 -0.34722566429E+03  0.81695551057E+03  0.00000000000E+00 0.  1.
         -1    1    6    6    0  502 -0.29133946657E+03  0.12101886032E+03  0.23311475666E+02  0.31633475027E+03  0.00000000000E+00 0.  1.
<mgrwt>
<rscale>  0 0.29509167E+04</rscale>
<asrwt>0</asrwt>
<pdfrwt beam="1">  1        1 0.30250766E+00 0.29509167E+04</pdfrwt>
<pdfrwt beam="2">  1       -1 0.17032987E+00 0.29509167E+04</pdfrwt>
<totfact> 0.65687496E-01</totfact>
</mgrwt>
</event>
<event>
12    1  0.2404959E-007  0.2648127E+04  0.7818608E-02  0.8352035E-01
         -2   -1    0    0    0  501 -0.00000000000E+00  0.00000000000E+00  0.11268623147E+04  0.11268623147E+04  0.00000000000E+00 0. -1.
          2   -1    0    0  501    0  0.00000000000E+00 -0.00000000000E+00 -0.15557754193E+04  0.15557754193E+04  0.00000000000E+00 0.  1.
         23    2    1    2    0    0  0.72157232371E+03 -0.87144629209E+03 -0.48193522925E+03  0.12330469322E+04  0.89765881847E+02 0.  0.
        254    2    1    2    0    0 -0.72157232371E+03  0.87144629209E+03  0.53022124671E+02  0.14495908018E+04  0.90466396442E+03 0.  0.
        -24    2    4    4    0    0 -0.58697775946E+03  0.10502282202E+04 -0.49148833504E+00  0.12057239766E+04  0.79043415964E+02 0.  0.
         24    2    4    4    0    0 -0.13459456425E+03 -0.17878192806E+03  0.53513613007E+02  0.24386682520E+03  0.80800044099E+02 0.  0.
         13    1    3    3    0    0  0.50027496006E+03 -0.55828644297E+03 -0.35202255279E+03  0.82817791913E+03  0.00000000000E+00 0.  1.
        -13    1    3    3    0    0  0.22129736365E+03 -0.31315984912E+03 -0.12991267646E+03  0.40486901310E+03  0.00000000000E+00 0. -1.
          2    1    6    6  502    0 -0.54192759484E+02 -0.73352878513E+02 -0.18390403296E+02  0.93036051614E+02  0.00000000000E+00 0. -1.
          1    1    5    5  503    0 -0.34623417363E+03  0.66368253680E+03  0.31389429992E+02  0.74922487209E+03  0.00000000000E+00 0. -1.
         -2    1    5    5    0  503 -0.24074358584E+03  0.38654568335E+03 -0.31880918327E+02  0.45649910448E+03  0.00000000000E+00 0.  1.
         -1    1    6    6    0  502 -0.80401804765E+02 -0.10542904955E+03  0.71904016303E+02  0.15083077358E+03  0.00000000000E+00 0.  1.
<mgrwt>
<rscale>  0 0.26481274E+04</rscale>
<asrwt>0</asrwt>
<pdfrwt beam="1">  1        2 0.23935006E+00 0.26481274E+04</pdfrwt>
<pdfrwt beam="2">  1       -2 0.17336343E+00 0.26481274E+04</pdfrwt>
<totfact> 0.20992811E+00</totfact>
</mgrwt>
</event>
<event>
12    1  0.2404959E-007  0.1924071E+04  0.7818608E-02  0.8642967E-01
          2   -1    0    0  501    0  0.00000000000E+00  0.00000000000E+00  0.19712117781E+04  0.19712117781E+04  0.00000000000E+00 0. -1.
         -2   -1    0    0    0  501 -0.00000000000E+00 -0.00000000000E+00 -0.46951433794E+03  0.46951433794E+03  0.00000000000E+00 0.  1.
         23    2    1    2    0    0  0.55811611294E+03 -0.10869011563E+03 -0.28703510534E+02  0.57651799422E+03  0.90785292741E+02 0.  0.
        254    2    1    2    0    0 -0.55811611294E+03  0.10869011563E+03  0.15304009507E+04  0.18642081218E+04  0.89990983705E+03 0.  0.
        -24    2    4    4    0    0  0.19664197524E+03 -0.11597565405E+03  0.57322750942E+03  0.62207927635E+03  0.79211298106E+02 0.  0.
         24    2    4    4    0    0 -0.75475808819E+03  0.22466576968E+03  0.95717344125E+03  0.12421288455E+04  0.81046852666E+02 0.  0.
         11    1    3    3    0    0  0.48574022379E+03 -0.96395045821E+02  0.61520276590E+01  0.49525086301E+03  0.00000000000E+00 0. -1.
        -11    1    3    3    0    0  0.72375889152E+02 -0.12295069807E+02 -0.34855538193E+02  0.81267131208E+02  0.00000000000E+00 0.  1.
          2    1    6    6  502    0 -0.61770683475E+03  0.18994373062E+03  0.83036565283E+03  0.10522107545E+04  0.00000000000E+00 0. -1.
          1    1    5    5  503    0  0.11676888831E+03 -0.27923855315E+02  0.24160347659E+03  0.26979057595E+03  0.00000000000E+00 0. -1.
         -2    1    5    5    0  503  0.79873086936E+02 -0.88051798733E+02  0.33162403283E+03  0.35228870040E+03  0.00000000000E+00 0.  1.
         -1    1    6    6    0  502 -0.13705125344E+03  0.34722039055E+02  0.12680778841E+03  0.18991809094E+03  0.00000000000E+00 0.  1.
<mgrwt>
<rscale>  0 0.19240709E+04</rscale>
<asrwt>0</asrwt>
<pdfrwt beam="1">  1        2 0.30326335E+00 0.19240709E+04</pdfrwt>
<pdfrwt beam="2">  1       -2 0.72232976E-01 0.19240709E+04</pdfrwt>
<totfact> 0.11242873E+01</totfact>
</mgrwt>
</event>
<event>
12    1  0.2404959E-007  0.2000373E+04  0.7818608E-02  0.8606446E-01
          2   -1    0    0  501    0  0.00000000000E+00  0.00000000000E+00  0.21807045045E+04  0.21807045045E+04  0.00000000000E+00 0. -1.
         -2   -1    0    0    0  501 -0.00000000000E+00 -0.00000000000E+00 -0.45873855590E+03  0.45873855590E+03  0.00000000000E+00 0.  1.
         23    2    1    2    0    0  0.75326260149E+03  0.57355633563E+02  0.10148009156E+04  0.12684983289E+04  0.92589938257E+02 0.  0.
        254    2    1    2    0    0 -0.75326260149E+03 -0.57355633563E+02  0.70716503304E+03  0.13709447315E+04  0.89928463648E+03 0.  0.
        -24    2    4    4    0    0 -0.11784092794E+02 -0.20538580685E+03 -0.11607120032E+03  0.25033653601E+03  0.82907558276E+02 0.  0.
         24    2    4    4    0    0 -0.74147850870E+03  0.14803017329E+03  0.82323623336E+03  0.11206081955E+04  0.79633666534E+02 0.  0.
         13    1    3    3    0    0  0.56643355569E+03  0.29176782671E+01  0.76201598947E+03  0.94948609998E+03  0.00000000000E+00 0. -1.
        -13    1    3    3    0    0  0.18682904580E+03  0.54437955296E+02  0.25278492612E+03  0.31901222893E+03  0.00000000000E+00 0.  1.
          2    1    6    6  502    0 -0.35186400695E+03  0.68749270589E+02  0.33200668356E+03  0.48863399341E+03  0.00000000000E+00 0. -1.
          1    1    5    5  503    0  0.15385934811E+02 -0.14002654598E+03 -0.40021150915E+02  0.14644402716E+03  0.00000000000E+00 0. -1.
         -2    1    5    5    0  503 -0.27170027605E+02 -0.65359260874E+02 -0.76050049407E+02  0.10389250886E+03  0.00000000000E+00 0.  1.
         -1    1    6    6    0  502 -0.38961450175E+03  0.79280902702E+02  0.49122954980E+03  0.63197420209E+03  0.00000000000E+00 0.  1.
<mgrwt>
<rscale>  0 0.20003732E+04</rscale>
<asrwt>0</asrwt>
<pdfrwt beam="1">  1        2 0.33549299E+00 0.20003732E+04</pdfrwt>
<pdfrwt beam="2">  1       -2 0.70575164E-01 0.20003732E+04</pdfrwt>
<totfact> 0.89813926E+00</totfact>
</mgrwt>
</event>
<event>
12    1  0.2404959E-007  0.1717997E+04  0.7818608E-02  0.8751166E-01
         -2   -1    0    0    0  501 -0.00000000000E+00  0.00000000000E+00  0.40144053746E+03  0.40144053746E+03  0.00000000000E+00 0.  1.
          2   -1    0    0  501    0  0.00000000000E+00 -0.00000000000E+00 -0.18380771700E+04  0.18380771700E+04  0.00000000000E+00 0. -1.
         23    2    1    2    0    0  0.91518993442E+01  0.34030687940E+03  0.15038279638E+03  0.38350364813E+03  0.92560970488E+02 0.  0.
        254    2    1    2    0    0 -0.91518993442E+01 -0.34030687940E+03 -0.15870194289E+04  0.18560140593E+04  0.90014720530E+03 0.  0.
        -24    2    4    4    0    0 -0.42809292653E+03 -0.30727399588E+03 -0.82905297229E+03  0.98559356232E+03  0.79906050730E+02 0.  0.
         24    2    4    4    0    0  0.41894102718E+03 -0.33032883521E+02 -0.75796645657E+03  0.87042049695E+03  0.80721351429E+02 0.  0.
         11    1    3    3    0    0 -0.14445609656E+02  0.50482718955E+01 -0.68576185320E-02  0.15302311410E+02  0.00000000000E+00 0. -1.
        -11    1    3    3    0    0  0.23597509000E+02  0.33525860750E+03  0.15038965400E+03  0.36820133673E+03  0.00000000000E+00 0.  1.
          4    1    6    6  502    0  0.18352008648E+03 -0.13405499679E+02 -0.25210418602E+03  0.31211512327E+03  0.00000000000E+00 0. -1.
          1    1    5    5  503    0 -0.18813336959E+03 -0.18383887146E+03 -0.41832725099E+03  0.49415441345E+03  0.00000000000E+00 0. -1.
         -2    1    5    5    0  503 -0.23995955693E+03 -0.12343512441E+03 -0.41072572131E+03  0.49143914887E+03  0.00000000000E+00 0.  1.
         -3    1    6    6    0  502  0.23542094070E+03 -0.19627383842E+02 -0.50586227055E+03  0.55830537369E+03  0.00000000000E+00 0.  1.
<mgrwt>
<rscale>  0 0.17179973E+04</rscale>
<asrwt>0</asrwt>
<pdfrwt beam="1">  1        2 0.28278111E+00 0.17179973E+04</pdfrwt>
<pdfrwt beam="2">  1       -2 0.61760082E-01 0.17179973E+04</pdfrwt>
<totfact> 0.19020724E+01</totfact>
</mgrwt>
</event>
<event>
12    1  0.2404959E-007  0.1290707E+04  0.7818608E-02  0.9036967E-01
          1   -1    0    0  501    0  0.00000000000E+00  0.00000000000E+00  0.10972147503E+04  0.10972147503E+04  0.00000000000E+00 0. -1.
         -1   -1    0    0    0  501 -0.00000000000E+00 -0.00000000000E+00 -0.37958013517E+03  0.37958013517E+03  0.00000000000E+00 0.  1.
         23    2    1    2    0    0 -0.90594364952E+02 -0.59022560524E+02 -0.15227277132E+03  0.22129514480E+03  0.11871622725E+03 0.  0.
        254    2    1    2    0    0  0.90594364952E+02  0.59022560524E+02  0.86990738641E+03  0.12554997406E+04  0.89880461512E+03 0.  0.
        -24    2    4    4    0    0  0.19561214556E+03  0.43302191057E+03  0.32378341185E+03  0.58049630689E+03  0.79800864659E+02 0.  0.
         24    2    4    4    0    0 -0.10501778060E+03 -0.37399935005E+03  0.54612397456E+03  0.67500343373E+03  0.80461120342E+02 0.  0.
         13    1    3    3    0    0 -0.33408198750E+02 -0.78045580662E+02 -0.39950218895E+02  0.93825584967E+02  0.00000000000E+00 0. -1.
        -13    1    3    3    0    0 -0.57186166201E+02  0.19023020138E+02 -0.11232255243E+03  0.12746955983E+03  0.00000000000E+00 0.  1.
          2    1    6    6  502    0 -0.15309537289E+02 -0.20326355790E+03  0.28151568156E+03  0.34756515198E+03  0.00000000000E+00 0. -1.
          3    1    5    5  503    0  0.16481994015E+02  0.11063137716E+03  0.58849031239E+02  0.12638894816E+03  0.00000000000E+00 0. -1.
         -4    1    5    5    0  503  0.17913015154E+03  0.32239053341E+03  0.26493438061E+03  0.45410735873E+03  0.00000000000E+00 0.  1.
         -1    1    6    6    0  502 -0.89708243316E+02 -0.17073579215E+03  0.26460829299E+03  0.32743828176E+03  0.00000000000E+00 0.  1.
<mgrwt>
<rscale>  0 0.12907067E+04</rscale>
<asrwt>0</asrwt>
<pdfrwt beam="1">  1        1 0.16880227E+00 0.12907067E+04</pdfrwt>
<pdfrwt beam="2">  1       -1 0.58396944E-01 0.12907067E+04</pdfrwt>
<totfact> 0.37218493E+01</totfact>
</mgrwt>
</event>
<event>
12    1  0.2404959E-007  0.1272461E+04  0.7818608E-02  0.9051693E-01
          2   -1    0    0  501    0  0.00000000000E+00  0.00000000000E+00  0.16215667310E+04  0.16215667310E+04  0.00000000000E+00 0.  1.
         -2   -1    0    0    0  501 -0.00000000000E+00 -0.00000000000E+00 -0.24962860837E+03  0.24962860837E+03  0.00000000000E+00 0. -1.
         23    2    1    2    0    0  0.15960690693E+03 -0.24103128886E+03  0.50241260702E+03  0.58682058110E+03  0.91485079439E+02 0.  0.
        254    2    1    2    0    0 -0.15960690693E+03  0.24103128886E+03  0.86952551566E+03  0.12843747583E+04  0.89998525014E+03 0.  0.
        -24    2    4    4    0    0  0.32426866296E+03 -0.40279173286E+02  0.51781799454E+03  0.61774779063E+03  0.81879666470E+02 0.  0.
         24    2    4    4    0    0 -0.48387556989E+03  0.28131046215E+03  0.35170752112E+03  0.66662696769E+03  0.86152135193E+02 0.  0.
         13    1    3    3    0    0  0.73074579361E+02 -0.16744092505E+03  0.24640979723E+03  0.30674769062E+03  0.00000000000E+00 0. -1.
        -13    1    3    3    0    0  0.86532327569E+02 -0.73590363809E+02  0.25600280979E+03  0.28007289048E+03  0.00000000000E+00 0.  1.
          2    1    6    6  502    0 -0.56445324762E+02  0.44930113881E+01  0.27560796797E+02  0.62975069344E+02  0.00000000000E+00 0. -1.
          1    1    5    5  503    0  0.28937236851E+03 -0.12190021609E+02  0.47119740538E+03  0.55309308359E+03  0.00000000000E+00 0. -1.
         -2    1    5    5    0  503  0.34896294448E+02 -0.28089151677E+02  0.46620589161E+02  0.64654707036E+02  0.00000000000E+00 0.  1.
         -1    1    6    6    0  502 -0.42743024512E+03  0.27681745076E+03  0.32414672432E+03  0.60365189835E+03  0.00000000000E+00 0.  1.
<mgrwt>
<rscale>  0 0.12724613E+04</rscale>
<asrwt>0</asrwt>
<pdfrwt beam="1">  1        2 0.24947180E+00 0.12724613E+04</pdfrwt>
<pdfrwt beam="2">  1       -2 0.38404402E-01 0.12724613E+04</pdfrwt>
<totfact> 0.68186273E+01</totfact>
</mgrwt>
</event>
<event>
12    1  0.2404959E-007  0.1702522E+04  0.7818608E-02  0.8759927E-01
          1   -1    0    0  501    0  0.00000000000E+00  0.00000000000E+00  0.26758916317E+04  0.26758916317E+04  0.00000000000E+00 0. -1.
         -1   -1    0    0    0  501 -0.00000000000E+00 -0.00000000000E+00 -0.27080520454E+03  0.27080520454E+03  0.00000000000E+00 0.  1.
         23    2    1    2    0    0  0.29197157160E+03  0.48373515723E+03  0.12762833440E+04  0.13987387281E+04  0.91234611317E+02 0.  0.
        254    2    1    2    0    0 -0.29197157160E+03 -0.48373515723E+03  0.11288030832E+04  0.15479581082E+04  0.89595245582E+03 0.  0.
        -24    2    4    4    0    0  0.26506988490E+02 -0.43688478690E+03  0.11318948919E+04  0.12165125691E+04  0.84533111544E+02 0.  0.
         24    2    4    4    0    0 -0.31847856009E+03 -0.46850370327E+02 -0.30918087605E+01  0.33144553906E+03  0.78886219596E+02 0.  0.
         11    1    3    3    0    0  0.16209249345E+03  0.23688931893E+03  0.75113577039E+03  0.80411160383E+03  0.00000000000E+00 0. -1.
        -11    1    3    3    0    0  0.12987907815E+03  0.24684583829E+03  0.52514757359E+03  0.59462712423E+03  0.00000000000E+00 0.  1.
          4    1    6    6  502    0 -0.26614385644E+03 -0.38569898209E+02  0.27393666753E+02  0.27031574565E+03  0.00000000000E+00 0. -1.
          1    1    5    5  503    0  0.58327876945E+01 -0.39315268864E+03  0.10524355718E+04  0.11234872900E+04  0.00000000000E+00 0. -1.
         -2    1    5    5    0  503  0.20674200795E+02 -0.43732098265E+02  0.79459320107E+02  0.93025279087E+02  0.00000000000E+00 0.  1.
         -3    1    6    6    0  502 -0.52334703656E+02 -0.82804721172E+01 -0.30485475513E+02  0.61129793411E+02  0.00000000000E+00 0.  1.
<mgrwt>
<rscale>  0 0.17025221E+04</rscale>
<asrwt>0</asrwt>
<pdfrwt beam="1">  1        1 0.41167562E+00 0.17025221E+04</pdfrwt>
<pdfrwt beam="2">  1       -1 0.41662341E-01 0.17025221E+04</pdfrwt>
<totfact> 0.54997088E+00</totfact>
</mgrwt>
</event>
<event>
12    1  0.2404959E-007  0.2572750E+04  0.7818608E-02  0.8377517E-01
         -1   -1    0    0    0  501 -0.00000000000E+00  0.00000000000E+00  0.72856422326E+03  0.72856422326E+03  0.00000000000E+00 0.  1.
          1   -1    0    0  501    0  0.00000000000E+00 -0.00000000000E+00 -0.22712630517E+04  0.22712630517E+04  0.00000000000E+00 0. -1.
         23    2    1    2    0    0  0.46770501173E+03 -0.32028130154E+03  0.45809696893E+03  0.73470851253E+03  0.92820662149E+02 0.  0.
        254    2    1    2    0    0 -0.46770501173E+03  0.32028130154E+03 -0.20007957974E+04  0.22651187625E+04  0.89791485956E+03 0.  0.
        -24    2    4    4    0    0 -0.59260849172E+03  0.18200039502E+03 -0.19625753467E+04  0.20597316787E+04  0.80520983843E+02 0.  0.
         24    2    4    4    0    0  0.12490347999E+03  0.13828090652E+03 -0.38220450755E+02  0.20538708373E+03  0.77463300241E+02 0.  0.
         13    1    3    3    0    0  0.19643967924E+03 -0.11285406431E+03  0.23719941396E+03  0.32800632523E+03  0.00000000000E+00 0.  1.
        -13    1    3    3    0    0  0.27126533250E+03 -0.20742723723E+03  0.22089755498E+03  0.40670218730E+03  0.00000000000E+00 0. -1.
          4    1    6    6  502    0  0.27263840476E+02  0.17274340068E+02 -0.38056905930E+02  0.49900379871E+02  0.00000000000E+00 0. -1.
          3    1    5    5  503    0 -0.42452689038E+03  0.95617036820E+02 -0.13137973076E+04  0.13839902687E+04  0.00000000000E+00 0. -1.
         -4    1    5    5    0  503 -0.16808160135E+03  0.86383358198E+02 -0.64877803905E+03  0.67574141004E+03  0.00000000000E+00 0.  1.
         -3    1    6    6    0  502  0.97639639515E+02  0.12100656645E+03 -0.16354482434E+00  0.15548670386E+03  0.00000000000E+00 0.  1.
<mgrwt>
<rscale>  0 0.25727503E+04</rscale>
<asrwt>0</asrwt>
<pdfrwt beam="1">  1        1 0.34942509E+00 0.25727503E+04</pdfrwt>
<pdfrwt beam="2">  1       -1 0.11208680E+00 0.25727503E+04</pdfrwt>
<totfact> 0.12544325E+00</totfact>
</mgrwt>
</event>
<event>
12    1  0.2404959E-007  0.1694691E+04  0.7818608E-02  0.8764398E-01
         -2   -1    0    0    0  501 -0.00000000000E+00  0.00000000000E+00  0.62339698512E+03  0.62339698512E+03  0.00000000000E+00 0.  1.
          2   -1    0    0  501    0  0.00000000000E+00 -0.00000000000E+00 -0.11517450421E+04  0.11517450421E+04  0.00000000000E+00 0. -1.
         23    2    1    2    0    0  0.42597228648E+03 -0.42143766187E+03 -0.11181275137E+03  0.61642654206E+03  0.91746927473E+02 0.  0.
        254    2    1    2    0    0 -0.42597228648E+03  0.42143766187E+03 -0.41653530558E+03  0.11587154851E+04  0.90003212332E+03 0.  0.
        -24    2    4    4    0    0  0.73561786174E+02 -0.94092866857E+02 -0.41252943606E+03  0.43673957425E+03  0.79348069409E+02 0.  0.
         24    2    4    4    0    0 -0.49953407265E+03  0.51553052873E+03 -0.40058695165E+01  0.72197591088E+03  0.76988006302E+02 0.  0.
         13    1    3    3    0    0  0.16497039834E+03 -0.22335500048E+03 -0.34845040170E+02  0.27985150597E+03  0.00000000000E+00 0.  1.
        -13    1    3    3    0    0  0.26100188814E+03 -0.19808266139E+03 -0.76967711202E+02  0.33657503609E+03  0.00000000000E+00 0. -1.
          4    1    6    6  502    0 -0.46302211080E+03  0.50140868404E+03 -0.86750020978E+01  0.68255065686E+03  0.00000000000E+00 0. -1.
          1    1    5    5  503    0  0.16872468229E+02 -0.69185749201E+02 -0.13773978641E+03  0.15505997819E+03  0.00000000000E+00 0. -1.
         -2    1    5    5    0  503  0.56689317946E+02 -0.24907117656E+02 -0.27478964965E+03  0.28167959605E+03  0.00000000000E+00 0.  1.
         -3    1    6    6    0  502 -0.36511961849E+02  0.14121844687E+02  0.46691325813E+01  0.39425254020E+02  0.00000000000E+00 0.  1.
<mgrwt>
<rscale>  0 0.16946910E+04</rscale>
<asrwt>0</asrwt>
<pdfrwt beam="1">  1        2 0.17719154E+00 0.16946910E+04</pdfrwt>
<pdfrwt beam="2">  1       -2 0.95907229E-01 0.16946910E+04</pdfrwt>
<totfact> 0.17576416E+01</totfact>
</mgrwt>
</event>
<event>
12    1  0.2576986E-007  0.2955956E+04  0.7818608E-02  0.8256421E-01
         -1   -1    0    0    0  501 -0.00000000000E+00  0.00000000000E+00  0.23471219592E+04  0.23471219592E+04  0.00000000000E+00 0.  1.
          1   -1    0    0  501    0  0.00000000000E+00 -0.00000000000E+00 -0.93067953847E+03  0.93067953847E+03  0.00000000000E+00 0. -1.
         23    2    1    2    0    0  0.11485633968E+04 -0.44633474375E+03  0.60635349861E+02  0.12371134966E+04  0.91436196248E+02 0.  0.
        254    2    1    2    0    0 -0.11485633968E+04  0.44633474375E+03  0.13558070709E+04  0.20406880011E+04  0.89876700224E+03 0.  0.
        -24    2    4    4    0    0 -0.97075709495E+01  0.12477274396E+03  0.63729160646E+03  0.65397751532E+03  0.76704134943E+02 0.  0.
         24    2    4    4    0    0 -0.11388558258E+04  0.32156199980E+03  0.71851546444E+03  0.13867104858E+04  0.79415281305E+02 0.  0.
         11    1    3    3    0    0  0.76777621369E+03 -0.26001375705E+03  0.15126365989E+02  0.81075043948E+03  0.00000000000E+00 0. -1.
        -11    1    3    3    0    0  0.38078718310E+03 -0.18632098670E+03  0.45508983872E+02  0.42636305716E+03  0.00000000000E+00 0.  1.
          4    1    6    6  502    0 -0.47151285100E+03  0.17278937826E+03  0.29360949514E+03  0.58171047226E+03  0.00000000000E+00 0. -1.
          1    1    5    5  503    0  0.33815055708E+01  0.27874364492E+01  0.19323120527E+03  0.19328089164E+03  0.00000000000E+00 0. -1.
         -2    1    5    5    0  503 -0.13089076520E+02  0.12198530751E+03  0.44406040118E+03  0.46069662368E+03  0.00000000000E+00 0.  1.
         -3    1    6    6    0  502 -0.66734297483E+03  0.14877262154E+03  0.42490596931E+03  0.80500001350E+03  0.00000000000E+00 0.  1.
<mgrwt>
<rscale>  0 0.29559556E+04</rscale>
<asrwt>0</asrwt>
<pdfrwt beam="1">  1        1 0.14318147E+00 0.29559556E+04</pdfrwt>
<pdfrwt beam="2">  1       -1 0.36109568E+00 0.29559556E+04</pdfrwt>
<totfact> 0.19230409E-01</totfact>
</mgrwt>
</event>
<event>
12    1  0.2404959E-007  0.3259296E+04  0.7818608E-02  0.8173330E-01
          1   -1    0    0  501    0  0.00000000000E+00  0.00000000000E+00  0.48295561995E+04  0.48295561995E+04  0.00000000000E+00 0. -1.
         -1   -1    0    0    0  501 -0.00000000000E+00 -0.00000000000E+00 -0.54989571118E+03  0.54989571118E+03  0.00000000000E+00 0.  1.
         23    2    1    2    0    0  0.14971364107E+04  0.25210895683E+02  0.22013158707E+04  0.26641741448E+04  0.99896394411E+02 0.  0.
        254    2    1    2    0    0 -0.14971364107E+04 -0.25210895683E+02  0.20783446176E+04  0.27152777659E+04  0.90064642063E+03 0.  0.
        -24    2    4    4    0    0 -0.10872764957E+04  0.71521868825E+02  0.20017372578E+04  0.22805468509E+04  0.81586361521E+02 0.  0.
         24    2    4    4    0    0 -0.40985991502E+03 -0.96732764508E+02  0.76607359861E+02  0.43473091499E+03  0.76025674562E+02 0.  0.
         11    1    3    3    0    0  0.11571361442E+04  0.41479268669E+02  0.17625427781E+04  0.21088484134E+04  0.00000000000E+00 0. -1.
        -11    1    3    3    0    0  0.34000026646E+03 -0.16268372986E+02  0.43877309262E+03  0.55532573140E+03  0.00000000000E+00 0.  1.
          2    1    6    6  502    0 -0.39756110322E+03 -0.10705875382E+03  0.71549706275E+02  0.41789444604E+03  0.00000000000E+00 0. -1.
          3    1    5    5  503    0 -0.90086822141E+03  0.60032338099E+02  0.17192622550E+04  0.19419140391E+04  0.00000000000E+00 0. -1.
         -2    1    5    5    0  503 -0.18640827425E+03  0.11489530726E+02  0.28247500280E+03  0.33863281181E+03  0.00000000000E+00 0.  1.
         -1    1    6    6    0  502 -0.12298811797E+02  0.10325989308E+02  0.50576535860E+01  0.16836468947E+02  0.00000000000E+00 0.  1.
<mgrwt>
<rscale>  0 0.32592958E+04</rscale>
<asrwt>0</asrwt>
<pdfrwt beam="1">  1        1 0.74300862E+00 0.32592958E+04</pdfrwt>
<pdfrwt beam="2">  1       -1 0.84599343E-01 0.32592958E+04</pdfrwt>
<totfact> 0.16068320E-02</totfact>
</mgrwt>
</event>
<event>
12    1  0.2404959E-007  0.2691563E+04  0.7818608E-02  0.8337748E-01
          2   -1    0    0  501    0  0.00000000000E+00  0.00000000000E+00  0.29805416926E+04  0.29805416926E+04  0.00000000000E+00 0. -1.
         -2   -1    0    0    0  501 -0.00000000000E+00 -0.00000000000E+00 -0.60765062130E+03  0.60765062130E+03  0.00000000000E+00 0.  1.
         23    2    1    2    0    0  0.51606941233E+01 -0.80265725942E+03  0.22314137492E+04  0.23731192070E+04  0.90565678288E+02 0.  0.
        254    2    1    2    0    0 -0.51606941233E+01  0.80265725942E+03  0.14147732219E+03  0.12150731069E+04  0.90116675124E+03 0.  0.
        -24    2    4    4    0    0 -0.29574808236E+02  0.90838589426E+02 -0.33282082968E+03  0.35569543483E+03  0.81383162112E+02 0.  0.
         24    2    4    4    0    0  0.24414114112E+02  0.71181866999E+03  0.47429815187E+03  0.85937767207E+03  0.79305601725E+02 0.  0.
         11    1    3    3    0    0  0.32877444591E+02 -0.71332489245E+03  0.19579550287E+04  0.20841068166E+04  0.00000000000E+00 0.  1.
        -11    1    3    3    0    0 -0.27716750468E+02 -0.89332366964E+02  0.27345872046E+03  0.28901239046E+03  0.00000000000E+00 0. -1.
          4    1    6    6  502    0  0.13517377381E+02  0.26540234919E+02  0.94721592226E+01  0.31254205496E+02  0.00000000000E+00 0. -1.
          3    1    5    5  503    0  0.15357997253E+02  0.24716308621E+02 -0.27342986909E+02  0.39929975264E+02  0.00000000000E+00 0. -1.
         -4    1    5    5    0  503 -0.44932805489E+02  0.66122280806E+02 -0.30547784277E+03  0.31576545956E+03  0.00000000000E+00 0.  1.
         -3    1    6    6    0  502  0.10896736731E+02  0.68527843507E+03  0.46482599265E+03  0.82812346657E+03  0.00000000000E+00 0.  1.
<mgrwt>
<rscale>  0 0.26915631E+04</rscale>
<asrwt>0</asrwt>
<pdfrwt beam="1">  1        2 0.45854487E+00 0.26915631E+04</pdfrwt>
<pdfrwt beam="2">  1       -2 0.93484712E-01 0.26915631E+04</pdfrwt>
<totfact> 0.15207868E+00</totfact>
</mgrwt>
</event>
<event>
12    1  0.2404959E-007  0.2650853E+04  0.7818608E-02  0.8351130E-01
          2   -1    0    0  501    0  0.00000000000E+00  0.00000000000E+00  0.25097603868E+04  0.25097603868E+04  0.00000000000E+00 0. -1.
         -2   -1    0    0    0  501 -0.00000000000E+00 -0.00000000000E+00 -0.69996939348E+03  0.69996939348E+03  0.00000000000E+00 0.  1.
         23    2    1    2    0    0 -0.16482972353E+03 -0.71930203127E+03  0.19014532800E+04  0.20415901091E+04  0.89450253764E+02 0.  0.
        254    2    1    2    0    0  0.16482972353E+03  0.71930203127E+03 -0.91662286627E+02  0.11681396712E+04  0.90087960717E+03 0.  0.
        -24    2    4    4    0    0 -0.92615272586E+02  0.45710029966E+03  0.35023903300E+03  0.58872140983E+03  0.80045271544E+02 0.  0.
         24    2    4    4    0    0  0.25744499611E+03  0.26220173161E+03 -0.44190131963E+03  0.57941826133E+03  0.73627923994E+02 0.  0.
         11    1    3    3    0    0 -0.45068978932E+02 -0.39186126149E+03  0.98293537921E+03  0.10591262535E+04  0.00000000000E+00 0.  1.
        -11    1    3    3    0    0 -0.11976074459E+03 -0.32744076979E+03  0.91851790076E+03  0.98246385566E+03  0.00000000000E+00 0. -1.
          2    1    6    6  502    0 -0.44734780702E+01  0.12435472580E+01 -0.29412186589E+01  0.54962881136E+01  0.00000000000E+00 0. -1.
          1    1    5    5  503    0 -0.72086142408E+01  0.75794701564E+01  0.25708459244E+02  0.27754952060E+02  0.00000000000E+00 0. -1.
         -2    1    5    5    0  503 -0.85406658345E+02  0.44952082950E+03  0.32453057376E+03  0.56096645777E+03  0.00000000000E+00 0.  1.
         -1    1    6    6    0  502  0.26191847418E+03  0.26095818436E+03 -0.43896010097E+03  0.57392197322E+03  0.00000000000E+00 0.  1.
<mgrwt>
<rscale>  0 0.26508530E+04</rscale>
<asrwt>0</asrwt>
<pdfrwt beam="1">  1        2 0.38611698E+00 0.26508530E+04</pdfrwt>
<pdfrwt beam="2">  1       -2 0.10768760E+00 0.26508530E+04</pdfrwt>
<totfact> 0.20929187E+00</totfact>
</mgrwt>
</event>
<event>
12    1  0.2404959E-007  0.1971399E+04  0.7818608E-02  0.8620110E-01
          2   -1    0    0  501    0  0.00000000000E+00  0.00000000000E+00  0.24457611434E+04  0.24457611434E+04  0.00000000000E+00 0. -1.
         -2   -1    0    0    0  501 -0.00000000000E+00 -0.00000000000E+00 -0.39726037332E+03  0.39726037332E+03  0.00000000000E+00 0.  1.
         23    2    1    2    0    0 -0.38124849697E+03  0.48053850592E+03  0.15015469417E+04  0.16245617321E+04  0.91049059528E+02 0.  0.
        254    2    1    2    0    0  0.38124849697E+03 -0.48053850592E+03  0.54695382832E+03  0.12184597845E+04  0.89956549740E+03 0.  0.
        -24    2    4    4    0    0  0.23059745982E+00  0.21954572360E+03  0.29842922419E+03  0.37940935242E+03  0.81799003231E+02 0.  0.
         24    2    4    4    0    0  0.38101789951E+03 -0.70008422952E+03  0.24852460414E+03  0.83905043211E+03  0.83358146623E+02 0.  0.
         13    1    3    3    0    0 -0.17325615798E+03  0.28246447431E+03  0.86120113436E+03  0.92275200859E+03  0.00000000000E+00 0. -1.
        -13    1    3    3    0    0 -0.20799233899E+03  0.19807403160E+03  0.64034580736E+03  0.70180972356E+03  0.00000000000E+00 0.  1.
          4    1    6    6  502    0  0.17667752780E+03 -0.24570019558E+03  0.10909612757E+03  0.32169162251E+03  0.00000000000E+00 0. -1.
          3    1    5    5  503    0 -0.49260013593E+01  0.22590048125E+03  0.28530456464E+03  0.36394228598E+03  0.00000000000E+00 0. -1.
         -4    1    5    5    0  503  0.51565988192E+01 -0.63547576487E+01  0.13124659552E+02  0.15467066448E+02  0.00000000000E+00 0.  1.
         -3    1    6    6    0  502  0.20434037170E+03 -0.45438403393E+03  0.13942847657E+03  0.51735880961E+03  0.00000000000E+00 0.  1.
<mgrwt>
<rscale>  0 0.19713995E+04</rscale>
<asrwt>0</asrwt>
<pdfrwt beam="1">  1        2 0.37627093E+00 0.19713995E+04</pdfrwt>
<pdfrwt beam="2">  1       -2 0.61116982E-01 0.19713995E+04</pdfrwt>
<totfact> 0.86824051E+00</totfact>
</mgrwt>
</event>
<event>
12    1  0.2404959E-007  0.1712661E+04  0.7818608E-02  0.8754176E-01
         -2   -1    0    0    0  501 -0.00000000000E+00  0.00000000000E+00  0.22886867912E+03  0.22886867912E+03  0.00000000000E+00 0.  1.
          2   -1    0    0  501    0  0.00000000000E+00 -0.00000000000E+00 -0.32040280227E+04  0.32040280227E+04  0.00000000000E+00 0. -1.
         23    2    1    2    0    0 -0.20090410839E+03 -0.55755052134E+03 -0.74132111576E+03  0.95358443267E+03  0.92418769447E+02 0.  0.
        254    2    1    2    0    0  0.20090410839E+03  0.55755052134E+03 -0.22338382278E+04  0.24793122691E+04  0.89762523097E+03 0.  0.
        -24    2    4    4    0    0  0.14439538858E+03  0.78175100536E+03 -0.19295026098E+04  0.20884274645E+04  0.81020310307E+02 0.  0.
         24    2    4    4    0    0  0.56508719810E+02 -0.22420048402E+03 -0.30433561799E+03  0.39088480461E+03  0.81924780402E+02 0.  0.
         13    1    3    3    0    0 -0.15102557847E+03 -0.29272903950E+03 -0.38114184963E+03  0.50375403269E+03  0.00000000000E+00 0.  1.
        -13    1    3    3    0    0 -0.49878529920E+02 -0.26482148184E+03 -0.36017926614E+03  0.44983039998E+03  0.00000000000E+00 0. -1.
          4    1    6    6  502    0  0.38177671448E+02 -0.15215851255E+03 -0.13896163807E+03  0.20957119171E+03  0.00000000000E+00 0. -1.
          1    1    5    5  503    0  0.10911601667E+03  0.52908708185E+03 -0.14018126742E+04  0.15023043030E+04  0.00000000000E+00 0. -1.
         -2    1    5    5    0  503  0.35279371907E+02  0.25266392351E+03 -0.52768993564E+03  0.58612316155E+03  0.00000000000E+00 0.  1.
         -3    1    6    6    0  502  0.18331048362E+02 -0.72041971475E+02 -0.16537397992E+03  0.18131361290E+03  0.00000000000E+00 0.  1.
<mgrwt>
<rscale>  0 0.17126607E+04</rscale>
<asrwt>0</asrwt>
<pdfrwt beam="1">  1        2 0.49292734E+00 0.17126607E+04</pdfrwt>
<pdfrwt beam="2">  1       -2 0.35210570E-01 0.17126607E+04</pdfrwt>
<totfact> 0.93399420E+00</totfact>
</mgrwt>
</event>
<event>
12    1  0.2404959E-007  0.1193034E+04  0.7818608E-02  0.9118976E-01
          1   -1    0    0  501    0  0.00000000000E+00  0.00000000000E+00  0.91676920222E+03  0.91676920222E+03  0.00000000000E+00 0. -1.
         -1   -1    0    0    0  501 -0.00000000000E+00 -0.00000000000E+00 -0.38813748132E+03  0.38813748132E+03  0.00000000000E+00 0.  1.
         23    2    1    2    0    0  0.68551530746E+02 -0.23141386008E+03  0.15866715215E+03  0.30190883020E+03  0.87874851806E+02 0.  0.
        254    2    1    2    0    0 -0.68551530746E+02  0.23141386008E+03  0.36996456876E+03  0.10029978533E+04  0.90048832566E+03 0.  0.
        -24    2    4    4    0    0  0.28869607199E+03 -0.13037831700E+03 -0.61252801889E+02  0.33248737193E+03  0.80324462213E+02 0.  0.
         24    2    4    4    0    0 -0.35724760274E+03  0.36179217708E+03  0.43121737065E+03  0.67051048140E+03  0.71529405583E+02 0.  0.
         11    1    3    3    0    0  0.31729072976E+02 -0.94185189298E+02  0.16193489694E+02  0.10069663879E+03  0.00000000000E+00 0.  1.
        -11    1    3    3    0    0  0.36822457770E+02 -0.13722867078E+03  0.14247366246E+03  0.20121219142E+03  0.00000000000E+00 0. -1.
          4    1    6    6  502    0 -0.20353458867E+03  0.24270930734E+03  0.29722863996E+03  0.43437196165E+03  0.00000000000E+00 0. -1.
          1    1    5    5  503    0  0.28848570102E+03 -0.11431101066E+03 -0.61831860803E+02  0.31640825821E+03  0.00000000000E+00 0. -1.
         -2    1    5    5    0  503  0.21037097050E+00 -0.16067306343E+02  0.57905891388E+00  0.16079113728E+02  0.00000000000E+00 0.  1.
         -3    1    6    6    0  502 -0.15371301407E+03  0.11908286974E+03  0.13398873069E+03  0.23613851975E+03  0.00000000000E+00 0.  1.
<mgrwt>
<rscale>  0 0.11930339E+04</rscale>
<asrwt>0</asrwt>
<pdfrwt beam="1">  1        1 0.14104142E+00 0.11930339E+04</pdfrwt>
<pdfrwt beam="2">  1       -1 0.59713459E-01 0.11930339E+04</pdfrwt>
<totfact> 0.49641804E+01</totfact>
</mgrwt>
</event>
<event>
12    1  0.2404959E-007  0.1259861E+04  0.7818608E-02  0.9062016E-01
         -1   -1    0    0    0  501 -0.00000000000E+00  0.00000000000E+00  0.21791820405E+03  0.21791820405E+03  0.00000000000E+00 0.  1.
          1   -1    0    0  501    0  0.00000000000E+00 -0.00000000000E+00 -0.18209223918E+04  0.18209223918E+04  0.00000000000E+00 0. -1.
         23    2    1    2    0    0 -0.26137703111E+03 -0.13368152091E+03 -0.43798553083E+03  0.53537846009E+03  0.92790456874E+02 0.  0.
        254    2    1    2    0    0  0.26137703111E+03  0.13368152091E+03 -0.11650186570E+04  0.15034621358E+04  0.90384800783E+03 0.  0.
        -24    2    4    4    0    0 -0.14184744653E+03  0.10012979850E+03  0.67962554265E+02  0.20326323753E+03  0.80934296286E+02 0.  0.
         24    2    4    4    0    0  0.40322447763E+03  0.33551722414E+02 -0.12329812112E+04  0.13001988983E+04  0.80986482625E+02 0.  0.
         13    1    3    3    0    0 -0.63862360269E+02 -0.98490456627E+01 -0.46032894703E+02  0.79337457448E+02  0.00000000000E+00 0.  1.
        -13    1    3    3    0    0 -0.19751467084E+03 -0.12383247525E+03 -0.39195263613E+03  0.45604100265E+03  0.00000000000E+00 0. -1.
          4    1    6    6  502    0  0.23254403860E+03  0.22392439203E+02 -0.83392187629E+03  0.86602762483E+03  0.00000000000E+00 0. -1.
          1    1    5    5  503    0 -0.62598381240E+02  0.58025044586E+02  0.74487485360E+02  0.11328657735E+03  0.00000000000E+00 0. -1.
         -2    1    5    5    0  503 -0.79249065286E+02  0.42104753913E+02 -0.65249310948E+01  0.89976660177E+02  0.00000000000E+00 0.  1.
         -3    1    6    6    0  502  0.17068043904E+03  0.11159283210E+02 -0.39905933493E+03  0.43417127342E+03  0.00000000000E+00 0.  1.
<mgrwt>
<rscale>  0 0.12598605E+04</rscale>
<asrwt>0</asrwt>
<pdfrwt beam="1">  1        1 0.28014190E+00 0.12598605E+04</pdfrwt>
<pdfrwt beam="2">  1       -1 0.33525878E-01 0.12598605E+04</pdfrwt>
<totfact> 0.32584334E+01</totfact>
</mgrwt>
</event>
<event>
12    1  0.3739050E-007  0.2201249E+04  0.7818608E-02  0.8517909E-01
          2   -1    0    0  501    0  0.00000000000E+00  0.00000000000E+00  0.12107563207E+04  0.12107563207E+04  0.00000000000E+00 0. -1.
         -2   -1    0    0    0  501 -0.00000000000E+00 -0.00000000000E+00 -0.10005100382E+04  0.10005100382E+04  0.00000000000E+00 0.  1.
         23    2    1    2    0    0  0.60768694125E+03 -0.67696587779E+03  0.17732027821E+03  0.93132693443E+03  0.91439375939E+02 0.  0.
        254    2    1    2    0    0 -0.60768694125E+03  0.67696587779E+03  0.32926004265E+02  0.12799394244E+04  0.89977474410E+03 0.  0.
        -24    2    4    4    0    0 -0.22259977375E+03 -0.17669198429E+03  0.15147882787E+03  0.33220405254E+03  0.81504482365E+02 0.  0.
         24    2    4    4    0    0 -0.38508716749E+03  0.85365786208E+03 -0.11855282361E+03  0.94773537186E+03  0.84401961053E+02 0.  0.
         11    1    3    3    0    0  0.40461183142E+03 -0.38399709746E+03  0.10858150071E+03  0.56829081224E+03  0.00000000000E+00 0.  1.
        -11    1    3    3    0    0  0.20307510983E+03 -0.29296878033E+03  0.68738777501E+02  0.36303612218E+03  0.00000000000E+00 0. -1.
          2    1    6    6  502    0 -0.25403026464E+03  0.55929033283E+03 -0.11801336764E+03  0.62551115633E+03  0.00000000000E+00 0. -1.
          1    1    5    5  503    0 -0.19138920195E+03 -0.14366354668E+03  0.15731883850E+03  0.28638829971E+03  0.00000000000E+00 0. -1.
         -2    1    5    5    0  503 -0.31210571807E+02 -0.33028437609E+02 -0.58400106231E+01  0.45815752832E+02  0.00000000000E+00 0.  1.
         -1    1    6    6    0  502 -0.13105690286E+03  0.29436752924E+03 -0.53945597225E+00  0.32222421553E+03  0.00000000000E+00 0.  1.
<mgrwt>
<rscale>  0 0.22012486E+04</rscale>
<asrwt>0</asrwt>
<pdfrwt beam="1">  1        2 0.18627020E+00 0.22012486E+04</pdfrwt>
<pdfrwt beam="2">  1       -2 0.15392462E+00 0.22012486E+04</pdfrwt>
<totfact> 0.47709641E+00</totfact>
</mgrwt>
</event>
<event>
12    1  0.2404959E-007  0.1480363E+04  0.7818608E-02  0.8897618E-01
          1   -1    0    0  501    0  0.00000000000E+00  0.00000000000E+00  0.15729953068E+04  0.15729953068E+04  0.00000000000E+00 0. -1.
         -1   -1    0    0    0  501 -0.00000000000E+00 -0.00000000000E+00 -0.34829622510E+03  0.34829622510E+03  0.00000000000E+00 0.  1.
         23    2    1    2    0    0  0.12114044734E+03  0.30565133714E+03  0.78560180349E+03  0.85649901458E+03  0.91228397176E+02 0.  0.
        254    2    1    2    0    0 -0.12114044734E+03 -0.30565133714E+03  0.43909727824E+03  0.10647925173E+04  0.91262201232E+03 0.  0.
        -24    2    4    4    0    0 -0.18599750324E+03 -0.58863545097E+03  0.13608356982E+03  0.63719050889E+03  0.80038998586E+02 0.  0.
         24    2    4    4    0    0  0.64857055900E+02  0.28298411383E+03  0.30301370843E+03  0.42760200846E+03  0.82095820636E+02 0.  0.
         13    1    3    3    0    0  0.10276523106E+03  0.14048832290E+03  0.36975328849E+03  0.40867487803E+03  0.00000000000E+00 0. -1.
        -13    1    3    3    0    0  0.18375216280E+02  0.16516301424E+03  0.41584851499E+03  0.44782413654E+03  0.00000000000E+00 0.  1.
          2    1    6    6  502    0  0.48401152559E+01 -0.50886675294E+01  0.40013798458E+01  0.80828394507E+01  0.00000000000E+00 0. -1.
          1    1    5    5  503    0 -0.12114666466E+02 -0.10722816971E+03  0.46765434150E+02  0.11760804120E+03  0.00000000000E+00 0. -1.
         -2    1    5    5    0  503 -0.17388283677E+03 -0.48140728126E+03  0.89318135666E+02  0.51958246769E+03  0.00000000000E+00 0.  1.
         -1    1    6    6    0  502  0.60016940644E+02  0.28807278136E+03  0.29901232858E+03  0.41951916901E+03  0.00000000000E+00 0.  1.
<mgrwt>
<rscale>  0 0.14803626E+04</rscale>
<asrwt>0</asrwt>
<pdfrwt beam="1">  1        1 0.24199927E+00 0.14803626E+04</pdfrwt>
<pdfrwt beam="2">  1       -1 0.53584036E-01 0.14803626E+04</pdfrwt>
<totfact> 0.19830121E+01</totfact>
</mgrwt>
</event>
<event>
12    1  0.2404959E-007  0.1780782E+04  0.7818608E-02  0.8716587E-01
          2   -1    0    0  501    0  0.00000000000E+00  0.00000000000E+00  0.10782497700E+04  0.10782497700E+04  0.00000000000E+00 0. -1.
         -2   -1    0    0    0  501 -0.00000000000E+00 -0.00000000000E+00 -0.73526210310E+03  0.73526210310E+03  0.00000000000E+00 0.  1.
         23    2    1    2    0    0 -0.55208060593E+03 -0.21632650292E+03 -0.16038484478E+03  0.62101934971E+03  0.91386995576E+02 0.  0.
        254    2    1    2    0    0  0.55208060593E+03  0.21632650292E+03  0.50337251164E+03  0.11924925234E+04  0.90391613630E+03 0.  0.
        -24    2    4    4    0    0  0.77117043564E+03  0.32883429504E+02  0.29415802443E+03  0.82976567624E+03  0.78720857437E+02 0.  0.
         24    2    4    4    0    0 -0.21908982970E+03  0.18344307341E+03  0.20921448721E+03  0.36272684711E+03  0.78411410467E+02 0.  0.
         11    1    3    3    0    0 -0.28995371782E+02 -0.20494585002E+02  0.10316399165E+02  0.36975501226E+02  0.00000000000E+00 0. -1.
        -11    1    3    3    0    0 -0.52308523415E+03 -0.19583191792E+03 -0.17070124395E+03  0.58404384848E+03  0.00000000000E+00 0.  1.
          4    1    6    6  502    0 -0.16048886203E+03  0.15081498755E+03  0.11904416940E+03  0.25034645908E+03  0.00000000000E+00 0. -1.
          3    1    5    5  503    0  0.71116876780E+03  0.51202184871E+02  0.27446590821E+03  0.76401192059E+03  0.00000000000E+00 0. -1.
         -2    1    5    5    0  503  0.60001667839E+02 -0.18318755367E+02  0.19692116216E+02  0.65753755655E+02  0.00000000000E+00 0.  1.
         -3    1    6    6    0  502 -0.58600967672E+02  0.32628085863E+02  0.90170317810E+02  0.11238038803E+03  0.00000000000E+00 0.  1.
<mgrwt>
<rscale>  0 0.17807821E+04</rscale>
<asrwt>0</asrwt>
<pdfrwt beam="1">  1        2 0.16588458E+00 0.17807821E+04</pdfrwt>
<pdfrwt beam="2">  1       -2 0.11311725E+00 0.17807821E+04</pdfrwt>
<totfact> 0.13046397E+01</totfact>
</mgrwt>
</event>
<event>
12    1  0.2404959E-007  0.1457171E+04  0.7818608E-02  0.8913444E-01
         -1   -1    0    0    0  501 -0.00000000000E+00  0.00000000000E+00  0.23088268098E+03  0.23088268098E+03  0.00000000000E+00 0. -1.
          1   -1    0    0  501    0  0.00000000000E+00 -0.00000000000E+00 -0.22991618823E+04  0.22991618823E+04  0.00000000000E+00 0.  1.
         23    2    1    2    0    0 -0.28977475216E+03 -0.28590357455E+03 -0.33715578863E+03  0.53658010728E+03  0.92379244362E+02 0.  0.
        254    2    1    2    0    0  0.28977475216E+03  0.28590357455E+03 -0.17311234127E+04  0.19934644560E+04  0.90077855572E+03 0.  0.
        -24    2    4    4    0    0 -0.98539639142E+02  0.31267574231E+03 -0.16221376450E+03  0.37462572996E+03  0.80962657084E+02 0.  0.
         24    2    4    4    0    0  0.38831439130E+03 -0.26772167753E+02 -0.15689096482E+04  0.16188387261E+04  0.87501550356E+02 0.  0.
         11    1    3    3    0    0 -0.11965593504E+03 -0.16743651915E+03 -0.12945710757E+03  0.24312892348E+03  0.00000000000E+00 0. -1.
        -11    1    3    3    0    0 -0.17011881712E+03 -0.11846705540E+03 -0.20769868107E+03  0.29345118380E+03  0.00000000000E+00 0.  1.
          4    1    6    6  502    0  0.26472445880E+02  0.14163702844E+02 -0.20356499827E+03  0.20576712417E+03  0.00000000000E+00 0. -1.
          3    1    5    5  503    0 -0.50748899730E+02  0.66816112610E+02 -0.64287357177E+02  0.10570103131E+03  0.00000000000E+00 0. -1.
         -4    1    5    5    0  503 -0.47790739413E+02  0.24585962970E+03 -0.97926407327E+02  0.26892469864E+03  0.00000000000E+00 0.  1.
         -3    1    6    6    0  502  0.36184194542E+03 -0.40935870597E+02 -0.13653446499E+04  0.14130716019E+04  0.00000000000E+00 0.  1.
<mgrwt>
<rscale>  0 0.14571708E+04</rscale>
<asrwt>0</asrwt>
<pdfrwt beam="1">  1        1 0.35371723E+00 0.14571708E+04</pdfrwt>
<pdfrwt beam="2">  1       -1 0.35520411E-01 0.14571708E+04</pdfrwt>
<totfact> 0.13695934E+01</totfact>
</mgrwt>
</event>
<event>
12    1  0.2404959E-007  0.1779166E+04  0.7818608E-02  0.8717458E-01
         -2   -1    0    0    0  501 -0.00000000000E+00  0.00000000000E+00  0.15595856173E+04  0.15595856173E+04  0.00000000000E+00 0.  1.
          2   -1    0    0  501    0  0.00000000000E+00 -0.00000000000E+00 -0.50741551908E+03  0.50741551908E+03  0.00000000000E+00 0. -1.
         23    2    1    2    0    0 -0.51124616932E+03 -0.18278847274E+03  0.82975272586E+03  0.99560050581E+03  0.89143197674E+02 0.  0.
        254    2    1    2    0    0  0.51124616932E+03  0.18278847274E+03  0.22241737240E+03  0.10714006306E+04  0.89646280030E+03 0.  0.
        -24    2    4    4    0    0  0.16695691361E+03  0.52239621506E+03  0.16558275417E+03  0.57803965707E+03  0.77069969226E+02 0.  0.
         24    2    4    4    0    0  0.34428925571E+03 -0.33960774232E+03  0.56834618237E+02  0.49336097354E+03  0.79412632170E+02 0.  0.
         13    1    3    3    0    0 -0.66768112600E+02 -0.50556644856E+02  0.16559845513E+03  0.18557155908E+03  0.00000000000E+00 0.  1.
        -13    1    3    3    0    0 -0.44447805672E+03 -0.13223182788E+03  0.66415427073E+03  0.81002894673E+03  0.00000000000E+00 0. -1.
          2    1    6    6  502    0  0.12954379682E+03 -0.94899493762E+02 -0.10388131563E+02  0.16092054713E+03  0.00000000000E+00 0. -1.
          3    1    5    5  503    0  0.15306730389E+01  0.60851812384E+02  0.36736134620E+02  0.71097324965E+02  0.00000000000E+00 0. -1.
         -4    1    5    5    0  503  0.16542624057E+03  0.46154440267E+03  0.12884661955E+03  0.50694233210E+03  0.00000000000E+00 0.  1.
         -1    1    6    6    0  502  0.21474545888E+03 -0.24470824856E+03  0.67222749800E+02  0.33244042641E+03  0.00000000000E+00 0.  1.
<mgrwt>
<rscale>  0 0.17791660E+04</rscale>
<asrwt>0</asrwt>
<pdfrwt beam="1">  1        2 0.78063927E-01 0.17791660E+04</pdfrwt>
<pdfrwt beam="2">  1       -2 0.23993625E+00 0.17791660E+04</pdfrwt>
<totfact> 0.42426439E+00</totfact>
</mgrwt>
</event>
<event>
12    1  0.2404959E-007  0.2493067E+04  0.7818608E-02  0.8405460E-01
         -3   -1    0    0    0  501 -0.00000000000E+00  0.00000000000E+00  0.91593117629E+03  0.91593117629E+03  0.00000000000E+00 0.  1.
          3   -1    0    0  501    0  0.00000000000E+00 -0.00000000000E+00 -0.16964650450E+04  0.16964650450E+04  0.00000000000E+00 0. -1.
         23    2    1    2    0    0 -0.80976188261E+03  0.68017115017E+03 -0.57994826039E+03  0.12094741076E+04  0.90224898053E+02 0.  0.
        254    2    1    2    0    0  0.80976188261E+03 -0.68017115017E+03 -0.20058560837E+03  0.14029221137E+04  0.89978262418E+03 0.  0.
        -24    2    4    4    0    0  0.87070621303E+03 -0.28476241981E+03 -0.32642367094E+03  0.97602379033E+03  0.82771258304E+02 0.  0.
         24    2    4    4    0    0 -0.60944330418E+02 -0.39540873036E+03  0.12583806258E+03  0.42689832337E+03  0.79653531270E+02 0.  0.
         11    1    3    3    0    0 -0.18705965776E+03  0.20738309524E+03 -0.16378389367E+03  0.32376569859E+03  0.00000000000E+00 0.  1.
        -11    1    3    3    0    0 -0.62270222485E+03  0.47278805493E+03 -0.41616436672E+03  0.88570840904E+03  0.00000000000E+00 0. -1.
          2    1    6    6  502    0 -0.58159131059E+02 -0.13633916306E+03  0.57166098929E+02  0.15886728667E+03  0.00000000000E+00 0. -1.
          3    1    5    5  503    0  0.78691639946E+03 -0.28087488502E+03 -0.28823227364E+03  0.88385856581E+03  0.00000000000E+00 0. -1.
         -4    1    5    5    0  503  0.83789813565E+02 -0.38875347846E+01 -0.38191397303E+02  0.92165224526E+02  0.00000000000E+00 0.  1.
         -1    1    6    6    0  502 -0.27851993598E+01 -0.25906956731E+03  0.68671963649E+02  0.26803103670E+03  0.00000000000E+00 0.  1.
<mgrwt>
<rscale>  0 0.24930666E+04</rscale>
<asrwt>0</asrwt>
<pdfrwt beam="1">  1        3 0.26099462E+00 0.24930666E+04</pdfrwt>
<pdfrwt beam="2">  1       -3 0.14091249E+00 0.24930666E+04</pdfrwt>
<totfact> 0.56284552E-02</totfact>
</mgrwt>
</event>
<event>
12    1  0.3639847E-007  0.2881610E+04  0.7818608E-02  0.8278370E-01
         -1   -1    0    0    0  501 -0.00000000000E+00  0.00000000000E+00  0.17063473680E+04  0.17063473680E+04  0.00000000000E+00 0.  1.
          1   -1    0    0  501    0  0.00000000000E+00 -0.00000000000E+00 -0.12165863422E+04  0.12165863422E+04  0.00000000000E+00 0. -1.
         23    2    1    2    0    0 -0.11904146599E+04  0.37836388376E+03  0.58563197639E+03  0.13826234282E+04  0.91850103159E+02 0.  0.
        254    2    1    2    0    0  0.11904146599E+04 -0.37836388376E+03 -0.95870950591E+02  0.15403102820E+04  0.89616864189E+03 0.  0.
        -24    2    4    4    0    0  0.93109276742E+03 -0.44455946910E+03 -0.41612075743E+03  0.11152529868E+04  0.77883738278E+02 0.  0.
         24    2    4    4    0    0  0.25932189247E+03  0.66195585345E+02  0.32024980683E+03  0.42505729522E+03  0.80523698444E+02 0.  0.
         11    1    3    3    0    0 -0.67878397226E+03  0.16989568463E+03  0.31282236622E+03  0.76646595324E+03  0.00000000000E+00 0. -1.
        -11    1    3    3    0    0 -0.51163068763E+03  0.20846819913E+03  0.27280961017E+03  0.61615747498E+03  0.00000000000E+00 0.  1.
          2    1    6    6  502    0  0.24529363664E+03  0.40603744223E+02  0.27072201562E+03  0.36757045850E+03  0.00000000000E+00 0. -1.
          1    1    5    5  503    0  0.61133114778E+03 -0.30975982973E+03 -0.31158353134E+03  0.75283545438E+03  0.00000000000E+00 0. -1.
         -2    1    5    5    0  503  0.31976161964E+03 -0.13479963937E+03 -0.10453722609E+03  0.36241753242E+03  0.00000000000E+00 0.  1.
         -1    1    6    6    0  502  0.14028255828E+02  0.25591841122E+02  0.49527791212E+02  0.57486836719E+02  0.00000000000E+00 0.  1.
<mgrwt>
<rscale>  0 0.28816099E+04</rscale>
<asrwt>0</asrwt>
<pdfrwt beam="1">  1        1 0.18716713E+00 0.28816099E+04</pdfrwt>
<pdfrwt beam="2">  1       -1 0.26251498E+00 0.28816099E+04</pdfrwt>
<totfact> 0.51621420E-01</totfact>
</mgrwt>
</event>
<event>
12    1  0.2404959E-007  0.2047178E+04  0.7818608E-02  0.8584875E-01
         -2   -1    0    0    0  501 -0.00000000000E+00  0.00000000000E+00  0.13732495689E+04  0.13732495689E+04  0.00000000000E+00 0.  1.
          2   -1    0    0  501    0  0.00000000000E+00 -0.00000000000E+00 -0.76296015824E+03  0.76296015824E+03  0.00000000000E+00 0. -1.
         23    2    1    2    0    0  0.59599204298E+03  0.47490355168E+03  0.57060516641E+03  0.95580416879E+03  0.85037958861E+02 0.  0.
        254    2    1    2    0    0 -0.59599204298E+03 -0.47490355168E+03  0.39684244206E+02  0.11804055583E+04  0.90057900496E+03 0.  0.
        -24    2    4    4    0    0  0.19524653429E+03 -0.25804285252E+03  0.11537525525E+03  0.35260351613E+03  0.79438448959E+02 0.  0.
         24    2    4    4    0    0 -0.79123857727E+03 -0.21686069915E+03 -0.75691011043E+02  0.82780204218E+03  0.80249877853E+02 0.  0.
         11    1    3    3    0    0  0.60343764176E+02  0.53381165123E+02  0.30518995303E+02  0.86152932273E+02  0.00000000000E+00 0.  1.
        -11    1    3    3    0    0  0.53564827880E+03  0.42152238655E+03  0.54008617110E+03  0.86965123651E+03  0.00000000000E+00 0. -1.
          4    1    6    6  502    0 -0.44181654930E+03 -0.80494365345E+02 -0.33214380194E+02  0.45031589040E+03  0.00000000000E+00 0. -1.
          3    1    5    5  503    0  0.37078357793E+02 -0.85121554170E+02  0.34784546790E+01  0.92911695970E+02  0.00000000000E+00 0. -1.
         -4    1    5    5    0  503  0.15816817650E+03 -0.17292129835E+03  0.11189680057E+03  0.25969182016E+03  0.00000000000E+00 0.  1.
         -3    1    6    6    0  502 -0.34942202796E+03 -0.13636633381E+03 -0.42476630849E+02  0.37748615179E+03  0.00000000000E+00 0.  1.
<mgrwt>
<rscale>  0 0.20471783E+04</rscale>
<asrwt>0</asrwt>
<pdfrwt beam="1">  1        2 0.11737849E+00 0.20471783E+04</pdfrwt>
<pdfrwt beam="2">  1       -2 0.21126916E+00 0.20471783E+04</pdfrwt>
<totfact> 0.38120500E+00</totfact>
</mgrwt>
</event>
<event>
12    1  0.2404959E-007  0.1298105E+04  0.7818608E-02  0.9031070E-01
          2   -1    0    0  501    0  0.00000000000E+00  0.00000000000E+00  0.11378962188E+04  0.11378962188E+04  0.00000000000E+00 0.  1.
         -2   -1    0    0    0  501 -0.00000000000E+00 -0.00000000000E+00 -0.37021729477E+03  0.37021729477E+03  0.00000000000E+00 0. -1.
         23    2    1    2    0    0  0.53059745608E+02  0.32364695244E+03  0.17566767952E+03  0.38230414965E+03  0.87946817923E+02 0.  0.
        254    2    1    2    0    0 -0.53059745608E+02 -0.32364695244E+03  0.59201124449E+03  0.11258093639E+04  0.89967034174E+03 0.  0.
        -24    2    4    4    0    0  0.23989965841E+03 -0.33406761123E+03 -0.43641442431E+02  0.42138043694E+03  0.80646650040E+02 0.  0.
         24    2    4    4    0    0 -0.29295940402E+03  0.10420658786E+02  0.63565268692E+03  0.70442892696E+03  0.78942841404E+02 0.  0.
         11    1    3    3    0    0  0.15718176847E+02  0.15209698662E+03  0.13048930690E+03  0.20101744610E+03  0.00000000000E+00 0.  1.
        -11    1    3    3    0    0  0.37341568761E+02  0.17154996582E+03  0.45178372620E+02  0.18128670354E+03  0.00000000000E+00 0. -1.
          2    1    6    6  502    0 -0.27513548143E+03  0.22458632049E+02  0.61707974002E+03  0.67601133781E+03  0.00000000000E+00 0. -1.
          3    1    5    5  503    0  0.15772808580E+03 -0.20911422204E+03 -0.66129315276E+02  0.27014809503E+03  0.00000000000E+00 0. -1.
         -4    1    5    5    0  503  0.82171572610E+02 -0.12495338919E+03  0.22487872846E+02  0.15123234191E+03  0.00000000000E+00 0.  1.
         -1    1    6    6    0  502 -0.17823922582E+02 -0.12037973263E+02  0.18572946901E+02  0.28417589150E+02  0.00000000000E+00 0.  1.
<mgrwt>
<rscale>  0 0.12981046E+04</rscale>
<asrwt>0</asrwt>
<pdfrwt beam="1">  1        2 0.17506096E+00 0.12981046E+04</pdfrwt>
<pdfrwt beam="2">  1       -2 0.56956507E-01 0.12981046E+04</pdfrwt>
<totfact> 0.58501284E+01</totfact>
</mgrwt>
</event>
<event>
12    1  0.2404959E-007  0.2358006E+04  0.7818608E-02  0.8455395E-01
          2   -1    0    0  501    0  0.00000000000E+00  0.00000000000E+00  0.20097677333E+04  0.20097677333E+04  0.00000000000E+00 0. -1.
         -2   -1    0    0    0  501 -0.00000000000E+00 -0.00000000000E+00 -0.69164617333E+03  0.69164617333E+03  0.00000000000E+00 0.  1.
         23    2    1    2    0    0  0.98902833633E+02 -0.67868615205E+03  0.14053356270E+04  0.15664046978E+04  0.90877880753E+02 0.  0.
        254    2    1    2    0    0 -0.98902833633E+02  0.67868615205E+03 -0.87214067076E+02  0.11350092088E+04  0.90013496049E+03 0.  0.
        -24    2    4    4    0    0  0.26597144545E+03  0.70460345147E+03 -0.71710901726E+02  0.76065634636E+03  0.79049289822E+02 0.  0.
         24    2    4    4    0    0 -0.36487427908E+03 -0.25917299416E+02 -0.15503165350E+02  0.37435286244E+03  0.78069017786E+02 0.  0.
         13    1    3    3    0    0  0.97047633970E+02 -0.38258012648E+03  0.84514113655E+03  0.93276435241E+03  0.00000000000E+00 0.  1.
        -13    1    3    3    0    0  0.18551996630E+01 -0.29610602557E+03  0.56019449049E+03  0.63364034541E+03  0.00000000000E+00 0. -1.
          2    1    6    6  502    0 -0.18732825897E+03  0.20648164985E+02 -0.27268419168E+02  0.19042528721E+03  0.00000000000E+00 0. -1.
          3    1    5    5  503    0  0.62042289341E+02  0.10233246598E+03 -0.30312575241E+02  0.12345052239E+03  0.00000000000E+00 0. -1.
         -4    1    5    5    0  503  0.20392915611E+03  0.60227098549E+03 -0.41398326484E+02  0.63720582397E+03  0.00000000000E+00 0.  1.
         -1    1    6    6    0  502 -0.17754602012E+03 -0.46565464401E+02  0.11765253818E+02  0.18392757523E+03  0.00000000000E+00 0.  1.
<mgrwt>
<rscale>  0 0.23580061E+04</rscale>
<asrwt>0</asrwt>
<pdfrwt beam="1">  1        2 0.30919503E+00 0.23580061E+04</pdfrwt>
<pdfrwt beam="2">  1       -2 0.10640710E+00 0.23580061E+04</pdfrwt>
<totfact> 0.42382622E+00</totfact>
</mgrwt>
</event>
<event>
12    1  0.2404959E-007  0.2875637E+04  0.7818608E-02  0.8280163E-01
         -2   -1    0    0    0  501 -0.00000000000E+00  0.00000000000E+00  0.91895108232E+03  0.91895108232E+03  0.00000000000E+00 0.  1.
          2   -1    0    0  501    0  0.00000000000E+00 -0.00000000000E+00 -0.22496545762E+04  0.22496545762E+04  0.00000000000E+00 0. -1.
         23    2    1    2    0    0 -0.10075196970E+04 -0.29891526973E+03  0.23332072932E+03  0.10804397012E+04  0.92006015213E+02 0.  0.
        254    2    1    2    0    0  0.10075196970E+04  0.29891526973E+03 -0.15640242232E+04  0.20881659573E+04  0.89989944773E+03 0.  0.
        -24    2    4    4    0    0  0.47842178429E+02 -0.24557660076E+03 -0.43419701489E+03  0.50695725941E+03  0.76693378122E+02 0.  0.
         24    2    4    4    0    0  0.95967751862E+03  0.54449187049E+03 -0.11298272083E+04  0.15812086978E+04  0.79114403524E+02 0.  0.
         13    1    3    3    0    0 -0.26565899888E+03 -0.52708768358E+02  0.28044945902E+02  0.27228557974E+03  0.00000000000E+00 0. -1.
        -13    1    3    3    0    0 -0.74186069817E+03 -0.24620650137E+03  0.20527578341E+03  0.80815412148E+03  0.00000000000E+00 0.  1.
          4    1    6    6  502    0  0.65975615368E+03  0.41270392273E+03 -0.81463128749E+03  0.11265996825E+04  0.00000000000E+00 0. -1.
          3    1    5    5  503    0  0.55305367352E+02 -0.24166729943E+03 -0.43226741592E+03  0.49831404369E+03  0.00000000000E+00 0. -1.
         -4    1    5    5    0  503 -0.74631889230E+01 -0.39093013344E+01 -0.19295989733E+01  0.86432157222E+01  0.00000000000E+00 0.  1.
         -1    1    6    6    0  502  0.29992136494E+03  0.13178794777E+03 -0.31519592077E+03  0.45460901530E+03  0.00000000000E+00 0.  1.
<mgrwt>
<rscale>  0 0.28756373E+04</rscale>
<asrwt>0</asrwt>
<pdfrwt beam="1">  1        2 0.34610071E+00 0.28756373E+04</pdfrwt>
<pdfrwt beam="2">  1       -2 0.14137709E+00 0.28756373E+04</pdfrwt>
<totfact> 0.14657468E+00</totfact>
</mgrwt>
</event>
<event>
12    1  0.2404959E-007  0.2729391E+04  0.7818608E-02  0.8325531E-01
         -2   -1    0    0    0  501 -0.00000000000E+00  0.00000000000E+00  0.14821342949E+04  0.14821342949E+04  0.00000000000E+00 0. -1.
          2   -1    0    0  501    0  0.00000000000E+00 -0.00000000000E+00 -0.12565625112E+04  0.12565625112E+04  0.00000000000E+00 0.  1.
         23    2    1    2    0    0  0.11458978855E+04  0.33174323926E+03  0.32661058848E+03  0.12400402089E+04  0.88823996874E+02 0.  0.
        254    2    1    2    0    0 -0.11458978855E+04 -0.33174323926E+03 -0.10103880483E+03  0.14986565972E+04  0.90145838257E+03 0.  0.
        -24    2    4    4    0    0 -0.11335297666E+04 -0.15489073513E+03 -0.33505142675E+03  0.11947017069E+04  0.78561047972E+02 0.  0.
         24    2    4    4    0    0 -0.12368118861E+02 -0.17685250412E+03  0.23401262192E+03  0.30395489030E+03  0.78720324830E+02 0.  0.
         11    1    3    3    0    0  0.18593947303E+03  0.78900350706E+02  0.31678822037E+02  0.20445610957E+03  0.00000000000E+00 0.  1.
        -11    1    3    3    0    0  0.95995841244E+03  0.25284288855E+03  0.29493176644E+03  0.10355840993E+04  0.00000000000E+00 0. -1.
          4    1    6    6  502    0  0.31007680098E+02 -0.10739825693E+03  0.14342805292E+03  0.18184462649E+03  0.00000000000E+00 0. -1.
          1    1    5    5  503    0 -0.87398790901E+03 -0.98993983044E+02 -0.22973836597E+03  0.90908436933E+03  0.00000000000E+00 0. -1.
         -2    1    5    5    0  503 -0.25954185761E+03 -0.55896752091E+02 -0.10531306078E+03  0.28561733756E+03  0.00000000000E+00 0.  1.
         -3    1    6    6    0  502 -0.43375798960E+02 -0.69454247191E+02  0.90584568997E+02  0.12211026381E+03  0.00000000000E+00 0.  1.
<mgrwt>
<rscale>  0 0.27293914E+04</rscale>
<asrwt>0</asrwt>
<pdfrwt beam="1">  1        2 0.19331731E+00 0.27293914E+04</pdfrwt>
<pdfrwt beam="2">  1       -2 0.22802066E+00 0.27293914E+04</pdfrwt>
<totfact> 0.13497975E+00</totfact>
</mgrwt>
</event>
<event>
12    1  0.2404959E-007  0.2463888E+04  0.7818608E-02  0.8415965E-01
          2   -1    0    0  501    0  0.00000000000E+00  0.00000000000E+00  0.31558647764E+04  0.31558647764E+04  0.00000000000E+00 0. -1.
         -2   -1    0    0    0  501 -0.00000000000E+00 -0.00000000000E+00 -0.48090975145E+03  0.48090975145E+03  0.00000000000E+00 0.  1.
         23    2    1    2    0    0 -0.78901550646E+03 -0.65157824654E+03  0.72416766751E+03  0.12568461601E+04  0.90242886574E+02 0.  0.
        254    2    1    2    0    0  0.78901550646E+03  0.65157824654E+03  0.19507873575E+04  0.23799283678E+04  0.90077080390E+03 0.  0.
        -24    2    4    4    0    0 -0.18001908397E+03  0.11468746505E+02  0.32721109558E+03  0.38211788121E+03  0.80053552887E+02 0.  0.
         24    2    4    4    0    0  0.96903459043E+03  0.64010950004E+03  0.16235762619E+04  0.19978104866E+04  0.80490078944E+02 0.  0.
         11    1    3    3    0    0 -0.36155776298E+03 -0.34627088931E+03  0.38536338296E+03  0.63176932632E+03  0.00000000000E+00 0.  1.
        -11    1    3    3    0    0 -0.42745774348E+03 -0.30530735723E+03  0.33880428456E+03  0.62507683373E+03  0.00000000000E+00 0. -1.
          4    1    6    6  502    0  0.81023381561E+03  0.55808692852E+03  0.14100071062E+04  0.17193196024E+04  0.00000000000E+00 0. -1.
          3    1    5    5  503    0 -0.15961951476E+03 -0.95496303380E+01  0.22666598564E+03  0.27739331999E+03  0.00000000000E+00 0. -1.
         -4    1    5    5    0  503 -0.20399569215E+02  0.21018376843E+02  0.10054510994E+03  0.10472456122E+03  0.00000000000E+00 0.  1.
         -3    1    6    6    0  502  0.15880077482E+03  0.82022571517E+02  0.21356915571E+03  0.27849088422E+03  0.00000000000E+00 0.  1.
<mgrwt>
<rscale>  0 0.24638881E+04</rscale>
<asrwt>0</asrwt>
<pdfrwt beam="1">  1        2 0.48551765E+00 0.24638881E+04</pdfrwt>
<pdfrwt beam="2">  1       -2 0.73986118E-01 0.24638881E+04</pdfrwt>
<totfact> 0.20405354E+00</totfact>
</mgrwt>
</event>
<event>
12    1  0.2404959E-007  0.2239507E+04  0.7818608E-02  0.8502162E-01
          2   -1    0    0  501    0  0.00000000000E+00  0.00000000000E+00  0.78854323846E+03  0.78854323846E+03  0.00000000000E+00 0. -1.
         -2   -1    0    0    0  501 -0.00000000000E+00 -0.00000000000E+00 -0.15900818525E+04  0.15900818525E+04  0.00000000000E+00 0.  1.
         23    2    1    2    0    0 -0.81647799557E+03 -0.29700932939E+03 -0.70909928924E+03  0.11253470406E+04  0.93452130471E+02 0.  0.
        254    2    1    2    0    0  0.81647799557E+03  0.29700932939E+03 -0.92439324766E+02  0.12532780504E+04  0.89850430371E+03 0.  0.
        -24    2    4    4    0    0  0.52159183125E+03 -0.54320197331E+02 -0.42595737688E+03  0.68034353353E+03  0.80118128012E+02 0.  0.
         24    2    4    4    0    0  0.29488616432E+03  0.35132952672E+03  0.33351805211E+03  0.57293451685E+03  0.81421024649E+02 0.  0.
         11    1    3    3    0    0 -0.53441175126E+03 -0.20465379640E+03 -0.52144451011E+03  0.77419860074E+03  0.00000000000E+00 0.  1.
        -11    1    3    3    0    0 -0.28206624431E+03 -0.92355532985E+02 -0.18765477913E+03  0.35114843981E+03  0.00000000000E+00 0. -1.
          2    1    6    6  502    0  0.54155065248E+02  0.10178658577E+03  0.11638771398E+03  0.16382728741E+03  0.00000000000E+00 0. -1.
          3    1    5    5  503    0  0.58411271603E+02  0.13098455626E+02 -0.28516743690E+02  0.66307245915E+02  0.00000000000E+00 0. -1.
         -4    1    5    5    0  503  0.46318055964E+03 -0.67418652957E+02 -0.39744063319E+03  0.61403628761E+03  0.00000000000E+00 0.  1.
         -1    1    6    6    0  502  0.24073109907E+03  0.24954294095E+03  0.21713033813E+03  0.40910722944E+03  0.00000000000E+00 0.  1.
<mgrwt>
<rscale>  0 0.22395074E+04</rscale>
<asrwt>0</asrwt>
<pdfrwt beam="1">  1        2 0.12131435E+00 0.22395074E+04</pdfrwt>
<pdfrwt beam="2">  1       -2 0.24462797E+00 0.22395074E+04</pdfrwt>
<totfact> 0.22181392E+00</totfact>
</mgrwt>
</event>
<event>
12    1  0.2404959E-007  0.3053867E+04  0.7818608E-02  0.8228514E-01
          1   -1    0    0  501    0  0.00000000000E+00  0.00000000000E+00  0.31621635468E+04  0.31621635468E+04  0.00000000000E+00 0. -1.
         -1   -1    0    0    0  501 -0.00000000000E+00 -0.00000000000E+00 -0.73731982601E+03  0.73731982601E+03  0.00000000000E+00 0.  1.
         23    2    1    2    0    0  0.10219621760E+04 -0.93008544865E+03  0.13086764671E+04  0.19053270670E+04  0.90396380580E+02 0.  0.
        254    2    1    2    0    0 -0.10219621760E+04  0.93008544865E+03  0.11161672537E+04  0.19941563058E+04  0.90629156626E+03 0.  0.
        -24    2    4    4    0    0 -0.11647281077E+04  0.71718770496E+03  0.82549429602E+03  0.15996266072E+04  0.80091701259E+02 0.  0.
         24    2    4    4    0    0  0.14276593171E+03  0.21289774369E+03  0.29067295764E+03  0.39452969868E+03  0.73860370365E+02 0.  0.
         11    1    3    3    0    0  0.29760782865E+03 -0.29339650715E+03  0.34424669395E+03  0.54144040889E+03  0.00000000000E+00 0. -1.
        -11    1    3    3    0    0  0.72435434731E+03 -0.63668894150E+03  0.96442977319E+03  0.13638866581E+04  0.00000000000E+00 0.  1.
          2    1    6    6  502    0  0.40132209522E+01  0.24167334794E+02  0.48375103040E+01  0.24971333953E+02  0.00000000000E+00 0. -1.
          1    1    5    5  503    0 -0.94751741510E+03  0.56738563617E+03  0.63231460718E+03  0.12726104960E+04  0.00000000000E+00 0. -1.
         -2    1    5    5    0  503 -0.21721069257E+03  0.14980206878E+03  0.19317968884E+03  0.32701611116E+03  0.00000000000E+00 0.  1.
         -1    1    6    6    0  502  0.13875271076E+03  0.18873040890E+03  0.28583544733E+03  0.36955836473E+03  0.00000000000E+00 0.  1.
<mgrwt>
<rscale>  0 0.30538670E+04</rscale>
<asrwt>0</asrwt>
<pdfrwt beam="1">  1        1 0.48648669E+00 0.30538670E+04</pdfrwt>
<pdfrwt beam="2">  1       -1 0.11343382E+00 0.30538670E+04</pdfrwt>
<totfact> 0.27241365E-01</totfact>
</mgrwt>
</event>
<event>
12    1  0.2404959E-007  0.3141415E+04  0.7818608E-02  0.8204463E-01
          2   -1    0    0  501    0  0.00000000000E+00  0.00000000000E+00  0.29267055980E+04  0.29267055980E+04  0.00000000000E+00 0. -1.
         -2   -1    0    0    0  501 -0.00000000000E+00 -0.00000000000E+00 -0.84296920762E+03  0.84296920762E+03  0.00000000000E+00 0.  1.
         23    2    1    2    0    0 -0.75743481834E+03 -0.96967565360E+03  0.58909106030E+02  0.12345754375E+04  0.82023477861E+02 0.  0.
        254    2    1    2    0    0  0.75743481834E+03  0.96967565360E+03  0.20248272843E+04  0.25350993681E+04  0.90156802157E+03 0.  0.
        -24    2    4    4    0    0  0.73569454001E+03  0.61739080153E+03  0.78286519777E+03  0.12416161654E+04  0.79466511267E+02 0.  0.
         24    2    4    4    0    0  0.21740278332E+02  0.35228485207E+03  0.12419620865E+04  0.12934832026E+04  0.77792765590E+02 0.  0.
         11    1    3    3    0    0 -0.70651739057E+03 -0.89736203551E+03  0.75437264902E+02  0.11446030870E+04  0.00000000000E+00 0.  1.
        -11    1    3    3    0    0 -0.50917427773E+02 -0.72313618089E+02 -0.16528158872E+02  0.89972350463E+02  0.00000000000E+00 0. -1.
          4    1    6    6  502    0 -0.64631961268E+01 -0.11200356853E+01  0.16118430649E+02  0.17402045589E+02  0.00000000000E+00 0. -1.
          3    1    5    5  503    0  0.20677188967E+03  0.16652831649E+03  0.26285754510E+03  0.37360458183E+03  0.00000000000E+00 0. -1.
         -4    1    5    5    0  503  0.52892265033E+03  0.45086248504E+03  0.52000765268E+03  0.86801158362E+03  0.00000000000E+00 0.  1.
         -3    1    6    6    0  502  0.28203474458E+02  0.35340488775E+03  0.12258436559E+04  0.12760811570E+04  0.00000000000E+00 0.  1.
<mgrwt>
<rscale>  0 0.31414154E+04</rscale>
<asrwt>0</asrwt>
<pdfrwt beam="1">  1        2 0.45026239E+00 0.31414154E+04</pdfrwt>
<pdfrwt beam="2">  1       -2 0.12968757E+00 0.31414154E+04</pdfrwt>
<totfact> 0.71468662E-01</totfact>
</mgrwt>
</event>
<event>
12    1  0.2404959E-007  0.2960176E+04  0.7818608E-02  0.8255195E-01
          1   -1    0    0  501    0  0.00000000000E+00  0.00000000000E+00  0.96285035721E+03  0.96285035721E+03  0.00000000000E+00 0. -1.
         -1   -1    0    0    0  501 -0.00000000000E+00 -0.00000000000E+00 -0.22751820716E+04  0.22751820716E+04  0.00000000000E+00 0.  1.
         23    2    1    2    0    0  0.12313129449E+04  0.69850477268E+02 -0.11768094043E+04  0.17074433173E+04  0.97322402751E+02 0.  0.
        254    2    1    2    0    0 -0.12313129449E+04 -0.69850477268E+02 -0.13552231009E+03  0.15305891116E+04  0.89628459456E+03 0.  0.
        -24    2    4    4    0    0 -0.12600823039E+04  0.56322228090E+02 -0.30779960095E+03  0.13007864609E+04  0.79531229784E+02 0.  0.
         24    2    4    4    0    0  0.28769358977E+02 -0.12617270536E+03  0.17227729086E+03  0.22980265069E+03  0.79890961477E+02 0.  0.
         13    1    3    3    0    0  0.44438850764E+03  0.59581736412E+02 -0.38366577725E+03  0.59011063172E+03  0.00000000000E+00 0. -1.
        -13    1    3    3    0    0  0.78692443727E+03  0.10268740857E+02 -0.79314362706E+03  0.11173326855E+04  0.00000000000E+00 0.  1.
          4    1    6    6  502    0  0.23583961479E+01 -0.93505591579E+02  0.16117900929E+03  0.18635324179E+03  0.00000000000E+00 0. -1.
          3    1    5    5  503    0 -0.68040257052E+03  0.13951666263E+02 -0.20309963622E+03  0.71020544154E+03  0.00000000000E+00 0. -1.
         -4    1    5    5    0  503 -0.57967973336E+03  0.42370561828E+02 -0.10469996473E+03  0.59058101933E+03  0.00000000000E+00 0.  1.
         -3    1    6    6    0  502  0.26410962830E+02 -0.32667113779E+02  0.11098281568E+02  0.43449408903E+02  0.00000000000E+00 0.  1.
<mgrwt>
<rscale>  0 0.29601756E+04</rscale>
<asrwt>0</asrwt>
<pdfrwt beam="1">  1        1 0.14813082E+00 0.29601756E+04</pdfrwt>
<pdfrwt beam="2">  1       -1 0.35002801E+00 0.29601756E+04</pdfrwt>
<totfact> 0.21464152E-01</totfact>
</mgrwt>
</event>
<event>
12    1  0.2404959E-007  0.2205789E+04  0.7818608E-02  0.8516023E-01
         -2   -1    0    0    0  501 -0.00000000000E+00  0.00000000000E+00  0.93432886241E+03  0.93432886241E+03  0.00000000000E+00 0.  1.
          2   -1    0    0  501    0  0.00000000000E+00 -0.00000000000E+00 -0.13018715615E+04  0.13018715615E+04  0.00000000000E+00 0. -1.
         23    2    1    2    0    0  0.41148619552E+03  0.81384364938E+03 -0.23545687151E+03  0.94608351451E+03  0.89284395971E+02 0.  0.
        254    2    1    2    0    0 -0.41148619552E+03 -0.81384364938E+03 -0.13208582755E+03  0.12901169094E+04  0.90293554546E+03 0.  0.
        -24    2    4    4    0    0 -0.19969062734E+03  0.10326226725E+03 -0.24334089577E+03  0.33904957746E+03  0.72113673704E+02 0.  0.
         24    2    4    4    0    0 -0.21179556817E+03 -0.91710591663E+03  0.11125506822E+03  0.95106733191E+03  0.78808341013E+02 0.  0.
         13    1    3    3    0    0  0.29287074000E+03  0.53704874160E+03 -0.19612688539E+03  0.64238646964E+03  0.00000000000E+00 0. -1.
        -13    1    3    3    0    0  0.11861545551E+03  0.27679490778E+03 -0.39329986124E+02  0.30369704488E+03  0.00000000000E+00 0.  1.
          2    1    6    6  502    0 -0.18590790320E+03 -0.67014160871E+03  0.65033269249E+02  0.69848468151E+03  0.00000000000E+00 0. -1.
          1    1    5    5  503    0 -0.10835195298E+03  0.73793961174E+02 -0.93172929644E+02  0.16083186636E+03  0.00000000000E+00 0. -1.
         -2    1    5    5    0  503 -0.91338674366E+02  0.29468306075E+02 -0.15016796612E+03  0.17821771109E+03  0.00000000000E+00 0.  1.
         -1    1    6    6    0  502 -0.25887664973E+02 -0.24696430792E+03  0.46221798970E+02  0.25258265040E+03  0.00000000000E+00 0.  1.
<mgrwt>
<rscale>  0 0.22057889E+04</rscale>
<asrwt>0</asrwt>
<pdfrwt beam="1">  1        2 0.20028793E+00 0.22057889E+04</pdfrwt>
<pdfrwt beam="2">  1       -2 0.14374290E+00 0.22057889E+04</pdfrwt>
<totfact> 0.50514011E+00</totfact>
</mgrwt>
</event>
<event>
12    1  0.2404959E-007  0.1681969E+04  0.7818608E-02  0.8771715E-01
          1   -1    0    0  501    0  0.00000000000E+00  0.00000000000E+00  0.12874586296E+04  0.12874586296E+04  0.00000000000E+00 0. -1.
         -1   -1    0    0    0  501 -0.00000000000E+00 -0.00000000000E+00 -0.54934210441E+03  0.54934210441E+03  0.00000000000E+00 0.  1.
         23    2    1    2    0    0 -0.36505641169E+03 -0.28176654432E+03  0.67298450196E+03  0.82101561674E+03  0.92195085759E+02 0.  0.
        254    2    1    2    0    0  0.36505641169E+03  0.28176654432E+03  0.65132023243E+02  0.10157851173E+04  0.90272845021E+03 0.  0.
        -24    2    4    4    0    0  0.65963939521E+03  0.19540510027E+03  0.84490252975E+02  0.69776264983E+03  0.80167497988E+02 0.  0.
         24    2    4    4    0    0 -0.29458298351E+03  0.86361444048E+02 -0.19358229732E+02  0.31802246745E+03  0.80784376887E+02 0.  0.
         13    1    3    3    0    0 -0.23812482586E+03 -0.22446940076E+03  0.51743627542E+03  0.61223381456E+03  0.00000000000E+00 0.  1.
        -13    1    3    3    0    0 -0.12693158584E+03 -0.57297143562E+02  0.15554822653E+03  0.20878180218E+03  0.00000000000E+00 0. -1.
          2    1    6    6  502    0 -0.23349904109E+03  0.43511467028E+02  0.10270020263E+02  0.23774045358E+03  0.00000000000E+00 0. -1.
          1    1    5    5  503    0  0.46816291683E+03  0.17528980055E+03  0.68409662339E+02  0.50456210002E+03  0.00000000000E+00 0. -1.
         -2    1    5    5    0  503  0.19147647838E+03  0.20115299723E+02  0.16080590636E+02  0.19320054982E+03  0.00000000000E+00 0.  1.
         -1    1    6    6    0  502 -0.61083942422E+02  0.42849977020E+02 -0.29628249994E+02  0.80282013865E+02  0.00000000000E+00 0.  1.
<mgrwt>
<rscale>  0 0.16819694E+04</rscale>
<asrwt>0</asrwt>
<pdfrwt beam="1">  1        1 0.19807056E+00 0.16819694E+04</pdfrwt>
<pdfrwt beam="2">  1       -1 0.84514170E-01 0.16819694E+04</pdfrwt>
<totfact> 0.12201049E+01</totfact>
</mgrwt>
</event>
<event>
12    1  0.2404959E-007  0.1535623E+04  0.7818608E-02  0.8861104E-01
          2   -1    0    0  501    0  0.00000000000E+00  0.00000000000E+00  0.21734777898E+04  0.21734777898E+04  0.00000000000E+00 0. -1.
         -2   -1    0    0    0  501 -0.00000000000E+00 -0.00000000000E+00 -0.27124001792E+03  0.27124001792E+03  0.00000000000E+00 0.  1.
         23    2    1    2    0    0  0.10752756304E+03  0.46606997299E+03  0.40516783982E+03  0.63347276690E+03  0.91342057399E+02 0.  0.
        254    2    1    2    0    0 -0.10752756304E+03 -0.46606997299E+03  0.14970699321E+04  0.18112450408E+04  0.90033705903E+03 0.  0.
        -24    2    4    4    0    0  0.91529301060E+02  0.19950167203E+03  0.10975367861E+03  0.25785301661E+03  0.79144033967E+02 0.  0.
         24    2    4    4    0    0 -0.19905686410E+03 -0.66557164502E+03  0.13873162535E+04  0.15533920242E+04  0.75968045659E+02 0.  0.
         13    1    3    3    0    0  0.81108316847E+01  0.31533386049E+02  0.65146770164E+02  0.72830225107E+02  0.00000000000E+00 0. -1.
        -13    1    3    3    0    0  0.99416731357E+02  0.43453658694E+03  0.34002106965E+03  0.56064254179E+03  0.00000000000E+00 0.  1.
          2    1    6    6  502    0 -0.77844334645E+02 -0.14767787663E+03  0.33562780361E+03  0.37485266204E+03  0.00000000000E+00 0. -1.
          3    1    5    5  503    0  0.99282671409E+02  0.13640405128E+03  0.90381608308E+02  0.19139474697E+03  0.00000000000E+00 0. -1.
         -4    1    5    5    0  503 -0.77533703487E+01  0.63097620747E+02  0.19372070299E+02  0.66458269639E+02  0.00000000000E+00 0.  1.
         -1    1    6    6    0  502 -0.12121252946E+03 -0.51789376839E+03  0.10516884499E+04  0.11785393622E+04  0.00000000000E+00 0.  1.
<mgrwt>
<rscale>  0 0.15356226E+04</rscale>
<asrwt>0</asrwt>
<pdfrwt beam="1">  1        2 0.33438119E+00 0.15356226E+04</pdfrwt>
<pdfrwt beam="2">  1       -2 0.41729235E-01 0.15356226E+04</pdfrwt>
<totfact> 0.28047103E+01</totfact>
</mgrwt>
</event>
<event>
12    1  0.2404959E-007  0.2161849E+04  0.7818608E-02  0.8534477E-01
          2   -1    0    0  501    0  0.00000000000E+00  0.00000000000E+00  0.28719340877E+04  0.28719340877E+04  0.00000000000E+00 0. -1.
         -2   -1    0    0    0  501 -0.00000000000E+00 -0.00000000000E+00 -0.40683294924E+03  0.40683294924E+03  0.00000000000E+00 0.  1.
         23    2    1    2    0    0 -0.49678228088E+03  0.65056576933E+03  0.15586978930E+04  0.17629217698E+04  0.91244671091E+02 0.  0.
        254    2    1    2    0    0  0.49678228088E+03 -0.65056576933E+03  0.90640324550E+03  0.15158452672E+04  0.89788171589E+03 0.  0.
        -24    2    4    4    0    0  0.35491324570E+03 -0.20079296203E+03  0.94867430113E+03  0.10356937321E+04  0.79983445553E+02 0.  0.
         24    2    4    4    0    0  0.14186903518E+03 -0.44977280730E+03 -0.42271055627E+02  0.48015153505E+03  0.79600585018E+02 0.  0.
         13    1    3    3    0    0 -0.43946521386E+03  0.58957907545E+03  0.13357501389E+04  0.15247824743E+04  0.00000000000E+00 0.  1.
        -13    1    3    3    0    0 -0.57317067021E+02  0.60986693881E+02  0.22294775405E+03  0.23813929545E+03  0.00000000000E+00 0. -1.
          4    1    6    6  502    0  0.89152130170E+02 -0.19410860476E+03  0.10367869612E+02  0.21385449604E+03  0.00000000000E+00 0. -1.
          1    1    5    5  503    0  0.85063453550E+02 -0.38055185134E+02  0.30675555712E+03  0.32059781669E+03  0.00000000000E+00 0. -1.
         -2    1    5    5    0  503  0.26984979215E+03 -0.16273777689E+03  0.64191874401E+03  0.71509591543E+03  0.00000000000E+00 0.  1.
         -3    1    6    6    0  502  0.52716905009E+02 -0.25566420255E+03 -0.52638925239E+02  0.26629703901E+03  0.00000000000E+00 0.  1.
<mgrwt>
<rscale>  0 0.21618487E+04</rscale>
<asrwt>0</asrwt>
<pdfrwt beam="1">  1        2 0.44183600E+00 0.21618487E+04</pdfrwt>
<pdfrwt beam="2">  1       -2 0.62589686E-01 0.21618487E+04</pdfrwt>
<totfact> 0.45422432E+00</totfact>
</mgrwt>
</event>
<event>
12    1  0.2404959E-007  0.1065891E+04  0.7818608E-02  0.9239089E-01
          2   -1    0    0  501    0  0.00000000000E+00  0.00000000000E+00  0.16765537805E+04  0.16765537805E+04  0.00000000000E+00 0. -1.
         -2   -1    0    0    0  501 -0.00000000000E+00 -0.00000000000E+00 -0.16941362234E+03  0.16941362234E+03  0.00000000000E+00 0.  1.
         23    2    1    2    0    0  0.43583779315E+02 -0.96759993808E+02  0.81203150384E+02  0.15854009602E+03  0.85316869334E+02 0.  0.
        254    2    1    2    0    0 -0.43583779315E+02  0.96759993808E+02  0.14259370077E+04  0.16874273068E+04  0.89602038114E+03 0.  0.
        -24    2    4    4    0    0  0.15595990148E+03 -0.35020917597E+03  0.78257118529E+03  0.87509920012E+03  0.80068671721E+02 0.  0.
         24    2    4    4    0    0 -0.19954368080E+03  0.44696916977E+03  0.64336582245E+03  0.81232810667E+03  0.79738648835E+02 0.  0.
         11    1    3    3    0    0 -0.64207270191E+01 -0.27228771661E+01  0.45765249390E+02  0.46293604820E+02  0.00000000000E+00 0. -1.
        -11    1    3    3    0    0  0.50004506334E+02 -0.94037116642E+02  0.35437900994E+02  0.11224649120E+03  0.00000000000E+00 0.  1.
          4    1    6    6  502    0 -0.15854342983E+03  0.26796854818E+03  0.42861994172E+03  0.52977185316E+03  0.00000000000E+00 0. -1.
          1    1    5    5  503    0  0.70293366799E+02 -0.18054521133E+03  0.30785232639E+03  0.36374549566E+03  0.00000000000E+00 0. -1.
         -2    1    5    5    0  503  0.85666534682E+02 -0.16966396463E+03  0.47471885890E+03  0.51135370445E+03  0.00000000000E+00 0.  1.
         -3    1    6    6    0  502 -0.41000250961E+02  0.17900062159E+03  0.21474588073E+03  0.28255625351E+03  0.00000000000E+00 0.  1.
<mgrwt>
<rscale>  0 0.10658913E+04</rscale>
<asrwt>0</asrwt>
<pdfrwt beam="1">  1        2 0.25793134E+00 0.10658913E+04</pdfrwt>
<pdfrwt beam="2">  1       -2 0.26063635E-01 0.10658913E+04</pdfrwt>
<totfact> 0.13368506E+02</totfact>
</mgrwt>
</event>
<event>
12    1  0.2404959E-007  0.2212715E+04  0.7818608E-02  0.8513155E-01
         -1   -1    0    0    0  501 -0.00000000000E+00  0.00000000000E+00  0.39033238068E+03  0.39033238068E+03  0.00000000000E+00 0.  1.
          1   -1    0    0  501    0  0.00000000000E+00 -0.00000000000E+00 -0.31358572367E+04  0.31358572367E+04  0.00000000000E+00 0. -1.
         23    2    1    2    0    0  0.21079037667E+03 -0.15877145249E+03  0.25751074472E+03  0.37981639369E+03  0.91146871823E+02 0.  0.
        254    2    1    2    0    0 -0.21079037667E+03  0.15877145249E+03 -0.30030356007E+04  0.31463732237E+04  0.90099982597E+03 0.  0.
        -24    2    4    4    0    0 -0.37743930961E+03  0.26689202013E+03 -0.76048692239E+03  0.89356530013E+03  0.80167347618E+02 0.  0.
         24    2    4    4    0    0  0.16664893294E+03 -0.10812056765E+03 -0.22425486784E+04  0.22528079236E+04  0.81590695931E+02 0.  0.
         11    1    3    3    0    0  0.14838538535E+02 -0.11000711922E+02  0.65934113675E+02  0.68472660492E+02  0.00000000000E+00 0.  1.
        -11    1    3    3    0    0  0.19595183814E+03 -0.14777074056E+03  0.19157663105E+03  0.31134373320E+03  0.00000000000E+00 0. -1.
          4    1    6    6  502    0  0.14970922771E+03 -0.66039400775E+02 -0.19385399678E+04  0.19454334381E+04  0.00000000000E+00 0. -1.
          3    1    5    5  503    0 -0.24736955013E+03  0.20047823865E+03 -0.57730544482E+03  0.65929113078E+03  0.00000000000E+00 0. -1.
         -4    1    5    5    0  503 -0.13006975947E+03  0.66413781479E+02 -0.18318147757E+03  0.23427416935E+03  0.00000000000E+00 0.  1.
         -3    1    6    6    0  502  0.16939705228E+02 -0.42081166872E+02 -0.30400871053E+03  0.30737448544E+03  0.00000000000E+00 0.  1.
<mgrwt>
<rscale>  0 0.22127147E+04</rscale>
<asrwt>0</asrwt>
<pdfrwt beam="1">  1        1 0.48243957E+00 0.22127147E+04</pdfrwt>
<pdfrwt beam="2">  1       -1 0.60051136E-01 0.22127147E+04</pdfrwt>
<totfact> 0.12170165E+00</totfact>
</mgrwt>
</event>
<event>
12    1  0.2404959E-007  0.1530396E+04  0.7818608E-02  0.8864488E-01
         -2   -1    0    0    0  501 -0.00000000000E+00  0.00000000000E+00  0.11130266802E+04  0.11130266802E+04  0.00000000000E+00 0.  1.
          2   -1    0    0  501    0  0.00000000000E+00 -0.00000000000E+00 -0.52606831245E+03  0.52606831245E+03  0.00000000000E+00 0. -1.
         23    2    1    2    0    0 -0.36437483994E+03  0.29127278541E+03  0.37065995598E+03  0.60273449670E+03  0.91056087388E+02 0.  0.
        254    2    1    2    0    0  0.36437483994E+03 -0.29127278541E+03  0.21629841179E+03  0.10363604960E+04  0.89980509843E+03 0.  0.
        -24    2    4    4    0    0  0.38361955469E+03 -0.10299813825E+03 -0.28442412076E+03  0.49512573111E+03  0.80497390769E+02 0.  0.
         24    2    4    4    0    0 -0.19244714747E+02 -0.18827464716E+03  0.50072253255E+03  0.54123476485E+03  0.79964456327E+02 0.  0.
         13    1    3    3    0    0 -0.24887150076E+03  0.24174034143E+03  0.24294132082E+03  0.42355153397E+03  0.00000000000E+00 0. -1.
        -13    1    3    3    0    0 -0.11550333919E+03  0.49532443978E+02  0.12771863515E+03  0.17918296273E+03  0.00000000000E+00 0.  1.
          4    1    6    6  502    0 -0.31664862322E+02 -0.12218230507E+03  0.23077379328E+03  0.26303559235E+03  0.00000000000E+00 0. -1.
          3    1    5    5  503    0  0.21961437255E+03 -0.17458073515E+02 -0.15516694636E+03  0.26946620976E+03  0.00000000000E+00 0. -1.
         -4    1    5    5    0  503  0.16400518214E+03 -0.85540064736E+02 -0.12925717440E+03  0.22565952135E+03  0.00000000000E+00 0.  1.
         -3    1    6    6    0  502  0.12420147575E+02 -0.66092342085E+02  0.26994873927E+03  0.27819917250E+03  0.00000000000E+00 0.  1.
<mgrwt>
<rscale>  0 0.15303961E+04</rscale>
<asrwt>0</asrwt>
<pdfrwt beam="1">  1        2 0.80933587E-01 0.15303961E+04</pdfrwt>
<pdfrwt beam="2">  1       -2 0.17123487E+00 0.15303961E+04</pdfrwt>
<totfact> 0.11670913E+01</totfact>
</mgrwt>
</event>
<event>
12    1  0.2404959E-007  0.1609612E+04  0.7818608E-02  0.8814665E-01
         -2   -1    0    0    0  501 -0.00000000000E+00  0.00000000000E+00  0.46139061105E+03  0.46139061105E+03  0.00000000000E+00 0. -1.
          2   -1    0    0  501    0  0.00000000000E+00 -0.00000000000E+00 -0.14038264860E+04  0.14038264860E+04  0.00000000000E+00 0.  1.
         23    2    1    2    0    0  0.26353401079E+03  0.41689337635E+03 -0.48674796918E+02  0.50445903079E+03  0.94124469754E+02 0.  0.
        254    2    1    2    0    0 -0.26353401079E+03 -0.41689337635E+03 -0.89376107801E+03  0.13607580662E+04  0.89977963312E+03 0.  0.
        -24    2    4    4    0    0 -0.48961948997E+03 -0.27596905613E+03 -0.18101484814E+03  0.59578593264E+03  0.79425042577E+02 0.  0.
         24    2    4    4    0    0  0.22608547919E+03 -0.14092432022E+03 -0.71274622987E+03  0.76497213359E+03  0.78745596978E+02 0.  0.
         11    1    3    3    0    0  0.24606855741E+03  0.35494620948E+03 -0.15801603847E+02  0.43218773381E+03  0.00000000000E+00 0. -1.
        -11    1    3    3    0    0  0.17465453374E+02  0.61947166870E+02 -0.32873193071E+02  0.72271296983E+02  0.00000000000E+00 0.  1.
          4    1    6    6  502    0  0.37761308912E+02 -0.82425306729E+00 -0.16105455701E+03  0.16542420070E+03  0.00000000000E+00 0. -1.
          3    1    5    5  503    0 -0.31828292072E+03 -0.21300933062E+03 -0.98402420087E+02  0.39542385972E+03  0.00000000000E+00 0. -1.
         -4    1    5    5    0  503 -0.17133656925E+03 -0.62959725504E+02 -0.82612428049E+02  0.20036207293E+03  0.00000000000E+00 0.  1.
         -3    1    6    6    0  502  0.18832417027E+03 -0.14010006715E+03 -0.55169167286E+03  0.59954793289E+03  0.00000000000E+00 0.  1.
<mgrwt>
<rscale>  0 0.16096116E+04</rscale>
<asrwt>0</asrwt>
<pdfrwt beam="1">  1        2 0.21597330E+00 0.16096116E+04</pdfrwt>
<pdfrwt beam="2">  1       -2 0.70983172E-01 0.16096116E+04</pdfrwt>
<totfact> 0.24874229E+01</totfact>
</mgrwt>
</event>
<event>
12    1  0.2404959E-007  0.1574680E+04  0.7818608E-02  0.8836256E-01
         -1   -1    0    0    0  501 -0.00000000000E+00  0.00000000000E+00  0.33661547530E+03  0.33661547530E+03  0.00000000000E+00 0.  1.
          1   -1    0    0  501    0  0.00000000000E+00 -0.00000000000E+00 -0.18415789449E+04  0.18415789449E+04  0.00000000000E+00 0. -1.
         23    2    1    2    0    0  0.23390231227E+03  0.34689558805E+03 -0.69563159618E+02  0.43374584246E+03  0.90827209476E+02 0.  0.
        254    2    1    2    0    0 -0.23390231227E+03 -0.34689558805E+03 -0.14354003100E+04  0.17444485777E+04  0.89871015896E+03 0.  0.
        -24    2    4    4    0    0 -0.35730950109E+03  0.34835594860E+02 -0.12364006529E+04  0.12904042228E+04  0.87022327476E+02 0.  0.
         24    2    4    4    0    0  0.12340718882E+03 -0.38173118291E+03 -0.19899965709E+03  0.45404435496E+03  0.74882457873E+02 0.  0.
         13    1    3    3    0    0  0.15547421193E+03  0.29480203142E+03 -0.64396788576E+02  0.33945163821E+03  0.00000000000E+00 0.  1.
        -13    1    3    3    0    0  0.78428100340E+02  0.52093556630E+02 -0.51663710413E+01  0.94294204249E+02  0.00000000000E+00 0. -1.
          2    1    6    6  502    0 -0.96611404297E+01 -0.27583378895E+02 -0.20681766695E+02  0.35803853135E+02  0.00000000000E+00 0. -1.
          1    1    5    5  503    0 -0.12913388045E+02  0.44471278838E+01 -0.12178467817E+02  0.18298841919E+02  0.00000000000E+00 0. -1.
         -2    1    5    5    0  503 -0.34439611304E+03  0.30388466976E+02 -0.12242221851E+04  0.12721053809E+04  0.00000000000E+00 0.  1.
         -3    1    6    6    0  502  0.13306832925E+03 -0.35414780401E+03 -0.17831789040E+03  0.41824050183E+03  0.00000000000E+00 0.  1.
<mgrwt>
<rscale>  0 0.15746796E+04</rscale>
<asrwt>0</asrwt>
<pdfrwt beam="1">  1        1 0.28331983E+00 0.15746796E+04</pdfrwt>
<pdfrwt beam="2">  1       -1 0.51786997E-01 0.15746796E+04</pdfrwt>
<totfact> 0.13777975E+01</totfact>
</mgrwt>
</event>
<event>
12    1  0.2404959E-007  0.2638676E+04  0.7818608E-02  0.8355181E-01
         -2   -1    0    0    0  501 -0.00000000000E+00  0.00000000000E+00  0.92355781030E+03  0.92355781030E+03  0.00000000000E+00 0.  1.
          2   -1    0    0  501    0  0.00000000000E+00 -0.00000000000E+00 -0.18847257421E+04  0.18847257421E+04  0.00000000000E+00 0. -1.
         23    2    1    2    0    0 -0.68188460818E+03  0.12190055302E+03 -0.14196302972E+04  0.15824595591E+04  0.94877351718E+02 0.  0.
        254    2    1    2    0    0  0.68188460818E+03 -0.12190055302E+03  0.45846236539E+03  0.12258239933E+04  0.90146012575E+03 0.  0.
        -24    2    4    4    0    0  0.37587948418E+03  0.16954437256E+03 -0.17918689453E+03  0.45668772940E+03  0.80156460224E+02 0.  0.
         24    2    4    4    0    0  0.30600512400E+03 -0.29144492558E+03  0.63764925992E+03  0.76913626388E+03  0.79967075572E+02 0.  0.
         13    1    3    3    0    0 -0.90159227982E+02  0.28447513018E+02 -0.27064127979E+03  0.28667865235E+03  0.00000000000E+00 0. -1.
        -13    1    3    3    0    0 -0.59172538020E+03  0.93453040003E+02 -0.11489890174E+04  0.12957809068E+04  0.00000000000E+00 0.  1.
          4    1    6    6  502    0  0.19005281379E+03 -0.15782248872E+03  0.43389547499E+03  0.49929279305E+03  0.00000000000E+00 0. -1.
          3    1    5    5  503    0  0.35554062909E+03  0.13882177472E+03 -0.15171593773E+03  0.41072904674E+03  0.00000000000E+00 0. -1.
         -4    1    5    5    0  503  0.20338855087E+02  0.30722597836E+02 -0.27470956804E+02  0.45958682659E+02  0.00000000000E+00 0.  1.
         -3    1    6    6    0  502  0.11595231021E+03 -0.13362243685E+03  0.20375378493E+03  0.26984347083E+03  0.00000000000E+00 0.  1.
<mgrwt>
<rscale>  0 0.26386763E+04</rscale>
<asrwt>0</asrwt>
<pdfrwt beam="1">  1        2 0.28995780E+00 0.26386763E+04</pdfrwt>
<pdfrwt beam="2">  1       -2 0.14208582E+00 0.26386763E+04</pdfrwt>
<totfact> 0.23596747E+00</totfact>
</mgrwt>
</event>
<event>
12    1  0.2404959E-007  0.1662651E+04  0.7818608E-02  0.8782958E-01
          2   -1    0    0  501    0  0.00000000000E+00  0.00000000000E+00  0.30961179702E+04  0.30961179702E+04  0.00000000000E+00 0. -1.
         -2   -1    0    0    0  501 -0.00000000000E+00 -0.00000000000E+00 -0.22321555656E+03  0.22321555656E+03  0.00000000000E+00 0.  1.
         23    2    1    2    0    0  0.48978634396E+03 -0.21653356497E+01  0.39000168024E+03  0.63273572504E+03  0.91421199663E+02 0.  0.
        254    2    1    2    0    0 -0.48978634396E+03  0.21653356497E+01  0.24829007334E+04  0.26865978017E+04  0.90172964067E+03 0.  0.
        -24    2    4    4    0    0 -0.66150787512E+03 -0.23475755178E+03  0.15125917008E+04  0.16694019992E+04  0.79155573425E+02 0.  0.
         24    2    4    4    0    0  0.17172153117E+03  0.23692288743E+03  0.97030903257E+03  0.10171958024E+04  0.86988177103E+02 0.  0.
         13    1    3    3    0    0  0.40033600761E+03 -0.57166728647E+00  0.35994187823E+03  0.53835620317E+03  0.00000000000E+00 0. -1.
        -13    1    3    3    0    0  0.89450336345E+02 -0.15936683632E+01  0.30059802018E+02  0.94379521870E+02  0.00000000000E+00 0.  1.
          4    1    6    6  502    0  0.68490861588E+02  0.96632786437E+02  0.25781486138E+03  0.28372063070E+03  0.00000000000E+00 0. -1.
          3    1    5    5  503    0 -0.30827204713E+03 -0.11494070683E+03  0.80201197010E+03  0.86687151373E+03  0.00000000000E+00 0. -1.
         -4    1    5    5    0  503 -0.35323582799E+03 -0.11981684495E+03  0.71057973070E+03  0.80253048552E+03  0.00000000000E+00 0.  1.
         -3    1    6    6    0  502  0.10323066958E+03  0.14029010100E+03  0.71249417119E+03  0.73347517174E+03  0.00000000000E+00 0.  1.
<mgrwt>
<rscale>  0 0.16626505E+04</rscale>
<asrwt>0</asrwt>
<pdfrwt beam="1">  1        2 0.47632581E+00 0.16626505E+04</pdfrwt>
<pdfrwt beam="2">  1       -2 0.34340857E-01 0.16626505E+04</pdfrwt>
<totfact> 0.11545124E+01</totfact>
</mgrwt>
</event>
<event>
12    1  0.2621309E-007  0.2726875E+04  0.7818608E-02  0.8326337E-01
         -2   -1    0    0    0  501 -0.00000000000E+00  0.00000000000E+00  0.76562260679E+03  0.76562260679E+03  0.00000000000E+00 0.  1.
          2   -1    0    0  501    0  0.00000000000E+00 -0.00000000000E+00 -0.24280388810E+04  0.24280388810E+04  0.00000000000E+00 0. -1.
         23    2    1    2    0    0  0.13228242394E+02  0.45288900067E+03  0.57826918413E+03  0.73969477745E+03  0.86427317108E+02 0.  0.
        254    2    1    2    0    0 -0.13228242394E+02 -0.45288900067E+03 -0.22406854583E+04  0.24539667103E+04  0.89218712098E+03 0.  0.
        -24    2    4    4    0    0 -0.39982648696E+03 -0.13639295307E+02 -0.84012803153E+03  0.93403742803E+03  0.81015785819E+02 0.  0.
         24    2    4    4    0    0  0.38659824456E+03 -0.43924970537E+03 -0.14005574268E+04  0.15199292823E+04  0.78901273843E+02 0.  0.
         11    1    3    3    0    0  0.30264110824E+02  0.23465256874E+03  0.24188930269E+03  0.33836101900E+03  0.00000000000E+00 0. -1.
        -11    1    3    3    0    0 -0.17035868430E+02  0.21823643194E+03  0.33637988144E+03  0.40133375846E+03  0.00000000000E+00 0.  1.
          2    1    6    6  502    0  0.63651726616E+02 -0.41239911468E+02 -0.22673468506E+03  0.23908343734E+03  0.00000000000E+00 0. -1.
          3    1    5    5  503    0 -0.91496483611E+02 -0.33367888411E+02 -0.16555137247E+03  0.19207363020E+03  0.00000000000E+00 0. -1.
         -4    1    5    5    0  503 -0.30833000335E+03  0.19728593104E+02 -0.67457665905E+03  0.74196379783E+03  0.00000000000E+00 0.  1.
         -1    1    6    6    0  502  0.32294651795E+03 -0.39800979390E+03 -0.11738227417E+04  0.12808458449E+04  0.00000000000E+00 0.  1.
<mgrwt>
<rscale>  0 0.27268747E+04</rscale>
<asrwt>0</asrwt>
<pdfrwt beam="1">  1        2 0.37354444E+00 0.27268747E+04</pdfrwt>
<pdfrwt beam="2">  1       -2 0.11778810E+00 0.27268747E+04</pdfrwt>
<totfact> 0.18642432E+00</totfact>
</mgrwt>
</event>
<event>
12    1  0.2404959E-007  0.2501253E+04  0.7818608E-02  0.8402539E-01
          2   -1    0    0  501    0  0.00000000000E+00  0.00000000000E+00  0.22022528628E+04  0.22022528628E+04  0.00000000000E+00 0. -1.
         -2   -1    0    0    0  501 -0.00000000000E+00 -0.00000000000E+00 -0.71021214377E+03  0.71021214377E+03  0.00000000000E+00 0.  1.
         23    2    1    2    0    0  0.52062845400E+03  0.39207224409E+03 -0.36190215047E+03  0.75095741466E+03  0.90494422060E+02 0.  0.
        254    2    1    2    0    0 -0.52062845400E+03 -0.39207224409E+03  0.18539428695E+04  0.21615075919E+04  0.90013125423E+03 0.  0.
        -24    2    4    4    0    0  0.50718773578E+02 -0.43199823736E+03  0.39952484901E+03  0.59585978200E+03  0.78955074247E+02 0.  0.
         24    2    4    4    0    0 -0.57134722758E+03  0.39925993273E+02  0.14544180205E+04  0.15656478100E+04  0.88823121759E+02 0.  0.
         11    1    3    3    0    0  0.26358679250E+03  0.22373278775E+03 -0.23758571807E+03  0.41950128834E+03  0.00000000000E+00 0.  1.
        -11    1    3    3    0    0  0.25704166150E+03  0.16833945634E+03 -0.12431643240E+03  0.33145612632E+03  0.00000000000E+00 0. -1.
          2    1    6    6  502    0 -0.45696526556E+03  0.67466952716E+02  0.11542722033E+04  0.12432672130E+04  0.00000000000E+00 0. -1.
          3    1    5    5  503    0  0.71355907726E+02 -0.29742089138E+03  0.28104515258E+03  0.41537601036E+03  0.00000000000E+00 0. -1.
         -4    1    5    5    0  503 -0.20637134148E+02 -0.13457734598E+03  0.11847969643E+03  0.18048377163E+03  0.00000000000E+00 0.  1.
         -1    1    6    6    0  502 -0.11438196202E+03 -0.27540959443E+02  0.30014581720E+03  0.32238059691E+03  0.00000000000E+00 0.  1.
<mgrwt>
<rscale>  0 0.25012531E+04</rscale>
<asrwt>0</asrwt>
<pdfrwt beam="1">  1        2 0.33880813E+00 0.25012531E+04</pdfrwt>
<pdfrwt beam="2">  1       -2 0.10926341E+00 0.25012531E+04</pdfrwt>
<totfact> 0.30658924E+00</totfact>
</mgrwt>
</event>
<event>
12    1  0.2404959E-007  0.1919469E+04  0.7818608E-02  0.8645226E-01
          1   -1    0    0  501    0  0.00000000000E+00  0.00000000000E+00  0.32305172935E+04  0.32305172935E+04  0.00000000000E+00 0. -1.
         -1   -1    0    0    0  501 -0.00000000000E+00 -0.00000000000E+00 -0.28512161973E+03  0.28512161973E+03  0.00000000000E+00 0.  1.
         23    2    1    2    0    0 -0.42800420564E+03  0.41259878978E+03  0.19744085940E+04  0.20639776887E+04  0.91045275197E+02 0.  0.
        254    2    1    2    0    0  0.42800420564E+03 -0.41259878978E+03  0.97098707976E+03  0.14516612245E+04  0.90059926730E+03 0.  0.
        -24    2    4    4    0    0  0.20701129109E+03 -0.67786913744E+03  0.54690976283E+03  0.89890134653E+03  0.80951219731E+02 0.  0.
         24    2    4    4    0    0  0.22099291455E+03  0.26527034766E+03  0.42407731694E+03  0.55275987797E+03  0.80595820734E+02 0.  0.
         11    1    3    3    0    0 -0.20353159928E+03  0.14959269147E+03  0.73232123371E+03  0.77465958626E+03  0.00000000000E+00 0.  1.
        -11    1    3    3    0    0 -0.22447260637E+03  0.26300609831E+03  0.12420873603E+04  0.12893181025E+04  0.00000000000E+00 0. -1.
          4    1    6    6  502    0  0.72075442425E+02  0.10963764739E+03  0.10632729136E+03  0.16888095220E+03  0.00000000000E+00 0. -1.
          3    1    5    5  503    0  0.23204222785E+02 -0.19440829784E+03  0.13737388930E+03  0.23917484751E+03  0.00000000000E+00 0. -1.
         -2    1    5    5    0  503  0.18380706831E+03 -0.48346083961E+03  0.40953587353E+03  0.65972649901E+03  0.00000000000E+00 0.  1.
         -3    1    6    6    0  502  0.14891747213E+03  0.15563270027E+03  0.31775002558E+03  0.38387892577E+03  0.00000000000E+00 0.  1.
<mgrwt>
<rscale>  0 0.19194690E+04</rscale>
<asrwt>0</asrwt>
<pdfrwt beam="1">  1        1 0.49700263E+00 0.19194690E+04</pdfrwt>
<pdfrwt beam="2">  1       -1 0.43864867E-01 0.19194690E+04</pdfrwt>
<totfact> 0.19412342E+00</totfact>
</mgrwt>
</event>
<event>
12    1  0.2404959E-007  0.2072496E+04  0.7818608E-02  0.8573457E-01
          2   -1    0    0  501    0  0.00000000000E+00  0.00000000000E+00  0.13335519695E+04  0.13335519695E+04  0.00000000000E+00 0.  1.
         -2   -1    0    0    0  501 -0.00000000000E+00 -0.00000000000E+00 -0.80522562771E+03  0.80522562771E+03  0.00000000000E+00 0. -1.
         23    2    1    2    0    0 -0.35170901996E+03  0.74191489984E+03  0.46750652744E+02  0.82827574781E+03  0.98580614422E+02 0.  0.
        254    2    1    2    0    0  0.35170901996E+03 -0.74191489984E+03  0.48157568905E+03  0.13105018494E+04  0.90075690378E+03 0.  0.
        -24    2    4    4    0    0  0.29811163537E+03  0.79790625731E+01 -0.13363442688E+03  0.33570327447E+03  0.76839546217E+02 0.  0.
         24    2    4    4    0    0  0.53597384592E+02 -0.74989396242E+03  0.61521011593E+03  0.97479857494E+03  0.80840215627E+02 0.  0.
         13    1    3    3    0    0 -0.26227457778E+03  0.46277752665E+03  0.31829159489E+01  0.53194090299E+03  0.00000000000E+00 0. -1.
        -13    1    3    3    0    0 -0.89434442182E+02  0.27913737320E+03  0.43567736795E+02  0.29633484482E+03  0.00000000000E+00 0.  1.
          2    1    6    6  502    0 -0.20749169373E+02 -0.19142932898E+03  0.16651517681E+03  0.25456437326E+03  0.00000000000E+00 0. -1.
          1    1    5    5  503    0  0.15517171632E+03 -0.33051118262E+02 -0.79384212313E+02  0.17740487910E+03  0.00000000000E+00 0. -1.
         -2    1    5    5    0  503  0.14293991905E+03  0.41030180836E+02 -0.54250214566E+02  0.15829839537E+03  0.00000000000E+00 0.  1.
         -1    1    6    6    0  502  0.74346553964E+02 -0.55846463343E+03  0.44869493912E+03  0.72023420168E+03  0.00000000000E+00 0.  1.
<mgrwt>
<rscale>  0 0.20724963E+04</rscale>
<asrwt>0</asrwt>
<pdfrwt beam="1">  1        2 0.20516184E+00 0.20724963E+04</pdfrwt>
<pdfrwt beam="2">  1       -2 0.12388087E+00 0.20724963E+04</pdfrwt>
<totfact> 0.71602580E+00</totfact>
</mgrwt>
</event>
<event>
12    1  0.2404959E-007  0.2079741E+04  0.7818608E-02  0.8570221E-01
          2   -1    0    0  501    0  0.00000000000E+00  0.00000000000E+00  0.76205882449E+03  0.76205882449E+03  0.00000000000E+00 0. -1.
         -2   -1    0    0    0  501 -0.00000000000E+00 -0.00000000000E+00 -0.14189589704E+04  0.14189589704E+04  0.00000000000E+00 0.  1.
         23    2    1    2    0    0  0.64897176392E+03 -0.75497673910E+02 -0.82365087811E+03  0.10554446213E+04  0.93264840988E+02 0.  0.
        254    2    1    2    0    0 -0.64897176392E+03  0.75497673910E+02  0.16675073216E+03  0.11255731736E+04  0.90124631111E+03 0.  0.
        -24    2    4    4    0    0  0.61990106044E+02 -0.28891800435E+03  0.88312866531E+02  0.31869610795E+03  0.80322228211E+02 0.  0.
         24    2    4    4    0    0 -0.71096186997E+03  0.36441567826E+03  0.78437865632E+02  0.80687706563E+03  0.81440365764E+02 0.  0.
         13    1    3    3    0    0  0.24870704406E+03 -0.16342989511E+01 -0.25571866200E+03  0.35672103778E+03  0.00000000000E+00 0. -1.
        -13    1    3    3    0    0  0.40026471986E+03 -0.73863374959E+02 -0.56793221611E+03  0.69872358356E+03  0.00000000000E+00 0.  1.
          2    1    6    6  502    0 -0.53458156473E+03  0.31227684404E+03  0.57924437045E+02  0.62181148034E+03  0.00000000000E+00 0. -1.
          1    1    5    5  503    0 -0.16576543686E+02 -0.99506103858E+02  0.35534368567E+02  0.10695297030E+03  0.00000000000E+00 0. -1.
         -2    1    5    5    0  503  0.78566649730E+02 -0.18941190049E+03  0.52778497963E+02  0.21174313766E+03  0.00000000000E+00 0.  1.
         -3    1    6    6    0  502 -0.17638030524E+03  0.52138834218E+02  0.20513428587E+02  0.18506558530E+03  0.00000000000E+00 0.  1.
<mgrwt>
<rscale>  0 0.20797406E+04</rscale>
<asrwt>0</asrwt>
<pdfrwt beam="1">  1        2 0.11723982E+00 0.20797406E+04</pdfrwt>
<pdfrwt beam="2">  1       -2 0.21830138E+00 0.20797406E+04</pdfrwt>
<totfact> 0.34334207E+00</totfact>
</mgrwt>
</event>
<event>
12    1  0.2404959E-007  0.4394998E+04  0.7818608E-02  0.7929282E-01
          2   -1    0    0  501    0  0.00000000000E+00  0.00000000000E+00  0.36958923553E+04  0.36958923553E+04  0.00000000000E+00 0. -1.
         -2   -1    0    0    0  501 -0.00000000000E+00 -0.00000000000E+00 -0.13065859314E+04  0.13065859314E+04  0.00000000000E+00 0.  1.
         23    2    1    2    0    0  0.15849738914E+04 -0.11396510332E+04  0.25156652605E+03  0.19703937789E+04  0.90659874095E+02 0.  0.
        254    2    1    2    0    0 -0.15849738914E+04  0.11396510332E+04  0.21377398978E+04  0.30320845078E+04  0.90147538948E+03 0.  0.
        -24    2    4    4    0    0 -0.56152862471E+03  0.40453298449E+02  0.25700433502E+03  0.62400840300E+03  0.79902397176E+02 0.  0.
         24    2    4    4    0    0 -0.10234452667E+04  0.10991977348E+04  0.18807355628E+04  0.24080761048E+04  0.77384723035E+02 0.  0.
         11    1    3    3    0    0  0.75060480514E+03 -0.51200764514E+03  0.15662441963E+03  0.92200358514E+03  0.00000000000E+00 0. -1.
        -11    1    3    3    0    0  0.83436908629E+03 -0.62764338806E+03  0.94942106414E+02  0.10483901937E+04  0.00000000000E+00 0.  1.
          2    1    6    6  502    0 -0.35624094104E+03  0.40604736648E+03  0.62314166531E+03  0.82467424292E+03  0.00000000000E+00 0. -1.
          3    1    5    5  503    0 -0.35728014076E+03 -0.11443839675E+02  0.17327124263E+03  0.39724423718E+03  0.00000000000E+00 0. -1.
         -4    1    5    5    0  503 -0.20424848395E+03  0.51897138125E+02  0.83733092397E+02  0.22676416583E+03  0.00000000000E+00 0.  1.
         -1    1    6    6    0  502 -0.66720432568E+03  0.69315036827E+03  0.12575938975E+04  0.15834018619E+04  0.00000000000E+00 0.  1.
<mgrwt>
<rscale>  0 0.43949976E+04</rscale>
<asrwt>0</asrwt>
<pdfrwt beam="1">  1        2 0.56859882E+00 0.43949976E+04</pdfrwt>
<pdfrwt beam="2">  1       -2 0.20101322E+00 0.43949976E+04</pdfrwt>
<totfact> 0.58675846E-02</totfact>
</mgrwt>
</event>
<event>
12    1  0.2404959E-007  0.5720310E+04  0.7818608E-02  0.7726081E-01
         -1   -1    0    0    0  501 -0.00000000000E+00  0.00000000000E+00  0.25362186370E+04  0.25362186370E+04  0.00000000000E+00 0.  1.
          1   -1    0    0  501    0  0.00000000000E+00 -0.00000000000E+00 -0.32254659743E+04  0.32254659743E+04  0.00000000000E+00 0. -1.
         23    2    1    2    0    0  0.11036583699E+04  0.20069543750E+04 -0.19384415298E+04  0.30020044619E+04  0.92453036560E+02 0.  0.
        254    2    1    2    0    0 -0.11036583699E+04 -0.20069543750E+04  0.12491941924E+04  0.27596801494E+04  0.89967812884E+03 0.  0.
        -24    2    4    4    0    0 -0.86700696799E+03 -0.11375466701E+04  0.32997689969E+03  0.14700885553E+04  0.81006769839E+02 0.  0.
         24    2    4    4    0    0 -0.23665140194E+03 -0.86940770492E+03  0.91921729272E+03  0.12895915941E+04  0.78818810851E+02 0.  0.
         13    1    3    3    0    0  0.34598002181E+03  0.68160901025E+03 -0.69361479620E+03  0.10321794921E+04  0.00000000000E+00 0. -1.
        -13    1    3    3    0    0  0.75767834811E+03  0.13253453648E+04 -0.12448267336E+04  0.19698249698E+04  0.00000000000E+00 0.  1.
          2    1    6    6  502    0 -0.20754363325E+03 -0.74918582548E+03  0.82905502683E+03  0.11365236462E+04  0.00000000000E+00 0. -1.
          1    1    5    5  503    0 -0.44412160577E+03 -0.51813209712E+03  0.16770787135E+03  0.70273095911E+03  0.00000000000E+00 0. -1.
         -2    1    5    5    0  503 -0.42288536221E+03 -0.61941457301E+03  0.16226902833E+03  0.76735759616E+03  0.00000000000E+00 0.  1.
         -1    1    6    6    0  502 -0.29107768691E+02 -0.12022187944E+03  0.90162265893E+02  0.15306794793E+03  0.00000000000E+00 0.  1.
<mgrwt>
<rscale>  0 0.57203101E+04</rscale>
<asrwt>0</asrwt>
<pdfrwt beam="1">  1        1 0.49622553E+00 0.57203101E+04</pdfrwt>
<pdfrwt beam="2">  1       -1 0.39018748E+00 0.57203101E+04</pdfrwt>
<totfact> 0.23166475E-03</totfact>
</mgrwt>
</event>
<event>
12    1  0.2404959E-007  0.2186293E+04  0.7818608E-02  0.8524155E-01
          2   -1    0    0  501    0  0.00000000000E+00  0.00000000000E+00  0.94823891558E+03  0.94823891558E+03  0.00000000000E+00 0. -1.
         -2   -1    0    0    0  501 -0.00000000000E+00 -0.00000000000E+00 -0.12601981958E+04  0.12601981958E+04  0.00000000000E+00 0.  1.
         23    2    1    2    0    0  0.67617579498E+03 -0.34309182270E+03 -0.62983217090E+03  0.98970455600E+03  0.88886670264E+02 0.  0.
        254    2    1    2    0    0 -0.67617579498E+03  0.34309182270E+03  0.31787289065E+03  0.12187325554E+04  0.89963334890E+03 0.  0.
        -24    2    4    4    0    0 -0.71269250151E+03  0.11253560979E+03 -0.99715713408E+02  0.73284322531E+03  0.80753354144E+02 0.  0.
         24    2    4    4    0    0  0.36516706530E+02  0.23055621291E+03  0.41758860406E+03  0.48588933009E+03  0.84962119113E+02 0.  0.
         11    1    3    3    0    0  0.39018781512E+03 -0.23972908742E+03 -0.40748937556E+03  0.61299605025E+03  0.00000000000E+00 0.  1.
        -11    1    3    3    0    0  0.28598797986E+03 -0.10336273528E+03 -0.22234279534E+03  0.37670850576E+03  0.00000000000E+00 0. -1.
          4    1    6    6  502    0  0.55295789041E+02  0.11397896744E+03  0.25737330354E+03  0.28686206908E+03  0.00000000000E+00 0. -1.
          3    1    5    5  503    0 -0.68542265410E+03  0.11924939953E+03 -0.84303234868E+02  0.70080786914E+03  0.00000000000E+00 0. -1.
         -4    1    5    5    0  503 -0.27269847410E+02 -0.67137897306E+01 -0.15412478539E+02  0.32035356172E+02  0.00000000000E+00 0.  1.
         -3    1    6    6    0  502 -0.18779082512E+02  0.11657724547E+03  0.16021530053E+03  0.19902726101E+03  0.00000000000E+00 0.  1.
<mgrwt>
<rscale>  0 0.21862927E+04</rscale>
<asrwt>0</asrwt>
<pdfrwt beam="1">  1        2 0.14588291E+00 0.21862927E+04</pdfrwt>
<pdfrwt beam="2">  1       -2 0.19387665E+00 0.21862927E+04</pdfrwt>
<totfact> 0.36361839E+00</totfact>
</mgrwt>
</event>
<event>
12    1  0.2404959E-007  0.1160675E+04  0.7818608E-02  0.9147992E-01
         -2   -1    0    0    0  501 -0.00000000000E+00  0.00000000000E+00  0.30185494538E+03  0.30185494538E+03  0.00000000000E+00 0.  1.
          2   -1    0    0  501    0  0.00000000000E+00 -0.00000000000E+00 -0.11157393418E+04  0.11157393418E+04  0.00000000000E+00 0. -1.
         23    2    1    2    0    0  0.19716190256E+03 -0.74902244239E+02 -0.11962627928E+03  0.25920216442E+03  0.91608696826E+02 0.  0.
        254    2    1    2    0    0 -0.19716190256E+03  0.74902244239E+02 -0.69425811714E+03  0.11583921228E+04  0.90299214549E+03 0.  0.
        -24    2    4    4    0    0 -0.46846442725E+03 -0.13309147900E+03 -0.15972237951E+03  0.51880236834E+03  0.80451211915E+02 0.  0.
         24    2    4    4    0    0  0.27130252469E+03  0.20799372324E+03 -0.53453573764E+03  0.63958975441E+03  0.80499380894E+02 0.  0.
         11    1    3    3    0    0  0.19710492281E+03 -0.57185607153E+02 -0.12546846305E+03  0.24054704214E+03  0.00000000000E+00 0.  1.
        -11    1    3    3    0    0  0.56979751072E-01 -0.17716637085E+02  0.58421837694E+01  0.18655122286E+02  0.00000000000E+00 0. -1.
          4    1    6    6  502    0 -0.22077659021E+01 -0.43865564456E+01 -0.81019790756E+01  0.94740789879E+01  0.00000000000E+00 0. -1.
          1    1    5    5  503    0 -0.24448108113E+02 -0.27819670940E+02 -0.77633809038E+01  0.37840641704E+02  0.00000000000E+00 0. -1.
         -2    1    5    5    0  503 -0.44401631914E+03 -0.10527180806E+03 -0.15195899860E+03  0.48096172664E+03  0.00000000000E+00 0.  1.
         -3    1    6    6    0  502  0.27351029059E+03  0.21238027969E+03 -0.52643375856E+03  0.63011567542E+03  0.00000000000E+00 0.  1.
<mgrwt>
<rscale>  0 0.11606747E+04</rscale>
<asrwt>0</asrwt>
<pdfrwt beam="1">  1        2 0.17165221E+00 0.11606747E+04</pdfrwt>
<pdfrwt beam="2">  1       -2 0.46439221E-01 0.11606747E+04</pdfrwt>
<totfact> 0.92612624E+01</totfact>
</mgrwt>
</event>
<event>
12    1  0.2404959E-007  0.3042444E+04  0.7818608E-02  0.8231714E-01
         -2   -1    0    0    0  501 -0.00000000000E+00  0.00000000000E+00  0.56278730868E+03  0.56278730868E+03  0.00000000000E+00 0.  1.
          2   -1    0    0  501    0  0.00000000000E+00 -0.00000000000E+00 -0.41118832126E+04  0.41118832126E+04  0.00000000000E+00 0. -1.
         23    2    1    2    0    0 -0.13428880038E+04  0.24307547085E+03 -0.12447554170E+04  0.18493137574E+04  0.90063588923E+02 0.  0.
        254    2    1    2    0    0  0.13428880038E+04 -0.24307547085E+03 -0.23043404869E+04  0.28253567639E+04  0.90012326279E+03 0.  0.
        -24    2    4    4    0    0  0.10044828668E+04 -0.25675257717E+03 -0.88986147372E+03  0.13685401637E+04  0.78364672142E+02 0.  0.
         24    2    4    4    0    0  0.33840513700E+03  0.13677106325E+02 -0.14144790132E+04  0.14568166001E+04  0.82816831657E+02 0.  0.
         13    1    3    3    0    0 -0.16033945295E+03  0.59200310540E+02 -0.15625168407E+03  0.23157721329E+03  0.00000000000E+00 0. -1.
        -13    1    3    3    0    0 -0.11825485508E+04  0.18387516031E+03 -0.10885037329E+04  0.16177365441E+04  0.00000000000E+00 0.  1.
          4    1    6    6  502    0  0.20648522278E+03  0.48452954374E+02 -0.88076666408E+03  0.90594357030E+03  0.00000000000E+00 0. -1.
          1    1    5    5  503    0  0.15585471419E+03 -0.62105408223E+02 -0.16969792986E+03  0.23863185258E+03  0.00000000000E+00 0. -1.
         -2    1    5    5    0  503  0.84862815257E+03 -0.19464716895E+03 -0.72016354387E+03  0.11299083112E+04  0.00000000000E+00 0.  1.
         -3    1    6    6    0  502  0.13191991422E+03 -0.34775848049E+02 -0.53371234914E+03  0.55087302984E+03  0.00000000000E+00 0.  1.
<mgrwt>
<rscale>  0 0.30424435E+04</rscale>
<asrwt>0</asrwt>
<pdfrwt beam="1">  1        2 0.63259740E+00 0.30424435E+04</pdfrwt>
<pdfrwt beam="2">  1       -2 0.86582666E-01 0.30424435E+04</pdfrwt>
<totfact> 0.27230249E-01</totfact>
</mgrwt>
</event>
<event>
12    1  0.2404959E-007  0.2546467E+04  0.7818608E-02  0.8386616E-01
         -2   -1    0    0    0  501 -0.00000000000E+00  0.00000000000E+00  0.90996605413E+03  0.90996605413E+03  0.00000000000E+00 0.  1.
          2   -1    0    0  501    0  0.00000000000E+00 -0.00000000000E+00 -0.17815214968E+04  0.17815214968E+04  0.00000000000E+00 0. -1.
         23    2    1    2    0    0 -0.91421773919E+03  0.57612820929E+03 -0.10692150546E+03  0.10900030190E+04  0.94639235436E+02 0.  0.
        254    2    1    2    0    0  0.91421773919E+03 -0.57612820929E+03 -0.76463393726E+03  0.16014845320E+04  0.90131562729E+03 0.  0.
        -24    2    4    4    0    0  0.14220754617E+03  0.19369869829E+03  0.22203075930E+02  0.25446094877E+03  0.80716949662E+02 0.  0.
         24    2    4    4    0    0  0.77201019302E+03 -0.76982690758E+03 -0.78683701319E+03  0.13470235832E+04  0.82017331429E+02 0.  0.
         13    1    3    3    0    0 -0.10392857081E+03  0.97479978472E+02  0.28649181037E+01  0.14251912780E+03  0.00000000000E+00 0. -1.
        -13    1    3    3    0    0 -0.81028916838E+03  0.47864823082E+03 -0.10978642356E+03  0.94748389119E+03  0.00000000000E+00 0.  1.
          2    1    6    6  502    0  0.15628255809E+03 -0.13777990160E+03 -0.18796479955E+03  0.28060346598E+03  0.00000000000E+00 0. -1.
          1    1    5    5  503    0  0.51971318093E+02  0.47994967330E+02  0.41464311085E+02  0.81998926133E+02  0.00000000000E+00 0. -1.
         -2    1    5    5    0  503  0.90236228074E+02  0.14570373096E+03 -0.19261235154E+02  0.17246202264E+03  0.00000000000E+00 0.  1.
         -1    1    6    6    0  502  0.61572763492E+03 -0.63204700598E+03 -0.59887221364E+03  0.10664201172E+04  0.00000000000E+00 0.  1.
<mgrwt>
<rscale>  0 0.25464674E+04</rscale>
<asrwt>0</asrwt>
<pdfrwt beam="1">  1        2 0.27408023E+00 0.25464674E+04</pdfrwt>
<pdfrwt beam="2">  1       -2 0.13999478E+00 0.25464674E+04</pdfrwt>
<totfact> 0.28199675E+00</totfact>
</mgrwt>
</event>
<event>
12    1  0.2404959E-007  0.1414914E+04  0.7818608E-02  0.8943093E-01
          1   -1    0    0  501    0  0.00000000000E+00  0.00000000000E+00  0.10708006642E+04  0.10708006642E+04  0.00000000000E+00 0. -1.
         -1   -1    0    0    0  501 -0.00000000000E+00 -0.00000000000E+00 -0.46740307998E+03  0.46740307998E+03  0.00000000000E+00 0.  1.
         23    2    1    2    0    0 -0.30178811104E+03  0.15518088363E+03 -0.77703092414E+02  0.35942870867E+03  0.89409481775E+02 0.  0.
        254    2    1    2    0    0  0.30178811104E+03 -0.15518088363E+03  0.68110067661E+03  0.11787750355E+04  0.90025289892E+03 0.  0.
        -24    2    4    4    0    0  0.51929502055E+03 -0.31303687785E+03  0.24135847380E+03  0.65733401046E+03  0.78579152265E+02 0.  0.
         24    2    4    4    0    0 -0.21750690950E+03  0.15785599421E+03  0.43974220281E+03  0.52144102504E+03  0.79371071990E+02 0.  0.
         11    1    3    3    0    0 -0.85703069592E+02  0.85752867679E+02 -0.59168775704E+01  0.12138195868E+03  0.00000000000E+00 0. -1.
        -11    1    3    3    0    0 -0.21608504145E+03  0.69428015956E+02 -0.71786214843E+02  0.23804674999E+03  0.00000000000E+00 0.  1.
          4    1    6    6  502    0 -0.14348351317E+03  0.14651158887E+03  0.33207189222E+03  0.39028823429E+03  0.00000000000E+00 0. -1.
          1    1    5    5  503    0  0.35228352101E+03 -0.25352071711E+03  0.17665460847E+03  0.46859714454E+03  0.00000000000E+00 0. -1.
         -2    1    5    5    0  503  0.16701149954E+03 -0.59516160738E+02  0.64703865337E+02  0.18873686592E+03  0.00000000000E+00 0.  1.
         -3    1    6    6    0  502 -0.74023396332E+02  0.11344405340E+02  0.10767031059E+03  0.13115279074E+03  0.00000000000E+00 0.  1.
<mgrwt>
<rscale>  0 0.14149142E+04</rscale>
<asrwt>0</asrwt>
<pdfrwt beam="1">  1        1 0.16473856E+00 0.14149142E+04</pdfrwt>
<pdfrwt beam="2">  1       -1 0.71908166E-01 0.14149142E+04</pdfrwt>
<totfact> 0.25364453E+01</totfact>
</mgrwt>
</event>
<event>
12    1  0.2404959E-007  0.4434162E+04  0.7818608E-02  0.7922266E-01
          2   -1    0    0  501    0  0.00000000000E+00  0.00000000000E+00  0.46910513595E+04  0.46910513595E+04  0.00000000000E+00 0. -1.
         -2   -1    0    0    0  501 -0.00000000000E+00 -0.00000000000E+00 -0.10478349495E+04  0.10478349495E+04  0.00000000000E+00 0.  1.
         23    2    1    2    0    0 -0.10746773152E+04  0.13408935217E+04  0.33648262800E+04  0.37793051989E+04  0.90361075261E+02 0.  0.
        254    2    1    2    0    0  0.10746773152E+04 -0.13408935217E+04  0.27839013007E+03  0.19595811100E+04  0.89973901428E+03 0.  0.
        -24    2    4    4    0    0  0.98625484090E+03 -0.75747364035E+03 -0.10575497337E+03  0.12506524293E+04  0.80513710641E+02 0.  0.
         24    2    4    4    0    0  0.88422474347E+02 -0.58341988135E+03  0.38414510344E+03  0.70892868069E+03  0.82553751440E+02 0.  0.
         11    1    3    3    0    0 -0.85759681519E+03  0.11003469573E+04  0.27941029532E+04  0.31230188980E+04  0.00000000000E+00 0.  1.
        -11    1    3    3    0    0 -0.21708050006E+03  0.24054656442E+03  0.57072332675E+03  0.65628630099E+03  0.00000000000E+00 0. -1.
          4    1    6    6  502    0  0.37358339541E+02 -0.37153349217E+03  0.28364323573E+03  0.46892032001E+03  0.00000000000E+00 0. -1.
          3    1    5    5  503    0  0.54813402588E+03 -0.40392989221E+03 -0.20010904932E+02  0.68118331194E+03  0.00000000000E+00 0. -1.
         -4    1    5    5    0  503  0.43812081502E+03 -0.35354374814E+03 -0.85744068436E+02  0.56946911740E+03  0.00000000000E+00 0.  1.
         -3    1    6    6    0  502  0.51064134805E+02 -0.21188638918E+03  0.10050186771E+03  0.24000836068E+03  0.00000000000E+00 0.  1.
<mgrwt>
<rscale>  0 0.44341617E+04</rscale>
<asrwt>0</asrwt>
<pdfrwt beam="1">  1        2 0.72170020E+00 0.44341617E+04</pdfrwt>
<pdfrwt beam="2">  1       -2 0.16120538E+00 0.44341617E+04</pdfrwt>
<totfact> 0.14593531E-02</totfact>
</mgrwt>
</event>
<event>
12    1  0.2525374E-007  0.2237250E+04  0.7818608E-02  0.8503082E-01
         -1   -1    0    0    0  501 -0.00000000000E+00  0.00000000000E+00  0.74533700680E+03  0.74533700680E+03  0.00000000000E+00 0.  1.
          1   -1    0    0  501    0  0.00000000000E+00 -0.00000000000E+00 -0.16788670559E+04  0.16788670559E+04  0.00000000000E+00 0. -1.
         23    2    1    2    0    0 -0.12699282271E+03 -0.91413344807E+03 -0.23425932209E+03  0.95672976312E+03  0.93205534973E+02 0.  0.
        254    2    1    2    0    0  0.12699282271E+03  0.91413344807E+03 -0.69927072699E+03  0.14674742996E+04  0.90151768277E+03 0.  0.
        -24    2    4    4    0    0  0.15386153324E+03  0.18116419490E+03 -0.68487180808E+03  0.72945729875E+03  0.81022961419E+02 0.  0.
         24    2    4    4    0    0 -0.26868710531E+02  0.73296925317E+03 -0.14398918912E+02  0.73801700081E+03  0.80597214108E+02 0.  0.
         13    1    3    3    0    0 -0.71311500464E+02 -0.57918977839E+03 -0.19321325569E+03  0.61471740797E+03  0.00000000000E+00 0. -1.
        -13    1    3    3    0    0 -0.55681322241E+02 -0.33494366968E+03 -0.41046066401E+02  0.34201235515E+03  0.00000000000E+00 0.  1.
          2    1    6    6  502    0 -0.51968695816E+01  0.30664888799E+03  0.33272667654E+02  0.30849249322E+03  0.00000000000E+00 0. -1.
          1    1    5    5  503    0  0.65328353723E+02  0.11778711479E+03 -0.28831624313E+03  0.31822610556E+03  0.00000000000E+00 0. -1.
         -2    1    5    5    0  503  0.88533179514E+02  0.63377080116E+02 -0.39655556496E+03  0.41123119319E+03  0.00000000000E+00 0.  1.
         -1    1    6    6    0  502 -0.21671840950E+02  0.42632036518E+03 -0.47671586566E+02  0.42952450759E+03  0.00000000000E+00 0.  1.
<mgrwt>
<rscale>  0 0.22372499E+04</rscale>
<asrwt>0</asrwt>
<pdfrwt beam="1">  1        1 0.25828724E+00 0.22372499E+04</pdfrwt>
<pdfrwt beam="2">  1       -1 0.11466723E+00 0.22372499E+04</pdfrwt>
<totfact> 0.30947081E+00</totfact>
</mgrwt>
</event>
<event>
12    1  0.2404959E-007  0.1827425E+04  0.7818608E-02  0.8691850E-01
         -2   -1    0    0    0  501 -0.00000000000E+00  0.00000000000E+00  0.62037459131E+03  0.62037459131E+03  0.00000000000E+00 0.  1.
          2   -1    0    0  501    0  0.00000000000E+00 -0.00000000000E+00 -0.13457517166E+04  0.13457517166E+04  0.00000000000E+00 0. -1.
         23    2    1    2    0    0 -0.30785912318E+03 -0.31689379877E+03 -0.83818225488E+03  0.95187980524E+03  0.91251037339E+02 0.  0.
        254    2    1    2    0    0  0.30785912318E+03  0.31689379877E+03  0.11280512957E+03  0.10142465027E+04  0.90596470767E+03 0.  0.
        -24    2    4    4    0    0  0.60085827635E+03  0.21319167381E+03  0.21582077590E+03  0.67784132065E+03  0.80055547171E+02 0.  0.
         24    2    4    4    0    0 -0.29299915317E+03  0.10370212496E+03 -0.10301564633E+03  0.33640518204E+03  0.77159501255E+02 0.  0.
         13    1    3    3    0    0 -0.18828207208E+03 -0.14150811329E+03 -0.49824281858E+03  0.55110851115E+03  0.00000000000E+00 0.  1.
        -13    1    3    3    0    0 -0.11957705110E+03 -0.17538568548E+03 -0.33993943630E+03  0.40077129410E+03  0.00000000000E+00 0. -1.
          2    1    6    6  502    0 -0.29070382954E+03  0.98732673471E+02 -0.11122413087E+03  0.32653891745E+03  0.00000000000E+00 0. -1.
          1    1    5    5  503    0  0.46985498282E+03  0.13081504423E+03  0.15899525783E+03  0.51298710772E+03  0.00000000000E+00 0. -1.
         -2    1    5    5    0  503  0.13100329353E+03  0.82376629576E+02  0.56825518068E+02  0.16485421292E+03  0.00000000000E+00 0.  1.
         -1    1    6    6    0  502 -0.22953236306E+01  0.49694514890E+01  0.82084845344E+01  0.98662645932E+01  0.00000000000E+00 0.  1.
<mgrwt>
<rscale>  0 0.18274246E+04</rscale>
<asrwt>0</asrwt>
<pdfrwt beam="1">  1        2 0.20703872E+00 0.18274246E+04</pdfrwt>
<pdfrwt beam="2">  1       -2 0.95442246E-01 0.18274246E+04</pdfrwt>
<totfact> 0.13506043E+01</totfact>
</mgrwt>
</event>
<event>
12    1  0.2404959E-007  0.1743827E+04  0.7818608E-02  0.8736756E-01
         -1   -1    0    0    0  501 -0.00000000000E+00  0.00000000000E+00  0.30604424639E+03  0.30604424639E+03  0.00000000000E+00 0.  1.
          1   -1    0    0  501    0  0.00000000000E+00 -0.00000000000E+00 -0.24840620659E+04  0.24840620659E+04  0.00000000000E+00 0. -1.
         23    2    1    2    0    0  0.38332071816E+03  0.41750341187E+03 -0.12655404040E+04  0.13896302257E+04  0.90751187632E+02 0.  0.
        254    2    1    2    0    0 -0.38332071816E+03 -0.41750341187E+03 -0.91247741545E+03  0.14004760866E+04  0.89859577308E+03 0.  0.
        -24    2    4    4    0    0  0.28214105664E+01 -0.60372508793E+03 -0.65385330488E+03  0.89347409769E+03  0.79245673600E+02 0.  0.
         24    2    4    4    0    0 -0.38614212873E+03  0.18622167606E+03 -0.25862411058E+03  0.50700198887E+03  0.79876967446E+02 0.  0.
         11    1    3    3    0    0  0.39557839378E+02  0.53476645285E+02 -0.22955660257E+03  0.23899959839E+03  0.00000000000E+00 0. -1.
        -11    1    3    3    0    0  0.34376287879E+03  0.36402676658E+03 -0.10359838015E+04  0.11506306273E+04  0.00000000000E+00 0.  1.
          2    1    6    6  502    0 -0.21427376171E+03  0.14599425252E+03 -0.16279675061E+03  0.30615412578E+03  0.00000000000E+00 0. -1.
          1    1    5    5  503    0  0.85514559913E+01 -0.50019596497E+03 -0.49496771219E+03  0.70374865320E+03  0.00000000000E+00 0. -1.
         -2    1    5    5    0  503 -0.57300454249E+01 -0.10352912296E+03 -0.15888559269E+03  0.18972544449E+03  0.00000000000E+00 0.  1.
         -1    1    6    6    0  502 -0.17186836702E+03  0.40227423544E+02 -0.95827359972E+02  0.20084786308E+03  0.00000000000E+00 0.  1.
<mgrwt>
<rscale>  0 0.17438267E+04</rscale>
<asrwt>0</asrwt>
<pdfrwt beam="1">  1        1 0.38216341E+00 0.17438267E+04</pdfrwt>
<pdfrwt beam="2">  1       -1 0.47083729E-01 0.17438267E+04</pdfrwt>
<totfact> 0.59345120E+00</totfact>
</mgrwt>
</event>
<event>
12    1  0.2404959E-007  0.1796282E+04  0.7818608E-02  0.8708279E-01
         -1   -1    0    0    0  501 -0.00000000000E+00  0.00000000000E+00  0.79587000661E+03  0.79587000661E+03  0.00000000000E+00 0.  1.
          1   -1    0    0  501    0  0.00000000000E+00 -0.00000000000E+00 -0.10135535115E+04  0.10135535115E+04  0.00000000000E+00 0. -1.
         23    2    1    2    0    0  0.64594392758E+03  0.60824980586E+02  0.75998726631E+02  0.65948722847E+03  0.90577934569E+02 0.  0.
        254    2    1    2    0    0 -0.64594392758E+03 -0.60824980586E+02 -0.29368223152E+03  0.11499362896E+04  0.90286265916E+03 0.  0.
        -24    2    4    4    0    0 -0.41378872109E+03 -0.35892586283E+03  0.13805778406E+03  0.57085191796E+03  0.82237946174E+02 0.  0.
         24    2    4    4    0    0 -0.23215520649E+03  0.29810088224E+03 -0.43174001558E+03  0.57908437169E+03  0.78607204400E+02 0.  0.
         11    1    3    3    0    0  0.43962081545E+03  0.50590049222E+01  0.73464742449E+02  0.44574558135E+03  0.00000000000E+00 0. -1.
        -11    1    3    3    0    0  0.20632311212E+03  0.55765975664E+02  0.25339841824E+01  0.21374164712E+03  0.00000000000E+00 0.  1.
          4    1    6    6  502    0 -0.68192552860E+02  0.37128653629E+02 -0.82307304053E+02  0.11315146259E+03  0.00000000000E+00 0. -1.
          1    1    5    5  503    0 -0.17194020195E+03 -0.10430602856E+03  0.29326636730E+02  0.20323196663E+03  0.00000000000E+00 0. -1.
         -2    1    5    5    0  503 -0.24184851914E+03 -0.25461983427E+03  0.10873114733E+03  0.36761995133E+03  0.00000000000E+00 0.  1.
         -3    1    6    6    0  502 -0.16396265363E+03  0.26097222861E+03 -0.34943271153E+03  0.46593290910E+03  0.00000000000E+00 0.  1.
<mgrwt>
<rscale>  0 0.17962815E+04</rscale>
<asrwt>0</asrwt>
<pdfrwt beam="1">  1        1 0.15593131E+00 0.17962815E+04</pdfrwt>
<pdfrwt beam="2">  1       -1 0.12244154E+00 0.17962815E+04</pdfrwt>
<totfact> 0.82126950E+00</totfact>
</mgrwt>
</event>
<event>
12    1  0.2404959E-007  0.2322292E+04  0.7818608E-02  0.8469183E-01
          2   -1    0    0  501    0  0.00000000000E+00  0.00000000000E+00  0.10696086451E+04  0.10696086451E+04  0.00000000000E+00 0. -1.
         -2   -1    0    0    0  501 -0.00000000000E+00 -0.00000000000E+00 -0.12605172067E+04  0.12605172067E+04  0.00000000000E+00 0.  1.
         23    2    1    2    0    0 -0.84339947247E+03  0.35902987450E+03  0.27728761958E+03  0.96211809887E+03  0.92507790264E+02 0.  0.
        254    2    1    2    0    0  0.84339947247E+03 -0.35902987450E+03 -0.46819618110E+03  0.13680077529E+04  0.90111732150E+03 0.  0.
        -24    2    4    4    0    0  0.20920606553E+03  0.29074537677E+03 -0.73883817967E+02  0.37484023339E+03  0.82136045946E+02 0.  0.
         24    2    4    4    0    0  0.63419340694E+03 -0.64977525127E+03 -0.39431236314E+03  0.99316751953E+03  0.80562569232E+02 0.  0.
         13    1    3    3    0    0 -0.13488895620E+03  0.44438842205E+02  0.76548690679E+02  0.16133673868E+03  0.00000000000E+00 0. -1.
        -13    1    3    3    0    0 -0.70851051627E+03  0.31459103229E+03  0.20073892890E+03  0.80078136019E+03  0.00000000000E+00 0.  1.
          2    1    6    6  502    0  0.51705046558E+03 -0.48341019502E+03 -0.31561151326E+03  0.77500788894E+03  0.00000000000E+00 0. -1.
          3    1    5    5  503    0  0.21276598133E+02  0.69147442748E+02  0.84627177466E+01  0.72840099247E+02  0.00000000000E+00 0. -1.
         -4    1    5    5    0  503  0.18792946740E+03  0.22159793402E+03 -0.82346535714E+02  0.30200013414E+03  0.00000000000E+00 0.  1.
         -1    1    6    6    0  502  0.11714294136E+03 -0.16636505625E+03 -0.78700849871E+02  0.21815963059E+03  0.00000000000E+00 0.  1.
<mgrwt>
<rscale>  0 0.23222921E+04</rscale>
<asrwt>0</asrwt>
<pdfrwt beam="1">  1        2 0.16455518E+00 0.23222921E+04</pdfrwt>
<pdfrwt beam="2">  1       -2 0.19392572E+00 0.23222921E+04</pdfrwt>
<totfact> 0.30039837E+00</totfact>
</mgrwt>
</event>
<event>
12    1  0.2404959E-007  0.1611106E+04  0.7818608E-02  0.8813754E-01
          1   -1    0    0  501    0  0.00000000000E+00  0.00000000000E+00  0.50746068524E+03  0.50746068524E+03  0.00000000000E+00 0. -1.
         -1   -1    0    0    0  501 -0.00000000000E+00 -0.00000000000E+00 -0.12787501406E+04  0.12787501406E+04  0.00000000000E+00 0.  1.
         23    2    1    2    0    0 -0.20179876219E+02  0.48215422220E+03 -0.55732495554E+03  0.74163401614E+03  0.80808331445E+02 0.  0.
        254    2    1    2    0    0  0.20179876219E+02 -0.48215422220E+03 -0.21396449985E+03  0.10445768097E+04  0.90137671528E+03 0.  0.
        -24    2    4    4    0    0  0.48765077407E+01 -0.50159217399E+03  0.25472281676E+03  0.56844275001E+03  0.81393840834E+02 0.  0.
         24    2    4    4    0    0  0.15303368479E+02  0.19437951790E+02 -0.46868731661E+03  0.47613405972E+03  0.80148705665E+02 0.  0.
         11    1    3    3    0    0  0.10588514573E+02  0.12701220300E+02 -0.34762801567E+02  0.38495324531E+02  0.00000000000E+00 0.  1.
        -11    1    3    3    0    0 -0.30768390792E+02  0.46945300190E+03 -0.52256215397E+03  0.70313869160E+03  0.00000000000E+00 0. -1.
          4    1    6    6  502    0  0.35611731140E+02 -0.14746456651E+02 -0.14584163152E+03  0.15084904660E+03  0.00000000000E+00 0. -1.
          1    1    5    5  503    0 -0.22057013362E+02 -0.20696531220E+03  0.14140818429E+03  0.25162954293E+03  0.00000000000E+00 0. -1.
         -2    1    5    5    0  503  0.26933521102E+02 -0.29462686179E+03  0.11331463247E+03  0.31681320708E+03  0.00000000000E+00 0.  1.
         -3    1    6    6    0  502 -0.20308362661E+02  0.34184408441E+02 -0.32284568509E+03  0.32528501312E+03  0.00000000000E+00 0.  1.
<mgrwt>
<rscale>  0 0.16111057E+04</rscale>
<asrwt>0</asrwt>
<pdfrwt beam="1">  1        1 0.78070876E-01 0.16111057E+04</pdfrwt>
<pdfrwt beam="2">  1       -1 0.19673079E+00 0.16111057E+04</pdfrwt>
<totfact> 0.65990519E+00</totfact>
</mgrwt>
</event>
<event>
12    1  0.2404959E-007  0.1160549E+04  0.7818608E-02  0.9148106E-01
          2   -1    0    0  501    0  0.00000000000E+00  0.00000000000E+00  0.27914021334E+03  0.27914021334E+03  0.00000000000E+00 0. -1.
         -2   -1    0    0    0  501 -0.00000000000E+00 -0.00000000000E+00 -0.12062699973E+04  0.12062699973E+04  0.00000000000E+00 0.  1.
         23    2    1    2    0    0 -0.10288624946E+02 -0.21151746095E+02 -0.45512072479E+03  0.46334676094E+03  0.83678519208E+02 0.  0.
        254    2    1    2    0    0  0.10288624946E+02  0.21151746095E+02 -0.47200905916E+03  0.10220634497E+04  0.90623831915E+03 0.  0.
        -24    2    4    4    0    0  0.37707647096E+03  0.42078900862E+02  0.36196736603E+02  0.39001912729E+03  0.82749121223E+02 0.  0.
         24    2    4    4    0    0 -0.36678784602E+03 -0.20927154767E+02 -0.50820579576E+03  0.63204432240E+03  0.78965972634E+02 0.  0.
         11    1    3    3    0    0  0.29007423501E+01 -0.11304641550E+02 -0.46304506511E+01  0.12555887065E+02  0.00000000000E+00 0. -1.
        -11    1    3    3    0    0 -0.13189367296E+02 -0.98471045443E+01 -0.45049027414E+03  0.45079087388E+03  0.00000000000E+00 0.  1.
          2    1    6    6  502    0 -0.32751982051E+02  0.38729780934E+01 -0.92383043769E+02  0.98093420083E+02  0.00000000000E+00 0. -1.
          3    1    5    5  503    0  0.14744993570E+03 -0.19747211138E+02 -0.41105945600E+01  0.14882315973E+03  0.00000000000E+00 0. -1.
         -4    1    5    5    0  503  0.22962653527E+03  0.61826112000E+02  0.40307331163E+02  0.24119596756E+03  0.00000000000E+00 0.  1.
         -1    1    6    6    0  502 -0.33403586397E+03 -0.24800132860E+02 -0.41582275199E+03  0.53395090231E+03  0.00000000000E+00 0.  1.
<mgrwt>
<rscale>  0 0.11605489E+04</rscale>
<asrwt>0</asrwt>
<pdfrwt beam="1">  1        2 0.42944648E-01 0.11605489E+04</pdfrwt>
<pdfrwt beam="2">  1       -2 0.18558000E+00 0.11605489E+04</pdfrwt>
<totfact> 0.19525632E+01</totfact>
</mgrwt>
</event>
<event>
12    1  0.2404959E-007  0.2969435E+04  0.7818608E-02  0.8252513E-01
          1   -1    0    0  501    0  0.00000000000E+00  0.00000000000E+00  0.27242543070E+04  0.27242543070E+04  0.00000000000E+00 0. -1.
         -1   -1    0    0    0  501 -0.00000000000E+00 -0.00000000000E+00 -0.80917021993E+03  0.80917021993E+03  0.00000000000E+00 0.  1.
         23    2    1    2    0    0 -0.28677125256E+03 -0.10945257073E+04  0.29785684515E+01  0.11352949151E+04  0.93066628261E+02 0.  0.
        254    2    1    2    0    0  0.28677125256E+03  0.10945257073E+04  0.19121055186E+04  0.23981296118E+04  0.90258176662E+03 0.  0.
        -24    2    4    4    0    0 -0.16180121981E+03  0.30615763169E+03  0.11722101998E+04  0.12248790219E+04  0.79622456751E+02 0.  0.
         24    2    4    4    0    0  0.44857247237E+03  0.78836807558E+03  0.73989531880E+03  0.11732505899E+04  0.79563674450E+02 0.  0.
         11    1    3    3    0    0 -0.22469952618E+03 -0.85199101568E+03  0.40977739003E+02  0.88207581474E+03  0.00000000000E+00 0. -1.
        -11    1    3    3    0    0 -0.62071726381E+02 -0.24253469159E+03 -0.37999170552E+02  0.25321910040E+03  0.00000000000E+00 0.  1.
          4    1    6    6  502    0  0.21727784377E+03  0.34488263782E+03  0.28723357911E+03  0.49865501525E+03  0.00000000000E+00 0. -1.
          3    1    5    5  503    0 -0.87217132448E+02  0.17998458179E+03  0.53855483357E+03  0.57449333037E+03  0.00000000000E+00 0. -1.
         -4    1    5    5    0  503 -0.74584087360E+02  0.12617304990E+03  0.63365536620E+03  0.65038569151E+03  0.00000000000E+00 0.  1.
         -3    1    6    6    0  502  0.23129462860E+03  0.44348543776E+03  0.45266173969E+03  0.67459557462E+03  0.00000000000E+00 0.  1.
<mgrwt>
<rscale>  0 0.29694346E+04</rscale>
<asrwt>0</asrwt>
<pdfrwt beam="1">  1        1 0.41911604E+00 0.29694346E+04</pdfrwt>
<pdfrwt beam="2">  1       -1 0.12448773E+00 0.29694346E+04</pdfrwt>
<totfact> 0.45485275E-01</totfact>
</mgrwt>
</event>
<event>
12    1  0.4446432E-007  0.1440660E+04  0.7818608E-02  0.8924901E-01
         -2   -1    0    0    0  501 -0.00000000000E+00  0.00000000000E+00  0.34109977335E+03  0.34109977335E+03  0.00000000000E+00 0. -1.
          2   -1    0    0  501    0  0.00000000000E+00 -0.00000000000E+00 -0.15211835616E+04  0.15211835616E+04  0.00000000000E+00 0.  1.
         23    2    1    2    0    0  0.28881167557E+03 -0.32121410947E+03 -0.36904664519E+03  0.57543180824E+03  0.91299789372E+02 0.  0.
        254    2    1    2    0    0 -0.28881167557E+03  0.32121410947E+03 -0.81103714301E+03  0.12868515267E+04  0.90089672898E+03 0.  0.
        -24    2    4    4    0    0 -0.36370455055E+03  0.40860205913E+03 -0.99934333094E+02  0.56153820357E+03  0.78112997118E+02 0.  0.
         24    2    4    4    0    0  0.74892874982E+02 -0.87387949663E+02 -0.71110280992E+03  0.72531332310E+03  0.84655855800E+02 0.  0.
         11    1    3    3    0    0  0.12709515169E+03 -0.88592209870E+02 -0.97827987757E+02  0.18322683325E+03  0.00000000000E+00 0. -1.
        -11    1    3    3    0    0  0.16171652388E+03 -0.23262189960E+03 -0.27121865743E+03  0.39220497499E+03  0.00000000000E+00 0.  1.
          2    1    6    6  502    0  0.26410232422E+01 -0.26562054519E+02 -0.43312209944E+02  0.50876962117E+02  0.00000000000E+00 0. -1.
          3    1    5    5  503    0 -0.45209197543E+02  0.88813815141E+02 -0.34624813806E+02  0.10550186270E+03  0.00000000000E+00 0. -1.
         -4    1    5    5    0  503 -0.31849535301E+03  0.31978824399E+03 -0.65309519289E+02  0.45603634087E+03  0.00000000000E+00 0.  1.
         -1    1    6    6    0  502  0.72251851740E+02 -0.60825895144E+02 -0.66779059998E+03  0.67443636098E+03  0.00000000000E+00 0.  1.
<mgrwt>
<rscale>  0 0.14406601E+04</rscale>
<asrwt>0</asrwt>
<pdfrwt beam="1">  1        2 0.23402823E+00 0.14406601E+04</pdfrwt>
<pdfrwt beam="2">  1       -2 0.52476890E-01 0.14406601E+04</pdfrwt>
<totfact> 0.41057563E+01</totfact>
</mgrwt>
</event>
<event>
12    1  0.2404959E-007  0.2727353E+04  0.7818608E-02  0.8326184E-01
          1   -1    0    0  501    0  0.00000000000E+00  0.00000000000E+00  0.53166649520E+03  0.53166649520E+03  0.00000000000E+00 0. -1.
         -1   -1    0    0    0  501 -0.00000000000E+00 -0.00000000000E+00 -0.34977063191E+04  0.34977063191E+04  0.00000000000E+00 0.  1.
         23    2    1    2    0    0 -0.73851478304E+03  0.47023084244E+02 -0.27452782474E+04  0.28447105157E+04  0.90609089166E+02 0.  0.
        254    2    1    2    0    0  0.73851478304E+03 -0.47023084244E+02 -0.22076157647E+03  0.11846622986E+04  0.89837288076E+03 0.  0.
        -24    2    4    4    0    0  0.88609590530E+03  0.70939449986E+02 -0.12754961283E+02  0.89255114525E+03  0.79287444822E+02 0.  0.
         24    2    4    4    0    0 -0.14758112226E+03 -0.11796253423E+03 -0.20800661519E+03  0.29211115336E+03  0.79792398296E+02 0.  0.
         11    1    3    3    0    0 -0.45854867705E+03  0.65503999778E+02 -0.16134503092E+04  0.16786243068E+04  0.00000000000E+00 0. -1.
        -11    1    3    3    0    0 -0.27996610599E+03 -0.18480915534E+02 -0.11318279382E+04  0.11660862088E+04  0.00000000000E+00 0.  1.
          2    1    6    6  502    0 -0.26315699904E+01 -0.33544335162E+02 -0.58136782730E+02  0.67171668791E+02  0.00000000000E+00 0. -1.
          3    1    5    5  503    0  0.35004473179E+02  0.16420433734E+02  0.79085047780E+01  0.39465025457E+02  0.00000000000E+00 0. -1.
         -2    1    5    5    0  503  0.85109143212E+03  0.54519016253E+02 -0.20663466061E+02  0.85308611980E+03  0.00000000000E+00 0.  1.
         -1    1    6    6    0  502 -0.14494955227E+03 -0.84418199068E+02 -0.14986983246E+03  0.22493948457E+03  0.00000000000E+00 0.  1.
<mgrwt>
<rscale>  0 0.27273528E+04</rscale>
<asrwt>0</asrwt>
<pdfrwt beam="1">  1        1 0.81794848E-01 0.27273528E+04</pdfrwt>
<pdfrwt beam="2">  1       -1 0.53810865E+00 0.27273528E+04</pdfrwt>
<totfact> 0.30711250E-02</totfact>
</mgrwt>
</event>
<event>
12    1  0.2404959E-007  0.4782401E+04  0.7818608E-02  0.7862980E-01
          1   -1    0    0  501    0  0.00000000000E+00  0.00000000000E+00  0.39517535625E+04  0.39517535625E+04  0.00000000000E+00 0. -1.
         -1   -1    0    0    0  501 -0.00000000000E+00 -0.00000000000E+00 -0.14469120673E+04  0.14469120673E+04  0.00000000000E+00 0.  1.
         23    2    1    2    0    0 -0.63369452140E+03 -0.22065004380E+04  0.14479202369E+04  0.27157297673E+04  0.92207520641E+02 0.  0.
        254    2    1    2    0    0  0.63369452140E+03  0.22065004380E+04  0.10569212583E+04  0.26829358624E+04  0.90047174657E+03 0.  0.
        -24    2    4    4    0    0  0.20713119428E+03  0.15408120791E+04  0.29965938382E+03  0.15852110690E+04  0.78058901443E+02 0.  0.
         24    2    4    4    0    0  0.42656332712E+03  0.66568835891E+03  0.75726187445E+03  0.10977247935E+04  0.80354915726E+02 0.  0.
         11    1    3    3    0    0 -0.57786571256E+03 -0.19084452557E+04  0.12419846281E+04  0.23491738744E+04  0.00000000000E+00 0.  1.
        -11    1    3    3    0    0 -0.55828808839E+02 -0.29805518228E+03  0.20593560887E+03  0.36655589285E+03  0.00000000000E+00 0. -1.
          4    1    6    6  502    0  0.27443393082E+03  0.35897191594E+03  0.44955882249E+03  0.63739936751E+03  0.00000000000E+00 0. -1.
          1    1    5    5  503    0  0.18618402843E+03  0.13495850610E+04  0.28807893114E+03  0.13924919389E+04  0.00000000000E+00 0. -1.
         -2    1    5    5    0  503  0.20947165846E+02  0.19122701813E+03  0.11580452679E+02  0.19271913009E+03  0.00000000000E+00 0.  1.
         -3    1    6    6    0  502  0.15212939630E+03  0.30671644298E+03  0.30770305196E+03  0.46032542597E+03  0.00000000000E+00 0.  1.
<mgrwt>
<rscale>  0 0.47824010E+04</rscale>
<asrwt>0</asrwt>
<pdfrwt beam="1">  1        1 0.60796208E+00 0.47824010E+04</pdfrwt>
<pdfrwt beam="2">  1       -1 0.22260186E+00 0.47824010E+04</pdfrwt>
<totfact> 0.81857611E-03</totfact>
</mgrwt>
</event>
<event>
12    1  0.2404959E-007  0.2093168E+04  0.7818608E-02  0.8564259E-01
         -1   -1    0    0    0  501 -0.00000000000E+00  0.00000000000E+00  0.64542470368E+03  0.64542470368E+03  0.00000000000E+00 0.  1.
          1   -1    0    0  501    0  0.00000000000E+00 -0.00000000000E+00 -0.16970817318E+04  0.16970817318E+04  0.00000000000E+00 0. -1.
         23    2    1    2    0    0 -0.80693696990E+03  0.15276811992E+03 -0.67414063844E+03  0.10664139870E+04  0.91037462022E+02 0.  0.
        254    2    1    2    0    0  0.80693696990E+03 -0.15276811992E+03 -0.37751638972E+03  0.12760924485E+04  0.90078184970E+03 0.  0.
        -24    2    4    4    0    0 -0.83156497558E+02 -0.27654556993E+03 -0.18926343696E+03  0.35417474173E+03  0.78909085498E+02 0.  0.
         24    2    4    4    0    0  0.89009346745E+03  0.12377745001E+03 -0.18825295276E+03  0.92191770676E+03  0.83101419269E+02 0.  0.
         11    1    3    3    0    0 -0.52773637450E+03  0.74899599210E+02 -0.38953881575E+03  0.66019400172E+03  0.00000000000E+00 0.  1.
        -11    1    3    3    0    0 -0.27920059539E+03  0.77868520715E+02 -0.28460182269E+03  0.40621998531E+03  0.00000000000E+00 0. -1.
          4    1    6    6  502    0  0.51846329768E+03  0.11224328372E+03 -0.10089352912E+03  0.53998356456E+03  0.00000000000E+00 0. -1.
          1    1    5    5  503    0 -0.56627419114E+02 -0.14895665374E+03 -0.59035222540E+02  0.16994089205E+03  0.00000000000E+00 0. -1.
         -2    1    5    5    0  503 -0.26529078444E+02 -0.12758891619E+03 -0.13022821442E+03  0.18423384968E+03  0.00000000000E+00 0.  1.
         -3    1    6    6    0  502  0.37163016978E+03  0.11534166292E+02 -0.87359423641E+02  0.38193414220E+03  0.00000000000E+00 0.  1.
<mgrwt>
<rscale>  0 0.20931684E+04</rscale>
<asrwt>0</asrwt>
<pdfrwt beam="1">  1        1 0.26108949E+00 0.20931684E+04</pdfrwt>
<pdfrwt beam="2">  1       -1 0.99296110E-01 0.20931684E+04</pdfrwt>
<totfact> 0.42673738E+00</totfact>
</mgrwt>
</event>
<event>
12    1  0.2404959E-007  0.2129777E+04  0.7818608E-02  0.8548239E-01
         -2   -1    0    0    0  501 -0.00000000000E+00  0.00000000000E+00  0.16835821828E+04  0.16835821828E+04  0.00000000000E+00 0.  1.
          2   -1    0    0  501    0  0.00000000000E+00 -0.00000000000E+00 -0.67355641176E+03  0.67355641176E+03  0.00000000000E+00 0. -1.
         23    2    1    2    0    0 -0.59937810617E+03  0.41902296893E+03  0.94339074086E+03  0.11969143501E+04  0.88224196688E+02 0.  0.
        254    2    1    2    0    0  0.59937810617E+03 -0.41902296893E+03  0.66635030171E+02  0.11602242444E+04  0.89824590592E+03 0.  0.
        -24    2    4    4    0    0  0.26826816885E+03 -0.10281816173E+03  0.46193155219E+03  0.55013371442E+03  0.82018047023E+02 0.  0.
         24    2    4    4    0    0  0.33110993732E+03 -0.31620480719E+03 -0.39529652202E+03  0.61009053002E+03  0.79572883681E+02 0.  0.
         11    1    3    3    0    0 -0.40819149834E+02  0.59970817877E+02  0.98033683917E+02  0.12195616086E+03  0.00000000000E+00 0. -1.
        -11    1    3    3    0    0 -0.55855895634E+03  0.35905215105E+03  0.84535705694E+03  0.10749581892E+04  0.00000000000E+00 0.  1.
          4    1    6    6  502    0  0.20965824277E+03 -0.22629291844E+03 -0.30627769955E+03  0.43470805484E+03  0.00000000000E+00 0. -1.
          3    1    5    5  503    0  0.23917753645E+03 -0.11225834810E+03  0.38127528918E+03  0.46387355691E+03  0.00000000000E+00 0. -1.
         -4    1    5    5    0  503  0.29090632402E+02  0.94401863632E+01  0.80656263010E+02  0.86260157517E+02  0.00000000000E+00 0.  1.
         -3    1    6    6    0  502  0.12145169455E+03 -0.89911888752E+02 -0.89018822469E+02  0.17538247519E+03  0.00000000000E+00 0.  1.
<mgrwt>
<rscale>  0 0.21297771E+04</rscale>
<asrwt>0</asrwt>
<pdfrwt beam="1">  1        2 0.10362406E+00 0.21297771E+04</pdfrwt>
<pdfrwt beam="2">  1       -2 0.25901264E+00 0.21297771E+04</pdfrwt>
<totfact> 0.22368383E+00</totfact>
</mgrwt>
</event>
<event>
12    1  0.2404959E-007  0.2750939E+04  0.7818608E-02  0.8318664E-01
         -2   -1    0    0    0  501 -0.00000000000E+00  0.00000000000E+00  0.25715735891E+04  0.25715735891E+04  0.00000000000E+00 0.  1.
          2   -1    0    0  501    0  0.00000000000E+00 -0.00000000000E+00 -0.73570399579E+03  0.73570399579E+03  0.00000000000E+00 0. -1.
         23    2    1    2    0    0 -0.47167986636E+03  0.34771238954E+03 -0.47443090402E+03  0.75943696959E+03  0.90961672825E+02 0.  0.
        254    2    1    2    0    0  0.47167986636E+03 -0.34771238954E+03  0.23103004973E+04  0.25478406153E+04  0.90034305170E+03 0.  0.
        -24    2    4    4    0    0 -0.19177075414E+03 -0.34636078106E+03  0.94148264515E+03  0.10245912833E+04  0.81583784320E+02 0.  0.
         24    2    4    4    0    0  0.66345062050E+03 -0.13516084818E+01  0.13688178522E+04  0.15232493320E+04  0.80359581260E+02 0.  0.
         13    1    3    3    0    0 -0.23850255585E+03  0.15880566144E+03 -0.17632361042E+03  0.33644126210E+03  0.00000000000E+00 0.  1.
        -13    1    3    3    0    0 -0.23317731052E+03  0.18890672810E+03 -0.29810729360E+03  0.42299570750E+03  0.00000000000E+00 0. -1.
          2    1    6    6  502    0  0.22138572309E+03 -0.16180665373E+02  0.38145298937E+03  0.44133868561E+03  0.00000000000E+00 0. -1.
          3    1    5    5  503    0 -0.13363599986E+03 -0.15825742131E+03  0.46616472122E+03  0.51011130076E+03  0.00000000000E+00 0. -1.
         -4    1    5    5    0  503 -0.58134754282E+02 -0.18810335975E+03  0.47531792393E+03  0.51447998252E+03  0.00000000000E+00 0.  1.
         -1    1    6    6    0  502  0.44206489742E+03  0.14829056891E+02  0.98736486279E+03  0.10819106464E+04  0.00000000000E+00 0.  1.
<mgrwt>
<rscale>  0 0.27509395E+04</rscale>
<asrwt>0</asrwt>
<pdfrwt beam="1">  1        2 0.11318523E+00 0.27509395E+04</pdfrwt>
<pdfrwt beam="2">  1       -2 0.39562670E+00 0.27509395E+04</pdfrwt>
<totfact> 0.26618672E-01</totfact>
</mgrwt>
</event>
<event>
12    1  0.2404959E-007  0.5260733E+04  0.7818608E-02  0.7789499E-01
          1   -1    0    0  501    0  0.00000000000E+00  0.00000000000E+00  0.15065192953E+04  0.15065192953E+04  0.00000000000E+00 0. -1.
         -1   -1    0    0    0  501 -0.00000000000E+00 -0.00000000000E+00 -0.45925913641E+04  0.45925913641E+04  0.00000000000E+00 0.  1.
         23    2    1    2    0    0  0.19619773638E+04 -0.16151579755E+04 -0.12224259901E+04  0.28214231406E+04  0.89514104456E+02 0.  0.
        254    2    1    2    0    0 -0.19619773638E+04  0.16151579755E+04 -0.18636460786E+04  0.32776875188E+04  0.90109283801E+03 0.  0.
        -24    2    4    4    0    0 -0.16917642874E+04  0.15581322299E+04 -0.12954107283E+04  0.26408614321E+04  0.78852383578E+02 0.  0.
         24    2    4    4    0    0 -0.27021307635E+03  0.57025745589E+02 -0.56823535034E+03  0.63682608671E+03  0.79931277077E+02 0.  0.
         13    1    3    3    0    0  0.64522892531E+03 -0.53909892062E+03 -0.45093485226E+03  0.95409132333E+03  0.00000000000E+00 0.  1.
        -13    1    3    3    0    0  0.13167484385E+04 -0.10760590549E+04 -0.77149113788E+03  0.18673318172E+04  0.00000000000E+00 0. -1.
          4    1    6    6  502    0 -0.11262532044E+02 -0.14632502474E+02 -0.29386994163E+02  0.34706630240E+02  0.00000000000E+00 0. -1.
          1    1    5    5  503    0 -0.67943916911E+03  0.67835123504E+03 -0.53587260850E+03  0.10995260048E+04  0.00000000000E+00 0. -1.
         -2    1    5    5    0  503 -0.10123251183E+04  0.87978099489E+03 -0.75953811980E+03  0.15413354273E+04  0.00000000000E+00 0.  1.
         -3    1    6    6    0  502 -0.25895054430E+03  0.71658248063E+02 -0.53884835617E+03  0.60211945647E+03  0.00000000000E+00 0.  1.
<mgrwt>
<rscale>  0 0.52607328E+04</rscale>
<asrwt>0</asrwt>
<pdfrwt beam="1">  1        1 0.23177221E+00 0.52607328E+04</pdfrwt>
<pdfrwt beam="2">  1       -1 0.70655250E+00 0.52607328E+04</pdfrwt>
<totfact> 0.87900171E-04</totfact>
</mgrwt>
</event>
<event>
12    1  0.2404959E-007  0.1689978E+04  0.7818608E-02  0.8767101E-01
          2   -1    0    0  501    0  0.00000000000E+00  0.00000000000E+00  0.17381148321E+04  0.17381148321E+04  0.00000000000E+00 0.  1.
         -2   -1    0    0    0  501 -0.00000000000E+00 -0.00000000000E+00 -0.41079348731E+03  0.41079348731E+03  0.00000000000E+00 0. -1.
         23    2    1    2    0    0 -0.13932185741E+03 -0.41869483927E+03 -0.41844027768E+02  0.45240122184E+03  0.90553820878E+02 0.  0.
        254    2    1    2    0    0  0.13932185741E+03  0.41869483927E+03  0.13691653726E+04  0.16965070976E+04  0.89933673689E+03 0.  0.
        -24    2    4    4    0    0 -0.18886446117E+03 -0.17052875078E+03  0.16390402453E+03  0.31300739164E+03  0.79744958643E+02 0.  0.
         24    2    4    4    0    0  0.32818631858E+03  0.58922359005E+03  0.12052613480E+04  0.13834997059E+04  0.80782550621E+02 0.  0.
         11    1    3    3    0    0 -0.10391028317E+03 -0.36110450036E+03 -0.64182859341E+02  0.38119974628E+03  0.00000000000E+00 0. -1.
        -11    1    3    3    0    0 -0.35411574236E+02 -0.57590338912E+02  0.22338831572E+02  0.71201475560E+02  0.00000000000E+00 0.  1.
          2    1    6    6  502    0  0.28883576341E+03  0.50164529180E+03  0.10835531231E+04  0.12284793313E+04  0.00000000000E+00 0. -1.
          1    1    5    5  503    0 -0.11834887453E+03 -0.12368512401E+03  0.14920740439E+03  0.22708437975E+03  0.00000000000E+00 0. -1.
         -2    1    5    5    0  503 -0.70515586644E+02 -0.46843626768E+02  0.14696620144E+02  0.85923011889E+02  0.00000000000E+00 0.  1.
         -1    1    6    6    0  502  0.39350555166E+02  0.87578298254E+02  0.12170822497E+03  0.15502037460E+03  0.00000000000E+00 0.  1.
<mgrwt>
<rscale>  0 0.16899778E+04</rscale>
<asrwt>0</asrwt>
<pdfrwt beam="1">  1        2 0.26740228E+00 0.16899778E+04</pdfrwt>
<pdfrwt beam="2">  1       -2 0.63198999E-01 0.16899778E+04</pdfrwt>
<totfact> 0.20621858E+01</totfact>
</mgrwt>
</event>
<event>
12    1  0.2404959E-007  0.2334956E+04  0.7818608E-02  0.8464265E-01
         -1   -1    0    0    0  501 -0.00000000000E+00  0.00000000000E+00  0.47952181649E+03  0.47952181649E+03  0.00000000000E+00 0.  1.
          1   -1    0    0  501    0  0.00000000000E+00 -0.00000000000E+00 -0.28424257635E+04  0.28424257635E+04  0.00000000000E+00 0. -1.
         23    2    1    2    0    0  0.53647487503E+03 -0.25703777558E+03  0.12060591190E+03  0.61378056441E+03  0.91143215043E+02 0.  0.
        254    2    1    2    0    0 -0.53647487503E+03  0.25703777558E+03 -0.24835098589E+04  0.27081670156E+04  0.90137320539E+03 0.  0.
        -24    2    4    4    0    0 -0.28414065312E+03 -0.25520891708E+03 -0.16484060401E+04  0.16937608606E+04  0.75603423216E+02 0.  0.
         24    2    4    4    0    0 -0.25233422191E+03  0.51224669266E+03 -0.83510381879E+03  0.10144061550E+04  0.74513257063E+02 0.  0.
         13    1    3    3    0    0  0.20477042113E+03 -0.81671070801E+02  0.87243763332E+02  0.23709188813E+03  0.00000000000E+00 0.  1.
        -13    1    3    3    0    0  0.33170445390E+03 -0.17536670478E+03  0.33362148567E+02  0.37668867628E+03  0.00000000000E+00 0. -1.
          2    1    6    6  502    0 -0.66449758717E+02  0.79895252445E+02 -0.17885125581E+03  0.20684920474E+03  0.00000000000E+00 0. -1.
          3    1    5    5  503    0 -0.61864939364E+02 -0.67616533765E+02 -0.54561741256E+03  0.55326090342E+03  0.00000000000E+00 0. -1.
         -4    1    5    5    0  503 -0.22227571376E+03 -0.18759238332E+03 -0.11027886275E+04  0.11404999571E+04  0.00000000000E+00 0.  1.
         -1    1    6    6    0  502 -0.18588446319E+03  0.43235144022E+03 -0.65625256298E+03  0.80755695027E+03  0.00000000000E+00 0.  1.
<mgrwt>
<rscale>  0 0.23349562E+04</rscale>
<asrwt>0</asrwt>
<pdfrwt beam="1">  1        1 0.43729628E+00 0.23349562E+04</pdfrwt>
<pdfrwt beam="2">  1       -1 0.73772586E-01 0.23349562E+04</pdfrwt>
<totfact> 0.12963327E+00</totfact>
</mgrwt>
</event>
<event>
12    1  0.2404959E-007  0.1325319E+04  0.7818608E-02  0.9009724E-01
         -2   -1    0    0    0  501 -0.00000000000E+00  0.00000000000E+00  0.20896777512E+03  0.20896777512E+03  0.00000000000E+00 0.  1.
          2   -1    0    0  501    0  0.00000000000E+00 -0.00000000000E+00 -0.21013651491E+04  0.21013651491E+04  0.00000000000E+00 0. -1.
         23    2    1    2    0    0 -0.14403307148E+02 -0.34433352714E+03 -0.42716702068E+03  0.55624343579E+03  0.90344137235E+02 0.  0.
        254    2    1    2    0    0  0.14403307148E+02  0.34433352714E+03 -0.14652303533E+04  0.17540894884E+04  0.90064249953E+03 0.  0.
        -24    2    4    4    0    0  0.35388498251E+03  0.16697887971E+03 -0.23535057659E+03  0.46346655557E+03  0.79339946534E+02 0.  0.
         24    2    4    4    0    0 -0.33948167536E+03  0.17735464743E+03 -0.12298797767E+04  0.12906229328E+04  0.80005067064E+02 0.  0.
         13    1    3    3    0    0 -0.27929365461E+02 -0.86118487360E+02 -0.65903813617E+02  0.11198105183E+03  0.00000000000E+00 0.  1.
        -13    1    3    3    0    0  0.13526058313E+02 -0.25821503978E+03 -0.36126320706E+03  0.44426238396E+03  0.00000000000E+00 0. -1.
          2    1    6    6  502    0  0.24161863869E+01  0.58504883372E+01 -0.47308497527E+02  0.47730075515E+02  0.00000000000E+00 0. -1.
          3    1    5    5  503    0  0.23952336758E+03  0.14394011726E+03 -0.19183537726E+03  0.33895576842E+03  0.00000000000E+00 0. -1.
         -4    1    5    5    0  503  0.11436161493E+03  0.23038762443E+02 -0.43515199325E+02  0.12451078715E+03  0.00000000000E+00 0.  1.
         -1    1    6    6    0  502 -0.34189786175E+03  0.17150415910E+03 -0.11825712791E+04  0.12428928573E+04  0.00000000000E+00 0.  1.
<mgrwt>
<rscale>  0 0.13253190E+04</rscale>
<asrwt>0</asrwt>
<pdfrwt beam="1">  1        2 0.32328695E+00 0.13253190E+04</pdfrwt>
<pdfrwt beam="2">  1       -2 0.32148888E-01 0.13253190E+04</pdfrwt>
<totfact> 0.51749581E+01</totfact>
</mgrwt>
</event>
<event>
12    1  0.2404959E-007  0.2661718E+04  0.7818608E-02  0.8347534E-01
         -1   -1    0    0    0  501 -0.00000000000E+00  0.00000000000E+00  0.11458115590E+04  0.11458115590E+04  0.00000000000E+00 0.  1.
          1   -1    0    0  501    0  0.00000000000E+00 -0.00000000000E+00 -0.15457908956E+04  0.15457908956E+04  0.00000000000E+00 0. -1.
         23    2    1    2    0    0 -0.52081571778E+03 -0.10198354430E+04 -0.44855250077E+03  0.12334498868E+04  0.94265235746E+02 0.  0.
        254    2    1    2    0    0  0.52081571778E+03  0.10198354430E+04  0.48573164076E+02  0.14581525678E+04  0.90140790772E+03 0.  0.
        -24    2    4    4    0    0  0.57142971471E+03  0.35292717059E+03 -0.25032047320E+03  0.72124454973E+03  0.80273623409E+02 0.  0.
         24    2    4    4    0    0 -0.50613996928E+02  0.66690827238E+03  0.29889363727E+03  0.73690801808E+03  0.79797244642E+02 0.  0.
         13    1    3    3    0    0 -0.15135990553E+03 -0.25680757056E+03 -0.15727709320E+03  0.33704010644E+03  0.00000000000E+00 0. -1.
        -13    1    3    3    0    0 -0.36945581225E+03 -0.76302787241E+03 -0.29127540757E+03  0.89640978036E+03  0.00000000000E+00 0.  1.
          2    1    6    6  502    0 -0.24388619241E+02  0.31541535881E+03  0.97905835481E+02  0.33116039308E+03  0.00000000000E+00 0. -1.
          1    1    5    5  503    0  0.82410322468E+02  0.72867594109E+02 -0.16974647551E+02  0.11130717039E+03  0.00000000000E+00 0. -1.
         -2    1    5    5    0  503  0.48901939224E+03  0.28005957649E+03 -0.23334582565E+03  0.60993737934E+03  0.00000000000E+00 0.  1.
         -1    1    6    6    0  502 -0.26225377686E+02  0.35149291356E+03  0.20098780179E+03  0.40574762499E+03  0.00000000000E+00 0.  1.
<mgrwt>
<rscale>  0 0.26617175E+04</rscale>
<asrwt>0</asrwt>
<pdfrwt beam="1">  1        1 0.23781398E+00 0.26617175E+04</pdfrwt>
<pdfrwt beam="2">  1       -1 0.17627870E+00 0.26617175E+04</pdfrwt>
<totfact> 0.11795357E+00</totfact>
</mgrwt>
</event>
<event>
12    1  0.2404959E-007  0.1998246E+04  0.7818608E-02  0.8607441E-01
         -1   -1    0    0    0  501 -0.00000000000E+00  0.00000000000E+00  0.61311381510E+03  0.61311381510E+03  0.00000000000E+00 0.  1.
          1   -1    0    0  501    0  0.00000000000E+00 -0.00000000000E+00 -0.16281594562E+04  0.16281594562E+04  0.00000000000E+00 0. -1.
         23    2    1    2    0    0  0.70219696083E+03 -0.10337427737E+03 -0.80834409740E+03  0.10794993147E+04  0.90176369933E+02 0.  0.
        254    2    1    2    0    0 -0.70219696083E+03  0.10337427737E+03 -0.20670154367E+03  0.11617739565E+04  0.89622898017E+03 0.  0.
        -24    2    4    4    0    0  0.73805194277E+01 -0.15049227117E+03 -0.35114969233E+03  0.39024924406E+03  0.79284111374E+02 0.  0.
         24    2    4    4    0    0 -0.70957748026E+03  0.25386654854E+03  0.14444814867E+03  0.77152471247E+03  0.80228980686E+02 0.  0.
         13    1    3    3    0    0  0.31848851523E+03 -0.46772860564E+01 -0.38489214441E+03  0.49959861305E+03  0.00000000000E+00 0. -1.
        -13    1    3    3    0    0  0.38370844560E+03 -0.98696991317E+02 -0.42345195300E+03  0.57990070169E+03  0.00000000000E+00 0.  1.
          2    1    6    6  502    0 -0.98915793853E+02  0.22279685672E+02  0.44862479739E+02  0.11087542900E+03  0.00000000000E+00 0. -1.
          3    1    5    5  503    0 -0.17717196689E+02 -0.51088273062E+02 -0.56201271025E+02  0.77990342785E+02  0.00000000000E+00 0. -1.
         -2    1    5    5    0  503  0.25097716117E+02 -0.99403998105E+02 -0.29494842131E+03  0.31225890128E+03  0.00000000000E+00 0.  1.
         -1    1    6    6    0  502 -0.61066168641E+03  0.23158686287E+03  0.99585668928E+02  0.66064928348E+03  0.00000000000E+00 0.  1.
<mgrwt>
<rscale>  0 0.19982463E+04</rscale>
<asrwt>0</asrwt>
<pdfrwt beam="1">  1        1 0.25048607E+00 0.19982463E+04</pdfrwt>
<pdfrwt beam="2">  1       -1 0.94325202E-01 0.19982463E+04</pdfrwt>
<totfact> 0.53872980E+00</totfact>
</mgrwt>
</event>
<event>
12    1  0.2404959E-007  0.1692390E+04  0.7818608E-02  0.8765717E-01
          2   -1    0    0  501    0  0.00000000000E+00  0.00000000000E+00  0.13183382804E+04  0.13183382804E+04  0.00000000000E+00 0. -1.
         -2   -1    0    0    0  501 -0.00000000000E+00 -0.00000000000E+00 -0.54314267257E+03  0.54314267257E+03  0.00000000000E+00 0.  1.
         23    2    1    2    0    0  0.25257304674E+03 -0.54664934482E+03  0.26802824901E+03  0.66545446436E+03  0.91497823691E+02 0.  0.
        254    2    1    2    0    0 -0.25257304674E+03  0.54664934482E+03  0.50716735880E+03  0.11960264886E+04  0.90035658573E+03 0.  0.
        -24    2    4    4    0    0  0.10328390832E+03  0.55173894809E+03 -0.53354006821E+01  0.56703616201E+03  0.80113107330E+02 0.  0.
         24    2    4    4    0    0 -0.35585695506E+03 -0.50896032769E+01  0.51250275948E+03  0.62899032658E+03  0.79433468633E+02 0.  0.
         11    1    3    3    0    0  0.16916930885E+03 -0.30291781881E+03  0.19358666377E+03  0.39730750861E+03  0.00000000000E+00 0.  1.
        -11    1    3    3    0    0  0.83403737890E+02 -0.24373152601E+03  0.74441585239E+02  0.26814695575E+03  0.00000000000E+00 0. -1.
          4    1    6    6  502    0 -0.42997181284E+02  0.18191404513E+02  0.38219243859E+02  0.60335689253E+02  0.00000000000E+00 0. -1.
          1    1    5    5  503    0  0.15359618864E+02  0.71895284462E+02 -0.28020201582E+02  0.78676435584E+02  0.00000000000E+00 0. -1.
         -2    1    5    5    0  503  0.87924289457E+02  0.47984366363E+03  0.22684800900E+02  0.48835972643E+03  0.00000000000E+00 0.  1.
         -3    1    6    6    0  502 -0.31285977377E+03 -0.23281007790E+02  0.47428351562E+03  0.56865463733E+03  0.00000000000E+00 0.  1.
<mgrwt>
<rscale>  0 0.16923898E+04</rscale>
<asrwt>0</asrwt>
<pdfrwt beam="1">  1        2 0.20282127E+00 0.16923898E+04</pdfrwt>
<pdfrwt beam="2">  1       -2 0.83560412E-01 0.16923898E+04</pdfrwt>
<totfact> 0.19238979E+01</totfact>
</mgrwt>
</event>
<event>
12    1  0.2404959E-007  0.2952382E+04  0.7818608E-02  0.8257461E-01
         -2   -1    0    0    0  501 -0.00000000000E+00  0.00000000000E+00  0.74330896718E+03  0.74330896718E+03  0.00000000000E+00 0.  1.
          2   -1    0    0  501    0  0.00000000000E+00 -0.00000000000E+00 -0.29316737990E+04  0.29316737990E+04  0.00000000000E+00 0. -1.
         23    2    1    2    0    0  0.11126839181E+04  0.48542213334E+03 -0.16956181986E+04  0.20872983131E+04  0.89403710880E+02 0.  0.
        254    2    1    2    0    0 -0.11126839181E+04 -0.48542213334E+03 -0.49274663328E+03  0.15876844531E+04  0.89679570068E+03 0.  0.
        -24    2    4    4    0    0 -0.39605541478E+03 -0.56713936377E+03 -0.50775259489E+03  0.86177035104E+03  0.79551812087E+02 0.  0.
         24    2    4    4    0    0 -0.71662850335E+03  0.81717230430E+02  0.15005961611E+02  0.72591410204E+03  0.80572868225E+02 0.  0.
         13    1    3    3    0    0  0.98410606845E+03  0.45008269417E+03 -0.15428024382E+04  0.18844836292E+04  0.00000000000E+00 0.  1.
        -13    1    3    3    0    0  0.12857784968E+03  0.35339439167E+02 -0.15281576037E+03  0.20281468390E+03  0.00000000000E+00 0. -1.
          4    1    6    6  502    0 -0.65039291432E+03  0.93070819985E+02 -0.17834588670E+00  0.65701838052E+03  0.00000000000E+00 0. -1.
          3    1    5    5  503    0 -0.21043816727E+03 -0.34203086232E+03 -0.25461215651E+03  0.47549624948E+03  0.00000000000E+00 0. -1.
         -4    1    5    5    0  503 -0.18561724750E+03 -0.22510850144E+03 -0.25314043838E+03  0.38627410156E+03  0.00000000000E+00 0.  1.
         -3    1    6    6    0  502 -0.66235589025E+02 -0.11353589555E+02  0.15184307498E+02  0.68895721518E+02  0.00000000000E+00 0.  1.
<mgrwt>
<rscale>  0 0.29523817E+04</rscale>
<asrwt>0</asrwt>
<pdfrwt beam="1">  1        2 0.45102675E+00 0.29523817E+04</pdfrwt>
<pdfrwt beam="2">  1       -2 0.11435522E+00 0.29523817E+04</pdfrwt>
<totfact> 0.98613528E-01</totfact>
</mgrwt>
</event>
<event>
12    1  0.2404959E-007  0.1153143E+04  0.7818608E-02  0.9154889E-01
          2   -1    0    0  501    0  0.00000000000E+00  0.00000000000E+00  0.76494564096E+03  0.76494564096E+03  0.00000000000E+00 0. -1.
         -2   -1    0    0    0  501 -0.00000000000E+00 -0.00000000000E+00 -0.43458571943E+03  0.43458571943E+03  0.00000000000E+00 0.  1.
         23    2    1    2    0    0  0.45230348490E+02 -0.19877108603E+03  0.13389354003E+03  0.25914957126E+03  0.87608739040E+02 0.  0.
        254    2    1    2    0    0 -0.45230348490E+02  0.19877108603E+03  0.19646638149E+03  0.94038178912E+03  0.89675143780E+03 0.  0.
        -24    2    4    4    0    0  0.10785060573E+03  0.50988486696E+03  0.24495831556E+03  0.58142453642E+03  0.80222094681E+02 0.  0.
         24    2    4    4    0    0 -0.15308095422E+03 -0.31111378093E+03 -0.48491934072E+02  0.35895725270E+03  0.79204030012E+02 0.  0.
         13    1    3    3    0    0  0.26088583130E+02 -0.79521607116E+02  0.10624540818E+03  0.13524935093E+03  0.00000000000E+00 0. -1.
        -13    1    3    3    0    0  0.19141765360E+02 -0.11924947892E+03  0.27648131850E+02  0.12390022033E+03  0.00000000000E+00 0.  1.
          2    1    6    6  502    0 -0.77789217877E+02 -0.12584291140E+03  0.16055471057E+02  0.14881323502E+03  0.00000000000E+00 0. -1.
          3    1    5    5  503    0  0.73303466169E+02  0.28334795332E+03  0.95611828614E+02  0.30789784438E+03  0.00000000000E+00 0. -1.
         -4    1    5    5    0  503  0.34547139557E+02  0.22653691364E+03  0.14934648695E+03  0.27352669204E+03  0.00000000000E+00 0.  1.
         -1    1    6    6    0  502 -0.75291736338E+02 -0.18527086953E+03 -0.64547405130E+02  0.21014401768E+03  0.00000000000E+00 0.  1.
<mgrwt>
<rscale>  0 0.11531426E+04</rscale>
<asrwt>0</asrwt>
<pdfrwt beam="1">  1        2 0.11768394E+00 0.11531426E+04</pdfrwt>
<pdfrwt beam="2">  1       -2 0.66859342E-01 0.11531426E+04</pdfrwt>
<totfact> 0.74334373E+01</totfact>
</mgrwt>
</event>
<event>
12    1  0.2404959E-007  0.2327201E+04  0.7818608E-02  0.8467273E-01
          1   -1    0    0  501    0  0.00000000000E+00  0.00000000000E+00  0.12842942407E+04  0.12842942407E+04  0.00000000000E+00 0. -1.
         -1   -1    0    0    0  501 -0.00000000000E+00 -0.00000000000E+00 -0.10542492496E+04  0.10542492496E+04  0.00000000000E+00 0.  1.
         23    2    1    2    0    0  0.71908369655E+03  0.27568957135E+03  0.71814645423E+03  0.10569804066E+04  0.91581372743E+02 0.  0.
        254    2    1    2    0    0 -0.71908369655E+03 -0.27568957135E+03 -0.48810146312E+03  0.12815630837E+04  0.90059691145E+03 0.  0.
        -24    2    4    4    0    0 -0.27058219670E+03  0.27264814227E+03 -0.40476938760E+03  0.56387756780E+03  0.81042702806E+02 0.  0.
         24    2    4    4    0    0 -0.44850149985E+03 -0.54833771362E+03 -0.83332075517E+02  0.71768551594E+03  0.79375193997E+02 0.  0.
         11    1    3    3    0    0  0.23884023050E+03  0.76610221217E+02  0.29062935718E+03  0.38389999343E+03  0.00000000000E+00 0. -1.
        -11    1    3    3    0    0  0.48024346605E+03  0.19907935014E+03  0.42751709705E+03  0.67308041318E+03  0.00000000000E+00 0.  1.
          2    1    6    6  502    0 -0.23900276129E+03 -0.32125120668E+03 -0.11949744716E+02  0.40058389146E+03  0.00000000000E+00 0. -1.
          3    1    5    5  503    0 -0.39645112348E+02  0.20976072335E+02 -0.84386497225E+02  0.95565744164E+02  0.00000000000E+00 0. -1.
         -4    1    5    5    0  503 -0.23093708435E+03  0.25167206994E+03 -0.32038289038E+03  0.46831182364E+03  0.00000000000E+00 0.  1.
         -1    1    6    6    0  502 -0.20949873857E+03 -0.22708650694E+03 -0.71382330800E+02  0.31710162448E+03  0.00000000000E+00 0.  1.
<mgrwt>
<rscale>  0 0.23272011E+04</rscale>
<asrwt>0</asrwt>
<pdfrwt beam="1">  1        1 0.19758373E+00 0.23272011E+04</pdfrwt>
<pdfrwt beam="2">  1       -1 0.16219219E+00 0.23272011E+04</pdfrwt>
<totfact> 0.23550211E+00</totfact>
</mgrwt>
</event>
<event>
12    1  0.2404959E-007  0.2230121E+04  0.7818608E-02  0.8505995E-01
         -1   -1    0    0    0  501 -0.00000000000E+00  0.00000000000E+00  0.79959242484E+03  0.79959242484E+03  0.00000000000E+00 0.  1.
          1   -1    0    0  501    0  0.00000000000E+00 -0.00000000000E+00 -0.15549926059E+04  0.15549926059E+04  0.00000000000E+00 0. -1.
         23    2    1    2    0    0 -0.11462722274E+03 -0.91148156825E+03 -0.47679955723E+03  0.10387007496E+04  0.87311969538E+02 0.  0.
        254    2    1    2    0    0  0.11462722274E+03  0.91148156825E+03 -0.27860062385E+03  0.13158842811E+04  0.89999726904E+03 0.  0.
        -24    2    4    4    0    0  0.44105224878E+03  0.18349731624E+03 -0.11283439155E+03  0.49696015061E+03  0.77713835053E+02 0.  0.
         24    2    4    4    0    0 -0.32642502604E+03  0.72798425201E+03 -0.16576623230E+03  0.81892413052E+03  0.81510238558E+02 0.  0.
         11    1    3    3    0    0 -0.79466144763E+02 -0.38376888473E+03 -0.23695509388E+03  0.45797504470E+03  0.00000000000E+00 0.  1.
        -11    1    3    3    0    0 -0.35161077976E+02 -0.52771268351E+03 -0.23984446335E+03  0.58072570491E+03  0.00000000000E+00 0. -1.
          4    1    6    6  502    0 -0.27065194872E+03  0.66399841804E+03 -0.15103296340E+03  0.73277372533E+03  0.00000000000E+00 0. -1.
          3    1    5    5  503    0  0.37179770020E+03  0.12308816457E+03 -0.83018562890E+02  0.40034523591E+03  0.00000000000E+00 0. -1.
         -4    1    5    5    0  503  0.69254548578E+02  0.60409151667E+02 -0.29815828655E+02  0.96614914699E+02  0.00000000000E+00 0.  1.
         -3    1    6    6    0  502 -0.55773077321E+02  0.63985833969E+02 -0.14733268901E+02  0.86150405194E+02  0.00000000000E+00 0.  1.
<mgrwt>
<rscale>  0 0.22301213E+04</rscale>
<asrwt>0</asrwt>
<pdfrwt beam="1">  1        1 0.23922963E+00 0.22301213E+04</pdfrwt>
<pdfrwt beam="2">  1       -1 0.12301422E+00 0.22301213E+04</pdfrwt>
<totfact> 0.31734913E+00</totfact>
</mgrwt>
</event>
<event>
12    1  0.2404959E-007  0.2048242E+04  0.7818608E-02  0.8584392E-01
          1   -1    0    0  501    0  0.00000000000E+00  0.00000000000E+00  0.98693712573E+03  0.98693712573E+03  0.00000000000E+00 0. -1.
         -1   -1    0    0    0  501 -0.00000000000E+00 -0.00000000000E+00 -0.10627059626E+04  0.10627059626E+04  0.00000000000E+00 0.  1.
         23    2    1    2    0    0 -0.43738044737E+03 -0.26406721012E+03  0.61655620594E+03  0.80567453183E+03  0.89088433345E+02 0.  0.
        254    2    1    2    0    0  0.43738044737E+03  0.26406721012E+03 -0.69232504283E+03  0.12439685565E+04  0.89839337568E+03 0.  0.
        -24    2    4    4    0    0 -0.26718970251E+02  0.17583346141E+03  0.16850253729E+03  0.25885592787E+03  0.83558223990E+02 0.  0.
         24    2    4    4    0    0  0.46409941762E+03  0.88233748714E+02 -0.86082758012E+03  0.98511262865E+03  0.79052543125E+02 0.  0.
         11    1    3    3    0    0 -0.12401914358E+03 -0.12006988823E+03  0.23130329371E+03  0.28861521047E+03  0.00000000000E+00 0. -1.
        -11    1    3    3    0    0 -0.31336130379E+03 -0.14399732190E+03  0.38525291223E+03  0.51705932136E+03  0.00000000000E+00 0.  1.
          2    1    6    6  502    0  0.42015414737E+03  0.10284367118E+03 -0.78373826232E+03  0.89518265850E+03  0.00000000000E+00 0. -1.
          3    1    5    5  503    0 -0.90423638726E+01  0.14876257464E+03  0.90362217704E+02  0.17429113100E+03  0.00000000000E+00 0. -1.
         -4    1    5    5    0  503 -0.17676606378E+02  0.27070886769E+02  0.78140319588E+02  0.84564796865E+02  0.00000000000E+00 0.  1.
         -1    1    6    6    0  502  0.43945270256E+02 -0.14609922462E+02 -0.77089317802E+02  0.89929970151E+02  0.00000000000E+00 0.  1.
<mgrwt>
<rscale>  0 0.20482421E+04</rscale>
<asrwt>0</asrwt>
<pdfrwt beam="1">  1        1 0.15183648E+00 0.20482421E+04</pdfrwt>
<pdfrwt beam="2">  1       -1 0.16349322E+00 0.20482421E+04</pdfrwt>
<totfact> 0.39365156E+00</totfact>
</mgrwt>
</event>
<event>
12    1  0.2404959E-007  0.1012139E+04  0.7818608E-02  0.9295330E-01
         -1   -1    0    0    0  501 -0.00000000000E+00  0.00000000000E+00  0.11008747656E+03  0.11008747656E+03  0.00000000000E+00 0.  1.
          1   -1    0    0  501    0  0.00000000000E+00 -0.00000000000E+00 -0.23263911633E+04  0.23263911633E+04  0.00000000000E+00 0. -1.
         23    2    1    2    0    0  0.28126203555E+02  0.17258279618E+02 -0.37545072673E+03  0.38741805867E+03  0.89669239104E+02 0.  0.
        254    2    1    2    0    0 -0.28126203555E+02 -0.17258279618E+02 -0.18408529600E+04  0.20490605811E+04  0.89934460217E+03 0.  0.
        -24    2    4    4    0    0  0.11132587380E+03 -0.26156826995E+03 -0.14632617435E+03  0.32951073167E+03  0.79715512707E+02 0.  0.
         24    2    4    4    0    0 -0.13945207736E+03  0.24430999033E+03 -0.16945267856E+04  0.17195498495E+04  0.79349885920E+02 0.  0.
         11    1    3    3    0    0 -0.74702675459E+01 -0.84281750887E+01 -0.29937146262E+03  0.29958322994E+03  0.00000000000E+00 0. -1.
        -11    1    3    3    0    0  0.35596471101E+02  0.25686454707E+02 -0.76079264113E+02  0.87834828731E+02  0.00000000000E+00 0.  1.
          2    1    6    6  502    0 -0.10380307734E+03  0.22178276455E+03 -0.15410988013E+04  0.15604320520E+04  0.00000000000E+00 0. -1.
          1    1    5    5  503    0  0.11393802648E+03 -0.26108542672E+03 -0.15226505277E+03  0.32300483003E+03  0.00000000000E+00 0. -1.
         -2    1    5    5    0  503 -0.26121526746E+01 -0.48284322211E+00  0.59388784288E+01  0.65059016412E+01  0.00000000000E+00 0.  1.
         -1    1    6    6    0  502 -0.35649000016E+02  0.22527225782E+02 -0.15342798431E+03  0.15911779747E+03  0.00000000000E+00 0.  1.
<mgrwt>
<rscale>  0 0.10121394E+04</rscale>
<asrwt>0</asrwt>
<pdfrwt beam="1">  1        1 0.35790632E+00 0.10121394E+04</pdfrwt>
<pdfrwt beam="2">  1       -1 0.16936535E-01 0.10121394E+04</pdfrwt>
<totfact> 0.48673944E+01</totfact>
</mgrwt>
</event>
<event>
12    1  0.2404959E-007  0.4874279E+04  0.7818608E-02  0.7848199E-01
         -1   -1    0    0    0  501 -0.00000000000E+00  0.00000000000E+00  0.24997754007E+04  0.24997754007E+04  0.00000000000E+00 0.  1.
          1   -1    0    0  501    0  0.00000000000E+00 -0.00000000000E+00 -0.23760727712E+04  0.23760727712E+04  0.00000000000E+00 0. -1.
         23    2    1    2    0    0  0.23166390114E+04  0.32268559057E+03  0.31686822029E+03  0.23620402101E+04  0.88804200003E+02 0.  0.
        254    2    1    2    0    0 -0.23166390114E+04 -0.32268559057E+03 -0.19316559075E+03  0.25138079618E+04  0.90054162811E+03 0.  0.
        -24    2    4    4    0    0 -0.22321895214E+04 -0.26864643084E+03  0.37625940771E+02  0.22499977919E+04  0.78951808686E+02 0.  0.
         24    2    4    4    0    0 -0.84449490009E+02 -0.54039159730E+02 -0.23079153152E+03  0.26381016988E+03  0.79240946271E+02 0.  0.
         11    1    3    3    0    0  0.48264284919E+03  0.10348341102E+03  0.71555533472E+02  0.49877162169E+03  0.00000000000E+00 0. -1.
        -11    1    3    3    0    0  0.18339961622E+04  0.21920217955E+03  0.24531268682E+03  0.18632685885E+04  0.00000000000E+00 0.  1.
          2    1    6    6  502    0 -0.99063443856E+02 -0.54549447399E+02 -0.20126332256E+03  0.23085955282E+03  0.00000000000E+00 0. -1.
          1    1    5    5  503    0 -0.48884340976E+03 -0.47453783848E+02  0.38844957831E+02  0.49267501623E+03  0.00000000000E+00 0. -1.
         -2    1    5    5    0  503 -0.17433461116E+04 -0.22119264699E+03 -0.12190170604E+01  0.17573227757E+04  0.00000000000E+00 0.  1.
         -1    1    6    6    0  502  0.14613953847E+02  0.51028766867E+00 -0.29528208964E+02  0.32950617068E+02  0.00000000000E+00 0.  1.
<mgrwt>
<rscale>  0 0.48742787E+04</rscale>
<asrwt>0</asrwt>
<pdfrwt beam="1">  1        1 0.36554966E+00 0.48742787E+04</pdfrwt>
<pdfrwt beam="2">  1       -1 0.38458083E+00 0.48742787E+04</pdfrwt>
<totfact> 0.10963436E-02</totfact>
</mgrwt>
</event>
<event>
12    1  0.2404959E-007  0.1586803E+04  0.7818608E-02  0.8828696E-01
          1   -1    0    0  501    0  0.00000000000E+00  0.00000000000E+00  0.59626188143E+03  0.59626188143E+03  0.00000000000E+00 0.  1.
         -1   -1    0    0    0  501 -0.00000000000E+00 -0.00000000000E+00 -0.10557211141E+04  0.10557211141E+04  0.00000000000E+00 0. -1.
         23    2    1    2    0    0 -0.15292828847E+03 -0.45535864676E+03  0.89022662823E+02  0.49526763490E+03  0.81402930431E+02 0.  0.
        254    2    1    2    0    0  0.15292828847E+03  0.45535864676E+03 -0.54848189551E+03  0.11567153606E+04  0.89800861759E+03 0.  0.
        -24    2    4    4    0    0  0.26946474174E+03 -0.32135444475E+02 -0.58297032521E+03  0.64828678205E+03  0.82325074396E+02 0.  0.
         24    2    4    4    0    0 -0.11653645327E+03  0.48749409124E+03  0.34488429704E+02  0.50842857860E+03  0.77967517698E+02 0.  0.
         13    1    3    3    0    0 -0.11415535957E+03 -0.28629306116E+03  0.92448216386E+02  0.32177917226E+03  0.00000000000E+00 0.  1.
        -13    1    3    3    0    0 -0.38772928903E+02 -0.16906558560E+03 -0.34255535629E+01  0.17348846264E+03  0.00000000000E+00 0. -1.
          4    1    6    6  502    0 -0.89702492124E+02  0.40070055028E+03 -0.17458816804E+01  0.41062210875E+03  0.00000000000E+00 0. -1.
          1    1    5    5  503    0  0.10047417041E+03 -0.44676775044E+02 -0.17706949655E+03  0.20843387382E+03  0.00000000000E+00 0. -1.
         -2    1    5    5    0  503  0.16899057133E+03  0.12541330569E+02 -0.40590082866E+03  0.43985290823E+03  0.00000000000E+00 0.  1.
         -3    1    6    6    0  502 -0.26833961150E+02  0.86793540956E+02  0.36234311384E+02  0.97806469848E+02  0.00000000000E+00 0.  1.
<mgrwt>
<rscale>  0 0.15868034E+04</rscale>
<asrwt>0</asrwt>
<pdfrwt beam="1">  1        1 0.91732599E-01 0.15868034E+04</pdfrwt>
<pdfrwt beam="2">  1       -1 0.16241863E+00 0.15868034E+04</pdfrwt>
<totfact> 0.93014517E+00</totfact>
</mgrwt>
</event>
<event>
12    1  0.2404959E-007  0.4250944E+04  0.7818608E-02  0.7955752E-01
         -1   -1    0    0    0  501 -0.00000000000E+00  0.00000000000E+00  0.14086556933E+04  0.14086556933E+04  0.00000000000E+00 0.  1.
          1   -1    0    0  501    0  0.00000000000E+00 -0.00000000000E+00 -0.32070511616E+04  0.32070511616E+04  0.00000000000E+00 0. -1.
         23    2    1    2    0    0 -0.13977277163E+04  0.14672991074E+04 -0.74932414091E+03  0.21626516976E+04  0.94690323949E+02 0.  0.
        254    2    1    2    0    0  0.13977277163E+04 -0.14672991074E+04 -0.10490713274E+04  0.24530551573E+04  0.90017749095E+03 0.  0.
        -24    2    4    4    0    0  0.82724675341E+03 -0.11477184147E+04 -0.28689429743E+03  0.14457470029E+04  0.79254703462E+02 0.  0.
         24    2    4    4    0    0  0.57048096290E+03 -0.31958069262E+03 -0.76217703000E+03  0.10073081544E+04  0.78584633576E+02 0.  0.
         11    1    3    3    0    0 -0.73387649929E+03  0.75964952054E+03 -0.34071589998E+03  0.11098330662E+04  0.00000000000E+00 0.  1.
        -11    1    3    3    0    0 -0.66385121703E+03  0.70764958682E+03 -0.40860824093E+03  0.10528186314E+04  0.00000000000E+00 0. -1.
          2    1    6    6  502    0  0.57300688187E+02 -0.60370184023E+02 -0.10898016888E+03  0.13712988440E+03  0.00000000000E+00 0. -1.
          3    1    5    5  503    0  0.11550747667E+03 -0.11778794719E+03 -0.28120836895E+02  0.16735220088E+03  0.00000000000E+00 0. -1.
         -4    1    5    5    0  503  0.71173927674E+03 -0.10299304675E+04 -0.25877346054E+03  0.12783948021E+04  0.00000000000E+00 0.  1.
         -1    1    6    6    0  502  0.51318027471E+03 -0.25921050860E+03 -0.65319686112E+03  0.87017826995E+03  0.00000000000E+00 0.  1.
<mgrwt>
<rscale>  0 0.42509438E+04</rscale>
<asrwt>0</asrwt>
<pdfrwt beam="1">  1        1 0.49339249E+00 0.42509438E+04</pdfrwt>
<pdfrwt beam="2">  1       -1 0.21671626E+00 0.42509438E+04</pdfrwt>
<totfact> 0.37255067E-02</totfact>
</mgrwt>
</event>
<event>
12    1  0.2404959E-007  0.1527895E+04  0.7818608E-02  0.8866112E-01
          2   -1    0    0  501    0  0.00000000000E+00  0.00000000000E+00  0.26962708246E+04  0.26962708246E+04  0.00000000000E+00 0. -1.
         -2   -1    0    0    0  501 -0.00000000000E+00 -0.00000000000E+00 -0.21645289426E+03  0.21645289426E+03  0.00000000000E+00 0.  1.
         23    2    1    2    0    0 -0.55884646545E+02  0.48940654552E+03  0.86960383627E+03  0.10032588181E+04  0.87610293603E+02 0.  0.
        254    2    1    2    0    0  0.55884646545E+02 -0.48940654552E+03  0.16102140940E+04  0.19094649007E+04  0.90034710967E+03 0.  0.
        -24    2    4    4    0    0  0.60439858401E+02 -0.74818494479E+03  0.12147465336E+04  0.14302509048E+04  0.81085274147E+02 0.  0.
         24    2    4    4    0    0 -0.45552118558E+01  0.25877839927E+03  0.39546756043E+03  0.47921399591E+03  0.79148295236E+02 0.  0.
         11    1    3    3    0    0  0.14782740816E+02  0.67077508814E+02  0.16528550829E+03  0.17898944344E+03  0.00000000000E+00 0. -1.
        -11    1    3    3    0    0 -0.70667387361E+02  0.42232903671E+03  0.70431832798E+03  0.82426937467E+03  0.00000000000E+00 0.  1.
          4    1    6    6  502    0 -0.21071943850E+02  0.14255034149E+03  0.27807401883E+03  0.31319289044E+03  0.00000000000E+00 0. -1.
          3    1    5    5  503    0  0.35554075735E+02 -0.14724690242E+03  0.20399985820E+03  0.25408991464E+03  0.00000000000E+00 0. -1.
         -4    1    5    5    0  503  0.24885782666E+02 -0.60093804237E+03  0.10107466754E+04  0.11761609902E+04  0.00000000000E+00 0.  1.
         -3    1    6    6    0  502  0.16516731995E+02  0.11622805777E+03  0.11739354161E+03  0.16602110547E+03  0.00000000000E+00 0.  1.
<mgrwt>
<rscale>  0 0.15278948E+04</rscale>
<asrwt>0</asrwt>
<pdfrwt beam="1">  1        2 0.41481087E+00 0.15278948E+04</pdfrwt>
<pdfrwt beam="2">  1       -2 0.33300447E-01 0.15278948E+04</pdfrwt>
<totfact> 0.21766612E+01</totfact>
</mgrwt>
</event>
<event>
12    1  0.2404959E-007  0.1701776E+04  0.7818608E-02  0.8760352E-01
         -2   -1    0    0    0  501 -0.00000000000E+00  0.00000000000E+00  0.29320769359E+03  0.29320769359E+03  0.00000000000E+00 0.  1.
          2   -1    0    0  501    0  0.00000000000E+00 -0.00000000000E+00 -0.24692755210E+04  0.24692755210E+04  0.00000000000E+00 0. -1.
         23    2    1    2    0    0  0.34904002772E+03  0.41121025483E+03 -0.12441201779E+04  0.13590590978E+04  0.91015381482E+02 0.  0.
        254    2    1    2    0    0 -0.34904002772E+03 -0.41121025483E+03 -0.93194764944E+03  0.14034241167E+04  0.90008333806E+03 0.  0.
        -24    2    4    4    0    0  0.14706127841E+03  0.16842842789E+03 -0.66523725006E+02  0.24674601897E+03  0.80393015606E+02 0.  0.
         24    2    4    4    0    0 -0.49610130613E+03 -0.57963868272E+03 -0.86542392443E+03  0.11566780977E+04  0.82753515848E+02 0.  0.
         13    1    3    3    0    0  0.19132748440E+03  0.24024882460E+03 -0.81512839864E+03  0.87106831550E+03  0.00000000000E+00 0. -1.
        -13    1    3    3    0    0  0.15771254332E+03  0.17096143023E+03 -0.42899177928E+03  0.48799078233E+03  0.00000000000E+00 0.  1.
          4    1    6    6  502    0 -0.48209562757E+03 -0.53478711473E+03 -0.80266614766E+03  0.10782793686E+04  0.00000000000E+00 0. -1.
          1    1    5    5  503    0  0.38302329264E+02  0.87932345957E+02 -0.55920358179E+02  0.11102365672E+03  0.00000000000E+00 0. -1.
         -2    1    5    5    0  503  0.10875894915E+03  0.80496081932E+02 -0.10603366827E+02  0.13572236225E+03  0.00000000000E+00 0.  1.
         -3    1    6    6    0  502 -0.14005678562E+02 -0.44851567990E+02 -0.62757776767E+02  0.78398729121E+02  0.00000000000E+00 0.  1.
<mgrwt>
<rscale>  0 0.17017762E+04</rscale>
<asrwt>0</asrwt>
<pdfrwt beam="1">  1        2 0.37988854E+00 0.17017762E+04</pdfrwt>
<pdfrwt beam="2">  1       -2 0.45108876E-01 0.17017762E+04</pdfrwt>
<totfact> 0.16105119E+01</totfact>
</mgrwt>
</event>
<event>
12    1  0.2404959E-007  0.1771963E+04  0.7818608E-02  0.8721353E-01
         -1   -1    0    0    0  501 -0.00000000000E+00  0.00000000000E+00  0.55458577484E+03  0.55458577484E+03  0.00000000000E+00 0.  1.
          1   -1    0    0  501    0  0.00000000000E+00 -0.00000000000E+00 -0.14154043415E+04  0.14154043415E+04  0.00000000000E+00 0. -1.
         23    2    1    2    0    0 -0.47758734498E+03  0.22801362232E+03  0.10564614855E+03  0.54714555959E+03  0.90151376166E+02 0.  0.
        254    2    1    2    0    0  0.47758734498E+03 -0.22801362232E+03 -0.96646471521E+03  0.14228445568E+04  0.90019592472E+03 0.  0.
        -24    2    4    4    0    0 -0.47681824025E+02 -0.44583080289E+03 -0.54701018607E+03  0.71168386598E+03  0.78962777823E+02 0.  0.
         24    2    4    4    0    0  0.52526916900E+03  0.21781718057E+03 -0.41945452914E+03  0.71116069078E+03  0.80345516545E+02 0.  0.
         11    1    3    3    0    0 -0.36844783012E+02  0.11412673185E+02 -0.15110691593E+02  0.41426080491E+02  0.00000000000E+00 0. -1.
        -11    1    3    3    0    0 -0.44074256196E+03  0.21660094914E+03  0.12075684014E+03  0.50571947909E+03  0.00000000000E+00 0.  1.
          4    1    6    6  502    0  0.20912817558E+03  0.63209001738E+02 -0.12111059115E+03  0.24979541031E+03  0.00000000000E+00 0. -1.
          1    1    5    5  503    0 -0.36715791928E+02 -0.72641979577E+02 -0.11148601267E+03  0.13803636331E+03  0.00000000000E+00 0. -1.
         -2    1    5    5    0  503 -0.10966032097E+02 -0.37318882331E+03 -0.43552417339E+03  0.57364750267E+03  0.00000000000E+00 0.  1.
         -3    1    6    6    0  502  0.31614099342E+03  0.15460817883E+03 -0.29834393799E+03  0.46136528047E+03  0.00000000000E+00 0.  1.
<mgrwt>
<rscale>  0 0.17719629E+04</rscale>
<asrwt>0</asrwt>
<pdfrwt beam="1">  1        1 0.21775451E+00 0.17719629E+04</pdfrwt>
<pdfrwt beam="2">  1       -1 0.85320889E-01 0.17719629E+04</pdfrwt>
<totfact> 0.96250113E+00</totfact>
</mgrwt>
</event>
<event>
12    1  0.2404959E-007  0.1785278E+04  0.7818608E-02  0.8714168E-01
         -2   -1    0    0    0  501 -0.00000000000E+00  0.00000000000E+00  0.85321447051E+03  0.85321447051E+03  0.00000000000E+00 0. -1.
          2   -1    0    0  501    0  0.00000000000E+00 -0.00000000000E+00 -0.93388516309E+03  0.93388516309E+03  0.00000000000E+00 0.  1.
         23    2    1    2    0    0  0.43185448491E+03 -0.46499670828E+03 -0.22345886138E+03  0.67889802978E+03  0.90820907608E+02 0.  0.
        254    2    1    2    0    0 -0.43185448491E+03  0.46499670828E+03  0.14278816880E+03  0.11082016038E+04  0.89721909182E+03 0.  0.
        -24    2    4    4    0    0 -0.36657640336E+03  0.93500750679E+02  0.46563660955E+03  0.60524045432E+03  0.79861790048E+02 0.  0.
         24    2    4    4    0    0 -0.65278081558E+02  0.37149595760E+03 -0.32284844076E+03  0.50296114951E+03  0.80425914811E+02 0.  0.
         13    1    3    3    0    0  0.11383984473E+03 -0.74620436884E+02 -0.66456971979E+02  0.15147359167E+03  0.00000000000E+00 0.  1.
        -13    1    3    3    0    0  0.31801464019E+03 -0.39037627139E+03 -0.15700188940E+03  0.52742443811E+03  0.00000000000E+00 0. -1.
          4    1    6    6  502    0 -0.67335195974E+02  0.34079886536E+03 -0.31957179354E+03  0.47202121401E+03  0.00000000000E+00 0. -1.
          1    1    5    5  503    0 -0.16372494335E+03  0.80572671409E+02  0.24105776764E+03  0.30233534327E+03  0.00000000000E+00 0. -1.
         -4    1    5    5    0  503 -0.20285146001E+03  0.12928079270E+02  0.22457884191E+03  0.30290511104E+03  0.00000000000E+00 0.  1.
         -3    1    6    6    0  502  0.20571144162E+01  0.30697092239E+02 -0.32766472104E+01  0.30939935497E+02  0.00000000000E+00 0.  1.
<mgrwt>
<rscale>  0 0.17852779E+04</rscale>
<asrwt>0</asrwt>
<pdfrwt beam="1">  1        2 0.14367464E+00 0.17852779E+04</pdfrwt>
<pdfrwt beam="2">  1       -2 0.13126377E+00 0.17852779E+04</pdfrwt>
<totfact> 0.11144362E+01</totfact>
</mgrwt>
</event>
<event>
12    1  0.2404959E-007  0.2677135E+04  0.7818608E-02  0.8342462E-01
          1   -1    0    0  501    0  0.00000000000E+00  0.00000000000E+00  0.13790620691E+04  0.13790620691E+04  0.00000000000E+00 0. -1.
         -1   -1    0    0    0  501 -0.00000000000E+00 -0.00000000000E+00 -0.12992620169E+04  0.12992620169E+04  0.00000000000E+00 0.  1.
         23    2    1    2    0    0 -0.10171194319E+04 -0.82307867774E+02 -0.56706410970E+03  0.11718040934E+04  0.10127489784E+03 0.  0.
        254    2    1    2    0    0  0.10171194319E+04  0.82307867774E+02  0.64686416189E+03  0.15065199926E+04  0.89992373039E+03 0.  0.
        -24    2    4    4    0    0  0.10007166355E+04 -0.17285223974E+03  0.28758283325E+03  0.10584767559E+04  0.79733778238E+02 0.  0.
         24    2    4    4    0    0  0.16402796330E+02  0.25516010751E+03  0.35928132865E+03  0.44804323675E+03  0.79271285362E+02 0.  0.
         11    1    3    3    0    0 -0.44447985403E+03 -0.21224154139E+02 -0.30237855313E+03  0.53800148211E+03  0.00000000000E+00 0.  1.
        -11    1    3    3    0    0 -0.57263957783E+03 -0.61083713635E+02 -0.26468555657E+03  0.63380261124E+03  0.00000000000E+00 0. -1.
          2    1    6    6  502    0  0.13320156077E+02  0.24940828489E+03  0.30890408456E+03  0.39724507875E+03  0.00000000000E+00 0. -1.
          3    1    5    5  503    0  0.37425078333E+03 -0.55854746791E+02  0.68311382327E+02  0.38451247902E+03  0.00000000000E+00 0. -1.
         -4    1    5    5    0  503  0.62646585219E+03 -0.11699749295E+03  0.21927145092E+03  0.67396427688E+03  0.00000000000E+00 0.  1.
         -1    1    6    6    0  502  0.30826402539E+01  0.57518226280E+01  0.50377244084E+02  0.50798157998E+02  0.00000000000E+00 0.  1.
<mgrwt>
<rscale>  0 0.26771350E+04</rscale>
<asrwt>0</asrwt>
<pdfrwt beam="1">  1        1 0.21216340E+00 0.26771350E+04</pdfrwt>
<pdfrwt beam="2">  1       -1 0.19988646E+00 0.26771350E+04</pdfrwt>
<totfact> 0.10484928E+00</totfact>
</mgrwt>
</event>
<event>
12    1  0.2404959E-007  0.1641120E+04  0.7818608E-02  0.8795677E-01
         -2   -1    0    0    0  501 -0.00000000000E+00  0.00000000000E+00  0.15040529085E+03  0.15040529085E+03  0.00000000000E+00 0. -1.
          2   -1    0    0  501    0  0.00000000000E+00 -0.00000000000E+00 -0.44766955578E+04  0.44766955578E+04  0.00000000000E+00 0.  1.
         23    2    1    2    0    0 -0.47699615763E+03  0.18327870602E+03 -0.81141137782E+03  0.96298456064E+03  0.88512267563E+02 0.  0.
        254    2    1    2    0    0  0.47699615763E+03 -0.18327870602E+03 -0.35148788891E+04  0.36641162880E+04  0.90014340428E+03 0.  0.
        -24    2    4    4    0    0  0.20916684898E+03  0.19785629105E+03 -0.33312058331E+03  0.44750775134E+03  0.79974882752E+02 0.  0.
         24    2    4    4    0    0  0.26782930865E+03 -0.38113499707E+03 -0.31817583058E+04  0.32166085366E+04  0.77383052760E+02 0.  0.
         13    1    3    3    0    0 -0.14307004083E+03  0.60528710115E+02 -0.17599986401E+03  0.23475245145E+03  0.00000000000E+00 0. -1.
        -13    1    3    3    0    0 -0.33392611680E+03  0.12274999591E+03 -0.63541151381E+03  0.72823210919E+03  0.00000000000E+00 0.  1.
          4    1    6    6  502    0  0.23728824519E+03 -0.36826207467E+03 -0.28990531270E+04  0.29319672065E+04  0.00000000000E+00 0. -1.
          3    1    5    5  503    0  0.18271411132E+03  0.19027868862E+03 -0.32545991843E+03  0.41894460770E+03  0.00000000000E+00 0. -1.
         -4    1    5    5    0  503  0.26452737661E+02  0.75776024311E+01 -0.76606648732E+01  0.28563143641E+02  0.00000000000E+00 0.  1.
         -1    1    6    6    0  502  0.30541063457E+02 -0.12872922406E+02 -0.28270517879E+03  0.28464133011E+03  0.00000000000E+00 0.  1.
<mgrwt>
<rscale>  0 0.16411200E+04</rscale>
<asrwt>0</asrwt>
<pdfrwt beam="1">  1        2 0.68872240E+00 0.16411200E+04</pdfrwt>
<pdfrwt beam="2">  1       -2 0.23139275E-01 0.16411200E+04</pdfrwt>
<totfact> 0.21037455E+00</totfact>
</mgrwt>
</event>
<event>
12    1  0.2404959E-007  0.1154684E+04  0.7818608E-02  0.9153473E-01
          1   -1    0    0  501    0  0.00000000000E+00  0.00000000000E+00  0.49807787172E+03  0.49807787172E+03  0.00000000000E+00 0. -1.
         -1   -1    0    0    0  501 -0.00000000000E+00 -0.00000000000E+00 -0.66922076156E+03  0.66922076156E+03  0.00000000000E+00 0.  1.
         23    2    1    2    0    0 -0.93985420203E+02 -0.64553508040E+02 -0.21350195225E+03  0.25873645981E+03  0.91438817846E+02 0.  0.
        254    2    1    2    0    0  0.93985420203E+02  0.64553508040E+02  0.42359062413E+02  0.90856217347E+03  0.90038353955E+03 0.  0.
        -24    2    4    4    0    0  0.24963335179E+03 -0.20393734278E+03  0.33709901288E+03  0.47319269603E+03  0.79801835721E+02 0.  0.
         24    2    4    4    0    0 -0.15564793159E+03  0.26849085082E+03 -0.29473995046E+03  0.43536947744E+03  0.79757933206E+02 0.  0.
         11    1    3    3    0    0 -0.18346976688E+02 -0.25436345581E+02 -0.28118793967E+01  0.31488504185E+02  0.00000000000E+00 0. -1.
        -11    1    3    3    0    0 -0.75638443516E+02 -0.39117162459E+02 -0.21069007285E+03  0.22724795562E+03  0.00000000000E+00 0.  1.
          2    1    6    6  502    0 -0.12009446826E+03  0.22542709286E+03 -0.19609499135E+03  0.32201444243E+03  0.00000000000E+00 0. -1.
          3    1    5    5  503    0  0.25284233029E+03 -0.20761634328E+03  0.33294335057E+03  0.46678160276E+03  0.00000000000E+00 0. -1.
         -4    1    5    5    0  503 -0.32089784961E+01  0.36790005054E+01  0.41556623101E+01  0.64110932720E+01  0.00000000000E+00 0.  1.
         -1    1    6    6    0  502 -0.35553463325E+02  0.43063757960E+02 -0.98644959113E+02  0.11335503501E+03  0.00000000000E+00 0.  1.
<mgrwt>
<rscale>  0 0.11546845E+04</rscale>
<asrwt>0</asrwt>
<pdfrwt beam="1">  1        1 0.76627365E-01 0.11546845E+04</pdfrwt>
<pdfrwt beam="2">  1       -1 0.10295704E+00 0.11546845E+04</pdfrwt>
<totfact> 0.39447313E+01</totfact>
</mgrwt>
</event>
<event>
12    1  0.2404959E-007  0.1049005E+04  0.7818608E-02  0.9256372E-01
          2   -1    0    0  501    0  0.00000000000E+00  0.00000000000E+00  0.36643355440E+03  0.36643355440E+03  0.00000000000E+00 0.  1.
         -2   -1    0    0    0  501 -0.00000000000E+00 -0.00000000000E+00 -0.75075803992E+03  0.75075803992E+03  0.00000000000E+00 0. -1.
         23    2    1    2    0    0  0.19905401173E+02  0.69005240012E+02 -0.11108925823E+02  0.13744600898E+03  0.11666211470E+03 0.  0.
        254    2    1    2    0    0 -0.19905401173E+02 -0.69005240012E+02 -0.37321555970E+03  0.97974558534E+03  0.90302470058E+03 0.  0.
        -24    2    4    4    0    0  0.66886076324E+02 -0.40432803907E+03  0.57217767586E+02  0.42141724973E+03  0.79772896793E+02 0.  0.
         24    2    4    4    0    0 -0.86791477497E+02  0.33532279906E+03 -0.43043332729E+03  0.55832833561E+03  0.80520438195E+02 0.  0.
         11    1    3    3    0    0  0.14679930781E+02 -0.23811627775E+02 -0.31649860921E+02  0.42239882592E+02  0.00000000000E+00 0. -1.
        -11    1    3    3    0    0  0.52254703922E+01  0.92816867786E+02  0.20540935098E+02  0.95206126385E+02  0.00000000000E+00 0.  1.
          4    1    6    6  502    0 -0.85633537434E+02  0.21027916699E+03 -0.31383335361E+03  0.38735230042E+03  0.00000000000E+00 0. -1.
          1    1    5    5  503    0  0.56693139263E+02 -0.12979196062E+03  0.34366135504E+02  0.14574325491E+03  0.00000000000E+00 0. -1.
         -2    1    5    5    0  503  0.10192937062E+02 -0.27453607845E+03  0.22851632082E+02  0.27567399483E+03  0.00000000000E+00 0.  1.
         -3    1    6    6    0  502 -0.11579400638E+01  0.12504363207E+03 -0.11659997368E+03  0.17097603519E+03  0.00000000000E+00 0.  1.
<mgrwt>
<rscale>  0 0.10490051E+04</rscale>
<asrwt>0</asrwt>
<pdfrwt beam="1">  1        2 0.56374394E-01 0.10490051E+04</pdfrwt>
<pdfrwt beam="2">  1       -2 0.11550124E+00 0.10490051E+04</pdfrwt>
<totfact> 0.50976479E+01</totfact>
</mgrwt>
</event>
<event>
12    1  0.2404959E-007  0.3965505E+04  0.7818608E-02  0.8011542E-01
          2   -1    0    0  501    0  0.00000000000E+00  0.00000000000E+00  0.23544884223E+04  0.23544884223E+04  0.00000000000E+00 0. -1.
         -2   -1    0    0    0  501 -0.00000000000E+00 -0.00000000000E+00 -0.16697074596E+04  0.16697074596E+04  0.00000000000E+00 0.  1.
         23    2    1    2    0    0 -0.12245057571E+04  0.11803144015E+04  0.11344484589E+04  0.20477426766E+04  0.11713380415E+03 0.  0.
        254    2    1    2    0    0  0.12245057571E+04 -0.11803144015E+04 -0.44966749622E+03  0.19764532052E+04  0.90089398926E+03 0.  0.
        -24    2    4    4    0    0  0.56958715163E+03 -0.79705675765E+03 -0.66132013651E+03  0.11846314460E+04  0.79235987544E+02 0.  0.
         24    2    4    4    0    0  0.65491860543E+03 -0.38325764385E+03  0.21165264029E+03  0.79182175923E+03  0.79875258578E+02 0.  0.
         11    1    3    3    0    0 -0.43259535786E+03  0.43680333405E+03  0.47609251542E+03  0.77756027388E+03  0.00000000000E+00 0. -1.
        -11    1    3    3    0    0 -0.79191039920E+03  0.74351106746E+03  0.65835594351E+03  0.12701824027E+04  0.00000000000E+00 0.  1.
          2    1    6    6  502    0  0.27390125860E+03 -0.12230547789E+03  0.10538341892E+03  0.31794055163E+03  0.00000000000E+00 0. -1.
          1    1    5    5  503    0  0.54695340050E+03 -0.73580290659E+03 -0.60550593937E+03  0.10987271646E+04  0.00000000000E+00 0. -1.
         -2    1    5    5    0  503  0.22633751135E+02 -0.61253851068E+02 -0.55814197140E+02  0.85904281403E+02  0.00000000000E+00 0.  1.
         -1    1    6    6    0  502  0.38101734683E+03 -0.26095216597E+03  0.10626922137E+03  0.47388120760E+03  0.00000000000E+00 0.  1.
<mgrwt>
<rscale>  0 0.39655047E+04</rscale>
<asrwt>0</asrwt>
<pdfrwt beam="1">  1        2 0.36222899E+00 0.39655047E+04</pdfrwt>
<pdfrwt beam="2">  1       -2 0.25687807E+00 0.39655047E+04</pdfrwt>
<totfact> 0.19470391E-01</totfact>
</mgrwt>
</event>
<event>
12    1  0.2404959E-007  0.2638596E+04  0.7818608E-02  0.8355208E-01
          1   -1    0    0  501    0  0.00000000000E+00  0.00000000000E+00  0.15241383331E+04  0.15241383331E+04  0.00000000000E+00 0. -1.
         -1   -1    0    0    0  501 -0.00000000000E+00 -0.00000000000E+00 -0.11419879275E+04  0.11419879275E+04  0.00000000000E+00 0.  1.
         23    2    1    2    0    0 -0.78468232449E+03 -0.42936629923E+03 -0.58394559192E+03  0.10720907555E+04  0.91128286050E+02 0.  0.
        254    2    1    2    0    0  0.78468232449E+03  0.42936629923E+03  0.96609599752E+03  0.15940355050E+04  0.89862447410E+03 0.  0.
        -24    2    4    4    0    0  0.86798121196E+03  0.56653020404E+03  0.96066649932E+03  0.14154546954E+04  0.79271781260E+02 0.  0.
         24    2    4    4    0    0 -0.83298887472E+02 -0.13716390481E+03  0.54294982023E+01  0.17858080963E+03  0.78159994105E+02 0.  0.
         13    1    3    3    0    0 -0.56521355929E+03 -0.26745773134E+03 -0.38223006643E+03  0.73287094999E+03  0.00000000000E+00 0. -1.
        -13    1    3    3    0    0 -0.21946876520E+03 -0.16190856789E+03 -0.20171552550E+03  0.33921980556E+03  0.00000000000E+00 0.  1.
          4    1    6    6  502    0 -0.96101014210E+02 -0.12946515681E+03  0.13140628742E+02  0.16176930452E+03  0.00000000000E+00 0. -1.
          3    1    5    5  503    0  0.58256560392E+03  0.35186383595E+03  0.66931501655E+03  0.95455404944E+03  0.00000000000E+00 0. -1.
         -4    1    5    5    0  503  0.28541560803E+03  0.21466636809E+03  0.29135148277E+03  0.46090064592E+03  0.00000000000E+00 0.  1.
         -3    1    6    6    0  502  0.12802126738E+02 -0.76987479986E+01 -0.77111305394E+01  0.16811505107E+02  0.00000000000E+00 0.  1.
<mgrwt>
<rscale>  0 0.26385963E+04</rscale>
<asrwt>0</asrwt>
<pdfrwt beam="1">  1        1 0.23448282E+00 0.26385963E+04</pdfrwt>
<pdfrwt beam="2">  1       -1 0.17569045E+00 0.26385963E+04</pdfrwt>
<totfact> 0.12354496E+00</totfact>
</mgrwt>
</event>
<event>
12    1  0.2404959E-007  0.4673261E+04  0.7818608E-02  0.7880987E-01
          1   -1    0    0  501    0  0.00000000000E+00  0.00000000000E+00  0.19707966703E+04  0.19707966703E+04  0.00000000000E+00 0.  1.
         -1   -1    0    0    0  501 -0.00000000000E+00 -0.00000000000E+00 -0.27703725818E+04  0.27703725818E+04  0.00000000000E+00 0. -1.
         23    2    1    2    0    0 -0.19161069209E+04  0.11698485714E+04 -0.24537221327E+03  0.22601277415E+04  0.89210271928E+02 0.  0.
        254    2    1    2    0    0  0.19161069209E+04 -0.11698485714E+04 -0.55420369822E+03  0.24810415106E+04  0.89911836026E+03 0.  0.
        -24    2    4    4    0    0  0.18616907913E+04 -0.11389921752E+04 -0.29738880933E+03  0.22041305116E+04  0.80965613423E+02 0.  0.
         24    2    4    4    0    0  0.54416129656E+02 -0.30856396205E+02 -0.25681488888E+03  0.27691099905E+03  0.82538366164E+02 0.  0.
         11    1    3    3    0    0 -0.14050563374E+04  0.87361089132E+03 -0.14360777697E+03  0.16607234852E+04  0.00000000000E+00 0.  1.
        -11    1    3    3    0    0 -0.51105058352E+03  0.29623768008E+03 -0.10176443630E+03  0.59940425633E+03  0.00000000000E+00 0. -1.
          4    1    6    6  502    0  0.60975542271E+02  0.99465773547E+01 -0.16639565352E+03  0.17749497082E+03  0.00000000000E+00 0. -1.
          1    1    5    5  503    0  0.40350310863E+03 -0.27461367049E+03 -0.42286140434E+02  0.48991381320E+03  0.00000000000E+00 0. -1.
         -2    1    5    5    0  503  0.14581876826E+04 -0.86437850471E+03 -0.25510266890E+03  0.17142166984E+04  0.00000000000E+00 0.  1.
         -3    1    6    6    0  502 -0.65594126146E+01 -0.40802973559E+02 -0.90419235367E+02  0.99416028232E+02  0.00000000000E+00 0.  1.
<mgrwt>
<rscale>  0 0.46732606E+04</rscale>
<asrwt>0</asrwt>
<pdfrwt beam="1">  1        1 0.30319949E+00 0.46732606E+04</pdfrwt>
<pdfrwt beam="2">  1       -1 0.42621116E+00 0.46732606E+04</pdfrwt>
<totfact> 0.10923416E-02</totfact>
</mgrwt>
</event>
<event>
12    1  0.2404959E-007  0.1789168E+04  0.7818608E-02  0.8712081E-01
          2   -1    0    0  501    0  0.00000000000E+00  0.00000000000E+00  0.78142382951E+03  0.78142382951E+03  0.00000000000E+00 0.  1.
         -2   -1    0    0    0  501 -0.00000000000E+00 -0.00000000000E+00 -0.10241310123E+04  0.10241310123E+04  0.00000000000E+00 0. -1.
         23    2    1    2    0    0 -0.23711001113E+03  0.61048116555E+03  0.39998059083E+02  0.66227242554E+03  0.89980609154E+02 0.  0.
        254    2    1    2    0    0  0.23711001113E+03 -0.61048116555E+03 -0.28270524192E+03  0.11432824163E+04  0.89345622097E+03 0.  0.
        -24    2    4    4    0    0 -0.63727608652E+02 -0.25128320600E+03 -0.53890440441E+03  0.60329363934E+03  0.79629143229E+02 0.  0.
         24    2    4    4    0    0  0.30083761978E+03 -0.35919795955E+03  0.25619916249E+03  0.53998877698E+03  0.80146246212E+02 0.  0.
         13    1    3    3    0    0 -0.28334419613E+02  0.13957003126E+03  0.37011044201E+02  0.14714771610E+03  0.00000000000E+00 0.  1.
        -13    1    3    3    0    0 -0.20877559152E+03  0.47091113429E+03  0.29870148822E+01  0.51512470943E+03  0.00000000000E+00 0. -1.
          4    1    6    6  502    0  0.30356464129E+03 -0.33954084271E+03  0.24690485896E+03  0.51807478677E+03  0.00000000000E+00 0. -1.
          3    1    5    5  503    0 -0.79483222752E+02 -0.21251798196E+03 -0.48123985908E+03  0.53204631126E+03  0.00000000000E+00 0. -1.
         -4    1    5    5    0  503  0.15755614099E+02 -0.38765224041E+02 -0.57664545331E+02  0.71247328082E+02  0.00000000000E+00 0.  1.
         -3    1    6    6    0  502 -0.27270215065E+01 -0.19657116841E+02  0.92943035306E+01  0.21913990210E+02  0.00000000000E+00 0.  1.
<mgrwt>
<rscale>  0 0.17891678E+04</rscale>
<asrwt>0</asrwt>
<pdfrwt beam="1">  1        2 0.12021905E+00 0.17891678E+04</pdfrwt>
<pdfrwt beam="2">  1       -2 0.15755862E+00 0.17891678E+04</pdfrwt>
<totfact> 0.88149036E+00</totfact>
</mgrwt>
</event>
<event>
12    1  0.2404959E-007  0.2126299E+04  0.7818608E-02  0.8549746E-01
          2   -1    0    0  501    0  0.00000000000E+00  0.00000000000E+00  0.17201099045E+04  0.17201099045E+04  0.00000000000E+00 0. -1.
         -2   -1    0    0    0  501 -0.00000000000E+00 -0.00000000000E+00 -0.65710178153E+03  0.65710178153E+03  0.00000000000E+00 0.  1.
         23    2    1    2    0    0 -0.64950663043E+02 -0.85987177289E+03  0.53009291418E+03  0.10162919312E+04  0.90844577962E+02 0.  0.
        254    2    1    2    0    0  0.64950663043E+02  0.85987177289E+03  0.53291520884E+03  0.13609197549E+04  0.90802307510E+03 0.  0.
        -24    2    4    4    0    0  0.13119192171E+03  0.95357035005E+03  0.18194697943E+03  0.98276842456E+03  0.78875472540E+02 0.  0.
         24    2    4    4    0    0 -0.66241258669E+02 -0.93698577167E+02  0.35096822941E+03  0.37815133030E+03  0.81562263567E+02 0.  0.
         11    1    3    3    0    0 -0.36467704237E+02 -0.25508846965E+03  0.20365056352E+03  0.32844112536E+03  0.00000000000E+00 0. -1.
        -11    1    3    3    0    0 -0.28482958806E+02 -0.60478330324E+03  0.32644235066E+03  0.68785080586E+03  0.00000000000E+00 0.  1.
          4    1    6    6  502    0 -0.62424647016E+02 -0.37139666139E+02  0.26798044951E+03  0.27765034247E+03  0.00000000000E+00 0. -1.
          3    1    5    5  503    0  0.76990043510E+02  0.64379832862E+03  0.86533046001E+02  0.65413433084E+03  0.00000000000E+00 0. -1.
         -4    1    5    5    0  503  0.54201878202E+02  0.30977202143E+03  0.95413933430E+02  0.32863409372E+03  0.00000000000E+00 0.  1.
         -3    1    6    6    0  502 -0.38166116527E+01 -0.56558911028E+02  0.82987779902E+02  0.10050098783E+03  0.00000000000E+00 0.  1.
<mgrwt>
<rscale>  0 0.21262994E+04</rscale>
<asrwt>0</asrwt>
<pdfrwt beam="1">  1        2 0.26463229E+00 0.21262994E+04</pdfrwt>
<pdfrwt beam="2">  1       -2 0.10109258E+00 0.21262994E+04</pdfrwt>
<totfact> 0.70745657E+00</totfact>
</mgrwt>
</event>
<event>
12    1  0.2404959E-007  0.1577306E+04  0.7818608E-02  0.8834612E-01
         -2   -1    0    0    0  501 -0.00000000000E+00  0.00000000000E+00  0.14639798653E+04  0.14639798653E+04  0.00000000000E+00 0.  1.
          2   -1    0    0  501    0  0.00000000000E+00 -0.00000000000E+00 -0.42485119711E+03  0.42485119711E+03  0.00000000000E+00 0. -1.
         23    2    1    2    0    0 -0.67583234766E+02 -0.49949958690E+03  0.15768207849E+03  0.53263374146E+03  0.69048777881E+02 0.  0.
        254    2    1    2    0    0  0.67583234766E+02  0.49949958690E+03  0.88144658975E+03  0.13561973210E+04  0.89903045108E+03 0.  0.
        -24    2    4    4    0    0 -0.21662172337E+02 -0.15458197173E+03 -0.76358737570E+02  0.19023313113E+03  0.77415448592E+02 0.  0.
         24    2    4    4    0    0  0.89245407103E+02  0.65408155863E+03  0.95780532732E+03  0.11659641899E+04  0.79334853555E+02 0.  0.
         11    1    3    3    0    0 -0.58460553752E+02 -0.34522111866E+03  0.77856251797E+02  0.35868768177E+03  0.00000000000E+00 0.  1.
        -11    1    3    3    0    0 -0.91226810142E+01 -0.15427846824E+03  0.79825826695E+02  0.17394605969E+03  0.00000000000E+00 0. -1.
          2    1    6    6  502    0  0.11055525301E+02  0.27968398994E+03  0.35525426039E+03  0.45227309051E+03  0.00000000000E+00 0. -1.
          3    1    5    5  503    0  0.26451652711E+02 -0.70315745590E+02 -0.18919082638E+02  0.77472096246E+02  0.00000000000E+00 0. -1.
         -4    1    5    5    0  503 -0.48113825047E+02 -0.84266226144E+02 -0.57439654932E+02  0.11276103488E+03  0.00000000000E+00 0.  1.
         -1    1    6    6    0  502  0.78189881802E+02  0.37439756869E+03  0.60255106692E+03  0.71369109936E+03  0.00000000000E+00 0.  1.
<mgrwt>
<rscale>  0 0.15773061E+04</rscale>
<asrwt>0</asrwt>
<pdfrwt beam="1">  1        2 0.65361723E-01 0.15773061E+04</pdfrwt>
<pdfrwt beam="2">  1       -2 0.22522767E+00 0.15773061E+04</pdfrwt>
<totfact> 0.65313429E+00</totfact>
</mgrwt>
</event>
<event>
12    1  0.2404959E-007  0.6267255E+04  0.7818608E-02  0.7658121E-01
         -2   -1    0    0    0  501 -0.00000000000E+00  0.00000000000E+00  0.28484503149E+04  0.28484503149E+04  0.00000000000E+00 0.  1.
          2   -1    0    0  501    0  0.00000000000E+00 -0.00000000000E+00 -0.34473558713E+04  0.34473558713E+04  0.00000000000E+00 0. -1.
         23    2    1    2    0    0 -0.19429457938E+04  0.62314739771E+03  0.20085024986E+04  0.28646245404E+04  0.92953931101E+02 0.  0.
        254    2    1    2    0    0  0.19429457938E+04 -0.62314739771E+03 -0.26074080551E+04  0.34311816458E+04  0.90059962459E+03 0.  0.
        -24    2    4    4    0    0  0.70643769370E+03 -0.70680052884E+02 -0.34544479364E+03  0.79354461382E+03  0.79567981703E+02 0.  0.
         24    2    4    4    0    0  0.12365081001E+04 -0.55246734483E+03 -0.22619632615E+04  0.26376370320E+04  0.80491413263E+02 0.  0.
         11    1    3    3    0    0 -0.13775113181E+04  0.48583709396E+03  0.14349430475E+04  0.20475928948E+04  0.00000000000E+00 0.  1.
        -11    1    3    3    0    0 -0.56543447575E+03  0.13731030375E+03  0.57355945109E+03  0.81703164554E+03  0.00000000000E+00 0. -1.
          2    1    6    6  502    0  0.87204298803E+03 -0.40172977772E+03 -0.15340341263E+04  0.18097255283E+04  0.00000000000E+00 0. -1.
          3    1    5    5  503    0  0.60401783875E+03 -0.43031109553E+02 -0.31798651801E+03  0.68396246355E+03  0.00000000000E+00 0. -1.
         -4    1    5    5    0  503  0.10241985496E+03 -0.27648943332E+02 -0.27458275624E+02  0.10958215027E+03  0.00000000000E+00 0.  1.
         -3    1    6    6    0  502  0.36446511209E+03 -0.15073756711E+03 -0.72792913521E+03  0.82791150370E+03  0.00000000000E+00 0.  1.
<mgrwt>
<rscale>  0 0.62672552E+04</rscale>
<asrwt>0</asrwt>
<pdfrwt beam="1">  1        2 0.53036244E+00 0.62672552E+04</pdfrwt>
<pdfrwt beam="2">  1       -2 0.43822313E+00 0.62672552E+04</pdfrwt>
<totfact> 0.24276788E-03</totfact>
</mgrwt>
</event>
<event>
12    1  0.2404959E-007  0.1343158E+04  0.7818608E-02  0.8996024E-01
         -1   -1    0    0    0  501 -0.00000000000E+00  0.00000000000E+00  0.34956101671E+03  0.34956101671E+03  0.00000000000E+00 0.  1.
          1   -1    0    0  501    0  0.00000000000E+00 -0.00000000000E+00 -0.12902413246E+04  0.12902413246E+04  0.00000000000E+00 0. -1.
         23    2    1    2    0    0  0.35346227198E+03  0.39715060912E+02 -0.34327486413E+03  0.50241618979E+03  0.89841703266E+02 0.  0.
        254    2    1    2    0    0 -0.35346227198E+03 -0.39715060912E+02 -0.59740544375E+03  0.11373861515E+04  0.90013395095E+03 0.  0.
        -24    2    4    4    0    0 -0.45079800905E+03 -0.36830574469E+03 -0.50223078569E+03  0.77298065815E+03  0.79971052544E+02 0.  0.
         24    2    4    4    0    0  0.97335737068E+02  0.32859068378E+03 -0.95174658059E+02  0.36440549336E+03  0.79291013878E+02 0.  0.
         11    1    3    3    0    0  0.12639630119E+03  0.21994278924E+02 -0.68221144344E+02  0.14530622077E+03  0.00000000000E+00 0.  1.
        -11    1    3    3    0    0  0.22706597079E+03  0.17720781988E+02 -0.27505371978E+03  0.35710996902E+03  0.00000000000E+00 0. -1.
          4    1    6    6  502    0  0.50180168355E+02  0.18477759911E+03 -0.93428630572E+02  0.21304863163E+03  0.00000000000E+00 0. -1.
          1    1    5    5  503    0 -0.39486600072E+03 -0.34878066485E+03 -0.46716930273E+03  0.70414080134E+03  0.00000000000E+00 0. -1.
         -2    1    5    5    0  503 -0.55932008326E+02 -0.19525079836E+02 -0.35061482967E+02  0.68839856811E+02  0.00000000000E+00 0.  1.
         -3    1    6    6    0  502  0.47155568713E+02  0.14381308466E+03 -0.17460274870E+01  0.15135686173E+03  0.00000000000E+00 0.  1.
<mgrwt>
<rscale>  0 0.13431576E+04</rscale>
<asrwt>0</asrwt>
<pdfrwt beam="1">  1        1 0.19849866E+00 0.13431576E+04</pdfrwt>
<pdfrwt beam="2">  1       -1 0.53778619E-01 0.13431576E+04</pdfrwt>
<totfact> 0.31412486E+01</totfact>
</mgrwt>
</event>
<event>
12    1  0.2404959E-007  0.4202643E+04  0.7818608E-02  0.7964870E-01
         -1   -1    0    0    0  501 -0.00000000000E+00  0.00000000000E+00  0.10883699953E+04  0.10883699953E+04  0.00000000000E+00 0.  1.
          1   -1    0    0  501    0  0.00000000000E+00 -0.00000000000E+00 -0.40570312430E+04  0.40570312430E+04  0.00000000000E+00 0. -1.
         23    2    1    2    0    0 -0.16655656364E+04 -0.12467266503E+03 -0.61756020904E+02  0.16742246726E+04  0.97786941310E+02 0.  0.
        254    2    1    2    0    0  0.16655656364E+04  0.12467266503E+03 -0.29069052267E+04  0.34711765657E+04  0.89962024803E+03 0.  0.
        -24    2    4    4    0    0  0.10113778243E+04  0.16576148138E+03 -0.24776717661E+04  0.26827549301E+04  0.89188913099E+02 0.  0.
         24    2    4    4    0    0  0.65418781201E+03 -0.41088816350E+02 -0.42923346067E+03  0.78842163563E+03  0.87848321302E+02 0.  0.
         13    1    3    3    0    0 -0.10321640932E+04 -0.44127869594E+02 -0.39886076997E+01  0.10331146563E+04  0.00000000000E+00 0. -1.
        -13    1    3    3    0    0 -0.63340154317E+03 -0.80544795432E+02 -0.57767413204E+02  0.64111001629E+03  0.00000000000E+00 0.  1.
          2    1    6    6  502    0  0.22374417084E+03  0.54567257813E+01 -0.19112339902E+03  0.29431171145E+03  0.00000000000E+00 0. -1.
          1    1    5    5  503    0  0.33686169858E+03  0.40868780675E+02 -0.71970870641E+03  0.79569258090E+03  0.00000000000E+00 0. -1.
         -2    1    5    5    0  503  0.67451612576E+03  0.12489270070E+03 -0.17579630597E+04  0.18870623492E+04  0.00000000000E+00 0.  1.
         -1    1    6    6    0  502  0.43044364117E+03 -0.46545542132E+02 -0.23811006165E+03  0.49410992418E+03  0.00000000000E+00 0.  1.
<mgrwt>
<rscale>  0 0.42026425E+04</rscale>
<asrwt>0</asrwt>
<pdfrwt beam="1">  1        1 0.62415864E+00 0.42026425E+04</pdfrwt>
<pdfrwt beam="2">  1       -1 0.16744154E+00 0.42026425E+04</pdfrwt>
<totfact> 0.16833694E-02</totfact>
</mgrwt>
</event>
<event>
12    1  0.2404959E-007  0.1314055E+04  0.7818608E-02  0.9018493E-01
          1   -1    0    0  501    0  0.00000000000E+00  0.00000000000E+00  0.18060258164E+04  0.18060258164E+04  0.00000000000E+00 0. -1.
         -1   -1    0    0    0  501 -0.00000000000E+00 -0.00000000000E+00 -0.23902488534E+03  0.23902488534E+03  0.00000000000E+00 0.  1.
         23    2    1    2    0    0 -0.80161306037E+02 -0.11705473558E+03  0.90198187566E+03  0.91783720479E+03  0.93414048045E+02 0.  0.
        254    2    1    2    0    0  0.80161306037E+02  0.11705473558E+03  0.66501905544E+03  0.11272134970E+04  0.89901739561E+03 0.  0.
        -24    2    4    4    0    0 -0.11290179594E+02  0.60659404700E+02 -0.21475718353E+03  0.23743390739E+03  0.80294339565E+02 0.  0.
         24    2    4    4    0    0  0.91451485631E+02  0.56395330879E+02  0.87977623897E+03  0.88977958960E+03  0.78470885353E+02 0.  0.
         13    1    3    3    0    0 -0.60839836688E+02 -0.74038511633E+02  0.32241067203E+03  0.33635075200E+03  0.00000000000E+00 0.  1.
        -13    1    3    3    0    0 -0.19321469349E+02 -0.43016223946E+02  0.57957120364E+03  0.58148645280E+03  0.00000000000E+00 0. -1.
          4    1    6    6  502    0 -0.13691361798E+02  0.71264269035E+01  0.15428644824E+03  0.15505659438E+03  0.00000000000E+00 0. -1.
          3    1    5    5  503    0  0.31388564748E+02  0.46756921846E+02 -0.12359917059E+03  0.13582417571E+03  0.00000000000E+00 0. -1.
         -4    1    5    5    0  503 -0.42678744342E+02  0.13902482854E+02 -0.91158012943E+02  0.10160973168E+03  0.00000000000E+00 0.  1.
         -3    1    6    6    0  502  0.10514284743E+03  0.49268903976E+02  0.72548979073E+03  0.73472299522E+03  0.00000000000E+00 0.  1.
<mgrwt>
<rscale>  0 0.13140550E+04</rscale>
<asrwt>0</asrwt>
<pdfrwt beam="1">  1        1 0.27785012E+00 0.13140550E+04</pdfrwt>
<pdfrwt beam="2">  1       -1 0.36773060E-01 0.13140550E+04</pdfrwt>
<totfact> 0.28132145E+01</totfact>
</mgrwt>
</event>
<event>
12    1  0.2404959E-007  0.1360012E+04  0.7818608E-02  0.8983283E-01
          2   -1    0    0  501    0  0.00000000000E+00  0.00000000000E+00  0.22826408502E+03  0.22826408502E+03  0.00000000000E+00 0. -1.
         -2   -1    0    0    0  501 -0.00000000000E+00 -0.00000000000E+00 -0.20257601218E+04  0.20257601218E+04  0.00000000000E+00 0.  1.
         23    2    1    2    0    0  0.18414371985E+03  0.21328090026E+03 -0.98231533241E+02  0.30984870564E+03  0.83421425832E+02 0.  0.
        254    2    1    2    0    0 -0.18414371985E+03 -0.21328090026E+03 -0.16992645036E+04  0.19441755012E+04  0.90162124777E+03 0.  0.
        -24    2    4    4    0    0 -0.43616704927E+02 -0.44903516525E+03 -0.38256837627E+03  0.59687672831E+03  0.79801439233E+02 0.  0.
         24    2    4    4    0    0 -0.14052701492E+03  0.23575426499E+03 -0.13166961273E+04  0.13472987729E+04  0.78723417183E+02 0.  0.
         11    1    3    3    0    0  0.11258281693E+03  0.14793571620E+03 -0.23312945917E+02  0.18735890756E+03  0.00000000000E+00 0.  1.
        -11    1    3    3    0    0  0.71560902916E+02  0.65345184062E+02 -0.74918587324E+02  0.12248979808E+03  0.00000000000E+00 0. -1.
          4    1    6    6  502    0 -0.44597015560E+02  0.48202047577E+02 -0.18870136054E+03  0.19980123788E+03  0.00000000000E+00 0. -1.
          3    1    5    5  503    0  0.16517863220E+02 -0.12079592052E+03 -0.13112257149E+03  0.17904642687E+03  0.00000000000E+00 0. -1.
         -4    1    5    5    0  503 -0.60134568147E+02 -0.32823924473E+03 -0.25144580478E+03  0.41783030145E+03  0.00000000000E+00 0.  1.
         -3    1    6    6    0  502 -0.95929999359E+02  0.18755221741E+03 -0.11279947668E+04  0.11474975350E+04  0.00000000000E+00 0.  1.
<mgrwt>
<rscale>  0 0.13600122E+04</rscale>
<asrwt>0</asrwt>
<pdfrwt beam="1">  1        2 0.35117553E-01 0.13600122E+04</pdfrwt>
<pdfrwt beam="2">  1       -2 0.31165539E+00 0.13600122E+04</pdfrwt>
<totfact> 0.39473308E+00</totfact>
</mgrwt>
</event>
<event>
12    1  0.2404959E-007  0.1254777E+04  0.7818608E-02  0.9066217E-01
          2   -1    0    0  501    0  0.00000000000E+00  0.00000000000E+00  0.98301462971E+03  0.98301462971E+03  0.00000000000E+00 0. -1.
         -2   -1    0    0    0  501 -0.00000000000E+00 -0.00000000000E+00 -0.40041759061E+03  0.40041759061E+03  0.00000000000E+00 0.  1.
         23    2    1    2    0    0 -0.16197073895E+03  0.24174381833E+03  0.18383434311E+03  0.35617989938E+03  0.91621291388E+02 0.  0.
        254    2    1    2    0    0  0.16197073895E+03 -0.24174381833E+03  0.39876269598E+03  0.10272523209E+04  0.90086683211E+03 0.  0.
        -24    2    4    4    0    0  0.11147330697E+03  0.16050559333E+03 -0.20619040605E+03  0.29455680125E+03  0.77851666394E+02 0.  0.
         24    2    4    4    0    0  0.50497431981E+02 -0.40224941166E+03  0.60495310203E+03  0.73269551969E+03  0.80745830220E+02 0.  0.
         13    1    3    3    0    0 -0.39275712806E+02  0.45938496287E+02 -0.73535711202E+00  0.60443922834E+02  0.00000000000E+00 0.  1.
        -13    1    3    3    0    0 -0.12269502615E+03  0.19580532204E+03  0.18456970022E+03  0.29573597654E+03  0.00000000000E+00 0. -1.
          4    1    6    6  502    0  0.52957320756E+02 -0.12276143266E+03  0.20577855163E+03  0.24539694269E+03  0.00000000000E+00 0. -1.
          3    1    5    5  503    0  0.51124668437E+02  0.13518210416E+03 -0.13356137811E+03  0.19679068762E+03  0.00000000000E+00 0. -1.
         -4    1    5    5    0  503  0.60348638537E+02  0.25323489164E+02 -0.72629027938E+02  0.97766113638E+02  0.00000000000E+00 0.  1.
         -3    1    6    6    0  502 -0.24598887748E+01 -0.27948797899E+03  0.39917455040E+03  0.48729857700E+03  0.00000000000E+00 0.  1.
<mgrwt>
<rscale>  0 0.12547770E+04</rscale>
<asrwt>0</asrwt>
<pdfrwt beam="1">  1        2 0.15123302E+00 0.12547770E+04</pdfrwt>
<pdfrwt beam="2">  1       -2 0.61602706E-01 0.12547770E+04</pdfrwt>
<totfact> 0.62211393E+01</totfact>
</mgrwt>
</event>
<event>
12    1  0.2404959E-007  0.2018894E+04  0.7818608E-02  0.8597838E-01
         -1   -1    0    0    0  501 -0.00000000000E+00  0.00000000000E+00  0.39756869420E+03  0.39756869420E+03  0.00000000000E+00 0.  1.
          1   -1    0    0  501    0  0.00000000000E+00 -0.00000000000E+00 -0.25630376051E+04  0.25630376051E+04  0.00000000000E+00 0. -1.
         23    2    1    2    0    0 -0.11922756287E+03  0.72164327434E+03 -0.13645485355E+04  0.15509382839E+04  0.91829339992E+02 0.  0.
        254    2    1    2    0    0  0.11922756287E+03 -0.72164327434E+03 -0.80092037535E+03  0.14096680153E+04  0.90039226931E+03 0.  0.
        -24    2    4    4    0    0  0.42373267431E+03 -0.49274218980E+03 -0.18387259220E+03  0.68010675043E+03  0.79948839481E+02 0.  0.
         24    2    4    4    0    0 -0.30450511143E+03 -0.22890108454E+03 -0.61704778315E+03  0.72956126490E+03  0.79953756327E+02 0.  0.
         11    1    3    3    0    0 -0.18379118628E+02  0.24580571529E+02 -0.84703131645E+02  0.90092269417E+02  0.00000000000E+00 0. -1.
        -11    1    3    3    0    0 -0.10084844424E+03  0.69706270281E+03 -0.12798454039E+04  0.14608460145E+04  0.00000000000E+00 0.  1.
          4    1    6    6  502    0 -0.79308426263E+02 -0.79335241970E+02 -0.24702913430E+03  0.27130665360E+03  0.00000000000E+00 0. -1.
          1    1    5    5  503    0 -0.12704784689E+01 -0.15224689053E+02 -0.15441729621E+01  0.15355446670E+02  0.00000000000E+00 0. -1.
         -2    1    5    5    0  503  0.42500315277E+03 -0.47751750074E+03 -0.18232841924E+03  0.66475130376E+03  0.00000000000E+00 0.  1.
         -1    1    6    6    0  502 -0.22519668517E+03 -0.14956584257E+03 -0.37001864885E+03  0.45825461130E+03  0.00000000000E+00 0.  1.
<mgrwt>
<rscale>  0 0.20188943E+04</rscale>
<asrwt>0</asrwt>
<pdfrwt beam="1">  1        1 0.39431347E+00 0.20188943E+04</pdfrwt>
<pdfrwt beam="2">  1       -1 0.61164416E-01 0.20188943E+04</pdfrwt>
<totfact> 0.30762888E+00</totfact>
</mgrwt>
</event>
<event>
12    1  0.2404959E-007  0.2137274E+04  0.7818608E-02  0.8544999E-01
         -2   -1    0    0    0  501 -0.00000000000E+00  0.00000000000E+00  0.59474271409E+03  0.59474271409E+03  0.00000000000E+00 0.  1.
          2   -1    0    0  501    0  0.00000000000E+00 -0.00000000000E+00 -0.19201332589E+04  0.19201332589E+04  0.00000000000E+00 0. -1.
         23    2    1    2    0    0  0.35658945769E+03 -0.67246811770E+03 -0.43153856869E+02  0.76794612350E+03  0.92247398781E+02 0.  0.
        254    2    1    2    0    0 -0.35658945769E+03  0.67246811770E+03 -0.12822366880E+04  0.17469298495E+04  0.91008986617E+03 0.  0.
        -24    2    4    4    0    0 -0.81575022529E+02 -0.21675070409E+03 -0.19293606941E+03  0.31189233332E+03  0.80107107537E+02 0.  0.
         24    2    4    4    0    0 -0.27501443516E+03  0.88921882179E+03 -0.10893006186E+04  0.14350375162E+04  0.80086095800E+02 0.  0.
         13    1    3    3    0    0  0.25129339011E+03 -0.43019062895E+03  0.10785364280E+02  0.49832586651E+03  0.00000000000E+00 0.  1.
        -13    1    3    3    0    0  0.10529606757E+03 -0.24227748875E+03 -0.53939221149E+02  0.26962025699E+03  0.00000000000E+00 0. -1.
          2    1    6    6  502    0 -0.27219540717E+03  0.88441905775E+03 -0.10895348631E+04  0.14294662036E+04  0.00000000000E+00 0. -1.
          3    1    5    5  503    0 -0.68050219587E+02 -0.21690625869E+03 -0.16514319161E+03  0.28098297311E+03  0.00000000000E+00 0. -1.
         -4    1    5    5    0  503 -0.13524802941E+02  0.15555459663E+00 -0.27792877801E+02  0.30909360205E+02  0.00000000000E+00 0.  1.
         -1    1    6    6    0  502 -0.28190279912E+01  0.47997640408E+01  0.23424450353E+00  0.55713126056E+01  0.00000000000E+00 0.  1.
<mgrwt>
<rscale>  0 0.21372742E+04</rscale>
<asrwt>0</asrwt>
<pdfrwt beam="1">  1        2 0.29540512E+00 0.21372742E+04</pdfrwt>
<pdfrwt beam="2">  1       -2 0.91498879E-01 0.21372742E+04</pdfrwt>
<totfact> 0.69155282E+00</totfact>
</mgrwt>
</event>
<event>
12    1  0.2632500E-007  0.2275954E+04  0.7818608E-02  0.8487463E-01
          2   -1    0    0  501    0  0.00000000000E+00  0.00000000000E+00  0.26376611371E+04  0.26376611371E+04  0.00000000000E+00 0. -1.
         -2   -1    0    0    0  501 -0.00000000000E+00 -0.00000000000E+00 -0.49096200515E+03  0.49096200515E+03  0.00000000000E+00 0.  1.
         23    2    1    2    0    0 -0.91136723616E+03 -0.26733710211E+02  0.49925421614E+03  0.10434124436E+04  0.90276379751E+02 0.  0.
        254    2    1    2    0    0  0.91136723616E+03  0.26733710211E+02  0.16474449158E+04  0.20852106987E+04  0.89594864623E+03 0.  0.
        -24    2    4    4    0    0  0.52276028795E+03 -0.42086554358E+03  0.95761572906E+03  0.11722382375E+04  0.81905289110E+02 0.  0.
         24    2    4    4    0    0  0.38860694821E+03  0.44759925379E+03  0.68982918678E+03  0.91297246120E+03  0.79334455233E+02 0.  0.
         13    1    3    3    0    0 -0.18086488107E+03  0.29157151678E+02  0.11202014414E+03  0.21473415516E+03  0.00000000000E+00 0.  1.
        -13    1    3    3    0    0 -0.73050235509E+03 -0.55890861889E+02  0.38723407199E+03  0.82867828845E+03  0.00000000000E+00 0. -1.
          4    1    6    6  502    0  0.22801627973E+03  0.22703067927E+03  0.32426021315E+03  0.45681400918E+03  0.00000000000E+00 0. -1.
          3    1    5    5  503    0  0.30136139066E+03 -0.27327413075E+03  0.63375028703E+03  0.75308489868E+03  0.00000000000E+00 0. -1.
         -4    1    5    5    0  503  0.22139889729E+03 -0.14759141283E+03  0.32386544203E+03  0.41915333877E+03  0.00000000000E+00 0.  1.
         -3    1    6    6    0  502  0.16059066848E+03  0.22056857452E+03  0.36556897363E+03  0.45615845202E+03  0.00000000000E+00 0.  1.
<mgrwt>
<rscale>  0 0.22759538E+04</rscale>
<asrwt>0</asrwt>
<pdfrwt beam="1">  1        2 0.40579401E+00 0.22759538E+04</pdfrwt>
<pdfrwt beam="2">  1       -2 0.75532617E-01 0.22759538E+04</pdfrwt>
<totfact> 0.41296309E+00</totfact>
</mgrwt>
</event>
<event>
12    1  0.2404959E-007  0.1446301E+04  0.7818608E-02  0.8920969E-01
         -2   -1    0    0    0  501 -0.00000000000E+00  0.00000000000E+00  0.99511624905E+03  0.99511624905E+03  0.00000000000E+00 0. -1.
          2   -1    0    0  501    0  0.00000000000E+00 -0.00000000000E+00 -0.52551321302E+03  0.52551321302E+03  0.00000000000E+00 0.  1.
         23    2    1    2    0    0 -0.32768556783E+03  0.20387618109E+03 -0.70906832664E+02  0.40311666521E+03  0.92368491730E+02 0.  0.
        254    2    1    2    0    0  0.32768556783E+03 -0.20387618109E+03  0.54050986870E+03  0.11175127969E+04  0.89874390369E+03 0.  0.
        -24    2    4    4    0    0  0.52606336104E+02 -0.50858010786E+03  0.45861036168E+03  0.69155080348E+03  0.80609535652E+02 0.  0.
         24    2    4    4    0    0  0.27507923173E+03  0.30470392677E+03  0.81899507022E+02  0.42596199339E+03  0.78886144814E+02 0.  0.
         11    1    3    3    0    0 -0.98322950419E+02  0.17408403372E+02 -0.34030973843E+01  0.99910140421E+02  0.00000000000E+00 0. -1.
        -11    1    3    3    0    0 -0.22936261742E+03  0.18646777772E+03 -0.67503735280E+02  0.30320652479E+03  0.00000000000E+00 0.  1.
          4    1    6    6  502    0  0.15444691842E+03  0.18530626286E+03  0.86225328191E+02  0.25617780717E+03  0.00000000000E+00 0. -1.
          1    1    5    5  503    0  0.88967004612E+01 -0.27712447276E+02  0.59641249649E+01  0.29710297873E+02  0.00000000000E+00 0. -1.
         -2    1    5    5    0  503  0.43709635642E+02 -0.48086766059E+03  0.45264623671E+03  0.66184050560E+03  0.00000000000E+00 0.  1.
         -3    1    6    6    0  502  0.12063231331E+03  0.11939766391E+03 -0.43258211689E+01  0.16978418622E+03  0.00000000000E+00 0.  1.
<mgrwt>
<rscale>  0 0.14463011E+04</rscale>
<asrwt>0</asrwt>
<pdfrwt beam="1">  1        2 0.80848187E-01 0.14463011E+04</pdfrwt>
<pdfrwt beam="2">  1       -2 0.15309481E+00 0.14463011E+04</pdfrwt>
<totfact> 0.15977130E+01</totfact>
</mgrwt>
</event>
<event>
12    1  0.2404959E-007  0.3683882E+04  0.7818608E-02  0.8071543E-01
         -1   -1    0    0    0  501 -0.00000000000E+00  0.00000000000E+00  0.87583859532E+03  0.87583859532E+03  0.00000000000E+00 0.  1.
          1   -1    0    0  501    0  0.00000000000E+00 -0.00000000000E+00 -0.38737128757E+04  0.38737128757E+04  0.00000000000E+00 0. -1.
         23    2    1    2    0    0  0.37129265570E+03  0.14374115665E+04 -0.26342202833E+03  0.15106126551E+04  0.92461781597E+02 0.  0.
        254    2    1    2    0    0 -0.37129265570E+03 -0.14374115665E+04 -0.27344522520E+04  0.32389388159E+04  0.89971400272E+03 0.  0.
        -24    2    4    4    0    0  0.20501899834E+03 -0.72454285947E+03 -0.82781358035E+03  0.11218747811E+04  0.79577356555E+02 0.  0.
         24    2    4    4    0    0 -0.57631165404E+03 -0.71286870704E+03 -0.19066386717E+04  0.21170640348E+04  0.79825980400E+02 0.  0.
         13    1    3    3    0    0  0.15119297519E+03  0.50293973859E+03 -0.53539930990E+02  0.52789603201E+03  0.00000000000E+00 0. -1.
        -13    1    3    3    0    0  0.22009968050E+03  0.93447182792E+03 -0.20988209734E+03  0.98271662310E+03  0.00000000000E+00 0.  1.
          4    1    6    6  502    0 -0.10231831721E+03 -0.17305623821E+03 -0.45281812854E+03  0.49544097243E+03  0.00000000000E+00 0. -1.
          3    1    5    5  503    0  0.25537391091E+02 -0.29902521289E+02 -0.51602472112E+02  0.64877840987E+02  0.00000000000E+00 0. -1.
         -4    1    5    5    0  503  0.17948160725E+03 -0.69464033818E+03 -0.77621110824E+03  0.10569969401E+04  0.00000000000E+00 0.  1.
         -3    1    6    6    0  502 -0.47399333682E+03 -0.53981246882E+03 -0.14538205431E+04  0.16216230624E+04  0.00000000000E+00 0.  1.
<mgrwt>
<rscale>  0 0.36838823E+04</rscale>
<asrwt>0</asrwt>
<pdfrwt beam="1">  1        1 0.59595582E+00 0.36838823E+04</pdfrwt>
<pdfrwt beam="2">  1       -1 0.13474440E+00 0.36838823E+04</pdfrwt>
<totfact> 0.45798245E-02</totfact>
</mgrwt>
</event>
<event>
12    1  0.2404959E-007  0.1487299E+04  0.7818608E-02  0.8892943E-01
          1   -1    0    0  501    0  0.00000000000E+00  0.00000000000E+00  0.36193170463E+03  0.36193170463E+03  0.00000000000E+00 0. -1.
         -1   -1    0    0    0  501 -0.00000000000E+00 -0.00000000000E+00 -0.15279537995E+04  0.15279537995E+04  0.00000000000E+00 0.  1.
         23    2    1    2    0    0  0.27972808247E+03 -0.37067496982E+03 -0.41185660581E+03  0.62720372022E+03  0.90060588100E+02 0.  0.
        254    2    1    2    0    0 -0.27972808247E+03  0.37067496982E+03 -0.75416548902E+03  0.12626817839E+04  0.89997331579E+03 0.  0.
        -24    2    4    4    0    0 -0.44272044061E+03 -0.13943331558E+03 -0.36137706482E+03  0.59351763297E+03  0.78909819700E+02 0.  0.
         24    2    4    4    0    0  0.16299235814E+03  0.51010828540E+03 -0.39278842421E+03  0.66916415091E+03  0.81981357844E+02 0.  0.
         13    1    3    3    0    0  0.96211229841E+02 -0.14540489231E+03 -0.21228398564E+03  0.27470652343E+03  0.00000000000E+00 0. -1.
        -13    1    3    3    0    0  0.18351685263E+03 -0.22527007752E+03 -0.19957262017E+03  0.35249719679E+03  0.00000000000E+00 0.  1.
          2    1    6    6  502    0  0.62799615359E+02  0.90172532676E+02 -0.86000246841E+02  0.13953823775E+03  0.00000000000E+00 0. -1.
          3    1    5    5  503    0 -0.10584685339E+03 -0.21192434765E+02 -0.12585790995E+03  0.16580979815E+03  0.00000000000E+00 0. -1.
         -4    1    5    5    0  503 -0.33687358722E+03 -0.11824088081E+03 -0.23551915486E+03  0.42770783482E+03  0.00000000000E+00 0.  1.
         -3    1    6    6    0  502  0.10019274278E+03  0.41993575272E+03 -0.30678817737E+03  0.52962591316E+03  0.00000000000E+00 0.  1.
<mgrwt>
<rscale>  0 0.14872995E+04</rscale>
<asrwt>0</asrwt>
<pdfrwt beam="1">  1        1 0.55681801E-01 0.14872995E+04</pdfrwt>
<pdfrwt beam="2">  1       -1 0.23506981E+00 0.14872995E+04</pdfrwt>
<totfact> 0.57987826E+00</totfact>
</mgrwt>
</event>
<event>
12    1  0.2404959E-007  0.1113176E+04  0.7818608E-02  0.9192444E-01
         -2   -1    0    0    0  501 -0.00000000000E+00  0.00000000000E+00  0.16815444451E+03  0.16815444451E+03  0.00000000000E+00 0.  1.
          2   -1    0    0  501    0  0.00000000000E+00 -0.00000000000E+00 -0.18422972738E+04  0.18422972738E+04  0.00000000000E+00 0. -1.
         23    2    1    2    0    0 -0.10191222215E+03 -0.47658029526E+02 -0.56778429001E+03  0.58586498285E+03  0.90561522430E+02 0.  0.
        254    2    1    2    0    0  0.10191222215E+03  0.47658029526E+02 -0.11063585393E+04  0.14245867355E+04  0.89037113647E+03 0.  0.
        -24    2    4    4    0    0 -0.54695726522E+02  0.22917019160E+03  0.39037435859E+02  0.25158289722E+03  0.79116582090E+02 0.  0.
         24    2    4    4    0    0  0.15660794867E+03 -0.18151216207E+03 -0.11453959752E+04  0.11730038383E+04  0.80829141443E+02 0.  0.
         13    1    3    3    0    0 -0.95499959568E+02  0.28007851918E+00 -0.35181941370E+03  0.36455071057E+03  0.00000000000E+00 0.  1.
        -13    1    3    3    0    0 -0.64122625790E+01 -0.47938108045E+02 -0.21596487631E+03  0.22131427228E+03  0.00000000000E+00 0. -1.
          4    1    6    6  502    0  0.15990230401E+03 -0.18336055149E+03 -0.10615244027E+04  0.10890472424E+04  0.00000000000E+00 0. -1.
          3    1    5    5  503    0 -0.60599020141E+02  0.91945312098E+02  0.58262965789E+01  0.11027296763E+03  0.00000000000E+00 0. -1.
         -4    1    5    5    0  503  0.59032936190E+01  0.13722487950E+03  0.33211139280E+02  0.14130992959E+03  0.00000000000E+00 0.  1.
         -3    1    6    6    0  502 -0.32943553446E+01  0.18483894183E+01 -0.83871572527E+02  0.83956595922E+02  0.00000000000E+00 0.  1.
<mgrwt>
<rscale>  0 0.11131765E+04</rscale>
<asrwt>0</asrwt>
<pdfrwt beam="1">  1        2 0.28343035E+00 0.11131765E+04</pdfrwt>
<pdfrwt beam="2">  1       -2 0.25869915E-01 0.11131765E+04</pdfrwt>
<totfact> 0.10940847E+02</totfact>
</mgrwt>
</event>
<event>
12    1  0.2404959E-007  0.2501118E+04  0.7818608E-02  0.8402587E-01
         -1   -1    0    0    0  501 -0.00000000000E+00  0.00000000000E+00  0.10230587396E+04  0.10230587396E+04  0.00000000000E+00 0.  1.
          1   -1    0    0  501    0  0.00000000000E+00 -0.00000000000E+00 -0.15286488458E+04  0.15286488458E+04  0.00000000000E+00 0. -1.
         23    2    1    2    0    0  0.46033766869E+03  0.59600508631E+03 -0.10200888001E+04  0.12713030899E+04  0.92182178977E+02 0.  0.
        254    2    1    2    0    0 -0.46033766869E+03 -0.59600508631E+03  0.51449869397E+03  0.12804044955E+04  0.89866230246E+03 0.  0.
        -24    2    4    4    0    0 -0.52970474366E+03  0.16472977900E+02  0.13602680177E+03  0.55289596336E+03  0.79575002589E+02 0.  0.
         24    2    4    4    0    0  0.69367074975E+02 -0.61247806421E+03  0.37847189219E+03  0.72750853213E+03  0.78016158046E+02 0.  0.
         13    1    3    3    0    0  0.19246223911E+03  0.20132567206E+03 -0.32104082181E+03  0.42501876309E+03  0.00000000000E+00 0.  1.
        -13    1    3    3    0    0  0.26787542958E+03  0.39467941425E+03 -0.69904797834E+03  0.84628432682E+03  0.00000000000E+00 0. -1.
          4    1    6    6  502    0  0.41512628093E+02 -0.22135502561E+03  0.99114492729E+02  0.24605899358E+03  0.00000000000E+00 0. -1.
          3    1    5    5  503    0 -0.43520753217E+00 -0.61290968605E+01  0.12997726487E+01  0.62804970233E+01  0.00000000000E+00 0. -1.
         -4    1    5    5    0  503 -0.52926953613E+03  0.22602074760E+02  0.13472702912E+03  0.54661546633E+03  0.00000000000E+00 0.  1.
         -3    1    6    6    0  502  0.27854446882E+02 -0.39112303861E+03  0.27935739946E+03  0.48144953856E+03  0.00000000000E+00 0.  1.
<mgrwt>
<rscale>  0 0.25011178E+04</rscale>
<asrwt>0</asrwt>
<pdfrwt beam="1">  1        1 0.23517675E+00 0.25011178E+04</pdfrwt>
<pdfrwt beam="2">  1       -1 0.15739365E+00 0.25011178E+04</pdfrwt>
<totfact> 0.16982990E+00</totfact>
</mgrwt>
</event>
<event>
12    1  0.2404959E-007  0.1308003E+04  0.7818608E-02  0.9023243E-01
         -2   -1    0    0    0  501 -0.00000000000E+00  0.00000000000E+00  0.13804644355E+04  0.13804644355E+04  0.00000000000E+00 0.  1.
          2   -1    0    0  501    0  0.00000000000E+00 -0.00000000000E+00 -0.30983630803E+03  0.30983630803E+03  0.00000000000E+00 0. -1.
         23    2    1    2    0    0 -0.14108854098E+03  0.24377564850E+03  0.65086860850E+02  0.31245532066E+03  0.11857269818E+03 0.  0.
        254    2    1    2    0    0  0.14108854098E+03 -0.24377564850E+03  0.10055412667E+04  0.13778454229E+04  0.89889500348E+03 0.  0.
        -24    2    4    4    0    0  0.21103018537E+03 -0.53583093138E+03  0.85019771992E+03  0.10302619221E+04  0.83396277488E+02 0.  0.
         24    2    4    4    0    0 -0.69941644393E+02  0.29205528288E+03  0.15534354673E+03  0.34758350076E+03  0.80588774702E+02 0.  0.
         11    1    3    3    0    0 -0.35701444534E+02  0.52290813161E+02 -0.34680824294E+02  0.72191979171E+02  0.00000000000E+00 0. -1.
        -11    1    3    3    0    0 -0.10538709645E+03  0.19148483534E+03  0.99767685145E+02  0.24026334148E+03  0.00000000000E+00 0.  1.
          2    1    6    6  502    0  0.81827999135E+01  0.13739840469E+03  0.71066018533E+02  0.15490532210E+03  0.00000000000E+00 0. -1.
          3    1    5    5  503    0  0.58054683746E+02 -0.81595450762E+02  0.11343307992E+03  0.15131168993E+03  0.00000000000E+00 0. -1.
         -4    1    5    5    0  503  0.15297550163E+03 -0.45423548062E+03  0.73676464000E+03  0.87895023221E+03  0.00000000000E+00 0.  1.
         -1    1    6    6    0  502 -0.78124444306E+02  0.15465687820E+03  0.84277528194E+02  0.19267817866E+03  0.00000000000E+00 0.  1.
<mgrwt>
<rscale>  0 0.13080031E+04</rscale>
<asrwt>0</asrwt>
<pdfrwt beam="1">  1        2 0.47667125E-01 0.13080031E+04</pdfrwt>
<pdfrwt beam="2">  1       -2 0.21237914E+00 0.13080031E+04</pdfrwt>
<totfact> 0.11463910E+01</totfact>
</mgrwt>
</event>
<event>
12    1  0.2404959E-007  0.1717048E+04  0.7818608E-02  0.8751701E-01
          2   -1    0    0  501    0  0.00000000000E+00  0.00000000000E+00  0.23184850115E+04  0.23184850115E+04  0.00000000000E+00 0. -1.
         -2   -1    0    0    0  501 -0.00000000000E+00 -0.00000000000E+00 -0.31790738065E+03  0.31790738065E+03  0.00000000000E+00 0.  1.
         23    2    1    2    0    0 -0.60796351050E+03 -0.12593848576E+02  0.57939541625E+03  0.84809756622E+03  0.11744019046E+03 0.  0.
        254    2    1    2    0    0  0.60796351050E+03  0.12593848576E+02  0.14211822146E+04  0.17882948259E+04  0.89914473934E+03 0.  0.
        -24    2    4    4    0    0  0.96924068834E+02  0.38747758047E+03  0.79555218131E+03  0.89410527238E+03  0.83593148124E+02 0.  0.
         24    2    4    4    0    0  0.51103944166E+03 -0.37488373190E+03  0.62563003330E+03  0.89418955357E+03  0.80392137550E+02 0.  0.
         13    1    3    3    0    0 -0.39272446913E+02  0.20686616615E+02  0.75358284182E+02  0.87459317333E+02  0.00000000000E+00 0. -1.
        -13    1    3    3    0    0 -0.56869106358E+03 -0.33280465191E+02  0.50403713206E+03  0.76063824888E+03  0.00000000000E+00 0.  1.
          4    1    6    6  502    0  0.33817656056E+03 -0.26722568798E+03  0.47132545411E+03  0.63868665097E+03  0.00000000000E+00 0. -1.
          1    1    5    5  503    0  0.27622892029E+02  0.10785474678E+03  0.14660904234E+03  0.18409204726E+03  0.00000000000E+00 0. -1.
         -2    1    5    5    0  503  0.69301176805E+02  0.27962283369E+03  0.64894313897E+03  0.71001322512E+03  0.00000000000E+00 0.  1.
         -3    1    6    6    0  502  0.17286288110E+03 -0.10765804391E+03  0.15430457918E+03  0.25550290260E+03  0.00000000000E+00 0.  1.
<mgrwt>
<rscale>  0 0.17170480E+04</rscale>
<asrwt>0</asrwt>
<pdfrwt beam="1">  1        2 0.35668999E+00 0.17170480E+04</pdfrwt>
<pdfrwt beam="2">  1       -2 0.48908829E-01 0.17170480E+04</pdfrwt>
<totfact> 0.16659815E+01</totfact>
</mgrwt>
</event>
<event>
12    1  0.2404959E-007  0.1789776E+04  0.7818608E-02  0.8711755E-01
          2   -1    0    0  501    0  0.00000000000E+00  0.00000000000E+00  0.19356502337E+04  0.19356502337E+04  0.00000000000E+00 0. -1.
         -2   -1    0    0    0  501 -0.00000000000E+00 -0.00000000000E+00 -0.41372377566E+03  0.41372377566E+03  0.00000000000E+00 0.  1.
         23    2    1    2    0    0  0.17642726447E+03  0.52630884817E+03  0.10492063015E+04  0.11910012315E+04  0.97583232263E+02 0.  0.
        254    2    1    2    0    0 -0.17642726447E+03 -0.52630884817E+03  0.47272015661E+03  0.11583727778E+04  0.90013085863E+03 0.  0.
        -24    2    4    4    0    0  0.18151221495E+03 -0.22883069092E+03  0.59827259706E+03  0.66971908878E+03  0.72686919108E+02 0.  0.
         24    2    4    4    0    0 -0.35793947942E+03 -0.29747815725E+03 -0.12555244045E+03  0.48865368905E+03  0.80031790902E+02 0.  0.
         11    1    3    3    0    0  0.11748957990E+03  0.25457284186E+03  0.44624360137E+03  0.52701469141E+03  0.00000000000E+00 0.  1.
        -11    1    3    3    0    0  0.58937684569E+02  0.27173600631E+03  0.60296270009E+03  0.66398654014E+03  0.00000000000E+00 0. -1.
          2    1    6    6  502    0 -0.34568977533E+03 -0.29881737149E+03 -0.11225758648E+03  0.47052630957E+03  0.00000000000E+00 0. -1.
          1    1    5    5  503    0  0.10938872073E+03 -0.10392025406E+03  0.37139713145E+03  0.40087546779E+03  0.00000000000E+00 0. -1.
         -2    1    5    5    0  503  0.72123494214E+02 -0.12491043686E+03  0.22687546561E+03  0.26884362100E+03  0.00000000000E+00 0.  1.
         -1    1    6    6    0  502 -0.12249704085E+02  0.13392142372E+01 -0.13294853970E+02  0.18127379486E+02  0.00000000000E+00 0.  1.
<mgrwt>
<rscale>  0 0.17897760E+04</rscale>
<asrwt>0</asrwt>
<pdfrwt beam="1">  1        2 0.29779234E+00 0.17897760E+04</pdfrwt>
<pdfrwt beam="2">  1       -2 0.63649813E-01 0.17897760E+04</pdfrwt>
<totfact> 0.15654440E+01</totfact>
</mgrwt>
</event>
<event>
12    1  0.2404959E-007  0.2464585E+04  0.7818608E-02  0.8415712E-01
         -1   -1    0    0    0  501 -0.00000000000E+00  0.00000000000E+00  0.75901855268E+03  0.75901855268E+03  0.00000000000E+00 0.  1.
          1   -1    0    0  501    0  0.00000000000E+00 -0.00000000000E+00 -0.20006685034E+04  0.20006685034E+04  0.00000000000E+00 0. -1.
         23    2    1    2    0    0  0.50235682405E+03 -0.79307792125E+03 -0.10855002289E+04  0.14380450867E+04  0.91257639479E+02 0.  0.
        254    2    1    2    0    0 -0.50235682405E+03  0.79307792125E+03 -0.15614972185E+03  0.13216419693E+04  0.91707131220E+03 0.  0.
        -24    2    4    4    0    0 -0.15189082868E+03  0.65645630869E+03  0.28456734242E+03  0.73624985702E+03  0.84140183836E+02 0.  0.
         24    2    4    4    0    0 -0.35046599537E+03  0.13662161256E+03 -0.44071706428E+03  0.58539211233E+03  0.83429703939E+02 0.  0.
         13    1    3    3    0    0  0.15214771267E+03 -0.28669405357E+03 -0.32155439496E+03  0.45688032979E+03  0.00000000000E+00 0.  1.
        -13    1    3    3    0    0  0.35020911138E+03 -0.50638386768E+03 -0.76394583390E+03  0.98116475694E+03  0.00000000000E+00 0. -1.
          2    1    6    6  502    0 -0.91431210893E+02  0.19433142682E+02 -0.16330689820E+03  0.18816603403E+03  0.00000000000E+00 0. -1.
          1    1    5    5  503    0  0.81213806692E+01  0.95409239969E+01  0.36517665436E+01  0.13050726170E+02  0.00000000000E+00 0. -1.
         -2    1    5    5    0  503 -0.16001220935E+03  0.64691538469E+03  0.28091557588E+03  0.72319913085E+03  0.00000000000E+00 0.  1.
         -1    1    6    6    0  502 -0.25903478447E+03  0.11718846988E+03 -0.27741016607E+03  0.39722607830E+03  0.00000000000E+00 0.  1.
<mgrwt>
<rscale>  0 0.24645848E+04</rscale>
<asrwt>0</asrwt>
<pdfrwt beam="1">  1        1 0.30779515E+00 0.24645848E+04</pdfrwt>
<pdfrwt beam="2">  1       -1 0.11677209E+00 0.24645848E+04</pdfrwt>
<totfact> 0.17547120E+00</totfact>
</mgrwt>
</event>
<event>
12    1  0.2404959E-007  0.2459643E+04  0.7818608E-02  0.8417506E-01
         -2   -1    0    0    0  501 -0.00000000000E+00  0.00000000000E+00  0.13383947848E+04  0.13383947848E+04  0.00000000000E+00 0.  1.
          2   -1    0    0  501    0  0.00000000000E+00 -0.00000000000E+00 -0.11300555400E+04  0.11300555400E+04  0.00000000000E+00 0. -1.
         23    2    1    2    0    0 -0.98576054341E+03  0.39852357824E+03  0.12273215235E+03  0.10740563486E+04  0.89381023576E+02 0.  0.
        254    2    1    2    0    0  0.98576054341E+03 -0.39852357824E+03  0.85607092389E+02  0.13943939762E+04  0.89803178970E+03 0.  0.
        -24    2    4    4    0    0  0.47362751701E+03 -0.24331933265E+03 -0.39714435522E+03  0.66911211171E+03  0.80374477603E+02 0.  0.
         24    2    4    4    0    0  0.51213302640E+03 -0.15520424560E+03  0.48275144761E+03  0.72528186452E+03  0.81340200695E+02 0.  0.
         13    1    3    3    0    0 -0.52326783283E+03  0.25399730945E+03  0.46031662620E+02  0.58347473985E+03  0.00000000000E+00 0. -1.
        -13    1    3    3    0    0 -0.46249271058E+03  0.14452626879E+03  0.76700489734E+02  0.49058160874E+03  0.00000000000E+00 0.  1.
          4    1    6    6  502    0  0.44606453524E+03 -0.10627677484E+03  0.42043401144E+03  0.62211982804E+03  0.00000000000E+00 0. -1.
          1    1    5    5  503    0  0.43917398660E+03 -0.21086639160E+03 -0.33607685079E+03  0.59184970664E+03  0.00000000000E+00 0. -1.
         -2    1    5    5    0  503  0.34453530404E+02 -0.32452941046E+02 -0.61067504428E+02  0.77262405068E+02  0.00000000000E+00 0.  1.
         -3    1    6    6    0  502  0.66068491161E+02 -0.48927470757E+02  0.62317436167E+02  0.10316203647E+03  0.00000000000E+00 0.  1.
<mgrwt>
<rscale>  0 0.24596426E+04</rscale>
<asrwt>0</asrwt>
<pdfrwt beam="1">  1        2 0.17385470E+00 0.24596426E+04</pdfrwt>
<pdfrwt beam="2">  1       -2 0.20590689E+00 0.24596426E+04</pdfrwt>
<totfact> 0.22735084E+00</totfact>
</mgrwt>
</event>
<event>
12    1  0.2404959E-007  0.2815412E+04  0.7818608E-02  0.8298499E-01
          2   -1    0    0  501    0  0.00000000000E+00  0.00000000000E+00  0.31253721243E+04  0.31253721243E+04  0.00000000000E+00 0. -1.
         -2   -1    0    0    0  501 -0.00000000000E+00 -0.00000000000E+00 -0.63404829497E+03  0.63404829497E+03  0.00000000000E+00 0.  1.
         23    2    1    2    0    0 -0.11819105290E+04  0.33979529712E+02  0.53066019323E+03  0.12993149658E+04  0.92477201228E+02 0.  0.
        254    2    1    2    0    0  0.11819105290E+04 -0.33979529712E+02  0.19606636361E+04  0.24601054535E+04  0.89991657461E+03 0.  0.
        -24    2    4    4    0    0  0.17789669920E+03 -0.36392448690E+03  0.70615829935E+03  0.81794686959E+03  0.79304917794E+02 0.  0.
         24    2    4    4    0    0  0.10040138298E+04  0.32994495719E+03  0.12545053368E+04  0.16421585839E+04  0.77419180154E+02 0.  0.
         11    1    3    3    0    0 -0.96004019881E+03  0.12394260789E+02  0.39383806024E+03  0.10377568206E+04  0.00000000000E+00 0.  1.
        -11    1    3    3    0    0 -0.22187033016E+03  0.21585268923E+02  0.13682213299E+03  0.26155814519E+03  0.00000000000E+00 0. -1.
          2    1    6    6  502    0  0.93262275616E+03  0.28453969650E+03  0.11546999681E+04  0.15113173262E+04  0.00000000000E+00 0. -1.
          3    1    5    5  503    0  0.14870698866E+03 -0.31520598636E+03  0.65284368057E+03  0.74004962913E+03  0.00000000000E+00 0. -1.
         -4    1    5    5    0  503  0.29189710538E+02 -0.48718500544E+02  0.53314618775E+02  0.77897240463E+02  0.00000000000E+00 0.  1.
         -1    1    6    6    0  502  0.71391073615E+02  0.45405260693E+02  0.99805368727E+02  0.13084125770E+03  0.00000000000E+00 0.  1.
<mgrwt>
<rscale>  0 0.28154125E+04</rscale>
<asrwt>0</asrwt>
<pdfrwt beam="1">  1        2 0.48082647E+00 0.28154125E+04</pdfrwt>
<pdfrwt beam="2">  1       -2 0.97545894E-01 0.28154125E+04</pdfrwt>
<totfact> 0.11029495E+00</totfact>
</mgrwt>
</event>
<event>
12    1  0.2404959E-007  0.1597632E+04  0.7818608E-02  0.8822004E-01
         -1   -1    0    0    0  501 -0.00000000000E+00  0.00000000000E+00  0.81258289286E+03  0.81258289286E+03  0.00000000000E+00 0.  1.
          1   -1    0    0  501    0  0.00000000000E+00 -0.00000000000E+00 -0.78528222445E+03  0.78528222445E+03  0.00000000000E+00 0. -1.
         23    2    1    2    0    0 -0.36656941259E+03  0.35576700421E+03 -0.17180009256E+03  0.54661690948E+03  0.91276932435E+02 0.  0.
        254    2    1    2    0    0  0.36656941259E+03 -0.35576700421E+03  0.19910076097E+03  0.10512482078E+04  0.89696063789E+03 0.  0.
        -24    2    4    4    0    0 -0.22059980757E+03 -0.20853838659E+03 -0.14888941833E+03  0.34770823575E+03  0.81119815936E+02 0.  0.
         24    2    4    4    0    0  0.58716922016E+03 -0.14722861763E+03  0.34799017930E+03  0.70353997209E+03  0.86182181937E+02 0.  0.
         13    1    3    3    0    0 -0.94200353389E+02  0.56142029390E+02 -0.66425183985E+02  0.12821052652E+03  0.00000000000E+00 0. -1.
        -13    1    3    3    0    0 -0.27236905920E+03  0.29962497482E+03 -0.10537490858E+03  0.41840638296E+03  0.00000000000E+00 0.  1.
          4    1    6    6  502    0  0.50666871661E+01  0.75035164430E+01  0.65709600931E+01  0.11187117341E+02  0.00000000000E+00 0. -1.
          3    1    5    5  503    0 -0.12680803865E+03 -0.73744395537E+02 -0.45200996478E+02  0.15349802807E+03  0.00000000000E+00 0. -1.
         -4    1    5    5    0  503 -0.93791768922E+02 -0.13479399105E+03 -0.10368842185E+03  0.19421020768E+03  0.00000000000E+00 0.  1.
         -3    1    6    6    0  502  0.58210253299E+03 -0.15473213407E+03  0.34141921920E+03  0.69235285474E+03  0.00000000000E+00 0.  1.
<mgrwt>
<rscale>  0 0.15976319E+04</rscale>
<asrwt>0</asrwt>
<pdfrwt beam="1">  1        1 0.12081265E+00 0.15976319E+04</pdfrwt>
<pdfrwt beam="2">  1       -1 0.12501275E+00 0.15976319E+04</pdfrwt>
<totfact> 0.12233199E+01</totfact>
</mgrwt>
</event>
<event>
12    1  0.2404959E-007  0.2022220E+04  0.7818608E-02  0.8596302E-01
          2   -1    0    0  501    0  0.00000000000E+00  0.00000000000E+00  0.15380331852E+04  0.15380331852E+04  0.00000000000E+00 0.  1.
         -2   -1    0    0    0  501 -0.00000000000E+00 -0.00000000000E+00 -0.66470824653E+03  0.66470824653E+03  0.00000000000E+00 0. -1.
         23    2    1    2    0    0 -0.39742898711E+03  0.11531103217E+03  0.11064035489E+04  0.11848140002E+04  0.91700426102E+02 0.  0.
        254    2    1    2    0    0  0.39742898711E+03 -0.11531103217E+03 -0.23307861016E+03  0.10179274316E+04  0.90033559494E+03 0.  0.
        -24    2    4    4    0    0  0.55775308471E+03  0.18041925501E+03 -0.30403404118E+03  0.66534290882E+03  0.81270394607E+02 0.  0.
         24    2    4    4    0    0 -0.16032409760E+03 -0.29573028719E+03  0.70955431017E+02  0.35258452276E+03  0.78236522619E+02 0.  0.
         13    1    3    3    0    0 -0.21174152635E+03  0.15814905370E+02  0.59314575703E+03  0.63000513831E+03  0.00000000000E+00 0.  1.
        -13    1    3    3    0    0 -0.18568746076E+03  0.99496126805E+02  0.51325779185E+03  0.55480886189E+03  0.00000000000E+00 0. -1.
          2    1    6    6  502    0 -0.11822353506E+03 -0.18175007041E+03  0.79122156978E+02  0.23080339698E+03  0.00000000000E+00 0. -1.
          1    1    5    5  503    0  0.44241540204E+03  0.11545902112E+03 -0.25915113962E+03  0.52556777554E+03  0.00000000000E+00 0. -1.
         -2    1    5    5    0  503  0.11533768266E+03  0.64960233892E+02 -0.44882901556E+02  0.13977513327E+03  0.00000000000E+00 0.  1.
         -1    1    6    6    0  502 -0.42100562543E+02 -0.11398021678E+03 -0.81667259616E+01  0.12178112578E+03  0.00000000000E+00 0.  1.
<mgrwt>
<rscale>  0 0.20222199E+04</rscale>
<asrwt>0</asrwt>
<pdfrwt beam="1">  1        2 0.23662049E+00 0.20222199E+04</pdfrwt>
<pdfrwt beam="2">  1       -2 0.10226281E+00 0.20222199E+04</pdfrwt>
<totfact> 0.87755175E+00</totfact>
</mgrwt>
</event>
<event>
12    1  0.2404959E-007  0.2494561E+04  0.7818608E-02  0.8404926E-01
          2   -1    0    0  501    0  0.00000000000E+00  0.00000000000E+00  0.37094190652E+04  0.37094190652E+04  0.00000000000E+00 0. -1.
         -2   -1    0    0    0  501 -0.00000000000E+00 -0.00000000000E+00 -0.41939414274E+03  0.41939414274E+03  0.00000000000E+00 0.  1.
         23    2    1    2    0    0 -0.81462998155E+03 -0.70383874262E+03  0.16216069892E+04  0.19485448001E+04  0.90590441019E+02 0.  0.
        254    2    1    2    0    0  0.81462998155E+03  0.70383874262E+03  0.16684179333E+04  0.21802684079E+04  0.90052259710E+03 0.  0.
        -24    2    4    4    0    0  0.30835035305E+02  0.46505679576E+03  0.23598999853E+03  0.52833838957E+03  0.78876814097E+02 0.  0.
         24    2    4    4    0    0  0.78379494625E+03  0.23878194686E+03  0.14324279347E+04  0.16519300183E+04  0.75310432683E+02 0.  0.
         11    1    3    3    0    0 -0.45204410696E+03 -0.44440085224E+03  0.98460381200E+03  0.11710169336E+04  0.00000000000E+00 0.  1.
        -11    1    3    3    0    0 -0.36258587460E+03 -0.25943789038E+03  0.63700317724E+03  0.77752786653E+03  0.00000000000E+00 0. -1.
          2    1    6    6  502    0  0.60644613844E+03  0.15547274268E+03  0.11215609902E+04  0.12844639922E+04  0.00000000000E+00 0. -1.
          3    1    5    5  503    0  0.49998394239E+02  0.27362423222E+03  0.16411815762E+03  0.32296258227E+03  0.00000000000E+00 0. -1.
         -4    1    5    5    0  503 -0.19163358933E+02  0.19143256354E+03  0.71871840910E+02  0.20537580730E+03  0.00000000000E+00 0.  1.
         -1    1    6    6    0  502  0.17734880780E+03  0.83309204180E+02  0.31086694451E+03  0.36746602607E+03  0.00000000000E+00 0.  1.
<mgrwt>
<rscale>  0 0.24945610E+04</rscale>
<asrwt>0</asrwt>
<pdfrwt beam="1">  1        2 0.57067983E+00 0.24945610E+04</pdfrwt>
<pdfrwt beam="2">  1       -2 0.64522178E-01 0.24945610E+04</pdfrwt>
<totfact> 0.11392393E+00</totfact>
</mgrwt>
</event>
<event>
12    1  0.2404959E-007  0.1222341E+04  0.7818608E-02  0.9093523E-01
          2   -1    0    0  501    0  0.00000000000E+00  0.00000000000E+00  0.16338991039E+04  0.16338991039E+04  0.00000000000E+00 0. -1.
         -2   -1    0    0    0  501 -0.00000000000E+00 -0.00000000000E+00 -0.22861212814E+03  0.22861212814E+03  0.00000000000E+00 0.  1.
         23    2    1    2    0    0 -0.23025295482E+03 -0.15472269976E+01  0.54056706872E+03  0.59513099869E+03  0.94600912794E+02 0.  0.
        254    2    1    2    0    0  0.23025295482E+03  0.15472269976E+01  0.86471990706E+03  0.12673802334E+04  0.89749279727E+03 0.  0.
        -24    2    4    4    0    0  0.47268917184E+03 -0.27267280762E+03  0.49506523755E+03  0.74105671778E+03  0.79309244998E+02 0.  0.
         24    2    4    4    0    0 -0.24243621702E+03  0.27422003462E+03  0.36965466951E+03  0.52632351559E+03  0.79999510365E+02 0.  0.
         13    1    3    3    0    0 -0.18044299643E+03  0.16202656353E+02  0.48810978168E+03  0.52064705897E+03  0.00000000000E+00 0. -1.
        -13    1    3    3    0    0 -0.49809958384E+02 -0.17749883351E+02  0.52457287033E+02  0.74483939718E+02  0.00000000000E+00 0.  1.
          4    1    6    6  502    0 -0.52970164011E+02  0.41762965056E+02  0.11300054465E+03  0.13160207680E+03  0.00000000000E+00 0. -1.
          3    1    5    5  503    0  0.25083349311E+03 -0.10087205615E+03  0.25832164771E+03  0.37392871868E+03  0.00000000000E+00 0. -1.
         -4    1    5    5    0  503  0.22185567873E+03 -0.17180075148E+03  0.23674358985E+03  0.36712799910E+03  0.00000000000E+00 0.  1.
         -3    1    6    6    0  502 -0.18946605301E+03  0.23245706957E+03  0.25665412486E+03  0.39472143879E+03  0.00000000000E+00 0.  1.
<mgrwt>
<rscale>  0 0.12223406E+04</rscale>
<asrwt>0</asrwt>
<pdfrwt beam="1">  1        2 0.25136909E+00 0.12223406E+04</pdfrwt>
<pdfrwt beam="2">  1       -2 0.35171098E-01 0.12223406E+04</pdfrwt>
<totfact> 0.79805893E+01</totfact>
</mgrwt>
</event>
<event>
12    1  0.2404959E-007  0.1729697E+04  0.7818608E-02  0.8744606E-01
          2   -1    0    0  501    0  0.00000000000E+00  0.00000000000E+00  0.18094512661E+04  0.18094512661E+04  0.00000000000E+00 0. -1.
         -2   -1    0    0    0  501 -0.00000000000E+00 -0.00000000000E+00 -0.41336447993E+03  0.41336447993E+03  0.00000000000E+00 0.  1.
         23    2    1    2    0    0  0.32965207133E+03 -0.41879719931E+03  0.93358099777E+03  0.10784811948E+04  0.86525290295E+02 0.  0.
        254    2    1    2    0    0 -0.32965207133E+03  0.41879719931E+03  0.46250578843E+03  0.11443345513E+04  0.90084869905E+03 0.  0.
        -24    2    4    4    0    0 -0.52013512080E+03  0.42350521201E+03  0.43086634576E+02  0.67685781974E+03  0.79892687821E+02 0.  0.
         24    2    4    4    0    0  0.19048304947E+03 -0.47080127019E+01  0.41941915386E+03  0.46747673152E+03  0.79473960363E+02 0.  0.
         11    1    3    3    0    0  0.21015945404E+03 -0.32911569236E+03  0.68219349064E+03  0.78604840420E+03  0.00000000000E+00 0. -1.
        -11    1    3    3    0    0  0.11949261729E+03 -0.89681506949E+02  0.25138750713E+03  0.29243279060E+03  0.00000000000E+00 0.  1.
          2    1    6    6  502    0  0.17268547472E+03  0.17712092944E+02  0.32041100149E+03  0.36441350317E+03  0.00000000000E+00 0. -1.
          3    1    5    5  503    0 -0.34408114977E+03  0.23774911725E+03  0.61465308316E+01  0.41827534020E+03  0.00000000000E+00 0. -1.
         -4    1    5    5    0  503 -0.17605397103E+03  0.18575609477E+03  0.36940103744E+02  0.25858247954E+03  0.00000000000E+00 0.  1.
         -1    1    6    6    0  502  0.17797574751E+02 -0.22420105646E+02  0.99008152365E+02  0.10306322835E+03  0.00000000000E+00 0.  1.
<mgrwt>
<rscale>  0 0.17296969E+04</rscale>
<asrwt>0</asrwt>
<pdfrwt beam="1">  1        2 0.27837711E+00 0.17296969E+04</pdfrwt>
<pdfrwt beam="2">  1       -2 0.63594536E-01 0.17296969E+04</pdfrwt>
<totfact> 0.18516369E+01</totfact>
</mgrwt>
</event>
<event>
12    1  0.2404959E-007  0.2050190E+04  0.7818608E-02  0.8583508E-01
         -1   -1    0    0    0  501 -0.00000000000E+00  0.00000000000E+00  0.37526643468E+03  0.37526643468E+03  0.00000000000E+00 0.  1.
          1   -1    0    0  501    0  0.00000000000E+00 -0.00000000000E+00 -0.28001964291E+04  0.28001964291E+04  0.00000000000E+00 0. -1.
         23    2    1    2    0    0 -0.15060423843E+03  0.80711578505E+03 -0.11123520852E+04  0.13855919624E+04  0.91762724517E+02 0.  0.
        254    2    1    2    0    0  0.15060423843E+03 -0.80711578505E+03 -0.13125779092E+04  0.17898709014E+04  0.89814227648E+03 0.  0.
        -24    2    4    4    0    0  0.40895764487E+03 -0.57433716548E+03 -0.41101726904E+03  0.82026622126E+03  0.82413247316E+02 0.  0.
         24    2    4    4    0    0 -0.25835340644E+03 -0.23277861957E+03 -0.90156064014E+03  0.96960468012E+03  0.79932968812E+02 0.  0.
         11    1    3    3    0    0 -0.24631646532E+02  0.23978608631E+03 -0.26654651876E+03  0.35937603128E+03  0.00000000000E+00 0. -1.
        -11    1    3    3    0    0 -0.12597259189E+03  0.56732969874E+03 -0.84580556643E+03  0.10262159311E+04  0.00000000000E+00 0.  1.
          4    1    6    6  502    0 -0.98275376204E+02 -0.13456105451E+03 -0.48008082240E+03  0.50817548445E+03  0.00000000000E+00 0. -1.
          3    1    5    5  503    0  0.10415934696E+03 -0.18238972910E+03 -0.86755498768E+02  0.22724810100E+03  0.00000000000E+00 0. -1.
         -4    1    5    5    0  503  0.30479829791E+03 -0.39194743638E+03 -0.32426177027E+03  0.59301812026E+03  0.00000000000E+00 0.  1.
         -3    1    6    6    0  502 -0.16007803024E+03 -0.98217565062E+02 -0.42147981774E+03  0.46142919567E+03  0.00000000000E+00 0.  1.
<mgrwt>
<rscale>  0 0.20501900E+04</rscale>
<asrwt>0</asrwt>
<pdfrwt beam="1">  1        1 0.43079944E+00 0.20501900E+04</pdfrwt>
<pdfrwt beam="2">  1       -1 0.57733300E-01 0.20501900E+04</pdfrwt>
<totfact> 0.23409208E+00</totfact>
</mgrwt>
</event>
<event>
12    1  0.2404959E-007  0.1204292E+04  0.7818608E-02  0.9109108E-01
         -1   -1    0    0    0  501 -0.00000000000E+00  0.00000000000E+00  0.40348104060E+03  0.40348104060E+03  0.00000000000E+00 0.  1.
          1   -1    0    0  501    0  0.00000000000E+00 -0.00000000000E+00 -0.89862897130E+03  0.89862897130E+03  0.00000000000E+00 0. -1.
         23    2    1    2    0    0  0.24994473568E+02 -0.25188187456E+03 -0.10731689773E+03  0.28801840129E+03  0.85839853813E+02 0.  0.
        254    2    1    2    0    0 -0.24994473568E+02  0.25188187456E+03 -0.38783103297E+03  0.10140916106E+04  0.90216388873E+03 0.  0.
        -24    2    4    4    0    0  0.11326215128E+03  0.17960389029E+03 -0.65520372676E+03  0.69437929718E+03  0.88231584358E+02 0.  0.
         24    2    4    4    0    0 -0.13825662484E+03  0.72277984272E+02  0.26737269379E+03  0.31971231342E+03  0.79929998408E+02 0.  0.
         13    1    3    3    0    0  0.41297165286E+02 -0.23651077477E+03 -0.11231505772E+03  0.26506126582E+03  0.00000000000E+00 0. -1.
        -13    1    3    3    0    0 -0.16302691719E+02 -0.15371099785E+02  0.49981599906E+01  0.22957135474E+02  0.00000000000E+00 0.  1.
          4    1    6    6  502    0 -0.54217333576E+02  0.30115673458E+02  0.40351944119E+02  0.73991570075E+02  0.00000000000E+00 0. -1.
          1    1    5    5  503    0  0.10986550095E+03  0.98102645348E+02 -0.45291011811E+03  0.47625847227E+03  0.00000000000E+00 0. -1.
         -2    1    5    5    0  503  0.33966503282E+01  0.81501244939E+02 -0.20229360866E+03  0.21812082492E+03  0.00000000000E+00 0.  1.
         -3    1    6    6    0  502 -0.84039291267E+02  0.42162310814E+02  0.22702074967E+03  0.24572074335E+03  0.00000000000E+00 0.  1.
<mgrwt>
<rscale>  0 0.12042919E+04</rscale>
<asrwt>0</asrwt>
<pdfrwt beam="1">  1        1 0.13825061E+00 0.12042919E+04</pdfrwt>
<pdfrwt beam="2">  1       -1 0.62074007E-01 0.12042919E+04</pdfrwt>
<totfact> 0.47520157E+01</totfact>
</mgrwt>
</event>
<event>
12    1  0.2404959E-007  0.1502387E+04  0.7818608E-02  0.8882867E-01
          1   -1    0    0  501    0  0.00000000000E+00  0.00000000000E+00  0.52942002326E+03  0.52942002326E+03  0.00000000000E+00 0. -1.
         -1   -1    0    0    0  501 -0.00000000000E+00 -0.00000000000E+00 -0.10658678622E+04  0.10658678622E+04  0.00000000000E+00 0.  1.
         23    2    1    2    0    0 -0.86965233237E+02 -0.36245415183E+03  0.14092803194E+03  0.40869230516E+03  0.90734371289E+02 0.  0.
        254    2    1    2    0    0  0.86965233237E+02  0.36245415183E+03 -0.67737587090E+03  0.11865955803E+04  0.90013056652E+03 0.  0.
        -24    2    4    4    0    0 -0.36763992423E+03  0.95297468426E+02 -0.10001793740E+03  0.40094822866E+03  0.80716620863E+02 0.  0.
         24    2    4    4    0    0  0.45460515747E+03  0.26715668341E+03 -0.57735793350E+03  0.78564735166E+03  0.76557397474E+02 0.  0.
         13    1    3    3    0    0 -0.56045713543E+02 -0.20656951191E+03  0.12766192956E+03  0.24921808425E+03  0.00000000000E+00 0. -1.
        -13    1    3    3    0    0 -0.30919519694E+02 -0.15588463992E+03  0.13266102385E+02  0.15947422091E+03  0.00000000000E+00 0.  1.
          2    1    6    6  502    0  0.21645641508E+03  0.16626040750E+03 -0.32320897174E+03  0.42303657306E+03  0.00000000000E+00 0. -1.
          3    1    5    5  503    0 -0.25471531810E+03  0.68161981518E+02 -0.30107706043E+02  0.26539107552E+03  0.00000000000E+00 0. -1.
         -4    1    5    5    0  503 -0.11292460613E+03  0.27135486908E+02 -0.69910231357E+02  0.13555715314E+03  0.00000000000E+00 0.  1.
         -1    1    6    6    0  502  0.23814874240E+03  0.10089627590E+03 -0.25414896176E+03  0.36261077860E+03  0.00000000000E+00 0.  1.
<mgrwt>
<rscale>  0 0.15023872E+04</rscale>
<asrwt>0</asrwt>
<pdfrwt beam="1">  1        1 0.81449235E-01 0.15023872E+04</pdfrwt>
<pdfrwt beam="2">  1       -1 0.16397967E+00 0.15023872E+04</pdfrwt>
<totfact> 0.10796331E+01</totfact>
</mgrwt>
</event>
<event>
12    1  0.2404959E-007  0.2258866E+04  0.7818608E-02  0.8494319E-01
          2   -1    0    0  501    0  0.00000000000E+00  0.00000000000E+00  0.82477351550E+03  0.82477351550E+03  0.00000000000E+00 0. -1.
         -2   -1    0    0    0  501 -0.00000000000E+00 -0.00000000000E+00 -0.15466294213E+04  0.15466294213E+04  0.00000000000E+00 0.  1.
         23    2    1    2    0    0 -0.30817416248E+03  0.81551694387E+03  0.89308393257E+02  0.88143566509E+03  0.94412088294E+02 0.  0.
        254    2    1    2    0    0  0.30817416248E+03 -0.81551694387E+03 -0.81116429906E+03  0.14899672717E+04  0.89553098804E+03 0.  0.
        -24    2    4    4    0    0  0.47174331012E+02 -0.82639082688E+03 -0.87774584366E+03  0.12091292485E+04  0.80053464953E+02 0.  0.
         24    2    4    4    0    0  0.26099983147E+03  0.10873883004E+02  0.66581544598E+02  0.28083802322E+03  0.78725725432E+02 0.  0.
         13    1    3    3    0    0 -0.40689500755E+02  0.52876475248E+02  0.22829517417E+02  0.70517685525E+02  0.00000000000E+00 0.  1.
        -13    1    3    3    0    0 -0.26748466173E+03  0.76264046863E+03  0.66478875839E+02  0.81091797956E+03  0.00000000000E+00 0. -1.
          4    1    6    6  502    0  0.21616639369E+03 -0.71634000488E+01  0.80126154760E+02  0.23065000485E+03  0.00000000000E+00 0. -1.
          3    1    5    5  503    0  0.36375075986E+02 -0.51225584588E+03 -0.59908739392E+03  0.78907217880E+03  0.00000000000E+00 0. -1.
         -2    1    5    5    0  503  0.10799255026E+02 -0.31413498099E+03 -0.27865844973E+03  0.42005706970E+03  0.00000000000E+00 0.  1.
         -3    1    6    6    0  502  0.44833437778E+02  0.18037283053E+02 -0.13544610162E+02  0.50188018365E+02  0.00000000000E+00 0.  1.
<mgrwt>
<rscale>  0 0.22588661E+04</rscale>
<asrwt>0</asrwt>
<pdfrwt beam="1">  1        2 0.12688823E+00 0.22588661E+04</pdfrwt>
<pdfrwt beam="2">  1       -2 0.23794299E+00 0.22588661E+04</pdfrwt>
<totfact> 0.22938508E+00</totfact>
</mgrwt>
</event>
<event>
12    1  0.2404959E-007  0.2593049E+04  0.7818608E-02  0.8370566E-01
          2   -1    0    0  501    0  0.00000000000E+00  0.00000000000E+00  0.18559720834E+04  0.18559720834E+04  0.00000000000E+00 0.  1.
         -2   -1    0    0    0  501 -0.00000000000E+00 -0.00000000000E+00 -0.90571149993E+03  0.90571149993E+03  0.00000000000E+00 0. -1.
         23    2    1    2    0    0  0.11143648435E+04  0.88642030813E+02  0.65663978895E+03  0.12996463636E+04  0.90765874678E+02 0.  0.
        254    2    1    2    0    0 -0.11143648435E+04 -0.88642030813E+02  0.29362079454E+03  0.14620372197E+04  0.89536207583E+03 0.  0.
        -24    2    4    4    0    0 -0.54619707681E+03 -0.47974001600E+03  0.22091607206E+03  0.76389690594E+03  0.79074916033E+02 0.  0.
         24    2    4    4    0    0 -0.56816776669E+03  0.39109798518E+03  0.72704722479E+02  0.69814031379E+03  0.79634640370E+02 0.  0.
         13    1    3    3    0    0  0.71524721386E+03  0.49444284522E+02  0.47022475883E+03  0.85739992887E+03  0.00000000000E+00 0.  1.
        -13    1    3    3    0    0  0.39911762964E+03  0.39197746291E+02  0.18641503012E+03  0.44224643476E+03  0.00000000000E+00 0. -1.
          4    1    6    6  502    0 -0.29552763370E+02  0.11906396388E+02 -0.11927739367E+02  0.34020568252E+02  0.00000000000E+00 0. -1.
          3    1    5    5  503    0 -0.11122745963E+03 -0.11125848617E+03  0.16061723727E+02  0.15813910803E+03  0.00000000000E+00 0. -1.
         -4    1    5    5    0  503 -0.43496961718E+03 -0.36848152983E+03  0.20485434833E+03  0.60575779790E+03  0.00000000000E+00 0.  1.
         -3    1    6    6    0  502 -0.53861500332E+03  0.37919158880E+03  0.84632461846E+02  0.66411974553E+03  0.00000000000E+00 0.  1.
<mgrwt>
<rscale>  0 0.25930486E+04</rscale>
<asrwt>0</asrwt>
<pdfrwt beam="1">  1        2 0.28553417E+00 0.25930486E+04</pdfrwt>
<pdfrwt beam="2">  1       -2 0.13934023E+00 0.25930486E+04</pdfrwt>
<totfact> 0.25853868E+00</totfact>
</mgrwt>
</event>
<event>
12    1  0.2404959E-007  0.2099441E+04  0.7818608E-02  0.8561489E-01
         -1   -1    0    0    0  501 -0.00000000000E+00  0.00000000000E+00  0.65118602167E+03  0.65118602167E+03  0.00000000000E+00 0.  1.
          1   -1    0    0  501    0  0.00000000000E+00 -0.00000000000E+00 -0.16921640176E+04  0.16921640176E+04  0.00000000000E+00 0. -1.
         23    2    1    2    0    0 -0.44295493081E+03 -0.46369410688E+03 -0.10557272550E+04  0.12386225336E+04  0.91675779254E+02 0.  0.
        254    2    1    2    0    0  0.44295493081E+03  0.46369410688E+03  0.14749259007E+02  0.11047275056E+04  0.89943539268E+03 0.  0.
        -24    2    4    4    0    0  0.65485872657E+03  0.30528171045E+03  0.22069285073E+03  0.75967127898E+03  0.79738593177E+02 0.  0.
         24    2    4    4    0    0 -0.21190379576E+03  0.15841239643E+03 -0.20594359172E+03  0.34505622667E+03  0.81567950758E+02 0.  0.
         13    1    3    3    0    0 -0.16063184079E+03 -0.16281845928E+03 -0.46327214886E+03  0.51665609729E+03  0.00000000000E+00 0. -1.
        -13    1    3    3    0    0 -0.28232309002E+03 -0.30087564760E+03 -0.59245510610E+03  0.72196643636E+03  0.00000000000E+00 0.  1.
          4    1    6    6  502    0 -0.14110064513E+03  0.86173093258E+02 -0.80436911529E+02  0.18386215161E+03  0.00000000000E+00 0. -1.
          3    1    5    5  503    0  0.39967939933E+03  0.19400917395E+03  0.95474887883E+02  0.45442120994E+03  0.00000000000E+00 0. -1.
         -4    1    5    5    0  503  0.25517932724E+03  0.11127253650E+03  0.12521796284E+03  0.30525006904E+03  0.00000000000E+00 0.  1.
         -3    1    6    6    0  502 -0.70803150635E+02  0.72239303174E+02 -0.12550668019E+03  0.16119407506E+03  0.00000000000E+00 0.  1.
<mgrwt>
<rscale>  0 0.20994414E+04</rscale>
<asrwt>0</asrwt>
<pdfrwt beam="1">  1        1 0.26033292E+00 0.20994414E+04</pdfrwt>
<pdfrwt beam="2">  1       -1 0.10018247E+00 0.20994414E+04</pdfrwt>
<totfact> 0.42116663E+00</totfact>
</mgrwt>
</event>
<event>
12    1  0.2404959E-007  0.1242473E+04  0.7818608E-02  0.9076471E-01
         -2   -1    0    0    0  501 -0.00000000000E+00  0.00000000000E+00  0.60029196960E+03  0.60029196960E+03  0.00000000000E+00 0. -1.
          2   -1    0    0  501    0  0.00000000000E+00 -0.00000000000E+00 -0.64291195763E+03  0.64291195763E+03  0.00000000000E+00 0.  1.
         23    2    1    2    0    0 -0.16705179420E+02  0.45518079461E+02  0.27073857701E+03  0.28970285293E+03  0.90980257941E+02 0.  0.
        254    2    1    2    0    0  0.16705179420E+02 -0.45518079461E+02 -0.31335856505E+03  0.95350107431E+03  0.89923286741E+03 0.  0.
        -24    2    4    4    0    0  0.37662649820E+03 -0.22558376752E+03 -0.30941012972E+03  0.54290179116E+03  0.79197040084E+02 0.  0.
         24    2    4    4    0    0 -0.35992131878E+03  0.18006568806E+03 -0.39484353262E+01  0.41059928314E+03  0.81296823126E+02 0.  0.
         13    1    3    3    0    0 -0.45507078456E+02  0.10503380205E+02  0.20221345326E+03  0.20753673377E+03  0.00000000000E+00 0.  1.
        -13    1    3    3    0    0  0.28801899036E+02  0.35014699256E+02  0.68525123754E+02  0.82166119158E+02  0.00000000000E+00 0. -1.
          4    1    6    6  502    0 -0.21442813642E+03  0.62118419341E+02  0.69589791231E+00  0.22324562254E+03  0.00000000000E+00 0. -1.
          1    1    5    5  503    0  0.37529550964E+03 -0.21072442480E+03 -0.29271889777E+03  0.52051499102E+03  0.00000000000E+00 0. -1.
         -2    1    5    5    0  503  0.13309885578E+01 -0.14859342715E+02 -0.16691231952E+02  0.22386800140E+02  0.00000000000E+00 0.  1.
         -3    1    6    6    0  502 -0.14549318236E+03  0.11794726872E+03 -0.46443332385E+01  0.18735366061E+03  0.00000000000E+00 0.  1.
<mgrwt>
<rscale>  0 0.12424732E+04</rscale>
<asrwt>0</asrwt>
<pdfrwt beam="1">  1        2 0.98909532E-01 0.12424732E+04</pdfrwt>
<pdfrwt beam="2">  1       -2 0.92352611E-01 0.12424732E+04</pdfrwt>
<totfact> 0.44661966E+01</totfact>
</mgrwt>
</event>
<event>
12    1  0.2541042E-007  0.2080976E+04  0.7818608E-02  0.8569670E-01
         -2   -1    0    0    0  501 -0.00000000000E+00  0.00000000000E+00  0.36380352807E+03  0.36380352807E+03  0.00000000000E+00 0. -1.
          2   -1    0    0  501    0  0.00000000000E+00 -0.00000000000E+00 -0.29758240191E+04  0.29758240191E+04  0.00000000000E+00 0.  1.
         23    2    1    2    0    0  0.82944181443E+03 -0.14631518451E+03 -0.10084779555E+04  0.13170387945E+04  0.90451881104E+02 0.  0.
        254    2    1    2    0    0 -0.82944181443E+03  0.14631518451E+03 -0.16035425356E+04  0.20225887527E+04  0.90007485377E+03 0.  0.
        -24    2    4    4    0    0 -0.65621557421E+03 -0.13366849934E+03 -0.42719041411E+03  0.79841157960E+03  0.80518649924E+02 0.  0.
         24    2    4    4    0    0 -0.17322624022E+03  0.27998368385E+03 -0.11763521214E+04  0.12241771731E+04  0.80045261742E+02 0.  0.
         11    1    3    3    0    0  0.36860899301E+03 -0.33749376778E+02 -0.39162605487E+03  0.53887157748E+03  0.00000000000E+00 0. -1.
        -11    1    3    3    0    0  0.46083282142E+03 -0.11256580773E+03 -0.61685190059E+03  0.77816721701E+03  0.00000000000E+00 0.  1.
          4    1    6    6  502    0 -0.13483472980E+03  0.19674965613E+03 -0.71275253528E+03  0.75160295908E+03  0.00000000000E+00 0. -1.
          1    1    5    5  503    0 -0.22149759246E+03 -0.83840156065E+02 -0.15710330064E+03  0.28420380417E+03  0.00000000000E+00 0. -1.
         -2    1    5    5    0  503 -0.43471798175E+03 -0.49828343279E+02 -0.27008711347E+03  0.51420777543E+03  0.00000000000E+00 0.  1.
         -3    1    6    6    0  502 -0.38391510422E+02  0.83234027724E+02 -0.46359958616E+03  0.47257421399E+03  0.00000000000E+00 0.  1.
<mgrwt>
<rscale>  0 0.20809760E+04</rscale>
<asrwt>0</asrwt>
<pdfrwt beam="1">  1        2 0.45781909E+00 0.20809760E+04</pdfrwt>
<pdfrwt beam="2">  1       -2 0.55969772E-01 0.20809760E+04</pdfrwt>
<totfact> 0.49972224E+00</totfact>
</mgrwt>
</event>
<event>
12    1  0.2404959E-007  0.2217696E+04  0.7818608E-02  0.8511099E-01
         -2   -1    0    0    0  501 -0.00000000000E+00  0.00000000000E+00  0.37407809990E+03  0.37407809990E+03  0.00000000000E+00 0.  1.
          2   -1    0    0  501    0  0.00000000000E+00 -0.00000000000E+00 -0.32868636675E+04  0.32868636675E+04  0.00000000000E+00 0. -1.
         23    2    1    2    0    0  0.63092099832E+03  0.67037132385E+03 -0.13458103579E+04  0.16334457919E+04  0.97368463261E+02 0.  0.
        254    2    1    2    0    0 -0.63092099832E+03 -0.67037132385E+03 -0.15669752097E+04  0.20274959755E+04  0.89881566793E+03 0.  0.
        -24    2    4    4    0    0 -0.24551835908E+03 -0.82195502006E+03 -0.11105597238E+04  0.14059835281E+04  0.86933661653E+02 0.  0.
         24    2    4    4    0    0 -0.38540263924E+03  0.15158369620E+03 -0.45641548594E+03  0.62151244743E+03  0.80310741618E+02 0.  0.
         11    1    3    3    0    0  0.52834764362E+03  0.54523496511E+03 -0.10423643824E+04  0.12895564762E+04  0.00000000000E+00 0. -1.
        -11    1    3    3    0    0  0.10257335470E+03  0.12513635874E+03 -0.30344597550E+03  0.34388931565E+03  0.00000000000E+00 0.  1.
          4    1    6    6  502    0 -0.18201614302E+03  0.10440832220E+03 -0.19036264040E+03  0.28331768198E+03  0.00000000000E+00 0. -1.
          3    1    5    5  503    0 -0.26276642683E+01 -0.42349526294E+02 -0.85402417890E+02  0.95362256570E+02  0.00000000000E+00 0. -1.
         -4    1    5    5    0  503 -0.24289069481E+03 -0.77960549376E+03 -0.10251573059E+04  0.13106212715E+04  0.00000000000E+00 0.  1.
         -3    1    6    6    0  502 -0.20338649622E+03  0.47175374005E+02 -0.26605284554E+03  0.33819476545E+03  0.00000000000E+00 0.  1.
<mgrwt>
<rscale>  0 0.22176958E+04</rscale>
<asrwt>0</asrwt>
<pdfrwt beam="1">  1        2 0.50567133E+00 0.22176958E+04</pdfrwt>
<pdfrwt beam="2">  1       -2 0.57550477E-01 0.22176958E+04</pdfrwt>
<totfact> 0.29400551E+00</totfact>
</mgrwt>
</event>
<event>
12    1  0.2404959E-007  0.2692411E+04  0.7818608E-02  0.8337472E-01
          2   -1    0    0  501    0  0.00000000000E+00  0.00000000000E+00  0.15851484605E+04  0.15851484605E+04  0.00000000000E+00 0.  1.
         -2   -1    0    0    0  501 -0.00000000000E+00 -0.00000000000E+00 -0.11432804111E+04  0.11432804111E+04  0.00000000000E+00 0. -1.
         23    2    1    2    0    0 -0.44909453264E+03 -0.10481388283E+04  0.55906382814E+03  0.12732609786E+04  0.91434419672E+02 0.  0.
        254    2    1    2    0    0  0.44909453264E+03  0.10481388283E+04 -0.11719577872E+03  0.14551678930E+04  0.89638041227E+03 0.  0.
        -24    2    4    4    0    0  0.38094218486E+03  0.11192802992E+04 -0.31052782475E+03  0.12250232937E+04  0.79681890154E+02 0.  0.
         24    2    4    4    0    0  0.68152347778E+02 -0.71141470891E+02  0.19333204603E+03  0.23014459933E+03  0.76703358387E+02 0.  0.
         11    1    3    3    0    0 -0.23155827073E+03 -0.42626862006E+03  0.24205705217E+03  0.54214000562E+03  0.00000000000E+00 0. -1.
        -11    1    3    3    0    0 -0.21753626191E+03 -0.62187020828E+03  0.31700677597E+03  0.73112097302E+03  0.00000000000E+00 0.  1.
          2    1    6    6  502    0  0.78748455342E+02 -0.75808618382E+02  0.15200705528E+03  0.18722823156E+03  0.00000000000E+00 0. -1.
          1    1    5    5  503    0  0.32105990957E+03  0.84156841868E+03 -0.22676518520E+03  0.92883761664E+03  0.00000000000E+00 0. -1.
         -2    1    5    5    0  503  0.59882275285E+02  0.27771188054E+03 -0.83762639543E+02  0.29618567702E+03  0.00000000000E+00 0.  1.
         -1    1    6    6    0  502 -0.10596107564E+02  0.46671474914E+01  0.41324990753E+02  0.42916367762E+02  0.00000000000E+00 0.  1.
<mgrwt>
<rscale>  0 0.26924110E+04</rscale>
<asrwt>0</asrwt>
<pdfrwt beam="1">  1        2 0.24386899E+00 0.26924110E+04</pdfrwt>
<pdfrwt beam="2">  1       -2 0.17588929E+00 0.26924110E+04</pdfrwt>
<totfact> 0.19329987E+00</totfact>
</mgrwt>
</event>
<event>
12    1  0.2404959E-007  0.3086779E+04  0.7818608E-02  0.8219376E-01
         -4   -1    0    0    0  501 -0.00000000000E+00  0.00000000000E+00  0.14660748594E+04  0.14660748594E+04  0.00000000000E+00 0.  1.
          4   -1    0    0  501    0  0.00000000000E+00 -0.00000000000E+00 -0.16247813821E+04  0.16247813821E+04  0.00000000000E+00 0. -1.
         23    2    1    2    0    0 -0.73630758486E+03 -0.11808802032E+04  0.15559009980E+03  0.14032546998E+04  0.91041526569E+02 0.  0.
        254    2    1    2    0    0  0.73630758486E+03  0.11808802032E+04 -0.31429662248E+03  0.16876015417E+04  0.90143756449E+03 0.  0.
        -24    2    4    4    0    0  0.15553645986E+03  0.68184003217E+02  0.24763577011E+03  0.31026761859E+03  0.78114479220E+02 0.  0.
         24    2    4    4    0    0  0.58077112500E+03  0.11126962000E+04 -0.56193239259E+03  0.13773339231E+04  0.76764501557E+02 0.  0.
         13    1    3    3    0    0 -0.47874442418E+03 -0.81022268927E+03  0.68617316185E+02  0.94359173691E+03  0.00000000000E+00 0. -1.
        -13    1    3    3    0    0 -0.25756316068E+03 -0.37065751395E+03  0.86972783619E+02  0.45966296292E+03  0.00000000000E+00 0.  1.
          2    1    6    6  502    0  0.12724047995E+03  0.21778046100E+03 -0.82389815309E+02  0.26534232719E+03  0.00000000000E+00 0. -1.
          1    1    5    5  503    0  0.49534929040E+02  0.62815790465E+01  0.13396447080E+03  0.14296729300E+03  0.00000000000E+00 0. -1.
         -2    1    5    5    0  503  0.10600153082E+03  0.61902424171E+02  0.11367129931E+03  0.16730032559E+03  0.00000000000E+00 0.  1.
         -1    1    6    6    0  502  0.45353064505E+03  0.89491573901E+03 -0.47954257728E+03  0.11119915959E+04  0.00000000000E+00 0.  1.
<mgrwt>
<rscale>  0 0.30867790E+04</rscale>
<asrwt>0</asrwt>
<pdfrwt beam="1">  1        4 0.24996637E+00 0.30867790E+04</pdfrwt>
<pdfrwt beam="2">  1       -4 0.22554998E+00 0.30867790E+04</pdfrwt>
<totfact> 0.95726858E-03</totfact>
</mgrwt>
</event>
<event>
12    1  0.2404959E-007  0.2332289E+04  0.7818608E-02  0.8465298E-01
         -2   -1    0    0    0  501 -0.00000000000E+00  0.00000000000E+00  0.40183687244E+03  0.40183687244E+03  0.00000000000E+00 0.  1.
          2   -1    0    0  501    0  0.00000000000E+00 -0.00000000000E+00 -0.33841929180E+04  0.33841929180E+04  0.00000000000E+00 0. -1.
         23    2    1    2    0    0 -0.57365833093E+03  0.77681530690E+03 -0.91826124420E+03  0.13358637125E+04  0.93820275544E+02 0.  0.
        254    2    1    2    0    0  0.57365833093E+03 -0.77681530690E+03 -0.20640948014E+04  0.24501660779E+04  0.90016696160E+03 0.  0.
        -24    2    4    4    0    0  0.46715337615E+03 -0.50734783944E+03 -0.20327621223E+04  0.21479016910E+04  0.75668496835E+02 0.  0.
         24    2    4    4    0    0  0.10650495478E+03 -0.26946746746E+03 -0.31332679059E+02  0.30226438691E+03  0.80162344033E+02 0.  0.
         11    1    3    3    0    0 -0.77072527314E+02  0.16262857924E+03 -0.15521624029E+03  0.23765586570E+03  0.00000000000E+00 0.  1.
        -11    1    3    3    0    0 -0.49658580361E+03  0.61418672766E+03 -0.76304500391E+03  0.10982078468E+04  0.00000000000E+00 0. -1.
          2    1    6    6  502    0  0.35774259297E+02 -0.19169977731E+03 -0.11989011836E+02  0.19537742616E+03  0.00000000000E+00 0. -1.
          1    1    5    5  503    0  0.21936478349E+03 -0.19244277654E+03 -0.92161956246E+03  0.96671492612E+03  0.00000000000E+00 0. -1.
         -2    1    5    5    0  503  0.24778859266E+03 -0.31490506290E+03 -0.11111425598E+04  0.11811867649E+04  0.00000000000E+00 0.  1.
         -1    1    6    6    0  502  0.70730695485E+02 -0.77767690153E+02 -0.19343667222E+02  0.10688696074E+03  0.00000000000E+00 0.  1.
<mgrwt>
<rscale>  0 0.23322894E+04</rscale>
<asrwt>0</asrwt>
<pdfrwt beam="1">  1        2 0.52064504E+00 0.23322894E+04</pdfrwt>
<pdfrwt beam="2">  1       -2 0.61821060E-01 0.23322894E+04</pdfrwt>
<totfact> 0.21522597E+00</totfact>
</mgrwt>
</event>
<event>
12    1  0.2404959E-007  0.3159523E+04  0.7818608E-02  0.8199590E-01
          2   -1    0    0  501    0  0.00000000000E+00  0.00000000000E+00  0.20007058108E+04  0.20007058108E+04  0.00000000000E+00 0. -1.
         -2   -1    0    0    0  501 -0.00000000000E+00 -0.00000000000E+00 -0.12473831475E+04  0.12473831475E+04  0.00000000000E+00 0.  1.
         23    2    1    2    0    0 -0.12504687835E+04 -0.54945280826E+03  0.84864287424E+03  0.16103583307E+04  0.86537033830E+02 0.  0.
        254    2    1    2    0    0  0.12504687835E+04  0.54945280826E+03 -0.95320210969E+02  0.16377306276E+04  0.89861287496E+03 0.  0.
        -24    2    4    4    0    0  0.96165155229E+03  0.22587353774E+02 -0.27686660308E+03  0.10049670245E+04  0.89552821127E+02 0.  0.
         24    2    4    4    0    0  0.28881723122E+03  0.52686545448E+03  0.18154639211E+03  0.63276360318E+03  0.80175338133E+02 0.  0.
         11    1    3    3    0    0 -0.14049698929E+03 -0.48404287357E+02  0.12167447178E+03  0.19206003258E+03  0.00000000000E+00 0. -1.
        -11    1    3    3    0    0 -0.11099717942E+04 -0.50104852090E+03  0.72696840246E+03  0.14182982981E+04  0.00000000000E+00 0.  1.
          4    1    6    6  502    0  0.10390188768E+03  0.11736986204E+03  0.42003237611E+02  0.16228234269E+03  0.00000000000E+00 0. -1.
          1    1    5    5  503    0  0.49340068812E+02 -0.41917976244E+01  0.48991067704E+01  0.49759569982E+02  0.00000000000E+00 0. -1.
         -2    1    5    5    0  503  0.91231148348E+03  0.26779151398E+02 -0.28176570985E+03  0.95520745447E+03  0.00000000000E+00 0.  1.
         -3    1    6    6    0  502  0.18491534354E+03  0.40949559244E+03  0.13954315450E+03  0.47048126049E+03  0.00000000000E+00 0.  1.
<mgrwt>
<rscale>  0 0.31595232E+04</rscale>
<asrwt>0</asrwt>
<pdfrwt beam="1">  1        2 0.30780089E+00 0.31595232E+04</pdfrwt>
<pdfrwt beam="2">  1       -2 0.19190510E+00 0.31595232E+04</pdfrwt>
<totfact> 0.84890136E-01</totfact>
</mgrwt>
</event>
<event>
12    1  0.2404959E-007  0.1420934E+04  0.7818608E-02  0.8938804E-01
          2   -1    0    0  501    0  0.00000000000E+00  0.00000000000E+00  0.44878124143E+03  0.44878124143E+03  0.00000000000E+00 0. -1.
         -2   -1    0    0    0  501 -0.00000000000E+00 -0.00000000000E+00 -0.11247421171E+04  0.11247421171E+04  0.00000000000E+00 0.  1.
         23    2    1    2    0    0 -0.23267599821E+03 -0.33947179689E+03 -0.28579892994E+03  0.50946668765E+03  0.92174055166E+02 0.  0.
        254    2    1    2    0    0  0.23267599821E+03  0.33947179689E+03 -0.39016194569E+03  0.10640566708E+04  0.90033939925E+03 0.  0.
        -24    2    4    4    0    0  0.11973459849E+03  0.46480557409E+03  0.13659229088E+03  0.50566334400E+03  0.81592694259E+02 0.  0.
         24    2    4    4    0    0  0.11294139972E+03 -0.12533377720E+03 -0.52675423658E+03  0.55839332683E+03  0.76607873078E+02 0.  0.
         11    1    3    3    0    0 -0.11370124548E+03 -0.19722571213E+03 -0.10581879680E+03  0.25104496112E+03  0.00000000000E+00 0.  1.
        -11    1    3    3    0    0 -0.11897475273E+03 -0.14224608476E+03 -0.17998013314E+03  0.25842172653E+03  0.00000000000E+00 0. -1.
          2    1    6    6  502    0  0.99400351638E+02 -0.11915088906E+03 -0.51881579063E+03  0.54152302710E+03  0.00000000000E+00 0. -1.
          3    1    5    5  503    0  0.11305295583E+03  0.45614289430E+03  0.11871900149E+03  0.48470765638E+03  0.00000000000E+00 0. -1.
         -4    1    5    5    0  503  0.66816426648E+01  0.86626797894E+01  0.17873289391E+02  0.20955687617E+02  0.00000000000E+00 0.  1.
         -1    1    6    6    0  502  0.13541048083E+02 -0.61828881397E+01 -0.79384459435E+01  0.16870299729E+02  0.00000000000E+00 0.  1.
<mgrwt>
<rscale>  0 0.14209337E+04</rscale>
<asrwt>0</asrwt>
<pdfrwt beam="1">  1        2 0.69043268E-01 0.14209337E+04</pdfrwt>
<pdfrwt beam="2">  1       -2 0.17303725E+00 0.14209337E+04</pdfrwt>
<totfact> 0.13736207E+01</totfact>
</mgrwt>
</event>
<event>
12    1  0.2404959E-007  0.2226840E+04  0.7818608E-02  0.8507339E-01
         -2   -1    0    0    0  501 -0.00000000000E+00  0.00000000000E+00  0.50181998572E+03  0.50181998572E+03  0.00000000000E+00 0.  1.
          2   -1    0    0  501    0  0.00000000000E+00 -0.00000000000E+00 -0.24704159628E+04  0.24704159628E+04  0.00000000000E+00 0. -1.
         23    2    1    2    0    0 -0.12659443415E+03 -0.52797246319E+03 -0.18313496969E+04  0.19122028734E+04  0.88865314321E+02 0.  0.
        254    2    1    2    0    0  0.12659443415E+03  0.52797246319E+03 -0.13724628011E+03  0.10600330750E+04  0.90002916959E+03 0.  0.
        -24    2    4    4    0    0 -0.80024925951E+01  0.47798510350E+02  0.34756047582E+03  0.36017337354E+03  0.81103866603E+02 0.  0.
         24    2    4    4    0    0  0.13459692674E+03  0.48017395284E+03 -0.48480675592E+03  0.69985970149E+03  0.77991368192E+02 0.  0.
         11    1    3    3    0    0 -0.11968775023E+03 -0.40511661588E+03 -0.15141680462E+04  0.15719890273E+04  0.00000000000E+00 0. -1.
        -11    1    3    3    0    0 -0.69066839182E+01 -0.12285584731E+03 -0.31718165077E+03  0.34021384611E+03  0.00000000000E+00 0.  1.
          4    1    6    6  502    0  0.29971540933E+02  0.21171481893E+03 -0.24326871329E+03  0.32388443107E+03  0.00000000000E+00 0. -1.
          1    1    5    5  503    0  0.12696683783E+02  0.27035096749E+02  0.34044036337E+02  0.45289056574E+02  0.00000000000E+00 0. -1.
         -2    1    5    5    0  503 -0.20699176378E+02  0.20763413601E+02  0.31351643948E+03  0.31488431696E+03  0.00000000000E+00 0.  1.
         -3    1    6    6    0  502  0.10462538581E+03  0.26845913391E+03 -0.24153804263E+03  0.37597527043E+03  0.00000000000E+00 0.  1.
<mgrwt>
<rscale>  0 0.22268400E+04</rscale>
<asrwt>0</asrwt>
<pdfrwt beam="1">  1        2 0.38006400E+00 0.22268400E+04</pdfrwt>
<pdfrwt beam="2">  1       -2 0.77203073E-01 0.22268400E+04</pdfrwt>
<totfact> 0.49445591E+00</totfact>
</mgrwt>
</event>
<event>
12    1  0.2404959E-007  0.2769830E+04  0.7818608E-02  0.8312697E-01
          1   -1    0    0  501    0  0.00000000000E+00  0.00000000000E+00  0.17726641102E+04  0.17726641102E+04  0.00000000000E+00 0. -1.
         -1   -1    0    0    0  501 -0.00000000000E+00 -0.00000000000E+00 -0.10819813343E+04  0.10819813343E+04  0.00000000000E+00 0.  1.
         23    2    1    2    0    0  0.24224797565E+03  0.65289322008E+03 -0.74435696458E+03  0.10236780571E+04  0.94317735761E+02 0.  0.
        254    2    1    2    0    0 -0.24224797565E+03 -0.65289322008E+03  0.14350397405E+04  0.18309673875E+04  0.89897101102E+03 0.  0.
        -24    2    4    4    0    0 -0.54121198271E+03 -0.61833422460E+03  0.10308700382E+04  0.13208118944E+04  0.81261313493E+02 0.  0.
         24    2    4    4    0    0  0.29896400706E+03 -0.34558995477E+02  0.40416970230E+03  0.51015549312E+03  0.79571836823E+02 0.  0.
         11    1    3    3    0    0  0.17239212530E+03  0.34389437509E+03 -0.37754088077E+03  0.53899861107E+03  0.00000000000E+00 0. -1.
        -11    1    3    3    0    0  0.69855850343E+02  0.30899884499E+03 -0.36681608380E+03  0.48467944600E+03  0.00000000000E+00 0.  1.
          2    1    6    6  502    0  0.12476732260E+03 -0.52260803119E+02  0.19587422791E+03  0.23804367140E+03  0.00000000000E+00 0. -1.
          3    1    5    5  503    0 -0.21308336885E+03 -0.30019932364E+03  0.43549240991E+03  0.57024362783E+03  0.00000000000E+00 0. -1.
         -4    1    5    5    0  503 -0.32812861386E+03 -0.31813490097E+03  0.59537762830E+03  0.75056826653E+03  0.00000000000E+00 0.  1.
         -1    1    6    6    0  502  0.17419668446E+03  0.17701807642E+02  0.20829547439E+03  0.27211182172E+03  0.00000000000E+00 0.  1.
<mgrwt>
<rscale>  0 0.27698299E+04</rscale>
<asrwt>0</asrwt>
<pdfrwt beam="1">  1        1 0.27271756E+00 0.27698299E+04</pdfrwt>
<pdfrwt beam="2">  1       -1 0.16645867E+00 0.27698299E+04</pdfrwt>
<totfact> 0.96464598E-01</totfact>
</mgrwt>
</event>
<event>
12    1  0.2404959E-007  0.1180088E+04  0.7818608E-02  0.9130466E-01
          1   -1    0    0  501    0  0.00000000000E+00  0.00000000000E+00  0.48100317231E+03  0.48100317231E+03  0.00000000000E+00 0. -1.
         -1   -1    0    0    0  501 -0.00000000000E+00 -0.00000000000E+00 -0.72380354839E+03  0.72380354839E+03  0.00000000000E+00 0.  1.
         23    2    1    2    0    0  0.23178757268E+03 -0.41346880877E+01 -0.76512143497E+02  0.26077065254E+03  0.91676881656E+02 0.  0.
        254    2    1    2    0    0 -0.23178757268E+03  0.41346880877E+01 -0.16628823258E+03  0.94403606816E+03  0.89989429779E+03 0.  0.
        -24    2    4    4    0    0  0.55285815602E+02  0.40061275713E+03 -0.17449808018E+03  0.44759842034E+03  0.79672224299E+02 0.  0.
         24    2    4    4    0    0 -0.28707338828E+03 -0.39647806904E+03  0.82098476034E+01  0.49643764782E+03  0.82322215000E+02 0.  0.
         11    1    3    3    0    0  0.11048352235E+03  0.31721365249E+02 -0.68975338315E+02  0.13405391087E+03  0.00000000000E+00 0.  1.
        -11    1    3    3    0    0  0.12130405033E+03 -0.35856053337E+02 -0.75368051822E+01  0.12671674167E+03  0.00000000000E+00 0. -1.
          4    1    6    6  502    0  0.12771127026E+01 -0.11038184272E+02 -0.96885080953E+01  0.14742446133E+02  0.00000000000E+00 0. -1.
          3    1    5    5  503    0  0.79907755135E+01  0.97585782942E+02 -0.80691162236E+02  0.12687750466E+03  0.00000000000E+00 0. -1.
         -4    1    5    5    0  503  0.47295040089E+02  0.30302697418E+03 -0.93806917946E+02  0.32072091568E+03  0.00000000000E+00 0.  1.
         -3    1    6    6    0  502 -0.28835050099E+03 -0.38543988477E+03  0.17898355699E+02  0.48169520168E+03  0.00000000000E+00 0.  1.
<mgrwt>
<rscale>  0 0.11800878E+04</rscale>
<asrwt>0</asrwt>
<pdfrwt beam="1">  1        1 0.74000488E-01 0.11800878E+04</pdfrwt>
<pdfrwt beam="2">  1       -1 0.11135439E+00 0.11800878E+04</pdfrwt>
<totfact> 0.34368448E+01</totfact>
</mgrwt>
</event>
<event>
12    1  0.2404959E-007  0.3067597E+04  0.7818608E-02  0.8224687E-01
         -2   -1    0    0    0  501 -0.00000000000E+00  0.00000000000E+00  0.78971135031E+03  0.78971135031E+03  0.00000000000E+00 0.  1.
          2   -1    0    0  501    0  0.00000000000E+00 -0.00000000000E+00 -0.29789847705E+04  0.29789847705E+04  0.00000000000E+00 0. -1.
         23    2    1    2    0    0 -0.30362396160E+03  0.10358287406E+04  0.93371755707E+02  0.10873721836E+04  0.92364987143E+02 0.  0.
        254    2    1    2    0    0  0.30362396160E+03 -0.10358287406E+04 -0.22826451759E+04  0.26813239372E+04  0.90216426847E+03 0.  0.
        -24    2    4    4    0    0 -0.20364507873E+03 -0.61606008856E+02 -0.12599157262E+03  0.25968686524E+03  0.79352209723E+02 0.  0.
         24    2    4    4    0    0  0.50726904033E+03 -0.97422273179E+03 -0.21566536033E+04  0.24216370720E+04  0.82094661755E+02 0.  0.
         13    1    3    3    0    0 -0.17249963124E+03  0.42939689253E+03  0.49125791414E+02  0.46535057481E+03  0.00000000000E+00 0.  1.
        -13    1    3    3    0    0 -0.13112433037E+03  0.60643184812E+03  0.44245964293E+02  0.62202160877E+03  0.00000000000E+00 0. -1.
          2    1    6    6  502    0  0.10914826372E+03 -0.27773231568E+03 -0.54479121266E+03  0.62116507310E+03  0.00000000000E+00 0. -1.
          1    1    5    5  503    0 -0.70660248331E+01 -0.19011618861E+02 -0.31480116847E+02  0.37448205770E+02  0.00000000000E+00 0. -1.
         -2    1    5    5    0  503 -0.19657905390E+03 -0.42594389995E+02 -0.94511455773E+02  0.22223865947E+03  0.00000000000E+00 0.  1.
         -1    1    6    6    0  502  0.39812077661E+03 -0.69649041611E+03 -0.16118623906E+04  0.18004719989E+04  0.00000000000E+00 0.  1.
<mgrwt>
<rscale>  0 0.30675972E+04</rscale>
<asrwt>0</asrwt>
<pdfrwt beam="1">  1        2 0.45830536E+00 0.30675972E+04</pdfrwt>
<pdfrwt beam="2">  1       -2 0.12149405E+00 0.30675972E+04</pdfrwt>
<totfact> 0.78614403E-01</totfact>
</mgrwt>
</event>
<event>
12    1  0.2404959E-007  0.1629820E+04  0.7818608E-02  0.8802435E-01
         -1   -1    0    0    0  501 -0.00000000000E+00  0.00000000000E+00  0.47686558770E+03  0.47686558770E+03  0.00000000000E+00 0.  1.
          1   -1    0    0  501    0  0.00000000000E+00 -0.00000000000E+00 -0.13925900550E+04  0.13925900550E+04  0.00000000000E+00 0. -1.
         23    2    1    2    0    0  0.37464048742E+03 -0.39991878000E+03 -0.46831390156E+03  0.72674383707E+03  0.92456308157E+02 0.  0.
        254    2    1    2    0    0 -0.37464048742E+03  0.39991878000E+03 -0.44741056578E+03  0.11427118057E+04  0.89739820092E+03 0.  0.
        -24    2    4    4    0    0 -0.17406290601E+03 -0.23308734197E+03 -0.35732033903E+03  0.46792736765E+03  0.81551164771E+02 0.  0.
         24    2    4    4    0    0 -0.20057758141E+03  0.63300612196E+03 -0.90090226748E+02  0.67478443801E+03  0.79307453728E+02 0.  0.
         11    1    3    3    0    0  0.18304397162E+03 -0.19231097664E+03 -0.16672710407E+03  0.31350683328E+03  0.00000000000E+00 0.  1.
        -11    1    3    3    0    0  0.19159651580E+03 -0.20760780336E+03 -0.30158679749E+03  0.41323700379E+03  0.00000000000E+00 0. -1.
          2    1    6    6  502    0 -0.19533638205E+03  0.63218006674E+03 -0.84445490015E+02  0.66703746500E+03  0.00000000000E+00 0. -1.
          3    1    5    5  503    0 -0.76932622720E+02 -0.77918755133E+02 -0.19317530134E+03  0.22205102541E+03  0.00000000000E+00 0. -1.
         -4    1    5    5    0  503 -0.97130283292E+02 -0.15516858683E+03 -0.16414503769E+03  0.24587634224E+03  0.00000000000E+00 0.  1.
         -1    1    6    6    0  502 -0.52411993616E+01  0.82605522484E+00 -0.56447367331E+01  0.77469730068E+01  0.00000000000E+00 0.  1.
<mgrwt>
<rscale>  0 0.16298200E+04</rscale>
<asrwt>0</asrwt>
<pdfrwt beam="1">  1        1 0.21424462E+00 0.16298200E+04</pdfrwt>
<pdfrwt beam="2">  1       -1 0.73363938E-01 0.16298200E+04</pdfrwt>
<totfact> 0.13934042E+01</totfact>
</mgrwt>
</event>
<event>
12    1  0.2404959E-007  0.1949178E+04  0.7818608E-02  0.8630757E-01
         -2   -1    0    0    0  501 -0.00000000000E+00  0.00000000000E+00  0.32803463444E+03  0.32803463444E+03  0.00000000000E+00 0. -1.
          2   -1    0    0  501    0  0.00000000000E+00 -0.00000000000E+00 -0.28954972563E+04  0.28954972563E+04  0.00000000000E+00 0.  1.
         23    2    1    2    0    0  0.74480957325E+03 -0.93404938560E+02 -0.12526994779E+04  0.14631997311E+04  0.90728650838E+02 0.  0.
        254    2    1    2    0    0 -0.74480957325E+03  0.93404938560E+02 -0.13147631439E+04  0.17603321597E+04  0.89816557757E+03 0.  0.
        -24    2    4    4    0    0 -0.45902708027E+03 -0.21711819523E+03 -0.12145162955E+04  0.13187868423E+04  0.79389748942E+02 0.  0.
         24    2    4    4    0    0 -0.28578249298E+03  0.31052313379E+03 -0.10024684843E+03  0.44154531737E+03  0.82562623229E+02 0.  0.
         13    1    3    3    0    0  0.46293487705E+03 -0.16197222870E+02 -0.79696824509E+03  0.92180769909E+03  0.00000000000E+00 0.  1.
        -13    1    3    3    0    0  0.28187469620E+03 -0.77207715690E+02 -0.45573123280E+03  0.54139203196E+03  0.00000000000E+00 0. -1.
          2    1    6    6  502    0 -0.34576969076E+02  0.87515257609E+02 -0.22805021340E+02  0.96822291354E+02  0.00000000000E+00 0. -1.
          3    1    5    5  503    0 -0.10875469766E+03 -0.46236088727E+02 -0.20455469218E+03  0.23623713141E+03  0.00000000000E+00 0. -1.
         -4    1    5    5    0  503 -0.35027238261E+03 -0.17088210650E+03 -0.10099616033E+04  0.10825497109E+04  0.00000000000E+00 0.  1.
         -1    1    6    6    0  502 -0.25120552391E+03  0.22300787618E+03 -0.77441827088E+02  0.34472302601E+03  0.00000000000E+00 0.  1.
<mgrwt>
<rscale>  0 0.19491777E+04</rscale>
<asrwt>0</asrwt>
<pdfrwt beam="1">  1        2 0.44546112E+00 0.19491777E+04</pdfrwt>
<pdfrwt beam="2">  1       -2 0.50466867E-01 0.19491777E+04</pdfrwt>
<totfact> 0.70188649E+00</totfact>
</mgrwt>
</event>
<event>
12    1  0.2404959E-007  0.1523956E+04  0.7818608E-02  0.8868677E-01
         -1   -1    0    0    0  501 -0.00000000000E+00  0.00000000000E+00  0.33415512596E+03  0.33415512596E+03  0.00000000000E+00 0.  1.
          1   -1    0    0  501    0  0.00000000000E+00 -0.00000000000E+00 -0.17375469695E+04  0.17375469695E+04  0.00000000000E+00 0. -1.
         23    2    1    2    0    0 -0.30493177151E+03  0.19678683842E+03 -0.90535820260E+03  0.97972718663E+03  0.92105592374E+02 0.  0.
        254    2    1    2    0    0  0.30493177151E+03 -0.19678683842E+03 -0.49803364098E+03  0.10919749089E+04  0.90147836857E+03 0.  0.
        -24    2    4    4    0    0  0.41132899992E+03 -0.48352992359E+03 -0.23830298428E+03  0.68265660166E+03  0.78987279281E+02 0.  0.
         24    2    4    4    0    0 -0.10639722841E+03  0.28674308517E+03 -0.25973065670E+03  0.40931830721E+03  0.80867147098E+02 0.  0.
         13    1    3    3    0    0 -0.24356042141E+03  0.15505559990E+03 -0.80272791372E+03  0.85307445244E+03  0.00000000000E+00 0. -1.
        -13    1    3    3    0    0 -0.61371350100E+02  0.41731238524E+02 -0.10263028889E+03  0.12665273419E+03  0.00000000000E+00 0.  1.
          2    1    6    6  502    0 -0.96825224177E+02  0.29008210748E+03 -0.24740990217E+03  0.39336295302E+03  0.00000000000E+00 0. -1.
          1    1    5    5  503    0  0.41109552459E+03 -0.46441890373E+03 -0.23502247234E+03  0.66326466134E+03  0.00000000000E+00 0. -1.
         -2    1    5    5    0  503  0.23347533881E+00 -0.19111019862E+02 -0.32805119387E+01  0.19391940323E+02  0.00000000000E+00 0.  1.
         -1    1    6    6    0  502 -0.95720042369E+01 -0.33390223108E+01 -0.12320754527E+02  0.15955354187E+02  0.00000000000E+00 0.  1.
<mgrwt>
<rscale>  0 0.15239557E+04</rscale>
<asrwt>0</asrwt>
<pdfrwt beam="1">  1        1 0.26731491E+00 0.15239557E+04</pdfrwt>
<pdfrwt beam="2">  1       -1 0.51408482E-01 0.15239557E+04</pdfrwt>
<totfact> 0.16512592E+01</totfact>
</mgrwt>
</event>
<event>
12    1  0.2404959E-007  0.4013025E+04  0.7818608E-02  0.8001924E-01
          1   -1    0    0  501    0  0.00000000000E+00  0.00000000000E+00  0.18522267282E+04  0.18522267282E+04  0.00000000000E+00 0. -1.
         -1   -1    0    0    0  501 -0.00000000000E+00 -0.00000000000E+00 -0.21736498759E+04  0.21736498759E+04  0.00000000000E+00 0.  1.
         23    2    1    2    0    0  0.17936670613E+04  0.43544670726E+03  0.31966600608E+03  0.18756186278E+04  0.94358463485E+02 0.  0.
        254    2    1    2    0    0 -0.17936670613E+04 -0.43544670726E+03 -0.64108915373E+03  0.21502579763E+04  0.89764062970E+03 0.  0.
        -24    2    4    4    0    0 -0.12999202726E+04 -0.16962118082E+03 -0.82939485285E+03  0.15533341750E+04  0.79919816856E+02 0.  0.
         24    2    4    4    0    0 -0.49374678874E+03 -0.26582552644E+03  0.18830569913E+03  0.59692380138E+03  0.80061766377E+02 0.  0.
         13    1    3    3    0    0  0.21945012021E+03  0.85599743557E+02  0.41220784760E+02  0.23913348669E+03  0.00000000000E+00 0. -1.
        -13    1    3    3    0    0  0.15742169411E+04  0.34984696370E+03  0.27844522132E+03  0.16364851411E+04  0.00000000000E+00 0.  1.
          4    1    6    6  502    0 -0.24183937156E+03 -0.17347298044E+03  0.11177763901E+03  0.31792042584E+03  0.00000000000E+00 0. -1.
          1    1    5    5  503    0 -0.12525863841E+04 -0.17836223396E+03 -0.79745226630E+03  0.14955653959E+04  0.00000000000E+00 0. -1.
         -2    1    5    5    0  503 -0.47333888445E+02  0.87410531362E+01 -0.31942586551E+02  0.57768779119E+02  0.00000000000E+00 0.  1.
         -3    1    6    6    0  502 -0.25190741717E+03 -0.92352545996E+02  0.76528060114E+02  0.27900337554E+03  0.00000000000E+00 0.  1.
<mgrwt>
<rscale>  0 0.40130250E+04</rscale>
<asrwt>0</asrwt>
<pdfrwt beam="1">  1        1 0.28495796E+00 0.40130250E+04</pdfrwt>
<pdfrwt beam="2">  1       -1 0.33440767E+00 0.40130250E+04</pdfrwt>
<totfact> 0.57793023E-02</totfact>
</mgrwt>
</event>
<event>
12    1  0.2404959E-007  0.2100856E+04  0.7818608E-02  0.8560866E-01
         -2   -1    0    0    0  501 -0.00000000000E+00  0.00000000000E+00  0.54347846037E+03  0.54347846037E+03  0.00000000000E+00 0.  1.
          2   -1    0    0  501    0  0.00000000000E+00 -0.00000000000E+00 -0.20302530111E+04  0.20302530111E+04  0.00000000000E+00 0. -1.
         23    2    1    2    0    0 -0.53034041199E+03  0.50307494227E+03 -0.11529791076E+04  0.13682789820E+04  0.92093430039E+02 0.  0.
        254    2    1    2    0    0  0.53034041199E+03 -0.50307494227E+03 -0.33379544306E+03  0.12054524894E+04  0.89852710382E+03 0.  0.
        -24    2    4    4    0    0  0.53462214732E+02 -0.13585789594E+03 -0.53911891420E+03  0.56436686440E+03  0.80902272485E+02 0.  0.
         24    2    4    4    0    0  0.47687819726E+03 -0.36721704633E+03  0.20532347114E+03  0.64108562502E+03  0.81067112084E+02 0.  0.
         13    1    3    3    0    0 -0.55715643655E+02  0.97015771520E+02 -0.16215157987E+03  0.19700108559E+03  0.00000000000E+00 0. -1.
        -13    1    3    3    0    0 -0.47462476834E+03  0.40605917075E+03 -0.99082752778E+03  0.11712778964E+04  0.00000000000E+00 0.  1.
          2    1    6    6  502    0  0.19447104803E+03 -0.10084705784E+03  0.70433909421E+02  0.23010878556E+03  0.00000000000E+00 0. -1.
          3    1    5    5  503    0  0.17456989530E+02 -0.29002120119E+02 -0.38763843675E+02  0.51463628237E+02  0.00000000000E+00 0. -1.
         -4    1    5    5    0  503  0.36005225202E+02 -0.10685577582E+03 -0.50035507053E+03  0.51290323616E+03  0.00000000000E+00 0.  1.
         -3    1    6    6    0  502  0.28240714923E+03 -0.26636998850E+03  0.13488956172E+03  0.41097683946E+03  0.00000000000E+00 0.  1.
<mgrwt>
<rscale>  0 0.21008558E+04</rscale>
<asrwt>0</asrwt>
<pdfrwt beam="1">  1        2 0.31234662E+00 0.21008558E+04</pdfrwt>
<pdfrwt beam="2">  1       -2 0.83612069E-01 0.21008558E+04</pdfrwt>
<totfact> 0.74075813E+00</totfact>
</mgrwt>
</event>
<event>
12    1  0.2404959E-007  0.2775653E+04  0.7818608E-02  0.8310867E-01
          1   -1    0    0  501    0  0.00000000000E+00  0.00000000000E+00  0.15276204763E+04  0.15276204763E+04  0.00000000000E+00 0. -1.
         -1   -1    0    0    0  501 -0.00000000000E+00 -0.00000000000E+00 -0.12608249597E+04  0.12608249597E+04  0.00000000000E+00 0.  1.
         23    2    1    2    0    0 -0.62200747332E+03 -0.10490776076E+04 -0.10601964474E+03  0.12278004667E+04  0.93790709588E+02 0.  0.
        254    2    1    2    0    0  0.62200747332E+03  0.10490776076E+04  0.37281516135E+03  0.15606449693E+04  0.89953568695E+03 0.  0.
        -24    2    4    4    0    0  0.47651158652E+02 -0.13121886685E+03  0.16197438167E+03  0.22874168537E+03  0.81228285524E+02 0.  0.
         24    2    4    4    0    0  0.57435631467E+03  0.11802964745E+04  0.21084077968E+03  0.13319032840E+04  0.80793437961E+02 0.  0.
         13    1    3    3    0    0 -0.33921700245E+03 -0.58646459687E+03 -0.12653841631E+02  0.67762011322E+03  0.00000000000E+00 0. -1.
        -13    1    3    3    0    0 -0.28279047087E+03 -0.46261301076E+03 -0.93365803108E+02  0.55018035345E+03  0.00000000000E+00 0.  1.
          4    1    6    6  502    0  0.29480696337E+03  0.69638356260E+03  0.12629118958E+03  0.76668812204E+03  0.00000000000E+00 0. -1.
          1    1    5    5  503    0  0.50560358351E+02 -0.51055871702E+02  0.38554663267E+02  0.81544551820E+02  0.00000000000E+00 0. -1.
         -2    1    5    5    0  503 -0.29091996987E+01 -0.80162995144E+02  0.12341971840E+03  0.14719713355E+03  0.00000000000E+00 0.  1.
         -3    1    6    6    0  502  0.27954935130E+03  0.48391291188E+03  0.84549590099E+02  0.56521516193E+03  0.00000000000E+00 0.  1.
<mgrwt>
<rscale>  0 0.27756527E+04</rscale>
<asrwt>0</asrwt>
<pdfrwt beam="1">  1        1 0.23501854E+00 0.27756527E+04</pdfrwt>
<pdfrwt beam="2">  1       -1 0.19397307E+00 0.27756527E+04</pdfrwt>
<totfact> 0.90003153E-01</totfact>
</mgrwt>
</event>
<event>
12    1  0.2404959E-007  0.2092380E+04  0.7818608E-02  0.8564607E-01
          1   -1    0    0  501    0  0.00000000000E+00  0.00000000000E+00  0.49140722231E+03  0.49140722231E+03  0.00000000000E+00 0. -1.
         -1   -1    0    0    0  501 -0.00000000000E+00 -0.00000000000E+00 -0.22273047981E+04  0.22273047981E+04  0.00000000000E+00 0.  1.
         23    2    1    2    0    0 -0.56179039465E+03  0.54267346519E+03 -0.11450048559E+04  0.13890408776E+04  0.91079648409E+02 0.  0.
        254    2    1    2    0    0  0.56179039465E+03 -0.54267346519E+03 -0.59089271991E+03  0.13296711428E+04  0.89931540864E+03 0.  0.
        -24    2    4    4    0    0  0.51760893183E+03 -0.29494846334E+03 -0.79443781790E+03  0.99617275840E+03  0.79467702554E+02 0.  0.
         24    2    4    4    0    0  0.44181462821E+02 -0.24772500185E+03  0.20354509798E+03  0.33349838440E+03  0.80441825476E+02 0.  0.
         11    1    3    3    0    0 -0.24408807952E+02  0.36750399058E+02 -0.36266624225E+02  0.57110855092E+02  0.00000000000E+00 0.  1.
        -11    1    3    3    0    0 -0.53738158670E+03  0.50592306613E+03 -0.11087382317E+04  0.13319300225E+04  0.00000000000E+00 0. -1.
          2    1    6    6  502    0  0.38686508381E+02 -0.24750479896E+03  0.17785374872E+03  0.30722504353E+03  0.00000000000E+00 0. -1.
          1    1    5    5  503    0  0.23524968927E+03 -0.99076795530E+02 -0.38030979539E+03  0.45803293351E+03  0.00000000000E+00 0. -1.
         -4    1    5    5    0  503  0.28235924256E+03 -0.19587166781E+03 -0.41412802251E+03  0.53813982489E+03  0.00000000000E+00 0.  1.
         -3    1    6    6    0  502  0.54949544403E+01 -0.22020289622E+00  0.25691349268E+02  0.26273340877E+02  0.00000000000E+00 0.  1.
<mgrwt>
<rscale>  0 0.20923801E+04</rscale>
<asrwt>0</asrwt>
<pdfrwt beam="1">  1        1 0.75601112E-01 0.20923801E+04</pdfrwt>
<pdfrwt beam="2">  1       -1 0.34266227E+00 0.20923801E+04</pdfrwt>
<totfact> 0.72677559E-01</totfact>
</mgrwt>
</event>
<event>
12    1  0.2404959E-007  0.1218212E+04  0.7818608E-02  0.9097063E-01
         -2   -1    0    0    0  501 -0.00000000000E+00  0.00000000000E+00  0.40423990493E+03  0.40423990493E+03  0.00000000000E+00 0.  1.
          2   -1    0    0  501    0  0.00000000000E+00 -0.00000000000E+00 -0.91779655474E+03  0.91779655474E+03  0.00000000000E+00 0. -1.
         23    2    1    2    0    0  0.22127682411E+03 -0.93910040772E+02 -0.24999723413E+03  0.35409678579E+03  0.71438001006E+02 0.  0.
        254    2    1    2    0    0 -0.22127682411E+03  0.93910040772E+02 -0.26355941568E+03  0.96793967388E+03  0.89981171255E+03 0.  0.
        -24    2    4    4    0    0 -0.13914569853E+03 -0.35642947760E+03 -0.31369003394E+03  0.50076610202E+03  0.77212392864E+02 0.  0.
         24    2    4    4    0    0 -0.82131125579E+02  0.45033951838E+03  0.50130618267E+02  0.46717357186E+03  0.78656619301E+02 0.  0.
         11    1    3    3    0    0  0.81296573751E+02 -0.58709434205E+02 -0.14194880566E+03  0.17379699076E+03  0.00000000000E+00 0. -1.
        -11    1    3    3    0    0  0.13998025036E+03 -0.35200606567E+02 -0.10804842846E+03  0.18029979503E+03  0.00000000000E+00 0.  1.
          4    1    6    6  502    0 -0.91080688096E+02  0.34604926023E+03  0.20661579429E+02  0.35843086239E+03  0.00000000000E+00 0. -1.
          3    1    5    5  503    0 -0.12628172466E+03 -0.34796069814E+03 -0.28137443327E+03  0.46496805603E+03  0.00000000000E+00 0. -1.
         -4    1    5    5    0  503 -0.12863973868E+02 -0.84687794604E+01 -0.32315600678E+02  0.35798045986E+02  0.00000000000E+00 0.  1.
         -3    1    6    6    0  502  0.89495625165E+01  0.10429025815E+03  0.29469038838E+02  0.10874270947E+03  0.00000000000E+00 0.  1.
<mgrwt>
<rscale>  0 0.12182118E+04</rscale>
<asrwt>0</asrwt>
<pdfrwt beam="1">  1        2 0.14119947E+00 0.12182118E+04</pdfrwt>
<pdfrwt beam="2">  1       -2 0.62190755E-01 0.12182118E+04</pdfrwt>
<totfact> 0.67479800E+01</totfact>
</mgrwt>
</event>
<event>
12    1  0.2404959E-007  0.1315296E+04  0.7818608E-02  0.9017522E-01
          2   -1    0    0  501    0  0.00000000000E+00  0.00000000000E+00  0.19432715573E+04  0.19432715573E+04  0.00000000000E+00 0. -1.
         -2   -1    0    0    0  501 -0.00000000000E+00 -0.00000000000E+00 -0.22256330591E+03  0.22256330591E+03  0.00000000000E+00 0.  1.
         23    2    1    2    0    0  0.36508352962E+02 -0.31488096014E+03  0.25612082538E+03  0.41788683005E+03  0.92458891632E+02 0.  0.
        254    2    1    2    0    0 -0.36508352962E+02  0.31488096014E+03  0.14645874260E+04  0.17479480332E+04  0.89990172762E+03 0.  0.
        -24    2    4    4    0    0  0.67868385011E+02 -0.75159105384E+02 -0.78658903452E+02  0.15078730612E+03  0.79338387865E+02 0.  0.
         24    2    4    4    0    0 -0.10437673797E+03  0.39004006552E+03  0.15432463295E+04  0.15971607271E+04  0.79293117554E+02 0.  0.
         13    1    3    3    0    0  0.26087927557E+02 -0.21279373814E+03  0.11465209819E+03  0.24311902142E+03  0.00000000000E+00 0.  1.
        -13    1    3    3    0    0  0.10420425405E+02 -0.10208722200E+03  0.14146872719E+03  0.17476780863E+03  0.00000000000E+00 0. -1.
          4    1    6    6  502    0 -0.10044516385E+03  0.37041606202E+03  0.13693668089E+04  0.14221331679E+04  0.00000000000E+00 0. -1.
          1    1    5    5  503    0  0.18777893262E+02 -0.11300083876E+02  0.15525395887E+02  0.26857756578E+02  0.00000000000E+00 0. -1.
         -2    1    5    5    0  503  0.49090491749E+02 -0.63859021508E+02 -0.94184299339E+02  0.12392954954E+03  0.00000000000E+00 0.  1.
         -3    1    6    6    0  502 -0.39315741254E+01  0.19624003495E+02  0.17387952057E+03  0.17502755915E+03  0.00000000000E+00 0.  1.
<mgrwt>
<rscale>  0 0.13152961E+04</rscale>
<asrwt>0</asrwt>
<pdfrwt beam="1">  1        2 0.29896484E+00 0.13152961E+04</pdfrwt>
<pdfrwt beam="2">  1       -2 0.34240510E-01 0.13152961E+04</pdfrwt>
<totfact> 0.56233965E+01</totfact>
</mgrwt>
</event>
<event>
12    1  0.2404959E-007  0.1301936E+04  0.7818608E-02  0.9028031E-01
          1   -1    0    0  501    0  0.00000000000E+00  0.00000000000E+00  0.80153103996E+03  0.80153103996E+03  0.00000000000E+00 0. -1.
         -1   -1    0    0    0  501 -0.00000000000E+00 -0.00000000000E+00 -0.52868731492E+03  0.52868731492E+03  0.00000000000E+00 0.  1.
         23    2    1    2    0    0  0.96235189665E+02  0.16434293805E+03 -0.20541228837E+03  0.29410770420E+03  0.89639948911E+02 0.  0.
        254    2    1    2    0    0 -0.96235189665E+02 -0.16434293805E+03  0.47825601341E+03  0.10361106507E+04  0.89918110137E+03 0.  0.
        -24    2    4    4    0    0 -0.38985376688E+03  0.15900559387E+03  0.39772244073E+03  0.58465784176E+03  0.79830530740E+02 0.  0.
         24    2    4    4    0    0  0.29361857721E+03 -0.32334853192E+03  0.80533572674E+02  0.45145280892E+03  0.80980493766E+02 0.  0.
         13    1    3    3    0    0  0.42246432463E+02  0.94077115471E+02 -0.48633220059E+02  0.11401953694E+03  0.00000000000E+00 0. -1.
        -13    1    3    3    0    0  0.53988757201E+02  0.70265822584E+02 -0.15677906831E+03  0.18008816726E+03  0.00000000000E+00 0.  1.
          2    1    6    6  502    0  0.21538046623E+03 -0.20040379744E+03  0.83088071409E+02  0.30570255948E+03  0.00000000000E+00 0. -1.
          1    1    5    5  503    0 -0.33852618411E+03  0.11078529498E+03  0.31030105560E+03  0.47239824726E+03  0.00000000000E+00 0. -1.
         -4    1    5    5    0  503 -0.51327582767E+02  0.48220298886E+02  0.87421385135E+02  0.11225959450E+03  0.00000000000E+00 0.  1.
         -1    1    6    6    0  502  0.78238110979E+02 -0.12294473448E+03 -0.25544987347E+01  0.14575024944E+03  0.00000000000E+00 0.  1.
<mgrwt>
<rscale>  0 0.13019359E+04</rscale>
<asrwt>0</asrwt>
<pdfrwt beam="1">  1        1 0.12331247E+00 0.13019359E+04</pdfrwt>
<pdfrwt beam="2">  1       -1 0.81336510E-01 0.13019359E+04</pdfrwt>
<totfact> 0.32614679E+01</totfact>
</mgrwt>
</event>
<event>
12    1  0.2404959E-007  0.1296588E+04  0.7818608E-02  0.9032275E-01
          2   -1    0    0  501    0  0.00000000000E+00  0.00000000000E+00  0.10972058496E+04  0.10972058496E+04  0.00000000000E+00 0.  1.
         -2   -1    0    0    0  501 -0.00000000000E+00 -0.00000000000E+00 -0.38305023221E+03  0.38305023221E+03  0.00000000000E+00 0. -1.
         23    2    1    2    0    0 -0.24548986970E+03  0.18043623810E+03  0.61964333296E+02  0.32357241665E+03  0.89649417582E+02 0.  0.
        254    2    1    2    0    0  0.24548986970E+03 -0.18043623810E+03  0.65219128410E+03  0.11566836652E+04  0.90539555890E+03 0.  0.
        -24    2    4    4    0    0 -0.49708151205E+01  0.33520976304E+03  0.39145682472E+03  0.52204013712E+03  0.83049171601E+02 0.  0.
         24    2    4    4    0    0  0.25046068482E+03 -0.51564600114E+03  0.26073445938E+03  0.63464352805E+03  0.78540411641E+02 0.  0.
         11    1    3    3    0    0 -0.81289604014E+02  0.11469905621E+03  0.32034010412E+02  0.14418755508E+03  0.00000000000E+00 0.  1.
        -11    1    3    3    0    0 -0.16420026569E+03  0.65737181887E+02  0.29930322884E+02  0.17938486157E+03  0.00000000000E+00 0. -1.
          2    1    6    6  502    0  0.24093985924E+03 -0.50199564279E+03  0.26612446733E+03  0.61714979808E+03  0.00000000000E+00 0. -1.
          1    1    5    5  503    0  0.27278981330E+02  0.28050549850E+03  0.31604601397E+03  0.42345313844E+03  0.00000000000E+00 0. -1.
         -2    1    5    5    0  503 -0.32249796451E+02  0.54704264539E+02  0.75410810756E+02  0.98586998680E+02  0.00000000000E+00 0.  1.
         -1    1    6    6    0  502  0.95208255815E+01 -0.13650358349E+02 -0.53900079543E+01  0.17493729978E+02  0.00000000000E+00 0.  1.
<mgrwt>
<rscale>  0 0.12965878E+04</rscale>
<asrwt>0</asrwt>
<pdfrwt beam="1">  1        2 0.16880090E+00 0.12965878E+04</pdfrwt>
<pdfrwt beam="2">  1       -2 0.58930805E-01 0.12965878E+04</pdfrwt>
<totfact> 0.57692362E+01</totfact>
</mgrwt>
</event>
<event>
12    1  0.2404959E-007  0.1675321E+04  0.7818608E-02  0.8775566E-01
          1   -1    0    0  501    0  0.00000000000E+00  0.00000000000E+00  0.10214374593E+04  0.10214374593E+04  0.00000000000E+00 0. -1.
         -1   -1    0    0    0  501 -0.00000000000E+00 -0.00000000000E+00 -0.68694846514E+03  0.68694846514E+03  0.00000000000E+00 0.  1.
         23    2    1    2    0    0 -0.44396471739E+03 -0.33965749268E+03 -0.78873901636E+02  0.57156355161E+03  0.89397531023E+02 0.  0.
        254    2    1    2    0    0  0.44396471739E+03  0.33965749268E+03  0.41336289577E+03  0.11368223728E+04  0.89945780394E+03 0.  0.
        -24    2    4    4    0    0 -0.19181396253E+03 -0.46650329566E+02 -0.94208402579E+02  0.23264902625E+03  0.79255894586E+02 0.  0.
         24    2    4    4    0    0  0.63577867992E+03  0.38630782224E+03  0.50757129835E+03  0.90417334654E+03  0.80327792999E+02 0.  0.
         13    1    3    3    0    0 -0.11086412458E+03 -0.13077865083E+03 -0.42993230517E+02  0.17675499287E+03  0.00000000000E+00 0.  1.
        -13    1    3    3    0    0 -0.33310059280E+03 -0.20887884185E+03 -0.35880671120E+02  0.39480855874E+03  0.00000000000E+00 0. -1.
          2    1    6    6  502    0  0.25628611886E+03  0.17309043079E+03  0.16690517835E+03  0.35142596733E+03  0.00000000000E+00 0. -1.
          3    1    5    5  503    0 -0.84552832683E+02 -0.44388434170E+02 -0.95263192883E+01  0.95970127446E+02  0.00000000000E+00 0. -1.
         -4    1    5    5    0  503 -0.10726112985E+03 -0.22618953955E+01 -0.84682083290E+02  0.13667889880E+03  0.00000000000E+00 0.  1.
         -1    1    6    6    0  502  0.37949256106E+03  0.21321739145E+03  0.34066612000E+03  0.55274737922E+03  0.00000000000E+00 0.  1.
<mgrwt>
<rscale>  0 0.16753207E+04</rscale>
<asrwt>0</asrwt>
<pdfrwt beam="1">  1        1 0.15714423E+00 0.16753207E+04</pdfrwt>
<pdfrwt beam="2">  1       -1 0.10568438E+00 0.16753207E+04</pdfrwt>
<totfact> 0.11644675E+01</totfact>
</mgrwt>
</event>
<event>
12    1  0.2404959E-007  0.1907160E+04  0.7818608E-02  0.8651301E-01
         -2   -1    0    0    0  501 -0.00000000000E+00  0.00000000000E+00  0.11598439512E+04  0.11598439512E+04  0.00000000000E+00 0.  1.
          2   -1    0    0  501    0  0.00000000000E+00 -0.00000000000E+00 -0.78399759138E+03  0.78399759138E+03  0.00000000000E+00 0. -1.
         23    2    1    2    0    0  0.57223520126E+03  0.41081848462E+03 -0.74073164982E+02  0.71548852055E+03  0.10105462088E+03 0.  0.
        254    2    1    2    0    0 -0.57223520126E+03 -0.41081848462E+03  0.44991952482E+03  0.12283530220E+04  0.90011033495E+03 0.  0.
        -24    2    4    4    0    0 -0.32774448086E+03 -0.19912677403E+02  0.63949265329E+03  0.72332786126E+03  0.80245758732E+02 0.  0.
         24    2    4    4    0    0 -0.24449072040E+03 -0.39090580722E+03 -0.18957312847E+03  0.50502516079E+03  0.80804576060E+02 0.  0.
         11    1    3    3    0    0  0.41682442750E+03  0.35037175165E+03 -0.66471847893E+02  0.54856309963E+03  0.00000000000E+00 0.  1.
        -11    1    3    3    0    0  0.15541077376E+03  0.60446732974E+02 -0.76013170885E+01  0.16692542092E+03  0.00000000000E+00 0. -1.
          2    1    6    6  502    0 -0.20554945638E+03 -0.36103187305E+03 -0.14903564986E+03  0.44136857308E+03  0.00000000000E+00 0. -1.
          3    1    5    5  503    0 -0.14435464243E+03  0.29620202990E+02  0.30242292183E+03  0.33641528334E+03  0.00000000000E+00 0. -1.
         -4    1    5    5    0  503 -0.18338983844E+03 -0.49532880392E+02  0.33706973146E+03  0.38691257792E+03  0.00000000000E+00 0.  1.
         -1    1    6    6    0  502 -0.38941264014E+02 -0.29873934170E+02 -0.40537478615E+02  0.63656587705E+02  0.00000000000E+00 0.  1.
<mgrwt>
<rscale>  0 0.19071601E+04</rscale>
<asrwt>0</asrwt>
<pdfrwt beam="1">  1        2 0.12061501E+00 0.19071601E+04</pdfrwt>
<pdfrwt beam="2">  1       -2 0.17843753E+00 0.19071601E+04</pdfrwt>
<totfact> 0.61537225E+00</totfact>
</mgrwt>
</event>
<event>
12    1  0.2404959E-007  0.1769935E+04  0.7818608E-02  0.8722453E-01
          1   -1    0    0  501    0  0.00000000000E+00  0.00000000000E+00  0.10181660781E+04  0.10181660781E+04  0.00000000000E+00 0. -1.
         -1   -1    0    0    0  501 -0.00000000000E+00 -0.00000000000E+00 -0.76919410231E+03  0.76919410231E+03  0.00000000000E+00 0.  1.
         23    2    1    2    0    0 -0.48686387972E+03  0.32963325223E+03 -0.18653026126E+03  0.62558549281E+03  0.10425522576E+03 0.  0.
        254    2    1    2    0    0  0.48686387972E+03 -0.32963325223E+03  0.43550223709E+03  0.11617746876E+04  0.90242102591E+03 0.  0.
        -24    2    4    4    0    0  0.51021544752E+03 -0.55429750717E+03  0.12190467291E+03  0.76745193777E+03  0.80970353602E+02 0.  0.
         24    2    4    4    0    0 -0.23351567801E+02  0.22466425494E+03  0.31359756417E+03  0.39432274988E+03  0.78279471477E+02 0.  0.
         11    1    3    3    0    0 -0.43719148956E+03  0.32421912740E+03 -0.15291851199E+03  0.56536582177E+03  0.00000000000E+00 0. -1.
        -11    1    3    3    0    0 -0.49672390155E+02  0.54141248358E+01 -0.33611749267E+02  0.60219671041E+02  0.00000000000E+00 0.  1.
          4    1    6    6  502    0 -0.28917402366E+02  0.14331014524E+03  0.25489702866E+03  0.29384776519E+03  0.00000000000E+00 0. -1.
          1    1    5    5  503    0  0.30321506162E+03 -0.29665011782E+03  0.10238003085E+03  0.43637407887E+03  0.00000000000E+00 0. -1.
         -2    1    5    5    0  503  0.20700038590E+03 -0.25764738935E+03  0.19524642059E+02  0.33107785890E+03  0.00000000000E+00 0.  1.
         -3    1    6    6    0  502  0.55658345646E+01  0.81354109699E+02  0.58700535511E+02  0.10047498469E+03  0.00000000000E+00 0.  1.
<mgrwt>
<rscale>  0 0.17699348E+04</rscale>
<asrwt>0</asrwt>
<pdfrwt beam="1">  1        1 0.15664094E+00 0.17699348E+04</pdfrwt>
<pdfrwt beam="2">  1       -1 0.11833755E+00 0.17699348E+04</pdfrwt>
<totfact> 0.88767107E+00</totfact>
</mgrwt>
</event>
<event>
12    1  0.2404959E-007  0.1365447E+04  0.7818608E-02  0.8979217E-01
         -2   -1    0    0    0  501 -0.00000000000E+00  0.00000000000E+00  0.43093927381E+03  0.43093927381E+03  0.00000000000E+00 0.  1.
          2   -1    0    0  501    0  0.00000000000E+00 -0.00000000000E+00 -0.10816174143E+04  0.10816174143E+04  0.00000000000E+00 0. -1.
         23    2    1    2    0    0  0.36231859676E+03  0.13694229418E+02 -0.30589890921E+03  0.48341757619E+03  0.93038233168E+02 0.  0.
        254    2    1    2    0    0 -0.36231859676E+03 -0.13694229418E+02 -0.34477923125E+03  0.10291391119E+04  0.89932880296E+03 0.  0.
        -24    2    4    4    0    0 -0.22140833058E+03 -0.44648511471E+03 -0.14007788337E+03  0.52367143259E+03  0.78989552452E+02 0.  0.
         24    2    4    4    0    0 -0.14091026618E+03  0.43279088529E+03 -0.20470134787E+03  0.50546767929E+03  0.80195258503E+02 0.  0.
         13    1    3    3    0    0  0.28816489569E+02  0.14764410695E+01 -0.67140257777E+02  0.73077932125E+02  0.00000000000E+00 0. -1.
        -13    1    3    3    0    0  0.33350210719E+03  0.12217788348E+02 -0.23875865144E+03  0.41033964406E+03  0.00000000000E+00 0.  1.
          2    1    6    6  502    0 -0.76479086400E+02  0.29959272927E+03 -0.10292684481E+03  0.32588155742E+03  0.00000000000E+00 0. -1.
          1    1    5    5  503    0 -0.15579764506E+03 -0.35713792282E+03 -0.13617888223E+03  0.41275306187E+03  0.00000000000E+00 0. -1.
         -2    1    5    5    0  503 -0.65610685520E+02 -0.89347191888E+02 -0.38990011461E+01  0.11091837072E+03  0.00000000000E+00 0.  1.
         -1    1    6    6    0  502 -0.64431179777E+02  0.13319815602E+03 -0.10177450306E+03  0.17958612187E+03  0.00000000000E+00 0.  1.
<mgrwt>
<rscale>  0 0.13654471E+04</rscale>
<asrwt>0</asrwt>
<pdfrwt beam="1">  1        2 0.16640268E+00 0.13654471E+04</pdfrwt>
<pdfrwt beam="2">  1       -2 0.66298351E-01 0.13654471E+04</pdfrwt>
<totfact> 0.45658246E+01</totfact>
</mgrwt>
</event>
<event>
12    1  0.2404959E-007  0.3195458E+04  0.7818608E-02  0.8190018E-01
          1   -1    0    0  501    0  0.00000000000E+00  0.00000000000E+00  0.12458010340E+04  0.12458010340E+04  0.00000000000E+00 0. -1.
         -1   -1    0    0    0  501 -0.00000000000E+00 -0.00000000000E+00 -0.20490729426E+04  0.20490729426E+04  0.00000000000E+00 0.  1.
         23    2    1    2    0    0 -0.73392475789E+03  0.10901416038E+04  0.30712121956E+03  0.13527550195E+04  0.92565828686E+02 0.  0.
        254    2    1    2    0    0  0.73392475789E+03 -0.10901416038E+04 -0.11103931281E+04  0.19421189570E+04  0.90099882226E+03 0.  0.
        -24    2    4    4    0    0  0.35289180359E+03  0.20572470404E+02 -0.49606234469E+03  0.61441342936E+03  0.80437309641E+02 0.  0.
         24    2    4    4    0    0  0.38103295431E+03 -0.11107140742E+04 -0.61433078341E+03  0.13277055277E+04  0.80794738771E+02 0.  0.
         13    1    3    3    0    0 -0.34246848453E+03  0.53574783960E+03  0.19347395353E+03  0.66463718014E+03  0.00000000000E+00 0.  1.
        -13    1    3    3    0    0 -0.39145627337E+03  0.55439376424E+03  0.11364726603E+03  0.68811783937E+03  0.00000000000E+00 0. -1.
          2    1    6    6  502    0  0.10722807203E+03 -0.27964450041E+03 -0.19517324736E+03  0.35747937356E+03  0.00000000000E+00 0. -1.
          3    1    5    5  503    0  0.65896837485E+02  0.35978116092E+02 -0.10649295067E+03  0.13029799143E+03  0.00000000000E+00 0. -1.
         -4    1    5    5    0  503  0.28699496610E+03 -0.15405645688E+02 -0.38956939402E+03  0.48411543793E+03  0.00000000000E+00 0.  1.
         -1    1    6    6    0  502  0.27380488228E+03 -0.83106957384E+03 -0.41915753605E+03  0.97022615413E+03  0.00000000000E+00 0.  1.
<mgrwt>
<rscale>  0 0.31954575E+04</rscale>
<asrwt>0</asrwt>
<pdfrwt beam="1">  1        1 0.19166170E+00 0.31954575E+04</pdfrwt>
<pdfrwt beam="2">  1       -1 0.31524199E+00 0.31954575E+04</pdfrwt>
<totfact> 0.21768447E-01</totfact>
</mgrwt>
</event>
<event>
12    1  0.2404959E-007  0.2028231E+04  0.7818608E-02  0.8593534E-01
          1   -1    0    0  501    0  0.00000000000E+00  0.00000000000E+00  0.13060976531E+04  0.13060976531E+04  0.00000000000E+00 0. -1.
         -1   -1    0    0    0  501 -0.00000000000E+00 -0.00000000000E+00 -0.78740681337E+03  0.78740681337E+03  0.00000000000E+00 0.  1.
         23    2    1    2    0    0  0.33921476853E+03  0.63411025449E+03 -0.17883479644E+03  0.74718345926E+03  0.95596879315E+02 0.  0.
        254    2    1    2    0    0 -0.33921476853E+03 -0.63411025449E+03  0.69752563613E+03  0.13463210072E+04  0.89937520937E+03 0.  0.
        -24    2    4    4    0    0 -0.12159526069E+02  0.11306488379E+03 -0.12309434601E+03  0.18668076923E+03  0.82255513848E+02 0.  0.
         24    2    4    4    0    0 -0.32705524246E+03 -0.74717513828E+03  0.82061998214E+03  0.11596402379E+04  0.78182526621E+02 0.  0.
         13    1    3    3    0    0  0.94421765034E+02  0.18540051346E+03 -0.78664906893E+01  0.20820831343E+03  0.00000000000E+00 0. -1.
        -13    1    3    3    0    0  0.24479300350E+03  0.44870974103E+03 -0.17096830575E+03  0.53897514583E+03  0.00000000000E+00 0.  1.
          2    1    6    6  502    0 -0.60304513589E+02 -0.99882887799E+02  0.15135218194E+03  0.19110392098E+03  0.00000000000E+00 0. -1.
          3    1    5    5  503    0  0.22725219645E+02  0.11550148271E+02 -0.30975850172E+01  0.25679496996E+02  0.00000000000E+00 0. -1.
         -4    1    5    5    0  503 -0.34884745714E+02  0.10151473552E+03 -0.11999676099E+03  0.16100127223E+03  0.00000000000E+00 0.  1.
         -1    1    6    6    0  502 -0.26675072887E+03 -0.64729225048E+03  0.66926780019E+03  0.96853631696E+03  0.00000000000E+00 0.  1.
<mgrwt>
<rscale>  0 0.20282309E+04</rscale>
<asrwt>0</asrwt>
<pdfrwt beam="1">  1        1 0.20093810E+00 0.20282309E+04</pdfrwt>
<pdfrwt beam="2">  1       -1 0.12113951E+00 0.20282309E+04</pdfrwt>
<totfact> 0.50129035E+00</totfact>
</mgrwt>
</event>
<event>
12    1  0.2404959E-007  0.1131817E+04  0.7818608E-02  0.9174724E-01
         -2   -1    0    0    0  501 -0.00000000000E+00  0.00000000000E+00  0.59041857853E+03  0.59041857853E+03  0.00000000000E+00 0.  1.
          2   -1    0    0  501    0  0.00000000000E+00 -0.00000000000E+00 -0.54241557971E+03  0.54241557971E+03  0.00000000000E+00 0. -1.
         23    2    1    2    0    0 -0.31258847460E+02 -0.81635841249E+02  0.18889589070E+03  0.22422631514E+03  0.83392186427E+02 0.  0.
        254    2    1    2    0    0  0.31258847460E+02  0.81635841249E+02 -0.14089289188E+03  0.90860784310E+03  0.89335092738E+03 0.  0.
        -24    2    4    4    0    0  0.29754093922E+03  0.15291493007E+03  0.24930141302E+03  0.42461326147E+03  0.78940743184E+02 0.  0.
         24    2    4    4    0    0 -0.26628209176E+03 -0.71279088817E+02 -0.39019430490E+03  0.48399458164E+03  0.77539013324E+02 0.  0.
         13    1    3    3    0    0 -0.11374823379E+02 -0.51961922939E+02  0.29393949403E+02  0.60773615196E+02  0.00000000000E+00 0. -1.
        -13    1    3    3    0    0 -0.19884024081E+02 -0.29673918310E+02  0.15950194130E+03  0.16345269995E+03  0.00000000000E+00 0.  1.
          4    1    6    6  502    0 -0.10391934704E+03 -0.40336034536E+01 -0.19743429018E+03  0.22314972459E+03  0.00000000000E+00 0. -1.
          1    1    5    5  503    0  0.17618253400E+03  0.10440117774E+03  0.19598429565E+03  0.28346028883E+03  0.00000000000E+00 0. -1.
         -2    1    5    5    0  503  0.12135840521E+03  0.48513752331E+02  0.53317117369E+02  0.14115297264E+03  0.00000000000E+00 0.  1.
         -1    1    6    6    0  502 -0.16236274472E+03 -0.67245485363E+02 -0.19276001472E+03  0.26084485705E+03  0.00000000000E+00 0.  1.
<mgrwt>
<rscale>  0 0.11318167E+04</rscale>
<asrwt>0</asrwt>
<pdfrwt beam="1">  1        2 0.83448551E-01 0.11318167E+04</pdfrwt>
<pdfrwt beam="2">  1       -2 0.90833627E-01 0.11318167E+04</pdfrwt>
<totfact> 0.57400688E+01</totfact>
</mgrwt>
</event>
<event>
12    1  0.2404959E-007  0.2861592E+04  0.7818608E-02  0.8284397E-01
          2   -1    0    0  501    0  0.00000000000E+00  0.00000000000E+00  0.22988306730E+04  0.22988306730E+04  0.00000000000E+00 0.  1.
         -2   -1    0    0    0  501 -0.00000000000E+00 -0.00000000000E+00 -0.89052993784E+03  0.89052993784E+03  0.00000000000E+00 0. -1.
         23    2    1    2    0    0 -0.59863014354E+03  0.11199303474E+04  0.39896897791E+03  0.13343586608E+04  0.93459930406E+02 0.  0.
        254    2    1    2    0    0  0.59863014354E+03 -0.11199303474E+04  0.10093317573E+04  0.18550019501E+04  0.89982198620E+03 0.  0.
        -24    2    4    4    0    0  0.43866402161E+03 -0.32452423869E+03 -0.85421878283E+01  0.55074853607E+03  0.74221800382E+02 0.  0.
         24    2    4    4    0    0  0.15996612193E+03 -0.79540610866E+03  0.10178739451E+04  0.13042534140E+04  0.82155717875E+02 0.  0.
         13    1    3    3    0    0 -0.49481135755E+03  0.92409512943E+03  0.29139063714E+03  0.10879791318E+04  0.00000000000E+00 0.  1.
        -13    1    3    3    0    0 -0.10381878599E+03  0.19583521792E+03  0.10757834077E+03  0.24637952899E+03  0.00000000000E+00 0. -1.
          4    1    6    6  502    0  0.10264697146E+03 -0.59078881921E+03  0.80151127153E+03  0.10009935804E+04  0.00000000000E+00 0. -1.
          3    1    5    5  503    0  0.36058198786E+03 -0.27185138594E+03 -0.34952824959E+02  0.45292852193E+03  0.00000000000E+00 0. -1.
         -4    1    5    5    0  503  0.78082033745E+02 -0.52672852755E+02  0.26410637131E+02  0.97820014132E+02  0.00000000000E+00 0.  1.
         -3    1    6    6    0  502  0.57319150472E+02 -0.20461728945E+03  0.21636267355E+03  0.30325983358E+03  0.00000000000E+00 0.  1.
<mgrwt>
<rscale>  0 0.28615922E+04</rscale>
<asrwt>0</asrwt>
<pdfrwt beam="1">  1        2 0.35366625E+00 0.28615922E+04</pdfrwt>
<pdfrwt beam="2">  1       -2 0.13700461E+00 0.28615922E+04</pdfrwt>
<totfact> 0.14931986E+00</totfact>
</mgrwt>
</event>
<event>
12    1  0.2404959E-007  0.4620139E+04  0.7818608E-02  0.7889935E-01
          2   -1    0    0  501    0  0.00000000000E+00  0.00000000000E+00  0.20659615932E+04  0.20659615932E+04  0.00000000000E+00 0.  1.
         -2   -1    0    0    0  501 -0.00000000000E+00 -0.00000000000E+00 -0.25830200426E+04  0.25830200426E+04  0.00000000000E+00 0. -1.
         23    2    1    2    0    0  0.27875238842E+03 -0.32967774072E+03 -0.24420658736E+04  0.24816228915E+04  0.91521241469E+02 0.  0.
        254    2    1    2    0    0 -0.27875238842E+03  0.32967774072E+03  0.19250074243E+04  0.21673587443E+04  0.89744082608E+03 0.  0.
        -24    2    4    4    0    0  0.13568372205E+03 -0.11564496899E+03  0.60047690058E+02  0.20403469251E+03  0.78997464426E+02 0.  0.
         24    2    4    4    0    0 -0.41443611047E+03  0.44532270970E+03  0.18649597342E+04  0.19633240518E+04  0.80603453666E+02 0.  0.
         13    1    3    3    0    0  0.61655987610E+02 -0.53189111532E+02 -0.29777578003E+03  0.30870853174E+03  0.00000000000E+00 0.  1.
        -13    1    3    3    0    0  0.21709640081E+03 -0.27648862918E+03 -0.21442900936E+04  0.21729143597E+04  0.00000000000E+00 0. -1.
          4    1    6    6  502    0 -0.31697415352E+03  0.30767336827E+03  0.14355870086E+04  0.15020138398E+04  0.00000000000E+00 0. -1.
          3    1    5    5  503    0  0.26546939687E+02 -0.44817794130E+02 -0.14519857265E+02  0.54075881244E+02  0.00000000000E+00 0. -1.
         -4    1    5    5    0  503  0.10913678237E+03 -0.70827174856E+02  0.74567547323E+02  0.14995881127E+03  0.00000000000E+00 0.  1.
         -3    1    6    6    0  502 -0.97461956947E+02  0.13764934143E+03  0.42937272559E+03  0.46131021203E+03  0.00000000000E+00 0.  1.
<mgrwt>
<rscale>  0 0.46201386E+04</rscale>
<asrwt>0</asrwt>
<pdfrwt beam="1">  1        2 0.31784024E+00 0.46201386E+04</pdfrwt>
<pdfrwt beam="2">  1       -2 0.39738770E+00 0.46201386E+04</pdfrwt>
<totfact> 0.35572054E-02</totfact>
</mgrwt>
</event>
<event>
12    1  0.2993890E-007  0.1808218E+04  0.7818608E-02  0.8701941E-01
         -2   -1    0    0    0  501 -0.00000000000E+00  0.00000000000E+00  0.62952114262E+03  0.62952114262E+03  0.00000000000E+00 0.  1.
          2   -1    0    0  501    0  0.00000000000E+00 -0.00000000000E+00 -0.12984681621E+04  0.12984681621E+04  0.00000000000E+00 0. -1.
         23    2    1    2    0    0  0.59651310969E+03  0.12261014899E+03 -0.56698519311E+03  0.83699987067E+03  0.90749300985E+02 0.  0.
        254    2    1    2    0    0 -0.59651310969E+03 -0.12261014899E+03 -0.10196182632E+03  0.10909894340E+04  0.89944460219E+03 0.  0.
        -24    2    4    4    0    0 -0.85163582371E+02 -0.12251721932E+03 -0.44095140620E+03  0.47227480326E+03  0.79636941046E+02 0.  0.
         24    2    4    4    0    0 -0.51134952732E+03 -0.92929675146E-01  0.33898957988E+03  0.61871463074E+03  0.80096886970E+02 0.  0.
         13    1    3    3    0    0  0.32092056596E+03  0.27683037765E+02 -0.26295025275E+03  0.41581149053E+03  0.00000000000E+00 0. -1.
        -13    1    3    3    0    0  0.27559254373E+03  0.94927111226E+02 -0.30403494036E+03  0.42118838014E+03  0.00000000000E+00 0.  1.
          4    1    6    6  502    0 -0.33893265858E+03  0.22873034517E+02  0.25946237868E+03  0.42745672145E+03  0.00000000000E+00 0. -1.
          1    1    5    5  503    0 -0.85890423188E+02 -0.12400269844E+03 -0.34772405953E+03  0.37903278960E+03  0.00000000000E+00 0. -1.
         -4    1    5    5    0  503  0.72684081729E+00  0.14854791197E+01 -0.93227346662E+02  0.93242013660E+02  0.00000000000E+00 0.  1.
         -3    1    6    6    0  502 -0.17241686874E+03 -0.22965964192E+02  0.79527201195E+02  0.19125790929E+03  0.00000000000E+00 0.  1.
<mgrwt>
<rscale>  0 0.18082181E+04</rscale>
<asrwt>0</asrwt>
<pdfrwt beam="1">  1        2 0.19976433E+00 0.18082181E+04</pdfrwt>
<pdfrwt beam="2">  1       -2 0.96849407E-01 0.18082181E+04</pdfrwt>
<totfact> 0.13924391E+01</totfact>
</mgrwt>
</event>
<event>
12    1  0.2404959E-007  0.1387732E+04  0.7818608E-02  0.8962747E-01
          2   -1    0    0  501    0  0.00000000000E+00  0.00000000000E+00  0.20936599800E+04  0.20936599800E+04  0.00000000000E+00 0. -1.
         -2   -1    0    0    0  501 -0.00000000000E+00 -0.00000000000E+00 -0.22995611813E+03  0.22995611813E+03  0.00000000000E+00 0.  1.
         23    2    1    2    0    0  0.20783470988E+03  0.27700730049E+03  0.85439011184E+03  0.92640625144E+03  0.91201800103E+02 0.  0.
        254    2    1    2    0    0 -0.20783470988E+03 -0.27700730049E+03  0.10093137500E+04  0.13972098467E+04  0.90197161737E+03 0.  0.
        -24    2    4    4    0    0 -0.11383406831E+03 -0.98070577466E+02 -0.14468752726E+03  0.22283678896E+03  0.78394647131E+02 0.  0.
         24    2    4    4    0    0 -0.94000641578E+02 -0.17893672302E+03  0.11540012773E+04  0.11743730577E+04  0.81108934582E+02 0.  0.
         13    1    3    3    0    0  0.23220324358E+02  0.97461577628E+02  0.25938206297E+03  0.27805934109E+03  0.00000000000E+00 0.  1.
        -13    1    3    3    0    0  0.18461438553E+03  0.17954572286E+03  0.59500804887E+03  0.64834691035E+03  0.00000000000E+00 0. -1.
          4    1    6    6  502    0 -0.95879312097E+02 -0.18372904485E+03  0.10506859407E+04  0.10709295730E+04  0.00000000000E+00 0. -1.
          3    1    5    5  503    0 -0.55118689800E+02 -0.84863121661E+02 -0.12203593655E+03  0.15853261240E+03  0.00000000000E+00 0. -1.
         -4    1    5    5    0  503 -0.58715378506E+02 -0.13207455805E+02 -0.22651590705E+02  0.64304176563E+02  0.00000000000E+00 0.  1.
         -3    1    6    6    0  502  0.18786705194E+01  0.47923218280E+01  0.10331533661E+03  0.10344348471E+03  0.00000000000E+00 0.  1.
<mgrwt>
<rscale>  0 0.13877318E+04</rscale>
<asrwt>0</asrwt>
<pdfrwt beam="1">  1        2 0.32210152E+00 0.13877318E+04</pdfrwt>
<pdfrwt beam="2">  1       -2 0.35377866E-01 0.13877318E+04</pdfrwt>
<totfact> 0.43354627E+01</totfact>
</mgrwt>
</event>
<event>
12    1  0.2404959E-007  0.1488676E+04  0.7818608E-02  0.8892018E-01
         -1   -1    0    0    0  501 -0.00000000000E+00  0.00000000000E+00  0.56195043914E+03  0.56195043914E+03  0.00000000000E+00 0.  1.
          1   -1    0    0  501    0  0.00000000000E+00 -0.00000000000E+00 -0.98592221288E+03  0.98592221288E+03  0.00000000000E+00 0. -1.
         23    2    1    2    0    0 -0.20151306483E+03  0.42445900530E+03 -0.13265125016E+03  0.49657464646E+03  0.90648016299E+02 0.  0.
        254    2    1    2    0    0  0.20151306483E+03 -0.42445900530E+03 -0.29132052358E+03  0.10512980056E+04  0.89419622374E+03 0.  0.
        -24    2    4    4    0    0  0.42884061479E+03  0.32839367183E+02  0.37353144554E+02  0.43871345402E+03  0.78048320896E+02 0.  0.
         24    2    4    4    0    0 -0.22732754997E+03 -0.45729837248E+03 -0.32867366814E+03  0.61258455154E+03  0.80211197528E+02 0.  0.
         13    1    3    3    0    0 -0.11076861342E+03  0.18557586679E+03 -0.10272021272E+03  0.23928963654E+03  0.00000000000E+00 0. -1.
        -13    1    3    3    0    0 -0.90744451403E+02  0.23888313851E+03 -0.29931037437E+02  0.25728500992E+03  0.00000000000E+00 0.  1.
          2    1    6    6  502    0 -0.15713541779E+03 -0.32550644998E+03 -0.18791418670E+03  0.40737909871E+03  0.00000000000E+00 0. -1.
          3    1    5    5  503    0  0.56896247513E+02  0.30698905539E+02 -0.20446737084E+01  0.64682195950E+02  0.00000000000E+00 0. -1.
         -4    1    5    5    0  503  0.37194436728E+03  0.21404616442E+01  0.39397818262E+02  0.37403125807E+03  0.00000000000E+00 0.  1.
         -1    1    6    6    0  502 -0.70192132177E+02 -0.13179192250E+03 -0.14075948143E+03  0.20520545283E+03  0.00000000000E+00 0.  1.
<mgrwt>
<rscale>  0 0.14886765E+04</rscale>
<asrwt>0</asrwt>
<pdfrwt beam="1">  1        1 0.15168034E+00 0.14886765E+04</pdfrwt>
<pdfrwt beam="2">  1       -1 0.86453914E-01 0.14886765E+04</pdfrwt>
<totfact> 0.19833911E+01</totfact>
</mgrwt>
</event>
<event>
12    1  0.2404959E-007  0.1645388E+04  0.7818608E-02  0.8793140E-01
         -1   -1    0    0    0  501 -0.00000000000E+00  0.00000000000E+00  0.46250447589E+03  0.46250447589E+03  0.00000000000E+00 0.  1.
          1   -1    0    0  501    0  0.00000000000E+00 -0.00000000000E+00 -0.14633919828E+04  0.14633919828E+04  0.00000000000E+00 0. -1.
         23    2    1    2    0    0  0.33676984118E+03  0.18659478878E+03 -0.84966664779E+03  0.93735340447E+03  0.92013321712E+02 0.  0.
        254    2    1    2    0    0 -0.33676984118E+03 -0.18659478878E+03 -0.15122085909E+03  0.98854305420E+03  0.89784078803E+03 0.  0.
        -24    2    4    4    0    0  0.13024405056E+02 -0.22006290283E+03 -0.45861266128E+03  0.51490662790E+03  0.78777827091E+02 0.  0.
         24    2    4    4    0    0 -0.34979424624E+03  0.33468114050E+02  0.30739180219E+03  0.47363642630E+03  0.79784803715E+02 0.  0.
         11    1    3    3    0    0  0.32839336208E+03  0.16470359896E+03 -0.82613684668E+03  0.90414134139E+03  0.00000000000E+00 0. -1.
        -11    1    3    3    0    0  0.83764791034E+01  0.21891189815E+02 -0.23529801117E+02  0.33212063084E+02  0.00000000000E+00 0.  1.
          4    1    6    6  502    0 -0.14310079540E+03  0.45121907088E+02  0.16103513139E+03  0.22010483340E+03  0.00000000000E+00 0. -1.
          1    1    5    5  503    0 -0.14940200096E+01 -0.21946499351E+03 -0.43360205779E+03  0.48598133709E+03  0.00000000000E+00 0. -1.
         -2    1    5    5    0  503  0.14518425065E+02 -0.59790931548E+00 -0.25010603483E+02  0.28925290812E+02  0.00000000000E+00 0.  1.
         -3    1    6    6    0  502 -0.20669345084E+03 -0.11653793038E+02  0.14635667081E+03  0.25353159290E+03  0.00000000000E+00 0.  1.
<mgrwt>
<rscale>  0 0.16453879E+04</rscale>
<asrwt>0</asrwt>
<pdfrwt beam="1">  1        1 0.22513723E+00 0.16453879E+04</pdfrwt>
<pdfrwt beam="2">  1       -1 0.71154535E-01 0.16453879E+04</pdfrwt>
<totfact> 0.13227193E+01</totfact>
</mgrwt>
</event>
<event>
12    1  0.2404959E-007  0.1361903E+04  0.7818608E-02  0.8981866E-01
          1   -1    0    0  501    0  0.00000000000E+00  0.00000000000E+00  0.13731231071E+04  0.13731231071E+04  0.00000000000E+00 0. -1.
         -1   -1    0    0    0  501 -0.00000000000E+00 -0.00000000000E+00 -0.33769378128E+03  0.33769378128E+03  0.00000000000E+00 0.  1.
         23    2    1    2    0    0  0.27328706271E+02  0.18477410823E+03  0.70590712584E+03  0.73598346748E+03  0.92078579676E+02 0.  0.
        254    2    1    2    0    0 -0.27328706271E+02 -0.18477410823E+03  0.32952220002E+03  0.97483342094E+03  0.89823548639E+03 0.  0.
        -24    2    4    4    0    0 -0.12022173126E+03 -0.34506746630E+03 -0.18862113428E+03  0.41879673143E+03  0.79296588755E+02 0.  0.
         24    2    4    4    0    0  0.92893024988E+02  0.16029335808E+03  0.51814333430E+03  0.55603668951E+03  0.79882479103E+02 0.  0.
         11    1    3    3    0    0 -0.27957520277E+02  0.11932191850E+03  0.42000599486E+03  0.43752071825E+03  0.00000000000E+00 0.  1.
        -11    1    3    3    0    0  0.55286226548E+02  0.65452189728E+02  0.28590113098E+03  0.29846274923E+03  0.00000000000E+00 0. -1.
          2    1    6    6  502    0 -0.53472751756E+01  0.28646331782E+02  0.33963426499E+02  0.44751759920E+02  0.00000000000E+00 0. -1.
          1    1    5    5  503    0 -0.70408873771E+02 -0.11681035261E+03 -0.99154811345E+02  0.16862308441E+03  0.00000000000E+00 0. -1.
         -2    1    5    5    0  503 -0.49812857488E+02 -0.22825711369E+03 -0.89466322932E+02  0.25017364701E+03  0.00000000000E+00 0.  1.
         -1    1    6    6    0  502  0.98240300163E+02  0.13164702630E+03  0.48417990780E+03  0.51128492959E+03  0.00000000000E+00 0.  1.
<mgrwt>
<rscale>  0 0.13619033E+04</rscale>
<asrwt>0</asrwt>
<pdfrwt beam="1">  1        1 0.21124971E+00 0.13619033E+04</pdfrwt>
<pdfrwt beam="2">  1       -1 0.51952890E-01 0.13619033E+04</pdfrwt>
<totfact> 0.29270541E+01</totfact>
</mgrwt>
</event>
<event>
12    1  0.2404959E-007  0.1637692E+04  0.7818608E-02  0.8797721E-01
         -2   -1    0    0    0  501 -0.00000000000E+00  0.00000000000E+00  0.12567144352E+04  0.12567144352E+04  0.00000000000E+00 0.  1.
          2   -1    0    0  501    0  0.00000000000E+00 -0.00000000000E+00 -0.53354078305E+03  0.53354078305E+03  0.00000000000E+00 0. -1.
         23    2    1    2    0    0  0.38690605477E+03 -0.34048660895E+03  0.50874108205E+03  0.73016559575E+03  0.93257077864E+02 0.  0.
        254    2    1    2    0    0 -0.38690605477E+03  0.34048660895E+03  0.21443257007E+03  0.10600896225E+04  0.90121099331E+03 0.  0.
        -24    2    4    4    0    0  0.47882290199E+02 -0.26899881778E+03  0.69584700803E+02  0.29330117034E+03  0.80811312665E+02 0.  0.
         24    2    4    4    0    0 -0.43478834496E+03  0.60948542673E+03  0.14484786927E+03  0.76678845212E+03  0.80437769531E+02 0.  0.
         13    1    3    3    0    0  0.19384005996E+03 -0.20680394227E+03  0.22527590867E+03  0.36206501407E+03  0.00000000000E+00 0.  1.
        -13    1    3    3    0    0  0.19306599480E+03 -0.13368266668E+03  0.28346517338E+03  0.36810058168E+03  0.00000000000E+00 0. -1.
          4    1    6    6  502    0 -0.13240508531E+03  0.13457608775E+03  0.17807959010E+02  0.18962846150E+03  0.00000000000E+00 0. -1.
          1    1    5    5  503    0  0.26470080978E+02 -0.57400184139E+02  0.48317049545E+02  0.79561194076E+02  0.00000000000E+00 0. -1.
         -2    1    5    5    0  503  0.21412209221E+02 -0.21159863364E+03  0.21267651258E+02  0.21373997626E+03  0.00000000000E+00 0.  1.
         -3    1    6    6    0  502 -0.30238325966E+03  0.47490933898E+03  0.12703991026E+03  0.57715999062E+03  0.00000000000E+00 0.  1.
<mgrwt>
<rscale>  0 0.16376916E+04</rscale>
<asrwt>0</asrwt>
<pdfrwt beam="1">  1        2 0.82083198E-01 0.16376916E+04</pdfrwt>
<pdfrwt beam="2">  1       -2 0.19334068E+00 0.16376916E+04</pdfrwt>
<totfact> 0.80251205E+00</totfact>
</mgrwt>
</event>
<event>
12    1  0.2404959E-007  0.1843987E+04  0.7818608E-02  0.8683251E-01
          2   -1    0    0  501    0  0.00000000000E+00  0.00000000000E+00  0.68741508031E+03  0.68741508031E+03  0.00000000000E+00 0. -1.
         -2   -1    0    0    0  501 -0.00000000000E+00 -0.00000000000E+00 -0.12366214087E+04  0.12366214087E+04  0.00000000000E+00 0.  1.
         23    2    1    2    0    0 -0.68778202522E+03  0.43303847272E+02 -0.89898352550E+02  0.70102004280E+03  0.91804407324E+02 0.  0.
        254    2    1    2    0    0  0.68778202522E+03 -0.43303847272E+02 -0.45930797587E+03  0.12230164462E+04  0.89993670538E+03 0.  0.
        -24    2    4    4    0    0  0.85028917665E+03 -0.21593910155E+03 -0.35335051774E+03  0.94911822378E+03  0.79670790188E+02 0.  0.
         24    2    4    4    0    0 -0.16250715142E+03  0.17263525428E+03 -0.10595745813E+03  0.27389822247E+03  0.87073233870E+02 0.  0.
         11    1    3    3    0    0 -0.14704910991E+03 -0.28210011771E+02 -0.23150971218E+02  0.15150977842E+03  0.00000000000E+00 0.  1.
        -11    1    3    3    0    0 -0.54073291531E+03  0.71513859043E+02 -0.66747381333E+02  0.54951026438E+03  0.00000000000E+00 0. -1.
          2    1    6    6  502    0 -0.59313764375E+02  0.15512090822E+02 -0.77091126399E+01  0.61791407361E+02  0.00000000000E+00 0. -1.
          1    1    5    5  503    0  0.33849212298E+03 -0.49008717591E+02 -0.15347345833E+03  0.37487714539E+03  0.00000000000E+00 0. -1.
         -4    1    5    5    0  503  0.51179705366E+03 -0.16693038396E+03 -0.19987705942E+03  0.57424107839E+03  0.00000000000E+00 0.  1.
         -1    1    6    6    0  502 -0.10319338705E+03  0.15712316346E+03 -0.98248345486E+02  0.21210681511E+03  0.00000000000E+00 0.  1.
<mgrwt>
<rscale>  0 0.18439872E+04</rscale>
<asrwt>0</asrwt>
<pdfrwt beam="1">  1        2 0.10575617E+00 0.18439872E+04</pdfrwt>
<pdfrwt beam="2">  1       -2 0.19024945E+00 0.18439872E+04</pdfrwt>
<totfact> 0.60852676E+00</totfact>
</mgrwt>
</event>
<event>
12    1  0.2404959E-007  0.1288626E+04  0.7818608E-02  0.9038634E-01
          1   -1    0    0  501    0  0.00000000000E+00  0.00000000000E+00  0.40323474936E+03  0.40323474936E+03  0.00000000000E+00 0. -1.
         -1   -1    0    0    0  501 -0.00000000000E+00 -0.00000000000E+00 -0.10295227586E+04  0.10295227586E+04  0.00000000000E+00 0.  1.
         23    2    1    2    0    0  0.11784987220E+03  0.27030708857E+03 -0.23223038690E+02  0.31019212629E+03  0.93409481217E+02 0.  0.
        254    2    1    2    0    0 -0.11784987220E+03 -0.27030708857E+03 -0.60306497058E+03  0.11225653817E+04  0.89972838287E+03 0.  0.
        -24    2    4    4    0    0 -0.32793141813E+03  0.60969383050E+02  0.60126176370E+02  0.34794465768E+03  0.78702268419E+02 0.  0.
         24    2    4    4    0    0  0.21008154592E+03 -0.33127647162E+03 -0.66319114695E+03  0.77462072403E+03  0.79601583629E+02 0.  0.
         13    1    3    3    0    0 -0.76053243247E+01  0.83149237031E+02 -0.14206627438E+02  0.84696309483E+02  0.00000000000E+00 0.  1.
        -13    1    3    3    0    0  0.12545519653E+03  0.18715785153E+03 -0.90164112520E+01  0.22549581681E+03  0.00000000000E+00 0. -1.
          4    1    6    6  502    0  0.94170283191E+01 -0.50335946375E+02 -0.54134497024E+02  0.74517995732E+02  0.00000000000E+00 0. -1.
          3    1    5    5  503    0 -0.34072305305E+02 -0.15319553415E+02 -0.42351635029E+01  0.37597171643E+02  0.00000000000E+00 0. -1.
         -4    1    5    5    0  503 -0.29385911282E+03  0.76288936464E+02  0.64361339873E+02  0.31034748603E+03  0.00000000000E+00 0.  1.
         -3    1    6    6    0  502  0.20066451761E+03 -0.28094052524E+03 -0.60905664992E+03  0.70010272829E+03  0.00000000000E+00 0.  1.
<mgrwt>
<rscale>  0 0.12886262E+04</rscale>
<asrwt>0</asrwt>
<pdfrwt beam="1">  1        1 0.62036116E-01 0.12886262E+04</pdfrwt>
<pdfrwt beam="2">  1       -1 0.15838812E+00 0.12886262E+04</pdfrwt>
<totfact> 0.17545324E+01</totfact>
</mgrwt>
</event>
<event>
12    1  0.2404959E-007  0.1939926E+04  0.7818608E-02  0.8635234E-01
         -1   -1    0    0    0  501 -0.00000000000E+00  0.00000000000E+00  0.30608938644E+03  0.30608938644E+03  0.00000000000E+00 0.  1.
          1   -1    0    0  501    0  0.00000000000E+00 -0.00000000000E+00 -0.30737029520E+04  0.30737029520E+04  0.00000000000E+00 0. -1.
         23    2    1    2    0    0 -0.44254383428E+03 -0.61270875846E+03 -0.10733246986E+04  0.13161756277E+04  0.95054228002E+02 0.  0.
        254    2    1    2    0    0  0.44254383428E+03  0.61270875846E+03 -0.16942888670E+04  0.20636167108E+04  0.90368251971E+03 0.  0.
        -24    2    4    4    0    0  0.28261583651E+03  0.70831979692E+02 -0.27270866089E+02  0.30161897340E+03  0.73085050332E+02 0.  0.
         24    2    4    4    0    0  0.15992799777E+03  0.54187677877E+03 -0.16670180009E+04  0.17619977374E+04  0.80495984485E+02 0.  0.
         11    1    3    3    0    0 -0.30906202583E+03 -0.49558511957E+03 -0.81272604271E+03  0.10008234445E+04  0.00000000000E+00 0.  1.
        -11    1    3    3    0    0 -0.13348180845E+03 -0.11712363889E+03 -0.26059865589E+03  0.31535218316E+03  0.00000000000E+00 0. -1.
          4    1    6    6  502    0  0.21358472422E+01  0.18701566709E+02 -0.11633529181E+03  0.11784825226E+03  0.00000000000E+00 0. -1.
          1    1    5    5  503    0  0.16170777247E+02  0.22280908567E+02 -0.12906957564E+02  0.30405961206E+02  0.00000000000E+00 0. -1.
         -2    1    5    5    0  503  0.26644505926E+03  0.48551071126E+02 -0.14363908525E+02  0.27121301219E+03  0.00000000000E+00 0.  1.
         -3    1    6    6    0  502  0.15779215053E+03  0.52317521206E+03 -0.15506827091E+04  0.16441494852E+04  0.00000000000E+00 0.  1.
<mgrwt>
<rscale>  0 0.19399256E+04</rscale>
<asrwt>0</asrwt>
<pdfrwt beam="1">  1        1 0.47287740E+00 0.19399256E+04</pdfrwt>
<pdfrwt beam="2">  1       -1 0.47090673E-01 0.19399256E+04</pdfrwt>
<totfact> 0.22186486E+00</totfact>
</mgrwt>
</event>
<event>
12    1  0.2465399E-007  0.2384442E+04  0.7818608E-02  0.8445351E-01
          2   -1    0    0  501    0  0.00000000000E+00  0.00000000000E+00  0.20515026276E+04  0.20515026276E+04  0.00000000000E+00 0. -1.
         -2   -1    0    0    0  501 -0.00000000000E+00 -0.00000000000E+00 -0.69285384544E+03  0.69285384544E+03  0.00000000000E+00 0.  1.
         23    2    1    2    0    0 -0.38554955778E+03 -0.82816936777E+03  0.11066048183E+04  0.14378089749E+04  0.90595039284E+02 0.  0.
        254    2    1    2    0    0  0.38554955778E+03  0.82816936777E+03  0.25204396388E+03  0.13065474982E+04  0.89945941655E+03 0.  0.
        -24    2    4    4    0    0  0.55615899508E+03  0.18633620224E+03  0.23643952115E+03  0.63741963294E+03  0.79788051909E+02 0.  0.
         24    2    4    4    0    0 -0.17060943730E+03  0.64183316553E+03  0.15604442735E+02  0.66912786523E+03  0.80194818531E+02 0.  0.
         11    1    3    3    0    0 -0.18017097674E+03 -0.49043746260E+03  0.64613298434E+03  0.83095025063E+03  0.00000000000E+00 0.  1.
        -11    1    3    3    0    0 -0.20537858104E+03 -0.33773190518E+03  0.46047183394E+03  0.60685872423E+03  0.00000000000E+00 0. -1.
          2    1    6    6  502    0 -0.17413268812E+03  0.57738246153E+03  0.26577991121E+02  0.60365477681E+03  0.00000000000E+00 0. -1.
          1    1    5    5  503    0  0.36894652440E+03  0.94031052251E+02  0.12457543936E+03  0.40060256708E+03  0.00000000000E+00 0. -1.
         -2    1    5    5    0  503  0.18721247067E+03  0.92305149991E+02  0.11186408179E+03  0.23681706587E+03  0.00000000000E+00 0.  1.
         -1    1    6    6    0  502  0.35232508213E+01  0.64450704003E+02 -0.10973548385E+02  0.65473088418E+02  0.00000000000E+00 0.  1.
<mgrwt>
<rscale>  0 0.23844425E+04</rscale>
<asrwt>0</asrwt>
<pdfrwt beam="1">  1        2 0.31561579E+00 0.23844425E+04</pdfrwt>
<pdfrwt beam="2">  1       -2 0.10659290E+00 0.23844425E+04</pdfrwt>
<totfact> 0.39916870E+00</totfact>
</mgrwt>
</event>
<event>
12    1  0.2404959E-007  0.1349256E+04  0.7818608E-02  0.8991392E-01
          1   -1    0    0  501    0  0.00000000000E+00  0.00000000000E+00  0.38141360080E+03  0.38141360080E+03  0.00000000000E+00 0. -1.
         -1   -1    0    0    0  501 -0.00000000000E+00 -0.00000000000E+00 -0.11932525944E+04  0.11932525944E+04  0.00000000000E+00 0.  1.
         23    2    1    2    0    0 -0.39646661151E+02 -0.10894601665E+03 -0.63096690984E+03  0.64860925447E+03  0.95570033895E+02 0.  0.
        254    2    1    2    0    0  0.39646661151E+02  0.10894601665E+03 -0.18087208374E+03  0.92605694071E+03  0.90079168207E+03 0.  0.
        -24    2    4    4    0    0 -0.77570967161E+02 -0.21917440308E+03 -0.42710579093E+03  0.49215945075E+03  0.75808273993E+02 0.  0.
         24    2    4    4    0    0  0.11721762831E+03  0.32812041973E+03  0.24623370719E+03  0.43389748996E+03  0.78949420558E+02 0.  0.
         11    1    3    3    0    0  0.28288826351E+02 -0.97074005971E+01 -0.13411665760E+03  0.13741094996E+03  0.00000000000E+00 0.  1.
        -11    1    3    3    0    0 -0.67935487502E+02 -0.99238616054E+02 -0.49685025224E+03  0.51119830450E+03  0.00000000000E+00 0. -1.
          2    1    6    6  502    0  0.29400176290E+02  0.61557912281E+02  0.14052066895E+02  0.69650610293E+02  0.00000000000E+00 0. -1.
          1    1    5    5  503    0 -0.56878677894E+02 -0.17199896558E+03 -0.25705682180E+03  0.31447899420E+03  0.00000000000E+00 0. -1.
         -2    1    5    5    0  503 -0.20692289267E+02 -0.47175437506E+02 -0.17004896913E+03  0.17768045655E+03  0.00000000000E+00 0.  1.
         -3    1    6    6    0  502  0.87817452022E+02  0.26656250745E+03  0.23218164029E+03  0.36424687967E+03  0.00000000000E+00 0.  1.
<mgrwt>
<rscale>  0 0.13492557E+04</rscale>
<asrwt>0</asrwt>
<pdfrwt beam="1">  1        1 0.58679016E-01 0.13492557E+04</pdfrwt>
<pdfrwt beam="2">  1       -1 0.18357732E+00 0.13492557E+04</pdfrwt>
<totfact> 0.12274649E+01</totfact>
</mgrwt>
</event>
<event>
12    1  0.2404959E-007  0.2330296E+04  0.7818608E-02  0.8466071E-01
         -1   -1    0    0    0  501 -0.00000000000E+00  0.00000000000E+00  0.67525960521E+03  0.67525960521E+03  0.00000000000E+00 0.  1.
          1   -1    0    0  501    0  0.00000000000E+00 -0.00000000000E+00 -0.20104414532E+04  0.20104414532E+04  0.00000000000E+00 0. -1.
         23    2    1    2    0    0 -0.37486151954E+02 -0.96423855601E+03 -0.82267086877E+03  0.12710214836E+04  0.86873753511E+02 0.  0.
        254    2    1    2    0    0  0.37486151954E+02  0.96423855601E+03 -0.51251097922E+03  0.14146795748E+04  0.89860424602E+03 0.  0.
        -24    2    4    4    0    0  0.10249639666E+03  0.54919798287E+03 -0.73913957302E+03  0.93004010391E+03  0.80767262888E+02 0.  0.
         24    2    4    4    0    0 -0.65010244706E+02  0.41504057314E+03  0.22662859380E+03  0.48463947087E+03  0.83844426922E+02 0.  0.
         13    1    3    3    0    0  0.22605356392E+02 -0.35112310817E+03 -0.27197788688E+03  0.44471385203E+03  0.00000000000E+00 0.  1.
        -13    1    3    3    0    0 -0.60091508346E+02 -0.61311544784E+03 -0.55069298189E+03  0.82630763161E+03  0.00000000000E+00 0. -1.
          2    1    6    6  502    0 -0.74949344443E+02  0.20945743841E+03  0.11248174570E+03  0.24928290325E+03  0.00000000000E+00 0. -1.
          3    1    5    5  503    0  0.55510667031E+02  0.23801779465E+03 -0.26045515236E+03  0.35717053506E+03  0.00000000000E+00 0. -1.
         -4    1    5    5    0  503  0.46985729628E+02  0.31118018823E+03 -0.47868442065E+03  0.57286956885E+03  0.00000000000E+00 0.  1.
         -1    1    6    6    0  502  0.99390997370E+01  0.20558313473E+03  0.11414684810E+03  0.23535656761E+03  0.00000000000E+00 0.  1.
<mgrwt>
<rscale>  0 0.23302960E+04</rscale>
<asrwt>0</asrwt>
<pdfrwt beam="1">  1        1 0.30929868E+00 0.23302960E+04</pdfrwt>
<pdfrwt beam="2">  1       -1 0.10388610E+00 0.23302960E+04</pdfrwt>
<totfact> 0.23063380E+00</totfact>
</mgrwt>
</event>
<event>
12    1  0.2404959E-007  0.3846044E+04  0.7818608E-02  0.8036346E-01
          1   -1    0    0  501    0  0.00000000000E+00  0.00000000000E+00  0.14755338390E+04  0.14755338390E+04  0.00000000000E+00 0. -1.
         -1   -1    0    0    0  501 -0.00000000000E+00 -0.00000000000E+00 -0.25062206934E+04  0.25062206934E+04  0.00000000000E+00 0.  1.
         23    2    1    2    0    0 -0.18107027788E+04  0.99409560076E+02 -0.38087694162E+03  0.18558324841E+04  0.10256778565E+03 0.  0.
        254    2    1    2    0    0  0.18107027788E+04 -0.99409560076E+02 -0.64980991282E+03  0.21259220483E+04  0.89931352651E+03 0.  0.
        -24    2    4    4    0    0  0.17254873421E+04  0.15083566082E+03 -0.64547793129E+03  0.18499828719E+04  0.75742342628E+02 0.  0.
         24    2    4    4    0    0  0.85215436723E+02 -0.25024522089E+03 -0.43319815296E+01  0.27593917638E+03  0.78989377517E+02 0.  0.
         13    1    3    3    0    0 -0.56007994957E+03 -0.16555824853E+02 -0.11396368419E+03  0.57179661293E+03  0.00000000000E+00 0.  1.
        -13    1    3    3    0    0 -0.12506228292E+04  0.11596538493E+03 -0.26691325743E+03  0.12840358712E+04  0.00000000000E+00 0. -1.
          2    1    6    6  502    0  0.69050160196E+02 -0.85856432871E+02  0.67602801600E+01  0.11038547493E+03  0.00000000000E+00 0. -1.
          1    1    5    5  503    0  0.48207432735E+03  0.76327483830E+02 -0.18156897497E+03  0.52075794238E+03  0.00000000000E+00 0. -1.
         -2    1    5    5    0  503  0.12434130147E+04  0.74508176987E+02 -0.46390895632E+03  0.13292249296E+04  0.00000000000E+00 0.  1.
         -1    1    6    6    0  502  0.16165276526E+02 -0.16438878802E+03 -0.11092261690E+02  0.16555370144E+03  0.00000000000E+00 0.  1.
<mgrwt>
<rscale>  0 0.38460439E+04</rscale>
<asrwt>0</asrwt>
<pdfrwt beam="1">  1        1 0.22700521E+00 0.38460439E+04</pdfrwt>
<pdfrwt beam="2">  1       -1 0.38557241E+00 0.38460439E+04</pdfrwt>
<totfact> 0.48332619E-02</totfact>
</mgrwt>
</event>
<event>
12    1  0.2404959E-007  0.2545154E+04  0.7818608E-02  0.8387073E-01
          1   -1    0    0  501    0  0.00000000000E+00  0.00000000000E+00  0.75811478309E+03  0.75811478309E+03  0.00000000000E+00 0. -1.
         -1   -1    0    0    0  501 -0.00000000000E+00 -0.00000000000E+00 -0.21361573261E+04  0.21361573261E+04  0.00000000000E+00 0.  1.
         23    2    1    2    0    0  0.10616127768E+04  0.25570251874E+03 -0.36808942111E+03  0.11558275764E+04  0.89677747876E+02 0.  0.
        254    2    1    2    0    0 -0.10616127768E+04 -0.25570251874E+03 -0.10099531219E+04  0.17384445328E+04  0.89987700233E+03 0.  0.
        -24    2    4    4    0    0 -0.11601784636E+04 -0.39302861042E+03 -0.89283975207E+03  0.15178323290E+04  0.78527703296E+02 0.  0.
         24    2    4    4    0    0  0.98565686764E+02  0.13732609169E+03 -0.11711336984E+03  0.22061220382E+03  0.79878363876E+02 0.  0.
         13    1    3    3    0    0  0.50517422804E+03  0.13803358222E+03 -0.22068375511E+03  0.56829181787E+03  0.00000000000E+00 0.  1.
        -13    1    3    3    0    0  0.55643854875E+03  0.11766893651E+03 -0.14740566601E+03  0.58753575851E+03  0.00000000000E+00 0. -1.
          2    1    6    6  502    0 -0.21620031613E+01  0.56379012081E+02 -0.23875871311E+02  0.61264381918E+02  0.00000000000E+00 0. -1.
          1    1    5    5  503    0 -0.21716671230E+02 -0.13406091930E+02 -0.77871267738E+01  0.26682886904E+02  0.00000000000E+00 0. -1.
         -2    1    5    5    0  503 -0.11384617923E+04 -0.37962251849E+03 -0.88505262530E+03  0.14911494421E+04  0.00000000000E+00 0.  1.
         -1    1    6    6    0  502  0.10072768993E+03  0.80947079606E+02 -0.93237498524E+02  0.15934782190E+03  0.00000000000E+00 0.  1.
<mgrwt>
<rscale>  0 0.25451542E+04</rscale>
<asrwt>0</asrwt>
<pdfrwt beam="1">  1        1 0.11663305E+00 0.25451542E+04</pdfrwt>
<pdfrwt beam="2">  1       -1 0.32863958E+00 0.25451542E+04</pdfrwt>
<totfact> 0.45803159E-01</totfact>
</mgrwt>
</event>
<event>
12    1  0.2404959E-007  0.2828987E+04  0.7818608E-02  0.8294325E-01
         -2   -1    0    0    0  501 -0.00000000000E+00  0.00000000000E+00  0.25534938823E+04  0.25534938823E+04  0.00000000000E+00 0.  1.
          2   -1    0    0  501    0  0.00000000000E+00 -0.00000000000E+00 -0.78355082971E+03  0.78355082971E+03  0.00000000000E+00 0. -1.
         23    2    1    2    0    0  0.72924429824E+03  0.13871993210E+03 -0.41992572560E+03  0.85643637680E+03  0.78135692218E+02 0.  0.
        254    2    1    2    0    0 -0.72924429824E+03 -0.13871993210E+03  0.21898687782E+04  0.24806083352E+04  0.89824939796E+03 0.  0.
        -24    2    4    4    0    0 -0.80204608241E+03 -0.33174228157E+03  0.20303243227E+04  0.22094906526E+04  0.79380281241E+02 0.  0.
         24    2    4    4    0    0  0.72801784170E+02  0.19302234947E+03  0.15954445548E+03  0.27111768257E+03  0.74112329285E+02 0.  0.
         11    1    3    3    0    0  0.12035058458E+03  0.51926326972E+02 -0.83098997207E+02  0.15519681046E+03  0.00000000000E+00 0. -1.
        -11    1    3    3    0    0  0.60889371367E+03  0.86793605132E+02 -0.33682672839E+03  0.70123956633E+03  0.00000000000E+00 0.  1.
          4    1    6    6  502    0  0.91319628079E+01  0.39235895997E+02 -0.38967665436E+00  0.40286475737E+02  0.00000000000E+00 0. -1.
          3    1    5    5  503    0 -0.47354230273E+03 -0.23400011529E+03  0.12720429836E+04  0.13773495267E+04  0.00000000000E+00 0. -1.
         -4    1    5    5    0  503 -0.32850377968E+03 -0.97742166277E+02  0.75828133907E+03  0.83214112596E+03  0.00000000000E+00 0.  1.
         -3    1    6    6    0  502  0.63669821363E+02  0.15378645347E+03  0.15993413214E+03  0.23083120683E+03  0.00000000000E+00 0.  1.
<mgrwt>
<rscale>  0 0.28289873E+04</rscale>
<asrwt>0</asrwt>
<pdfrwt beam="1">  1        2 0.12054628E+00 0.28289873E+04</pdfrwt>
<pdfrwt beam="2">  1       -2 0.39284521E+00 0.28289873E+04</pdfrwt>
<totfact> 0.25396160E-01</totfact>
</mgrwt>
</event>
<event>
12    1  0.3720566E-007  0.1878760E+04  0.7818608E-02  0.8665502E-01
          1   -1    0    0  501    0  0.00000000000E+00  0.00000000000E+00  0.12314009121E+04  0.12314009121E+04  0.00000000000E+00 0. -1.
         -1   -1    0    0    0  501 -0.00000000000E+00 -0.00000000000E+00 -0.71661068067E+03  0.71661068067E+03  0.00000000000E+00 0.  1.
         23    2    1    2    0    0 -0.59693849103E+03  0.33610622575E+03 -0.33148058813E+02  0.69179089461E+03  0.90404043060E+02 0.  0.
        254    2    1    2    0    0  0.59693849103E+03 -0.33610622575E+03  0.54793829027E+03  0.12562206982E+04  0.89919470391E+03 0.  0.
        -24    2    4    4    0    0  0.46580343764E+03 -0.40721197929E+03  0.76096049810E+03  0.98409810313E+03  0.81201960122E+02 0.  0.
         24    2    4    4    0    0  0.13113505339E+03  0.71105753536E+02 -0.21302220782E+03  0.27212259506E+03  0.80123749935E+02 0.  0.
         13    1    3    3    0    0 -0.28877024200E+03  0.11671383861E+03 -0.35630263317E+02  0.31349623356E+03  0.00000000000E+00 0.  1.
        -13    1    3    3    0    0 -0.30816824903E+03  0.21939238714E+03  0.24822045043E+01  0.37829466105E+03  0.00000000000E+00 0. -1.
          2    1    6    6  502    0  0.40403263543E+02 -0.12174977866E+02 -0.82514478809E+02  0.92678438723E+02  0.00000000000E+00 0. -1.
          1    1    5    5  503    0  0.13526184256E+03 -0.10169180260E+03  0.26417185895E+03  0.31372561233E+03  0.00000000000E+00 0. -1.
         -2    1    5    5    0  503  0.33054159508E+03 -0.30552017668E+03  0.49678863915E+03  0.67037249080E+03  0.00000000000E+00 0.  1.
         -1    1    6    6    0  502  0.90731789846E+02  0.83280731402E+02 -0.13050772901E+03  0.17944415634E+03  0.00000000000E+00 0.  1.
<mgrwt>
<rscale>  0 0.18787603E+04</rscale>
<asrwt>0</asrwt>
<pdfrwt beam="1">  1        1 0.18944629E+00 0.18787603E+04</pdfrwt>
<pdfrwt beam="2">  1       -1 0.11024780E+00 0.18787603E+04</pdfrwt>
<totfact> 0.72132362E+00</totfact>
</mgrwt>
</event>
<event>
12    1  0.2404959E-007  0.1957863E+04  0.7818608E-02  0.8626578E-01
         -2   -1    0    0    0  501 -0.00000000000E+00  0.00000000000E+00  0.69300268064E+03  0.69300268064E+03  0.00000000000E+00 0.  1.
          2   -1    0    0  501    0  0.00000000000E+00 -0.00000000000E+00 -0.13828328833E+04  0.13828328833E+04  0.00000000000E+00 0. -1.
         23    2    1    2    0    0 -0.75535850598E+03 -0.12862775494E+03 -0.34147534536E+03  0.84393396483E+03  0.92236400658E+02 0.  0.
        254    2    1    2    0    0  0.75535850598E+03  0.12862775494E+03 -0.34835485733E+03  0.12319015991E+04  0.89951035095E+03 0.  0.
        -24    2    4    4    0    0  0.52008508827E+03 -0.20523794995E+03  0.14784464247E+03  0.58428219882E+03  0.83165704556E+02 0.  0.
         24    2    4    4    0    0  0.23527341771E+03  0.33386570489E+03 -0.49619949980E+03  0.64761940032E+03  0.79856459297E+02 0.  0.
         13    1    3    3    0    0 -0.48508680617E+03 -0.12580164841E+03 -0.23379204619E+03  0.55298642400E+03  0.00000000000E+00 0. -1.
        -13    1    3    3    0    0 -0.27027169981E+03 -0.28261065297E+01 -0.10768329917E+03  0.29094754083E+03  0.00000000000E+00 0.  1.
          4    1    6    6  502    0  0.77855272089E+02  0.12224582280E+03 -0.11993838884E+03  0.18812416565E+03  0.00000000000E+00 0. -1.
          1    1    5    5  503    0  0.23449619505E+03 -0.80700077576E+02  0.24529300695E+02  0.24920404211E+03  0.00000000000E+00 0. -1.
         -2    1    5    5    0  503  0.28558889322E+03 -0.12453787237E+03  0.12331534178E+03  0.33507815671E+03  0.00000000000E+00 0.  1.
         -3    1    6    6    0  502  0.15741814562E+03  0.21161988209E+03 -0.37626111096E+03  0.45949523467E+03  0.00000000000E+00 0.  1.
<mgrwt>
<rscale>  0 0.19578630E+04</rscale>
<asrwt>0</asrwt>
<pdfrwt beam="1">  1        2 0.21274352E+00 0.19578630E+04</pdfrwt>
<pdfrwt beam="2">  1       -2 0.10661580E+00 0.19578630E+04</pdfrwt>
<totfact> 0.97792805E+00</totfact>
</mgrwt>
</event>
<event>
12    1  0.2404959E-007  0.1903448E+04  0.7818608E-02  0.8653142E-01
         -2   -1    0    0    0  501 -0.00000000000E+00  0.00000000000E+00  0.34416341388E+03  0.34416341388E+03  0.00000000000E+00 0. -1.
          2   -1    0    0  501    0  0.00000000000E+00 -0.00000000000E+00 -0.26318271359E+04  0.26318271359E+04  0.00000000000E+00 0.  1.
         23    2    1    2    0    0 -0.38717075522E+01 -0.59891969691E+03 -0.15540004946E+04  0.16680374865E+04  0.93336625959E+02 0.  0.
        254    2    1    2    0    0  0.38717075522E+01  0.59891969691E+03 -0.73366322743E+03  0.13079530633E+04  0.90208629905E+03 0.  0.
        -24    2    4    4    0    0 -0.26831655517E+03  0.64321596257E+03 -0.24860624286E+03  0.74425875547E+03  0.79971762671E+02 0.  0.
         24    2    4    4    0    0  0.27218826272E+03 -0.44296265656E+02 -0.48505698457E+03  0.56369430778E+03  0.80139783113E+02 0.  0.
         11    1    3    3    0    0 -0.47056037273E+02 -0.38842922946E+03 -0.10091647260E+04  0.10823608368E+04  0.00000000000E+00 0.  1.
        -11    1    3    3    0    0  0.43184329721E+02 -0.21049046745E+03 -0.54483576859E+03  0.58567664966E+03  0.00000000000E+00 0. -1.
          2    1    6    6  502    0  0.11791441334E+03 -0.41979811337E+02 -0.28317705808E+03  0.30960516736E+03  0.00000000000E+00 0. -1.
          3    1    5    5  503    0 -0.29778481532E+02  0.10199178185E+03 -0.10855084204E+02  0.10680315716E+03  0.00000000000E+00 0. -1.
         -4    1    5    5    0  503 -0.23853807364E+03  0.54122418072E+03 -0.23775115866E+03  0.63745559831E+03  0.00000000000E+00 0.  1.
         -1    1    6    6    0  502  0.15427384938E+03 -0.23164543195E+01 -0.20187992649E+03  0.25408914042E+03  0.00000000000E+00 0.  1.
<mgrwt>
<rscale>  0 0.19034480E+04</rscale>
<asrwt>0</asrwt>
<pdfrwt beam="1">  1        2 0.40489649E+00 0.19034480E+04</pdfrwt>
<pdfrwt beam="2">  1       -2 0.52948216E-01 0.19034480E+04</pdfrwt>
<totfact> 0.91921741E+00</totfact>
</mgrwt>
</event>
<event>
12    1  0.2404959E-007  0.1744949E+04  0.7818608E-02  0.8736135E-01
          1   -1    0    0  501    0  0.00000000000E+00  0.00000000000E+00  0.56742231590E+03  0.56742231590E+03  0.00000000000E+00 0. -1.
         -1   -1    0    0    0  501 -0.00000000000E+00 -0.00000000000E+00 -0.13415264866E+04  0.13415264866E+04  0.00000000000E+00 0.  1.
         23    2    1    2    0    0  0.49802480438E+03 -0.45947605898E+02  0.14526178215E+03  0.52891115882E+03  0.92228739045E+02 0.  0.
        254    2    1    2    0    0 -0.49802480438E+03  0.45947605898E+02 -0.91936595285E+03  0.13800376437E+04  0.89951667824E+03 0.  0.
        -24    2    4    4    0    0 -0.34398361946E+03 -0.40953961174E+03 -0.51562163708E+03  0.74675828390E+03  0.75728712540E+02 0.  0.
         24    2    4    4    0    0 -0.15404118491E+03  0.45548721764E+03 -0.40374431577E+03  0.63327935978E+03  0.82680003149E+02 0.  0.
         11    1    3    3    0    0  0.34818473090E+03 -0.37122367894E+02  0.14451997789E+03  0.37880958415E+03  0.00000000000E+00 0. -1.
        -11    1    3    3    0    0  0.14984007348E+03 -0.88252380050E+01  0.74180425559E+00  0.15010157467E+03  0.00000000000E+00 0.  1.
          2    1    6    6  502    0 -0.50426760227E+02  0.62958729639E+02 -0.50738765695E+02  0.95294711968E+02  0.00000000000E+00 0. -1.
          3    1    5    5  503    0 -0.52211783186E+02 -0.10107989101E+03 -0.13492685559E+03  0.17648929437E+03  0.00000000000E+00 0. -1.
         -4    1    5    5    0  503 -0.29177183628E+03 -0.30845972073E+03 -0.38069478149E+03  0.57026898953E+03  0.00000000000E+00 0.  1.
         -1    1    6    6    0  502 -0.10361442469E+03  0.39252848800E+03 -0.35300555007E+03  0.53798464781E+03  0.00000000000E+00 0.  1.
<mgrwt>
<rscale>  0 0.17449494E+04</rscale>
<asrwt>0</asrwt>
<pdfrwt beam="1">  1        1 0.87295741E-01 0.17449494E+04</pdfrwt>
<pdfrwt beam="2">  1       -1 0.20638869E+00 0.17449494E+04</pdfrwt>
<totfact> 0.47853669E+00</totfact>
</mgrwt>
</event>
<event>
12    1  0.2404959E-007  0.1534010E+04  0.7818608E-02  0.8862146E-01
          2   -1    0    0  501    0  0.00000000000E+00  0.00000000000E+00  0.46060656726E+03  0.46060656726E+03  0.00000000000E+00 0. -1.
         -2   -1    0    0    0  501 -0.00000000000E+00 -0.00000000000E+00 -0.12772217408E+04  0.12772217408E+04  0.00000000000E+00 0.  1.
         23    2    1    2    0    0  0.20484153425E+03  0.32477823076E+03 -0.62385797072E+03  0.73901742381E+03  0.97504008800E+02 0.  0.
        254    2    1    2    0    0 -0.20484153425E+03 -0.32477823076E+03 -0.19275720277E+03  0.99881088420E+03  0.90168003741E+03 0.  0.
        -24    2    4    4    0    0 -0.89193656260E+01  0.25761296013E+03  0.13094860304E+03  0.29979648933E+03  0.79286859359E+02 0.  0.
         24    2    4    4    0    0 -0.19592216863E+03 -0.58239119088E+03 -0.32370580581E+03  0.69901439488E+03  0.79187626270E+02 0.  0.
         11    1    3    3    0    0  0.16602811229E+03  0.29065666994E+03 -0.47229689158E+03  0.57888771592E+03  0.00000000000E+00 0. -1.
        -11    1    3    3    0    0  0.38813421968E+02  0.34121560818E+02 -0.15156107914E+03  0.16012970789E+03  0.00000000000E+00 0.  1.
          4    1    6    6  502    0 -0.15900269225E+03 -0.42928749271E+03 -0.27557190064E+03  0.53433087124E+03  0.00000000000E+00 0. -1.
          3    1    5    5  503    0 -0.13252317083E+02  0.25147358419E+03  0.10509462293E+03  0.27287262087E+03  0.00000000000E+00 0. -1.
         -4    1    5    5    0  503  0.43329514575E+01  0.61393759406E+01  0.25853980109E+02  0.26923868458E+02  0.00000000000E+00 0.  1.
         -3    1    6    6    0  502 -0.36919476381E+02 -0.15310369818E+03 -0.48133905169E+02  0.16468352364E+03  0.00000000000E+00 0.  1.
<mgrwt>
<rscale>  0 0.15340101E+04</rscale>
<asrwt>0</asrwt>
<pdfrwt beam="1">  1        2 0.70862550E-01 0.15340101E+04</pdfrwt>
<pdfrwt beam="2">  1       -2 0.19649565E+00 0.15340101E+04</pdfrwt>
<totfact> 0.91443689E+00</totfact>
</mgrwt>
</event>
<event>
12    1  0.2404959E-007  0.2026880E+04  0.7818608E-02  0.8594155E-01
          2   -1    0    0  501    0  0.00000000000E+00  0.00000000000E+00  0.13458591269E+04  0.13458591269E+04  0.00000000000E+00 0. -1.
         -2   -1    0    0    0  501 -0.00000000000E+00 -0.00000000000E+00 -0.76312647447E+03  0.76312647447E+03  0.00000000000E+00 0.  1.
         23    2    1    2    0    0 -0.43602696347E+03 -0.66826187221E+03  0.17056679556E+03  0.82216221519E+03  0.10081782393E+03 0.  0.
        254    2    1    2    0    0  0.43602696347E+03  0.66826187221E+03  0.41216585689E+03  0.12868233862E+04  0.92159659881E+03 0.  0.
        -24    2    4    4    0    0  0.63156253682E+03  0.75397819770E+03  0.37603987923E+03  0.10559918823E+04  0.79740230042E+02 0.  0.
         24    2    4    4    0    0 -0.19553557334E+03 -0.85716325496E+02  0.36125977654E+02  0.23083150384E+03  0.79979047279E+02 0.  0.
         13    1    3    3    0    0 -0.21489687204E+03 -0.27667052628E+03  0.11661501360E+03  0.36922392544E+03  0.00000000000E+00 0. -1.
        -13    1    3    3    0    0 -0.22113009143E+03 -0.39159134593E+03  0.53951781959E+02  0.45293828975E+03  0.00000000000E+00 0.  1.
          4    1    6    6  502    0 -0.12554525435E+03 -0.28061851396E+02 -0.10120014982E+02  0.12904066451E+03  0.00000000000E+00 0. -1.
          1    1    5    5  503    0  0.27409103895E+03  0.31670060058E+03  0.20187077035E+03  0.46494835838E+03  0.00000000000E+00 0. -1.
         -2    1    5    5    0  503  0.35747149787E+03  0.43727759712E+03  0.17416910889E+03  0.59104352397E+03  0.00000000000E+00 0.  1.
         -3    1    6    6    0  502 -0.69990318993E+02 -0.57654474100E+02  0.46245992636E+02  0.10179083933E+03  0.00000000000E+00 0.  1.
<mgrwt>
<rscale>  0 0.20268801E+04</rscale>
<asrwt>0</asrwt>
<pdfrwt beam="1">  1        2 0.20705525E+00 0.20268801E+04</pdfrwt>
<pdfrwt beam="2">  1       -2 0.11740407E+00 0.20268801E+04</pdfrwt>
<totfact> 0.80802407E+00</totfact>
</mgrwt>
</event>
<event>
12    1  0.2404959E-007  0.3684476E+04  0.7818608E-02  0.8071411E-01
         -1   -1    0    0    0  501 -0.00000000000E+00  0.00000000000E+00  0.15192050594E+04  0.15192050594E+04  0.00000000000E+00 0.  1.
          1   -1    0    0  501    0  0.00000000000E+00 -0.00000000000E+00 -0.22339583010E+04  0.22339583010E+04  0.00000000000E+00 0. -1.
         23    2    1    2    0    0  0.19575674104E+02 -0.10101332230E+04  0.10910300341E+04  0.14897071788E+04  0.90158794125E+02 0.  0.
        254    2    1    2    0    0 -0.19575674104E+02  0.10101332230E+04 -0.18057832757E+04  0.22634561816E+04  0.91740302576E+03 0.  0.
        -24    2    4    4    0    0  0.32140101137E+03  0.95836251004E+02 -0.73718550413E+03  0.81422188803E+03  0.83854745429E+02 0.  0.
         24    2    4    4    0    0 -0.34097668547E+03  0.91429697198E+03 -0.10685977716E+04  0.14492342935E+04  0.78579813124E+02 0.  0.
         11    1    3    3    0    0 -0.82278477554E+01 -0.90684152059E+03  0.98974504179E+03  0.13423950569E+04  0.00000000000E+00 0. -1.
        -11    1    3    3    0    0  0.27803521860E+02 -0.10329170240E+03  0.10128499233E+03  0.14731212198E+03  0.00000000000E+00 0.  1.
          2    1    6    6  502    0 -0.32457370080E+03  0.80799379992E+03 -0.96719790876E+03  0.13014122570E+04  0.00000000000E+00 0. -1.
          3    1    5    5  503    0  0.30804985019E+03  0.69010013522E+02 -0.67740935384E+03  0.74735568830E+03  0.00000000000E+00 0. -1.
         -4    1    5    5    0  503  0.13351161174E+02  0.26826237482E+02 -0.59776150296E+02  0.66866199730E+02  0.00000000000E+00 0.  1.
         -1    1    6    6    0  502 -0.16402984668E+02  0.10630317206E+03 -0.10139986285E+03  0.14782203653E+03  0.00000000000E+00 0.  1.
<mgrwt>
<rscale>  0 0.36844759E+04</rscale>
<asrwt>0</asrwt>
<pdfrwt beam="1">  1        1 0.34368589E+00 0.36844759E+04</pdfrwt>
<pdfrwt beam="2">  1       -1 0.23372385E+00 0.36844759E+04</pdfrwt>
<totfact> 0.14797429E-01</totfact>
</mgrwt>
</event>
<event>
12    1  0.2404959E-007  0.1943400E+04  0.7818608E-02  0.8633550E-01
          1   -1    0    0  501    0  0.00000000000E+00  0.00000000000E+00  0.15132405420E+04  0.15132405420E+04  0.00000000000E+00 0. -1.
         -1   -1    0    0    0  501 -0.00000000000E+00 -0.00000000000E+00 -0.62395946772E+03  0.62395946772E+03  0.00000000000E+00 0.  1.
         23    2    1    2    0    0  0.49033974796E+03 -0.40716535631E+03 -0.10493598633E+03  0.65243191106E+03  0.91864800327E+02 0.  0.
        254    2    1    2    0    0 -0.49033974796E+03  0.40716535631E+03  0.99421706057E+03  0.14847680986E+04  0.89991780034E+03 0.  0.
        -24    2    4    4    0    0 -0.63444122840E+03  0.51370365479E+03  0.51912362428E+03  0.97070846347E+03  0.79865302463E+02 0.  0.
         24    2    4    4    0    0  0.14410148044E+03 -0.10653829848E+03  0.47509343629E+03  0.51405963516E+03  0.80174120443E+02 0.  0.
         11    1    3    3    0    0  0.39726533676E+02 -0.16525396422E+02 -0.27490130962E+02  0.51058726043E+02  0.00000000000E+00 0. -1.
        -11    1    3    3    0    0  0.45061321428E+03 -0.39063995989E+03 -0.77445855365E+02  0.60137318502E+03  0.00000000000E+00 0.  1.
          4    1    6    6  502    0  0.17793941883E+02 -0.55768898561E+02  0.11384521287E+03  0.12801377624E+03  0.00000000000E+00 0. -1.
          3    1    5    5  503    0 -0.41122375302E+03  0.35124948859E+03  0.30155306405E+03  0.61920548183E+03  0.00000000000E+00 0. -1.
         -4    1    5    5    0  503 -0.22321747537E+03  0.16245416619E+03  0.21757056022E+03  0.35150298164E+03  0.00000000000E+00 0.  1.
         -3    1    6    6    0  502  0.12630753856E+03 -0.50769399915E+02  0.36124822341E+03  0.38604585891E+03  0.00000000000E+00 0.  1.
<mgrwt>
<rscale>  0 0.19433999E+04</rscale>
<asrwt>0</asrwt>
<pdfrwt beam="1">  1        1 0.23280624E+00 0.19433999E+04</pdfrwt>
<pdfrwt beam="2">  1       -1 0.95993765E-01 0.19433999E+04</pdfrwt>
<totfact> 0.62443484E+00</totfact>
</mgrwt>
</event>
<event>
12    1  0.2404959E-007  0.1189007E+04  0.7818608E-02  0.9122533E-01
          1   -1    0    0  501    0  0.00000000000E+00  0.00000000000E+00  0.17365424788E+04  0.17365424788E+04  0.00000000000E+00 0. -1.
         -1   -1    0    0    0  501 -0.00000000000E+00 -0.00000000000E+00 -0.20352767132E+03  0.20352767132E+03  0.00000000000E+00 0.  1.
         23    2    1    2    0    0  0.85137192084E+02 -0.13400969183E+03  0.62779707175E+03  0.65481534998E+03  0.97195886189E+02 0.  0.
        254    2    1    2    0    0 -0.85137192084E+02  0.13400969183E+03  0.90521773575E+03  0.12852548002E+04  0.89847304536E+03 0.  0.
        -24    2    4    4    0    0 -0.24725730760E+03 -0.15240635364E+03 -0.17044470552E+02  0.30287939178E+03  0.84151881717E+02 0.  0.
         24    2    4    4    0    0  0.16212011552E+03  0.28641604547E+03  0.92226220630E+03  0.98237540838E+03  0.78592511541E+02 0.  0.
         11    1    3    3    0    0  0.15510710314E+02 -0.63114063406E+02  0.41380292801E+03  0.41887567412E+03  0.00000000000E+00 0. -1.
        -11    1    3    3    0    0  0.69626481770E+02 -0.70895628423E+02  0.21399414373E+03  0.23593967586E+03  0.00000000000E+00 0.  1.
          4    1    6    6  502    0  0.12769923400E+03  0.21266829106E+03  0.77980423792E+03  0.81830895501E+03  0.00000000000E+00 0. -1.
          1    1    5    5  503    0 -0.43464535142E+02 -0.25864518671E+02 -0.36251201506E+02  0.62227716910E+02  0.00000000000E+00 0. -1.
         -2    1    5    5    0  503 -0.20379277246E+03 -0.12654183497E+03  0.19206730953E+02  0.24065167487E+03  0.00000000000E+00 0.  1.
         -3    1    6    6    0  502  0.34420881517E+02  0.73747754408E+02  0.14245796838E+03  0.16406645337E+03  0.00000000000E+00 0.  1.
<mgrwt>
<rscale>  0 0.11890071E+04</rscale>
<asrwt>0</asrwt>
<pdfrwt beam="1">  1        1 0.26716037E+00 0.11890071E+04</pdfrwt>
<pdfrwt beam="2">  1       -1 0.31311951E-01 0.11890071E+04</pdfrwt>
<totfact> 0.42198096E+01</totfact>
</mgrwt>
</event>
<event>
12    1  0.2404959E-007  0.1205361E+04  0.7818608E-02  0.9108177E-01
          3   -1    0    0  501    0  0.00000000000E+00  0.00000000000E+00  0.86150670361E+03  0.86150670361E+03  0.00000000000E+00 0. -1.
         -3   -1    0    0    0  501 -0.00000000000E+00 -0.00000000000E+00 -0.42161490748E+03  0.42161490748E+03  0.00000000000E+00 0.  1.
         23    2    1    2    0    0 -0.19316816628E+03  0.12901105812E+03 -0.44166862274E+01  0.25212400267E+03  0.97924522061E+02 0.  0.
        254    2    1    2    0    0  0.19316816628E+03 -0.12901105812E+03  0.44430848235E+03  0.10309976084E+04  0.90088192761E+03 0.  0.
        -24    2    4    4    0    0 -0.24386234232E+03 -0.31055410061E+03  0.41733264077E+02  0.40460276218E+03  0.77775564456E+02 0.  0.
         24    2    4    4    0    0  0.43703050860E+03  0.18154304249E+03  0.40257521827E+03  0.62639484624E+03  0.79687861686E+02 0.  0.
         11    1    3    3    0    0 -0.18612840459E+03  0.94503938471E+02 -0.26703280008E+02  0.21044676891E+03  0.00000000000E+00 0.  1.
        -11    1    3    3    0    0 -0.70397616946E+01  0.34507119653E+02  0.22286593781E+02  0.41677233759E+02  0.00000000000E+00 0. -1.
          2    1    6    6  502    0  0.43974063833E+03  0.17591536604E+03  0.39649941791E+03  0.61768101267E+03  0.00000000000E+00 0. -1.
          3    1    5    5  503    0 -0.24153222839E+03 -0.31447429528E+03  0.44888131690E+02  0.39905744463E+03  0.00000000000E+00 0. -1.
         -4    1    5    5    0  503 -0.23301139251E+01  0.39201946677E+01 -0.31548676137E+01  0.55453175560E+01  0.00000000000E+00 0.  1.
         -1    1    6    6    0  502 -0.27101297307E+01  0.56276764509E+01  0.60758003653E+01  0.87138335692E+01  0.00000000000E+00 0.  1.
<mgrwt>
<rscale>  0 0.12053615E+04</rscale>
<asrwt>0</asrwt>
<pdfrwt beam="1">  1        3 0.13253949E+00 0.12053615E+04</pdfrwt>
<pdfrwt beam="2">  1       -3 0.64863832E-01 0.12053615E+04</pdfrwt>
<totfact> 0.26363375E+00</totfact>
</mgrwt>
</event>
<event>
12    1  0.2404959E-007  0.1122506E+04  0.7818608E-02  0.9183530E-01
         -1   -1    0    0    0  501 -0.00000000000E+00  0.00000000000E+00  0.42141362218E+03  0.42141362218E+03  0.00000000000E+00 0.  1.
          1   -1    0    0  501    0  0.00000000000E+00 -0.00000000000E+00 -0.74749562847E+03  0.74749562847E+03  0.00000000000E+00 0. -1.
         23    2    1    2    0    0  0.16149669760E+03 -0.70489118463E+02 -0.12430906063E+03  0.23095265586E+03  0.82683054716E+02 0.  0.
        254    2    1    2    0    0 -0.16149669760E+03  0.70489118463E+02 -0.20177294566E+03  0.93795659479E+03  0.89888839850E+03 0.  0.
        -24    2    4    4    0    0  0.26012181002E+03  0.46356903411E+02 -0.38282662546E+03  0.47228104404E+03  0.81736410854E+02 0.  0.
         24    2    4    4    0    0 -0.42161850762E+03  0.24132215051E+02  0.18105367979E+03  0.46567555075E+03  0.75688531651E+02 0.  0.
         11    1    3    3    0    0  0.87497911186E+02 -0.14788156333E+02 -0.10292290178E+03  0.13589590774E+03  0.00000000000E+00 0. -1.
        -11    1    3    3    0    0  0.73998786415E+02 -0.55700962129E+02 -0.21386158847E+02  0.95056748120E+02  0.00000000000E+00 0.  1.
          4    1    6    6  502    0 -0.18070256031E+02 -0.33491915643E+01 -0.69334348302E+01  0.19642396893E+02  0.00000000000E+00 0. -1.
          1    1    5    5  503    0  0.12715612401E+03 -0.18689961819E+02 -0.17456184026E+03  0.21677137869E+03  0.00000000000E+00 0. -1.
         -2    1    5    5    0  503  0.13296568601E+03  0.65046865230E+02 -0.20826478520E+03  0.25550966535E+03  0.00000000000E+00 0.  1.
         -3    1    6    6    0  502 -0.40354825159E+03  0.27481406616E+02  0.18798711462E+03  0.44603315386E+03  0.00000000000E+00 0.  1.
<mgrwt>
<rscale>  0 0.11225058E+04</rscale>
<asrwt>0</asrwt>
<pdfrwt beam="1">  1        1 0.11499933E+00 0.11225058E+04</pdfrwt>
<pdfrwt beam="2">  1       -1 0.64832865E-01 0.11225058E+04</pdfrwt>
<totfact> 0.59107956E+01</totfact>
</mgrwt>
</event>
<event>
12    1  0.2404959E-007  0.2620522E+04  0.7818608E-02  0.8361264E-01
          2   -1    0    0  501    0  0.00000000000E+00  0.00000000000E+00  0.20702608887E+04  0.20702608887E+04  0.00000000000E+00 0. -1.
         -2   -1    0    0    0  501 -0.00000000000E+00 -0.00000000000E+00 -0.82925953552E+03  0.82925953552E+03  0.00000000000E+00 0.  1.
         23    2    1    2    0    0  0.33861732701E+03 -0.81842864084E+03  0.13663310906E+04  0.16308295978E+04  0.90870201929E+02 0.  0.
        254    2    1    2    0    0 -0.33861732701E+03  0.81842864084E+03 -0.12532973748E+03  0.12686908264E+04  0.89965645418E+03 0.  0.
        -24    2    4    4    0    0 -0.56027258736E+03  0.70118070856E+03 -0.30416836847E+03  0.95098046231E+03  0.79282312690E+02 0.  0.
         24    2    4    4    0    0  0.22165526035E+03  0.11724793228E+03  0.17883863099E+03  0.31771036407E+03  0.77964655072E+02 0.  0.
         11    1    3    3    0    0  0.26302506904E+03 -0.65864246984E+03  0.11544324762E+04  0.13548824422E+04  0.00000000000E+00 0. -1.
        -11    1    3    3    0    0  0.75592257968E+02 -0.15978617099E+03  0.21189861443E+03  0.27594715563E+03  0.00000000000E+00 0.  1.
          4    1    6    6  502    0  0.12875024341E+03  0.10685119404E+03  0.13219397348E+03  0.21323472857E+03  0.00000000000E+00 0. -1.
          3    1    5    5  503    0 -0.42282091799E+03  0.53157795266E+03 -0.26549699992E+03  0.72927450622E+03  0.00000000000E+00 0. -1.
         -4    1    5    5    0  503 -0.13745166937E+03  0.16960275590E+03 -0.38671368544E+02  0.22170595609E+03  0.00000000000E+00 0.  1.
         -3    1    6    6    0  502  0.92905016942E+02  0.10396738241E+02  0.46644657509E+02  0.10447563550E+03  0.00000000000E+00 0.  1.
<mgrwt>
<rscale>  0 0.26205218E+04</rscale>
<asrwt>0</asrwt>
<pdfrwt beam="1">  1        2 0.31850167E+00 0.26205218E+04</pdfrwt>
<pdfrwt beam="2">  1       -2 0.12757839E+00 0.26205218E+04</pdfrwt>
<totfact> 0.24553990E+00</totfact>
</mgrwt>
</event>
<event>
12    1  0.2404959E-007  0.3298796E+04  0.7818608E-02  0.8163202E-01
          1   -1    0    0  501    0  0.00000000000E+00  0.00000000000E+00  0.27121670961E+04  0.27121670961E+04  0.00000000000E+00 0. -1.
         -1   -1    0    0    0  501 -0.00000000000E+00 -0.00000000000E+00 -0.10030776080E+04  0.10030776080E+04  0.00000000000E+00 0.  1.
         23    2    1    2    0    0  0.11084013769E+04 -0.32784415489E+03 -0.32979892600E+03  0.12053995757E+04  0.90473219465E+02 0.  0.
        254    2    1    2    0    0 -0.11084013769E+04  0.32784415489E+03  0.20388884141E+04  0.25098451284E+04  0.89789821318E+03 0.  0.
        -24    2    4    4    0    0  0.14555236198E+03  0.31497551548E+01  0.23545436257E+03  0.28809446420E+03  0.79776264745E+02 0.  0.
         24    2    4    4    0    0 -0.12539537389E+04  0.32469439973E+03  0.18034340515E+04  0.22217506642E+04  0.77299438701E+02 0.  0.
         11    1    3    3    0    0  0.33885908119E+03 -0.64112065915E+02 -0.12181718518E+03  0.36575300478E+03  0.00000000000E+00 0. -1.
        -11    1    3    3    0    0  0.76954229570E+03 -0.26373208897E+03 -0.20798174082E+03  0.83964657096E+03  0.00000000000E+00 0.  1.
          4    1    6    6  502    0 -0.43113759589E+02  0.26238961123E+02  0.65994009307E+02  0.83081216958E+02  0.00000000000E+00 0. -1.
          1    1    5    5  503    0  0.39951388859E-01  0.11405833116E+02  0.54818200346E+02  0.55992229054E+02  0.00000000000E+00 0. -1.
         -2    1    5    5    0  503  0.14551241059E+03 -0.82560779613E+01  0.18063616222E+03  0.23210223515E+03  0.00000000000E+00 0.  1.
         -3    1    6    6    0  502 -0.12108399793E+04  0.29845543861E+03  0.17374400422E+04  0.21386694472E+04  0.00000000000E+00 0.  1.
<mgrwt>
<rscale>  0 0.32987962E+04</rscale>
<asrwt>0</asrwt>
<pdfrwt beam="1">  1        1 0.41725647E+00 0.32987962E+04</pdfrwt>
<pdfrwt beam="2">  1       -1 0.15431963E+00 0.32987962E+04</pdfrwt>
<totfact> 0.25771606E-01</totfact>
</mgrwt>
</event>
<event>
12    1  0.2404959E-007  0.2261096E+04  0.7818608E-02  0.8493420E-01
         -2   -1    0    0    0  501 -0.00000000000E+00  0.00000000000E+00  0.10023786633E+04  0.10023786633E+04  0.00000000000E+00 0.  1.
          2   -1    0    0  501    0  0.00000000000E+00 -0.00000000000E+00 -0.12751058588E+04  0.12751058588E+04  0.00000000000E+00 0. -1.
         23    2    1    2    0    0 -0.80104504907E+03 -0.43628498323E+03 -0.37740423548E+03  0.99120483121E+03  0.89639852918E+02 0.  0.
        254    2    1    2    0    0  0.80104504907E+03  0.43628498323E+03  0.10467704004E+03  0.12862796909E+04  0.90085537315E+03 0.  0.
        -24    2    4    4    0    0  0.82618477183E+02 -0.24927276594E+03  0.93373877934E+02  0.29000538119E+03  0.80135606475E+02 0.  0.
         24    2    4    4    0    0  0.71842657188E+03  0.68555774917E+03  0.11303162102E+02  0.99627430973E+03  0.79426520194E+02 0.  0.
         13    1    3    3    0    0 -0.29568225264E+03 -0.20344820623E+03 -0.12324222965E+03  0.37948361534E+03  0.00000000000E+00 0.  1.
        -13    1    3    3    0    0 -0.50536279643E+03 -0.23283677700E+03 -0.25416200583E+03  0.61172121587E+03  0.00000000000E+00 0. -1.
          2    1    6    6  502    0  0.15839633651E+03  0.14281793765E+03  0.34551002990E+02  0.21605585977E+03  0.00000000000E+00 0. -1.
          1    1    5    5  503    0  0.37759303403E+02 -0.11688526703E+03  0.17011321808E+01  0.12284471699E+03  0.00000000000E+00 0. -1.
         -2    1    5    5    0  503  0.44859173780E+02 -0.13238749891E+03  0.91672745753E+02  0.16716066420E+03  0.00000000000E+00 0.  1.
         -1    1    6    6    0  502  0.56003023537E+03  0.54273981152E+03 -0.23247840887E+02  0.78021844995E+03  0.00000000000E+00 0.  1.
<mgrwt>
<rscale>  0 0.22610961E+04</rscale>
<asrwt>0</asrwt>
<pdfrwt beam="1">  1        2 0.19617013E+00 0.22610961E+04</pdfrwt>
<pdfrwt beam="2">  1       -2 0.15421210E+00 0.22610961E+04</pdfrwt>
<totfact> 0.43275880E+00</totfact>
</mgrwt>
</event>
<event>
12    1  0.2404959E-007  0.1978349E+04  0.7818608E-02  0.8616811E-01
          2   -1    0    0  501    0  0.00000000000E+00  0.00000000000E+00  0.61034310129E+03  0.61034310129E+03  0.00000000000E+00 0. -1.
         -2   -1    0    0    0  501 -0.00000000000E+00 -0.00000000000E+00 -0.16031404504E+04  0.16031404504E+04  0.00000000000E+00 0.  1.
         23    2    1    2    0    0 -0.59385430748E+03 -0.47199516918E+03 -0.17124434718E+03  0.78316858567E+03  0.92660827211E+02 0.  0.
        254    2    1    2    0    0  0.59385430748E+03  0.47199516918E+03 -0.82155300190E+03  0.14303149660E+04  0.89185715714E+03 0.  0.
        -24    2    4    4    0    0  0.57401162012E+03  0.57889904241E+03 -0.26989978995E+03  0.86251624349E+03  0.80466964194E+02 0.  0.
         24    2    4    4    0    0  0.19842687358E+02 -0.10690387323E+03 -0.55165321195E+03  0.56779872249E+03  0.79069290249E+02 0.  0.
         11    1    3    3    0    0 -0.30990574775E+03 -0.30333110529E+03 -0.86247581787E+02  0.44214248528E+03  0.00000000000E+00 0. -1.
        -11    1    3    3    0    0 -0.28394855973E+03 -0.16866406389E+03 -0.84996765396E+02  0.34102610039E+03  0.00000000000E+00 0.  1.
          4    1    6    6  502    0  0.42049439650E+02 -0.10381427922E+03 -0.45673346867E+03  0.47026696816E+03  0.00000000000E+00 0. -1.
          1    1    5    5  503    0  0.41555280718E+03  0.46656805940E+03 -0.21330236572E+03  0.66020283915E+03  0.00000000000E+00 0. -1.
         -2    1    5    5    0  503  0.15845881295E+03  0.11233098302E+03 -0.56597424232E+02  0.20231340434E+03  0.00000000000E+00 0.  1.
         -3    1    6    6    0  502 -0.22206752292E+02 -0.30895940144E+01 -0.94919743279E+02  0.97531754330E+02  0.00000000000E+00 0.  1.
<mgrwt>
<rscale>  0 0.19783485E+04</rscale>
<asrwt>0</asrwt>
<pdfrwt beam="1">  1        2 0.93898938E-01 0.19783485E+04</pdfrwt>
<pdfrwt beam="2">  1       -2 0.24663699E+00 0.19783485E+04</pdfrwt>
<totfact> 0.30465264E+00</totfact>
</mgrwt>
</event>
<event>
12    1  0.2404959E-007  0.1765632E+04  0.7818608E-02  0.8724793E-01
         -2   -1    0    0    0  501 -0.00000000000E+00  0.00000000000E+00  0.69913045545E+03  0.69913045545E+03  0.00000000000E+00 0.  1.
          2   -1    0    0  501    0  0.00000000000E+00 -0.00000000000E+00 -0.11147617274E+04  0.11147617274E+04  0.00000000000E+00 0. -1.
         23    2    1    2    0    0 -0.67542357718E+02 -0.43107825695E+03  0.34122789657E+03  0.56140470325E+03  0.91369194625E+02 0.  0.
        254    2    1    2    0    0  0.67542357718E+02  0.43107825695E+03 -0.75685916854E+03  0.12524874796E+04  0.89749576708E+03 0.  0.
        -24    2    4    4    0    0 -0.22592862416E+03  0.16286842080E+03  0.98477182457E+02  0.30611963604E+03  0.80259643626E+02 0.  0.
         24    2    4    4    0    0  0.29347098188E+03  0.26820983615E+03 -0.85533635099E+03  0.94636784359E+03  0.77136817608E+02 0.  0.
         11    1    3    3    0    0 -0.21369688244E+02 -0.12723940213E+03  0.51122221628E+02  0.13878044017E+03  0.00000000000E+00 0. -1.
        -11    1    3    3    0    0 -0.46172669474E+02 -0.30383885482E+03  0.29010567494E+03  0.42262426308E+03  0.00000000000E+00 0.  1.
          2    1    6    6  502    0  0.33082236995E+02  0.49495924460E+02 -0.19089375724E+03  0.19996176509E+03  0.00000000000E+00 0. -1.
          1    1    5    5  503    0 -0.75690912809E+02  0.93476766731E+02  0.16390188799E+02  0.12139052059E+03  0.00000000000E+00 0. -1.
         -2    1    5    5    0  503 -0.15023771135E+03  0.69391654070E+02  0.82086993658E+02  0.18472911545E+03  0.00000000000E+00 0.  1.
         -1    1    6    6    0  502  0.26038874489E+03  0.21871391169E+03 -0.66444259375E+03  0.74640607850E+03  0.00000000000E+00 0.  1.
<mgrwt>
<rscale>  0 0.17656318E+04</rscale>
<asrwt>0</asrwt>
<pdfrwt beam="1">  1        2 0.17150180E+00 0.17656318E+04</pdfrwt>
<pdfrwt beam="2">  1       -2 0.10755853E+00 0.17656318E+04</pdfrwt>
<totfact> 0.14012014E+01</totfact>
</mgrwt>
</event>
<event>
12    1  0.2404959E-007  0.3831174E+04  0.7818608E-02  0.8039498E-01
         -2   -1    0    0    0  501 -0.00000000000E+00  0.00000000000E+00  0.10532733891E+04  0.10532733891E+04  0.00000000000E+00 0.  1.
          2   -1    0    0  501    0  0.00000000000E+00 -0.00000000000E+00 -0.34838750239E+04  0.34838750239E+04  0.00000000000E+00 0. -1.
         23    2    1    2    0    0  0.10878762051E+04 -0.13762881994E+04 -0.62801386339E+03  0.18654690409E+04  0.89047653804E+02 0.  0.
        254    2    1    2    0    0 -0.10878762051E+04  0.13762881994E+04 -0.18025877714E+04  0.26716793722E+04  0.90050216490E+03 0.  0.
        -24    2    4    4    0    0 -0.11357276014E+04  0.11432292084E+04 -0.18048584060E+04  0.24208762969E+04  0.79233651076E+02 0.  0.
         24    2    4    4    0    0  0.47851396359E+02  0.23305899100E+03  0.22706346187E+01  0.25080307533E+03  0.79314421111E+02 0.  0.
         13    1    3    3    0    0  0.24469903765E+03 -0.28646394455E+03 -0.99488246993E+02  0.38966283098E+03  0.00000000000E+00 0. -1.
        -13    1    3    3    0    0  0.84317716742E+03 -0.10898242548E+04 -0.52852561639E+03  0.14758062099E+04  0.00000000000E+00 0.  1.
          2    1    6    6  502    0 -0.13810743296E+02  0.99578120667E+02  0.20629581725E+02  0.10262610968E+03  0.00000000000E+00 0. -1.
          3    1    5    5  503    0 -0.17664150192E+02  0.29066643699E+02 -0.51352808332E+02  0.61595477931E+02  0.00000000000E+00 0. -1.
         -4    1    5    5    0  503 -0.11180634512E+04  0.11141625647E+04 -0.17535055977E+04  0.23592808189E+04  0.00000000000E+00 0.  1.
         -1    1    6    6    0  502  0.61662139655E+02  0.13348087033E+03 -0.18358947106E+02  0.14817696565E+03  0.00000000000E+00 0.  1.
<mgrwt>
<rscale>  0 0.38311736E+04</rscale>
<asrwt>0</asrwt>
<pdfrwt beam="1">  1        2 0.53598078E+00 0.38311736E+04</pdfrwt>
<pdfrwt beam="2">  1       -2 0.16204206E+00 0.38311736E+04</pdfrwt>
<totfact> 0.16207945E-01</totfact>
</mgrwt>
</event>
<event>
12    1  0.2404959E-007  0.2784650E+04  0.7818608E-02  0.8308050E-01
         -2   -1    0    0    0  501 -0.00000000000E+00  0.00000000000E+00  0.26238369300E+04  0.26238369300E+04  0.00000000000E+00 0.  1.
          2   -1    0    0  501    0  0.00000000000E+00 -0.00000000000E+00 -0.73882961472E+03  0.73882961472E+03  0.00000000000E+00 0. -1.
         23    2    1    2    0    0  0.96367489013E+03 -0.76885688660E+03  0.63358838484E+03  0.13891006665E+04  0.91412331805E+02 0.  0.
        254    2    1    2    0    0 -0.96367489013E+03  0.76885688660E+03  0.12514189304E+04  0.19735658782E+04  0.89950137862E+03 0.  0.
        -24    2    4    4    0    0 -0.20923105211E+03  0.16370500949E+03  0.89912474678E+03  0.94105188858E+03  0.81094903824E+02 0.  0.
         24    2    4    4    0    0 -0.75444383803E+03  0.60515187711E+03  0.35229418366E+03  0.10325139896E+04  0.81115028154E+02 0.  0.
         11    1    3    3    0    0  0.53826783853E+03 -0.45507513507E+03  0.40744106901E+03  0.81414609823E+03  0.00000000000E+00 0. -1.
        -11    1    3    3    0    0  0.42540705161E+03 -0.31378175154E+03  0.22614731583E+03  0.57495456830E+03  0.00000000000E+00 0.  1.
          2    1    6    6  502    0 -0.71724568056E+03  0.59150457897E+03  0.32706381048E+03  0.98554034385E+03  0.00000000000E+00 0. -1.
          3    1    5    5  503    0 -0.56723437320E+02  0.85644816298E+02  0.41434268150E+03  0.42688691783E+03  0.00000000000E+00 0. -1.
         -4    1    5    5    0  503 -0.15250761479E+03  0.78060193196E+02  0.48478206527E+03  0.51416497074E+03  0.00000000000E+00 0.  1.
         -1    1    6    6    0  502 -0.37198157468E+02  0.13647298139E+02  0.25230373176E+02  0.46973645761E+02  0.00000000000E+00 0.  1.
<mgrwt>
<rscale>  0 0.27846497E+04</rscale>
<asrwt>0</asrwt>
<pdfrwt beam="1">  1        2 0.11366610E+00 0.27846497E+04</pdfrwt>
<pdfrwt beam="2">  1       -2 0.40366722E+00 0.27846497E+04</pdfrwt>
<totfact> 0.23385601E-01</totfact>
</mgrwt>
</event>
<event>
12    1  0.2404959E-007  0.1135148E+04  0.7818608E-02  0.9171595E-01
         -2   -1    0    0    0  501 -0.00000000000E+00  0.00000000000E+00  0.45564114526E+03  0.45564114526E+03  0.00000000000E+00 0.  1.
          2   -1    0    0  501    0  0.00000000000E+00 -0.00000000000E+00 -0.70700465884E+03  0.70700465884E+03  0.00000000000E+00 0. -1.
         23    2    1    2    0    0 -0.15331427618E+03  0.80699181470E+02  0.43895575642E+02  0.20067202823E+03  0.91240430618E+02 0.  0.
        254    2    1    2    0    0  0.15331427618E+03 -0.80699181470E+02 -0.29525908922E+03  0.96197377587E+03  0.89899832621E+03 0.  0.
        -24    2    4    4    0    0  0.38394636791E+03 -0.34421804406E+03 -0.30108541967E+03  0.60269602147E+03  0.81787462828E+02 0.  0.
         24    2    4    4    0    0 -0.23063209172E+03  0.26351886259E+03  0.58263304542E+01  0.35927775440E+03  0.80082495014E+02 0.  0.
         11    1    3    3    0    0  0.82059942570E+01  0.22497967774E+02  0.82121093182E+01  0.25316706641E+02  0.00000000000E+00 0. -1.
        -11    1    3    3    0    0 -0.16152027044E+03  0.58201213696E+02  0.35683466324E+02  0.17535532158E+03  0.00000000000E+00 0.  1.
          4    1    6    6  502    0  0.30320091610E+01  0.22455658033E+02  0.64280611141E+01  0.23553548075E+02  0.00000000000E+00 0. -1.
          1    1    5    5  503    0  0.12450412051E+03 -0.14242552640E+03 -0.14761688125E+03  0.23995218320E+03  0.00000000000E+00 0. -1.
         -2    1    5    5    0  503  0.25944224740E+03 -0.20179251766E+03 -0.15346853843E+03  0.36274383827E+03  0.00000000000E+00 0.  1.
         -3    1    6    6    0  502 -0.23366410089E+03  0.24106320455E+03 -0.60173065989E+00  0.33572420632E+03  0.00000000000E+00 0.  1.
<mgrwt>
<rscale>  0 0.11351483E+04</rscale>
<asrwt>0</asrwt>
<pdfrwt beam="1">  1        2 0.10876995E+00 0.11351483E+04</pdfrwt>
<pdfrwt beam="2">  1       -2 0.70098638E-01 0.11351483E+04</pdfrwt>
<totfact> 0.74326332E+01</totfact>
</mgrwt>
</event>
<event>
12    1  0.2404959E-007  0.4406796E+04  0.7818608E-02  0.7927160E-01
         -1   -1    0    0    0  501 -0.00000000000E+00  0.00000000000E+00  0.17801836400E+04  0.17801836400E+04  0.00000000000E+00 0.  1.
          1   -1    0    0  501    0  0.00000000000E+00 -0.00000000000E+00 -0.27272252102E+04  0.27272252102E+04  0.00000000000E+00 0. -1.
         23    2    1    2    0    0  0.18727386750E+04  0.96955150589E+03 -0.52914266412E+03  0.21760816362E+04  0.90327521473E+02 0.  0.
        254    2    1    2    0    0 -0.18727386750E+04 -0.96955150589E+03 -0.41789890608E+03  0.23313272139E+04  0.90181307102E+03 0.  0.
        -24    2    4    4    0    0 -0.13995172490E+04 -0.24948856685E+03 -0.18953449351E+03  0.14364001665E+04  0.80181287934E+02 0.  0.
         24    2    4    4    0    0 -0.47322142605E+03 -0.72006293905E+03 -0.22836441258E+03  0.89492704740E+03  0.79466728741E+02 0.  0.
         13    1    3    3    0    0  0.71198940815E+03  0.33868161111E+03 -0.23360594270E+03  0.82231738854E+03  0.00000000000E+00 0. -1.
        -13    1    3    3    0    0  0.11607492669E+04  0.63086989479E+03 -0.29553672142E+03  0.13537642477E+04  0.00000000000E+00 0.  1.
          4    1    6    6  502    0 -0.12669638836E+03 -0.13416334046E+03 -0.44228239845E+02  0.18975751355E+03  0.00000000000E+00 0. -1.
          1    1    5    5  503    0 -0.82211772657E+03 -0.10883471385E+03 -0.96713493757E+02  0.83491080431E+03  0.00000000000E+00 0. -1.
         -2    1    5    5    0  503 -0.57739952240E+03 -0.14065385300E+03 -0.92820999749E+02  0.60148936219E+03  0.00000000000E+00 0.  1.
         -3    1    6    6    0  502 -0.34652503769E+03 -0.58589959858E+03 -0.18413617273E+03  0.70516953385E+03  0.00000000000E+00 0.  1.
<mgrwt>
<rscale>  0 0.44067955E+04</rscale>
<asrwt>0</asrwt>
<pdfrwt beam="1">  1        1 0.41957311E+00 0.44067955E+04</pdfrwt>
<pdfrwt beam="2">  1       -1 0.27387441E+00 0.44067955E+04</pdfrwt>
<totfact> 0.34662270E-02</totfact>
</mgrwt>
</event>
<event>
12    1  0.2404959E-007  0.2511298E+04  0.7818608E-02  0.8398972E-01
          2   -1    0    0  501    0  0.00000000000E+00  0.00000000000E+00  0.32295863566E+04  0.32295863566E+04  0.00000000000E+00 0.  1.
         -2   -1    0    0    0  501 -0.00000000000E+00 -0.00000000000E+00 -0.48819091430E+03  0.48819091430E+03  0.00000000000E+00 0. -1.
         23    2    1    2    0    0 -0.10189867802E+04  0.27476907811E+03  0.16197585907E+04  0.19352971623E+04  0.89023086692E+02 0.  0.
        254    2    1    2    0    0  0.10189867802E+04 -0.27476907811E+03  0.11216368517E+04  0.17824801086E+04  0.89740403722E+03 0.  0.
        -24    2    4    4    0    0  0.11068479235E+04 -0.33971536727E+03  0.73739648575E+03  0.13751680166E+04  0.82550833883E+02 0.  0.
         24    2    4    4    0    0 -0.87861143239E+02  0.64946289164E+02  0.38424036591E+03  0.40731209204E+03  0.79529117648E+02 0.  0.
         13    1    3    3    0    0 -0.48594668620E+03  0.17703892617E+03  0.78603094490E+03  0.94092061809E+03  0.00000000000E+00 0. -1.
        -13    1    3    3    0    0 -0.53304009402E+03  0.97730151934E+02  0.83372764576E+03  0.99437654424E+03  0.00000000000E+00 0.  1.
          4    1    6    6  502    0 -0.71853470506E+01 -0.12106480937E+02  0.11327330493E+02  0.18069435769E+02  0.00000000000E+00 0. -1.
          1    1    5    5  503    0  0.47346948552E+03 -0.11133383186E+03  0.28026968232E+03  0.56135520899E+03  0.00000000000E+00 0. -1.
         -2    1    5    5    0  503  0.63337843794E+03 -0.22838153541E+03  0.45712680343E+03  0.81381280758E+03  0.00000000000E+00 0.  1.
         -3    1    6    6    0  502 -0.80675796188E+02  0.77052770101E+02  0.37291303542E+03  0.38924265627E+03  0.00000000000E+00 0.  1.
<mgrwt>
<rscale>  0 0.25112982E+04</rscale>
<asrwt>0</asrwt>
<pdfrwt beam="1">  1        2 0.49685943E+00 0.25112982E+04</pdfrwt>
<pdfrwt beam="2">  1       -2 0.75106297E-01 0.25112982E+04</pdfrwt>
<totfact> 0.17599294E+00</totfact>
</mgrwt>
</event>
<event>
12    1  0.2404959E-007  0.1360783E+04  0.7818608E-02  0.8982705E-01
          1   -1    0    0  501    0  0.00000000000E+00  0.00000000000E+00  0.38328288977E+03  0.38328288977E+03  0.00000000000E+00 0. -1.
         -1   -1    0    0    0  501 -0.00000000000E+00 -0.00000000000E+00 -0.12078095027E+04  0.12078095027E+04  0.00000000000E+00 0.  1.
         23    2    1    2    0    0  0.94474844962E+02  0.20114031517E+02  0.18984955761E+03  0.23271707048E+03  0.93724648692E+02 0.  0.
        254    2    1    2    0    0 -0.94474844962E+02 -0.20114031517E+02 -0.10143761706E+04  0.13583753220E+04  0.89827302613E+03 0.  0.
        -24    2    4    4    0    0  0.26962363673E+03  0.11050384806E+03 -0.89666398877E+03  0.94612450651E+03  0.78976370776E+02 0.  0.
         24    2    4    4    0    0 -0.36409848169E+03 -0.13061787957E+03 -0.11771218178E+03  0.41225081550E+03  0.80410461430E+02 0.  0.
         13    1    3    3    0    0  0.62708317786E+00 -0.55518525075E+01  0.10039246949E+03  0.10054782061E+03  0.00000000000E+00 0. -1.
        -13    1    3    3    0    0  0.93847761785E+02  0.25665884024E+02  0.89457088114E+02  0.13216924986E+03  0.00000000000E+00 0.  1.
          4    1    6    6  502    0 -0.68727768159E+02  0.63324224324E+01 -0.12848976449E+02  0.70204714127E+02  0.00000000000E+00 0. -1.
          1    1    5    5  503    0  0.60079260805E+02 -0.31412862084E+01 -0.12978588732E+03  0.14305160539E+03  0.00000000000E+00 0. -1.
         -2    1    5    5    0  503  0.20954437593E+03  0.11364513427E+03 -0.76687810145E+03  0.80307290112E+03  0.00000000000E+00 0.  1.
         -3    1    6    6    0  502 -0.29537071353E+03 -0.13695030201E+03 -0.10486320533E+03  0.34204610138E+03  0.00000000000E+00 0.  1.
<mgrwt>
<rscale>  0 0.13607832E+04</rscale>
<asrwt>0</asrwt>
<pdfrwt beam="1">  1        1 0.58966598E-01 0.13607832E+04</pdfrwt>
<pdfrwt beam="2">  1       -1 0.18581685E+00 0.13607832E+04</pdfrwt>
<totfact> 0.11745759E+01</totfact>
</mgrwt>
</event>
<event>
12    1  0.2404959E-007  0.1888969E+04  0.7818608E-02  0.8660367E-01
         -1   -1    0    0    0  501 -0.00000000000E+00  0.00000000000E+00  0.11400016623E+04  0.11400016623E+04  0.00000000000E+00 0.  1.
          1   -1    0    0  501    0  0.00000000000E+00 -0.00000000000E+00 -0.78249981078E+03  0.78249981078E+03  0.00000000000E+00 0. -1.
         23    2    1    2    0    0 -0.63945709351E+03 -0.14180290364E+03  0.45942294332E+03  0.80532094154E+03  0.91972496483E+02 0.  0.
        254    2    1    2    0    0  0.63945709351E+03  0.14180290364E+03 -0.10192109181E+03  0.11171805315E+04  0.89927247993E+03 0.  0.
        -24    2    4    4    0    0 -0.20972440436E+03  0.51271444689E+02 -0.11349160036E+03  0.25906938794E+03  0.87312757302E+02 0.  0.
         24    2    4    4    0    0  0.84918149787E+03  0.90531458952E+02  0.11570508555E+02  0.85811114359E+03  0.83160667997E+02 0.  0.
         13    1    3    3    0    0 -0.11110582565E+03 -0.60440513405E+02  0.77654947564E+02  0.14841782587E+03  0.00000000000E+00 0. -1.
        -13    1    3    3    0    0 -0.52835126785E+03 -0.81362390236E+02  0.38176799575E+03  0.65690311567E+03  0.00000000000E+00 0.  1.
          4    1    6    6  502    0  0.45223068824E+03  0.21843407047E+02 -0.26061947672E+02  0.45350739237E+03  0.00000000000E+00 0. -1.
          3    1    5    5  503    0 -0.17565105275E+03  0.67097108608E+02 -0.67718652568E+02  0.19985277136E+03  0.00000000000E+00 0. -1.
         -4    1    5    5    0  503 -0.34073351612E+02 -0.15825663920E+02 -0.45772947797E+02  0.59216616575E+02  0.00000000000E+00 0.  1.
         -3    1    6    6    0  502  0.39695080963E+03  0.68688051905E+02  0.37632456227E+02  0.40460375122E+03  0.00000000000E+00 0.  1.
<mgrwt>
<rscale>  0 0.18889691E+04</rscale>
<asrwt>0</asrwt>
<pdfrwt beam="1">  1        1 0.12038459E+00 0.18889691E+04</pdfrwt>
<pdfrwt beam="2">  1       -1 0.17538487E+00 0.18889691E+04</pdfrwt>
<totfact> 0.48207155E+00</totfact>
</mgrwt>
</event>
<event>
12    1  0.2404959E-007  0.3017943E+04  0.7818608E-02  0.8238626E-01
          2   -1    0    0  501    0  0.00000000000E+00  0.00000000000E+00  0.18184610713E+04  0.18184610713E+04  0.00000000000E+00 0. -1.
         -2   -1    0    0    0  501 -0.00000000000E+00 -0.00000000000E+00 -0.12521548004E+04  0.12521548004E+04  0.00000000000E+00 0.  1.
         23    2    1    2    0    0 -0.12421764384E+04  0.38395386751E+03 -0.19086727337E+03  0.13172503947E+04  0.91079140984E+02 0.  0.
        254    2    1    2    0    0  0.12421764384E+04 -0.38395386751E+03  0.75717354431E+03  0.17533654770E+04  0.90030874893E+03 0.  0.
        -24    2    4    4    0    0  0.13351638785E+04 -0.29132774028E+03  0.50791476923E+03  0.14601461062E+04  0.80714335906E+02 0.  0.
         24    2    4    4    0    0 -0.92987440110E+02 -0.92626127232E+02  0.24925877509E+03  0.29321937082E+03  0.81371979229E+02 0.  0.
         13    1    3    3    0    0 -0.29656618411E+03  0.58213258872E+02 -0.22797523392E+02  0.30308416675E+03  0.00000000000E+00 0.  1.
        -13    1    3    3    0    0 -0.94561025425E+03  0.32574060864E+03 -0.16806974998E+03  0.10141662280E+04  0.00000000000E+00 0. -1.
          2    1    6    6  502    0 -0.36562886029E+02 -0.53924330640E+02  0.19590437526E+03  0.20645387455E+03  0.00000000000E+00 0. -1.
          1    1    5    5  503    0  0.13794278760E+03 -0.53224720126E+02  0.43559240580E+02  0.15413789580E+03  0.00000000000E+00 0. -1.
         -2    1    5    5    0  503  0.11972210909E+04 -0.23810302016E+03  0.46435552865E+03  0.13060082104E+04  0.00000000000E+00 0.  1.
         -1    1    6    6    0  502 -0.56424554081E+02 -0.38701796592E+02  0.53354399821E+02  0.86765496269E+02  0.00000000000E+00 0.  1.
<mgrwt>
<rscale>  0 0.30179428E+04</rscale>
<asrwt>0</asrwt>
<pdfrwt beam="1">  1        2 0.27976324E+00 0.30179428E+04</pdfrwt>
<pdfrwt beam="2">  1       -2 0.19263920E+00 0.30179428E+04</pdfrwt>
<totfact> 0.10721331E+00</totfact>
</mgrwt>
</event>
<event>
12    1  0.2404959E-007  0.6434797E+04  0.7818608E-02  0.7638711E-01
          2   -1    0    0  501    0  0.00000000000E+00  0.00000000000E+00  0.32085987293E+04  0.32085987293E+04  0.00000000000E+00 0. -1.
         -2   -1    0    0    0  501 -0.00000000000E+00 -0.00000000000E+00 -0.32262228043E+04  0.32262228043E+04  0.00000000000E+00 0.  1.
         23    2    1    2    0    0  0.15900903244E+04  0.20558920856E+04  0.17779891411E+04  0.31503322495E+04  0.90930680670E+02 0.  0.
        254    2    1    2    0    0 -0.15900903244E+04 -0.20558920856E+04 -0.17956132161E+04  0.32844892841E+04  0.89920160588E+03 0.  0.
        -24    2    4    4    0    0 -0.45115487300E+03 -0.12965891421E+04 -0.97834592607E+03  0.16878103947E+04  0.82819410459E+02 0.  0.
         24    2    4    4    0    0 -0.11389354514E+04 -0.75930294358E+03 -0.81726729002E+03  0.15966788894E+04  0.87992783016E+02 0.  0.
         11    1    3    3    0    0  0.83929595329E+03  0.10115906675E+04  0.89089373641E+03  0.15878995640E+04  0.00000000000E+00 0.  1.
        -11    1    3    3    0    0  0.75079437108E+03  0.10443014182E+04  0.88709540473E+03  0.15624326855E+04  0.00000000000E+00 0. -1.
          2    1    6    6  502    0 -0.64307790457E+02 -0.62528839291E+02 -0.70798069627E+02  0.11427035626E+03  0.00000000000E+00 0. -1.
          3    1    5    5  503    0 -0.47427802465E+02 -0.89096681879E+02 -0.54143948781E+02  0.11453899929E+03  0.00000000000E+00 0. -1.
         -4    1    5    5    0  503 -0.40372707053E+03 -0.12074924602E+04 -0.92420197729E+03  0.15732713954E+04  0.00000000000E+00 0.  1.
         -1    1    6    6    0  502 -0.10746276609E+04 -0.69677410429E+03 -0.74646922039E+03  0.14824085331E+04  0.00000000000E+00 0.  1.
<mgrwt>
<rscale>  0 0.64347974E+04</rscale>
<asrwt>0</asrwt>
<pdfrwt beam="1">  1        2 0.49363057E+00 0.64347974E+04</pdfrwt>
<pdfrwt beam="2">  1       -2 0.49634197E+00 0.64347974E+04</pdfrwt>
<totfact> 0.14653502E-03</totfact>
</mgrwt>
</event>
<event>
12    1  0.2404959E-007  0.1785869E+04  0.7818608E-02  0.8713851E-01
          1   -1    0    0  501    0  0.00000000000E+00  0.00000000000E+00  0.79929129813E+03  0.79929129813E+03  0.00000000000E+00 0. -1.
         -1   -1    0    0    0  501 -0.00000000000E+00 -0.00000000000E+00 -0.99754854347E+03  0.99754854347E+03  0.00000000000E+00 0.  1.
         23    2    1    2    0    0  0.59685313517E+03  0.28180563567E+03 -0.15026160205E+02  0.66615197657E+03  0.88795208997E+02 0.  0.
        254    2    1    2    0    0 -0.59685313517E+03 -0.28180563567E+03 -0.18323108514E+03  0.11306878650E+04  0.89957397488E+03 0.  0.
        -24    2    4    4    0    0 -0.42364657183E+03 -0.59612741822E+03 -0.19840930781E+03  0.76200915521E+03  0.80295595346E+02 0.  0.
         24    2    4    4    0    0 -0.17320656335E+03  0.31432178255E+03  0.15178222669E+02  0.36867870981E+03  0.83035631196E+02 0.  0.
         11    1    3    3    0    0  0.36799649848E+03  0.18352361226E+03 -0.51481253095E+02  0.41443052322E+03  0.00000000000E+00 0.  1.
        -11    1    3    3    0    0  0.22885663669E+03  0.98282023404E+02  0.36455092891E+02  0.25172145336E+03  0.00000000000E+00 0. -1.
          2    1    6    6  502    0 -0.11959740308E+01  0.67425180923E+02  0.12057508159E+01  0.67446565601E+02  0.00000000000E+00 0. -1.
          1    1    5    5  503    0 -0.34519516975E+03 -0.42580338035E+03 -0.14386424488E+03  0.56671434152E+03  0.00000000000E+00 0. -1.
         -2    1    5    5    0  503 -0.78451402082E+02 -0.17032403787E+03 -0.54545062929E+02  0.19529481369E+03  0.00000000000E+00 0.  1.
         -1    1    6    6    0  502 -0.17201058932E+03  0.24689660163E+03  0.13972471853E+02  0.30123214421E+03  0.00000000000E+00 0.  1.
<mgrwt>
<rscale>  0 0.17858688E+04</rscale>
<asrwt>0</asrwt>
<pdfrwt beam="1">  1        1 0.12296789E+00 0.17858688E+04</pdfrwt>
<pdfrwt beam="2">  1       -1 0.15346901E+00 0.17858688E+04</pdfrwt>
<totfact> 0.68594688E+00</totfact>
</mgrwt>
</event>
<event>
12    1  0.2404959E-007  0.2162756E+04  0.7818608E-02  0.8534092E-01
         -1   -1    0    0    0  501 -0.00000000000E+00  0.00000000000E+00  0.76428979882E+03  0.76428979882E+03  0.00000000000E+00 0.  1.
          1   -1    0    0  501    0  0.00000000000E+00 -0.00000000000E+00 -0.15300202703E+04  0.15300202703E+04  0.00000000000E+00 0. -1.
         23    2    1    2    0    0 -0.14632705473E+03 -0.13838170375E+03 -0.12387458104E+04  0.12582230875E+04  0.89850165089E+02 0.  0.
        254    2    1    2    0    0  0.14632705473E+03  0.13838170375E+03  0.47301533891E+03  0.10360869817E+04  0.89953967108E+03 0.  0.
        -24    2    4    4    0    0 -0.15105801162E+03 -0.28208935169E+03  0.38627209769E+03  0.50794642348E+03  0.80065663448E+02 0.  0.
         24    2    4    4    0    0  0.29738506635E+03  0.42047105544E+03  0.86743241221E+02  0.52814055818E+03  0.78576543218E+02 0.  0.
         11    1    3    3    0    0  0.77918951228E+01 -0.28503962187E+02 -0.22807125111E+03  0.22997757515E+03  0.00000000000E+00 0.  1.
        -11    1    3    3    0    0 -0.15411894985E+03 -0.10987774156E+03 -0.10106745593E+04  0.10282455123E+04  0.00000000000E+00 0. -1.
          2    1    6    6  502    0  0.12392253418E+03  0.15113287414E+03  0.69077090949E+02  0.20729106256E+03  0.00000000000E+00 0. -1.
          3    1    5    5  503    0  0.47652232127E+01 -0.21028150830E+02  0.50900447410E+02  0.55278802683E+02  0.00000000000E+00 0. -1.
         -4    1    5    5    0  503 -0.15582323483E+03 -0.26106120086E+03  0.33537165028E+03  0.45266762080E+03  0.00000000000E+00 0.  1.
         -1    1    6    6    0  502  0.17346253217E+03  0.26933818130E+03  0.17666150272E+02  0.32084949562E+03  0.00000000000E+00 0.  1.
<mgrwt>
<rscale>  0 0.21627565E+04</rscale>
<asrwt>0</asrwt>
<pdfrwt beam="1">  1        1 0.23538774E+00 0.21627565E+04</pdfrwt>
<pdfrwt beam="2">  1       -1 0.11758305E+00 0.21627565E+04</pdfrwt>
<totfact> 0.37107644E+00</totfact>
</mgrwt>
</event>
<event>
12    1  0.2404959E-007  0.4003582E+04  0.7818608E-02  0.8003824E-01
         -2   -1    0    0    0  501 -0.00000000000E+00  0.00000000000E+00  0.27747703683E+04  0.27747703683E+04  0.00000000000E+00 0.  1.
          2   -1    0    0  501    0  0.00000000000E+00 -0.00000000000E+00 -0.14441433762E+04  0.14441433762E+04  0.00000000000E+00 0. -1.
         23    2    1    2    0    0 -0.18568377363E+04  0.18942857250E+03  0.10055355849E+04  0.21220333868E+04  0.90522480195E+02 0.  0.
        254    2    1    2    0    0  0.18568377363E+04 -0.18942857250E+03  0.32509140721E+03  0.20968803577E+04  0.89860628112E+03 0.  0.
        -24    2    4    4    0    0  0.73651964969E+03  0.31403838805E+03  0.32032423666E+03  0.86602761346E+03  0.79466390031E+02 0.  0.
         24    2    4    4    0    0  0.11203180866E+04 -0.50346696055E+03  0.47671705529E+01  0.12308527442E+04  0.79900917077E+02 0.  0.
         13    1    3    3    0    0 -0.12413228308E+04  0.15184592234E+03  0.63412396383E+03  0.14021600322E+04  0.00000000000E+00 0. -1.
        -13    1    3    3    0    0 -0.61551490550E+03  0.37582650157E+02  0.37141162103E+03  0.71987335465E+03  0.00000000000E+00 0.  1.
          4    1    6    6  502    0  0.19730536564E+03 -0.12196085589E+03  0.81078561368E+01  0.23209824431E+03  0.00000000000E+00 0. -1.
          3    1    5    5  503    0  0.41482078828E+03  0.14631474288E+03  0.14552081007E+03  0.46331479205E+03  0.00000000000E+00 0. -1.
         -2    1    5    5    0  503  0.32169886141E+03  0.16772364517E+03  0.17480342659E+03  0.40271282141E+03  0.00000000000E+00 0.  1.
         -3    1    6    6    0  502  0.92301272093E+03 -0.38150610466E+03 -0.33406855839E+01  0.99875449990E+03  0.00000000000E+00 0.  1.
<mgrwt>
<rscale>  0 0.40035815E+04</rscale>
<asrwt>0</asrwt>
<pdfrwt beam="1">  1        2 0.22217590E+00 0.40035815E+04</pdfrwt>
<pdfrwt beam="2">  1       -2 0.42688775E+00 0.40035815E+04</pdfrwt>
<totfact> 0.53148518E-02</totfact>
</mgrwt>
</event>
<event>
12    1  0.2404959E-007  0.2869717E+04  0.7818608E-02  0.8281945E-01
          1   -1    0    0  501    0  0.00000000000E+00  0.00000000000E+00  0.25148671863E+04  0.25148671863E+04  0.00000000000E+00 0. -1.
         -1   -1    0    0    0  501 -0.00000000000E+00 -0.00000000000E+00 -0.81865931556E+03  0.81865931556E+03  0.00000000000E+00 0.  1.
         23    2    1    2    0    0 -0.11145807808E+04  0.31234093305E+03  0.99607961345E+02  0.11655848824E+04  0.93910578190E+02 0.  0.
        254    2    1    2    0    0  0.11145807808E+04 -0.31234093305E+03  0.15965999094E+04  0.21679416195E+04  0.90055117517E+03 0.  0.
        -24    2    4    4    0    0  0.97153671378E+03 -0.13821200554E+03  0.62293691825E+03  0.11652672406E+04  0.82529953157E+02 0.  0.
         24    2    4    4    0    0  0.14304406706E+03 -0.17412892751E+03  0.97366299117E+03  0.10026743789E+04  0.80955550366E+02 0.  0.
         13    1    3    3    0    0 -0.10443972118E+04  0.31430179862E+03  0.85853042720E+02  0.10940392596E+04  0.00000000000E+00 0.  1.
        -13    1    3    3    0    0 -0.70183569070E+02 -0.19608655678E+01  0.13754918625E+02  0.71545622840E+02  0.00000000000E+00 0. -1.
          2    1    6    6  502    0  0.78456319097E+02 -0.81327017596E+02  0.32145612842E+03  0.34073966645E+03  0.00000000000E+00 0. -1.
          3    1    5    5  503    0  0.10042127131E+03 -0.15848953762E+02  0.96141239109E+02  0.13992411845E+03  0.00000000000E+00 0. -1.
         -4    1    5    5    0  503  0.87111544247E+03 -0.12236305178E+03  0.52679567914E+03  0.10253431221E+04  0.00000000000E+00 0.  1.
         -1    1    6    6    0  502  0.64587747968E+02 -0.92801909913E+02  0.65220686276E+03  0.66193471241E+03  0.00000000000E+00 0.  1.
<mgrwt>
<rscale>  0 0.28697174E+04</rscale>
<asrwt>0</asrwt>
<pdfrwt beam="1">  1        1 0.38690264E+00 0.28697174E+04</pdfrwt>
<pdfrwt beam="2">  1       -1 0.12594759E+00 0.28697174E+04</pdfrwt>
<totfact> 0.62494835E-01</totfact>
</mgrwt>
</event>
<event>
12    1  0.2404959E-007  0.3092370E+04  0.7818608E-02  0.8217835E-01
         -1   -1    0    0    0  501 -0.00000000000E+00  0.00000000000E+00  0.15477822844E+04  0.15477822844E+04  0.00000000000E+00 0.  1.
          1   -1    0    0  501    0  0.00000000000E+00 -0.00000000000E+00 -0.15445898206E+04  0.15445898206E+04  0.00000000000E+00 0. -1.
         23    2    1    2    0    0 -0.30433425253E+03 -0.13621306485E+04 -0.22441794676E+03  0.14168579131E+04  0.95413260255E+02 0.  0.
        254    2    1    2    0    0  0.30433425253E+03  0.13621306485E+04  0.22761041052E+03  0.16755141919E+04  0.89862231631E+03 0.  0.
        -24    2    4    4    0    0  0.61513660485E+03  0.87310252060E+03  0.93322970656E+02  0.10752112242E+04  0.81663613023E+02 0.  0.
         24    2    4    4    0    0 -0.31080235231E+03  0.48902812794E+03  0.13428743987E+03  0.60030296771E+03  0.81141385360E+02 0.  0.
         11    1    3    3    0    0 -0.16345120379E+03 -0.65824088993E+03 -0.15453915499E+03  0.69561463155E+03  0.00000000000E+00 0. -1.
        -11    1    3    3    0    0 -0.14088304875E+03 -0.70388975860E+03 -0.69878791764E+02  0.72124328158E+03  0.00000000000E+00 0.  1.
          2    1    6    6  502    0 -0.43930197109E+02  0.13208172790E+03  0.38892537577E+02  0.14452707200E+03  0.00000000000E+00 0. -1.
          3    1    5    5  503    0  0.25178302460E+03  0.30594996530E+03  0.60732334468E+02  0.40085968766E+03  0.00000000000E+00 0. -1.
         -4    1    5    5    0  503  0.36335358025E+03  0.56715255530E+03  0.32590636188E+02  0.67435153654E+03  0.00000000000E+00 0.  1.
         -1    1    6    6    0  502 -0.26687215521E+03  0.35694640004E+03  0.95394902290E+02  0.45577589571E+03  0.00000000000E+00 0.  1.
<mgrwt>
<rscale>  0 0.30923705E+04</rscale>
<asrwt>0</asrwt>
<pdfrwt beam="1">  1        1 0.23762920E+00 0.30923705E+04</pdfrwt>
<pdfrwt beam="2">  1       -1 0.23812035E+00 0.30923705E+04</pdfrwt>
<totfact> 0.42915493E-01</totfact>
</mgrwt>
</event>
<event>
12    1  0.2404959E-007  0.1409478E+04  0.7818608E-02  0.8946986E-01
         -2   -1    0    0    0  501 -0.00000000000E+00  0.00000000000E+00  0.26777685219E+03  0.26777685219E+03  0.00000000000E+00 0. -1.
          2   -1    0    0  501    0  0.00000000000E+00 -0.00000000000E+00 -0.18547421943E+04  0.18547421943E+04  0.00000000000E+00 0.  1.
         23    2    1    2    0    0 -0.26553905007E+03  0.26714946513E+03 -0.22692688045E+03  0.44929305290E+03  0.92133677229E+02 0.  0.
        254    2    1    2    0    0  0.26553905007E+03 -0.26714946513E+03 -0.13600384617E+04  0.16732259936E+04  0.89894426112E+03 0.  0.
        -24    2    4    4    0    0 -0.11645889674E+03 -0.25741578440E+03 -0.39695619480E+02  0.29632394307E+03  0.80041091592E+02 0.  0.
         24    2    4    4    0    0  0.38199794681E+03 -0.97336807304E+01 -0.13203428422E+04  0.13769020506E+04  0.80850849748E+02 0.  0.
         13    1    3    3    0    0 -0.10582891517E+03  0.11474689991E+03 -0.14726791151E+03  0.21460300111E+03  0.00000000000E+00 0.  1.
        -13    1    3    3    0    0 -0.15971013490E+03  0.15240256522E+03 -0.79658968942E+02  0.23469005179E+03  0.00000000000E+00 0. -1.
          4    1    6    6  502    0  0.10719326852E+02 -0.13904610557E+02 -0.92281990990E+02  0.93937255783E+02  0.00000000000E+00 0. -1.
          3    1    5    5  503    0 -0.13934981777E+02 -0.12297070220E+03 -0.58643503129E+01  0.12389660173E+03  0.00000000000E+00 0. -1.
         -4    1    5    5    0  503 -0.10252391496E+03 -0.13444508220E+03 -0.33831269167E+02  0.17242734134E+03  0.00000000000E+00 0.  1.
         -3    1    6    6    0  502  0.37127861996E+03  0.41709298262E+01 -0.12280608512E+04  0.12829647948E+04  0.00000000000E+00 0.  1.
<mgrwt>
<rscale>  0 0.14094780E+04</rscale>
<asrwt>0</asrwt>
<pdfrwt beam="1">  1        2 0.28534496E+00 0.14094780E+04</pdfrwt>
<pdfrwt beam="2">  1       -2 0.41196438E-01 0.14094780E+04</pdfrwt>
<totfact> 0.43683779E+01</totfact>
</mgrwt>
</event>
<event>
12    1  0.2404959E-007  0.1941659E+04  0.7818608E-02  0.8634393E-01
         -2   -1    0    0    0  501 -0.00000000000E+00  0.00000000000E+00  0.60893463400E+03  0.60893463400E+03  0.00000000000E+00 0.  1.
          2   -1    0    0  501    0  0.00000000000E+00 -0.00000000000E+00 -0.15478019059E+04  0.15478019059E+04  0.00000000000E+00 0. -1.
         23    2    1    2    0    0 -0.63282429172E+03 -0.51180587285E+02  0.92593955398E+02  0.64799286630E+03  0.90747327729E+02 0.  0.
        254    2    1    2    0    0  0.63282429172E+03  0.51180587285E+02 -0.10314612273E+04  0.15087436736E+04  0.89961612509E+03 0.  0.
        -24    2    4    4    0    0  0.39789042369E+03 -0.37951600493E+03 -0.76217079053E+03  0.94324543259E+03  0.80364450467E+02 0.  0.
         24    2    4    4    0    0  0.23493386803E+03  0.43069659222E+03 -0.26929043679E+03  0.56549824103E+03  0.81101444925E+02 0.  0.
         13    1    3    3    0    0 -0.35543920887E+03 -0.68954982150E+02  0.72978224091E+02  0.36934758962E+03  0.00000000000E+00 0.  1.
        -13    1    3    3    0    0 -0.27738508285E+03  0.17774394866E+02  0.19615731307E+02  0.27864527668E+03  0.00000000000E+00 0. -1.
          2    1    6    6  502    0  0.23271273331E+03  0.37830728787E+03 -0.23149946808E+03  0.50086287946E+03  0.00000000000E+00 0. -1.
          3    1    5    5  503    0  0.40112028310E+03 -0.37826034831E+03 -0.75171651428E+03  0.93223177936E+03  0.00000000000E+00 0. -1.
         -4    1    5    5    0  503 -0.32298594139E+01 -0.12556566245E+01 -0.10454276252E+02  0.11013653224E+02  0.00000000000E+00 0.  1.
         -1    1    6    6    0  502  0.22211347213E+01  0.52389304346E+02 -0.37790968718E+02  0.64635361575E+02  0.00000000000E+00 0.  1.
<mgrwt>
<rscale>  0 0.19416593E+04</rscale>
<asrwt>0</asrwt>
<pdfrwt beam="1">  1        2 0.23812337E+00 0.19416593E+04</pdfrwt>
<pdfrwt beam="2">  1       -2 0.93682251E-01 0.19416593E+04</pdfrwt>
<totfact> 0.10723574E+01</totfact>
</mgrwt>
</event>
<event>
12    1  0.2404959E-007  0.1394547E+04  0.7818608E-02  0.8957775E-01
         -3   -1    0    0    0  501 -0.00000000000E+00  0.00000000000E+00  0.13621953283E+04  0.13621953283E+04  0.00000000000E+00 0.  1.
          3   -1    0    0  501    0  0.00000000000E+00 -0.00000000000E+00 -0.35691699160E+03  0.35691699160E+03  0.00000000000E+00 0. -1.
         23    2    1    2    0    0  0.11547635641E+03  0.29494500642E+03  0.59472685701E+03  0.67992669425E+03  0.90955645263E+02 0.  0.
        254    2    1    2    0    0 -0.11547635641E+03 -0.29494500642E+03  0.41055147968E+03  0.10391856256E+04  0.90057032007E+03 0.  0.
        -24    2    4    4    0    0  0.10907650985E+03 -0.49015054076E+03 -0.21555500856E+02  0.50891965952E+03  0.79933363651E+02 0.  0.
         24    2    4    4    0    0 -0.22455286626E+03  0.19520553435E+03  0.43210698054E+03  0.53026596612E+03  0.77047789159E+02 0.  0.
         13    1    3    3    0    0  0.30688706958E+02  0.14266696015E+03  0.35249310108E+03  0.38150628378E+03  0.00000000000E+00 0.  1.
        -13    1    3    3    0    0  0.84787649453E+02  0.15227804626E+03  0.24223375593E+03  0.29842041047E+03  0.00000000000E+00 0. -1.
          4    1    6    6  502    0 -0.16910845584E+03  0.11357989032E+03  0.24408304038E+03  0.31792230485E+03  0.00000000000E+00 0. -1.
          3    1    5    5  503    0  0.82526200288E+02 -0.19096974705E+03 -0.47321377656E+01  0.20809231401E+03  0.00000000000E+00 0. -1.
         -4    1    5    5    0  503  0.26550309559E+02 -0.29918079372E+03 -0.16823363091E+02  0.30082734552E+03  0.00000000000E+00 0.  1.
         -3    1    6    6    0  502 -0.55444410421E+02  0.81625644028E+02  0.18802394016E+03  0.21234366127E+03  0.00000000000E+00 0.  1.
<mgrwt>
<rscale>  0 0.13945475E+04</rscale>
<asrwt>0</asrwt>
<pdfrwt beam="1">  1        3 0.54910307E-01 0.13945475E+04</pdfrwt>
<pdfrwt beam="2">  1       -3 0.20956851E+00 0.13945475E+04</pdfrwt>
<totfact> 0.10649295E+00</totfact>
</mgrwt>
</event>
<event>
12    1  0.2404959E-007  0.3408392E+04  0.7818608E-02  0.8135850E-01
         -2   -1    0    0    0  501 -0.00000000000E+00  0.00000000000E+00  0.68736609969E+03  0.68736609969E+03  0.00000000000E+00 0.  1.
          2   -1    0    0  501    0  0.00000000000E+00 -0.00000000000E+00 -0.42252355527E+04  0.42252355527E+04  0.00000000000E+00 0. -1.
         23    2    1    2    0    0  0.15789983757E+04 -0.12219026411E+03 -0.16074134431E+04  0.22583839342E+04  0.91398501720E+02 0.  0.
        254    2    1    2    0    0 -0.15789983757E+04  0.12219026411E+03 -0.19304560099E+04  0.26542177181E+04  0.90002497625E+03 0.  0.
        -24    2    4    4    0    0 -0.10122174968E+04  0.23211381038E+02 -0.17863009797E+04  0.20548379712E+04  0.79780128377E+02 0.  0.
         24    2    4    4    0    0 -0.56678087895E+03  0.98978883071E+02 -0.14415503021E+03  0.59937974693E+03  0.86243980958E+02 0.  0.
         11    1    3    3    0    0  0.10533295222E+04 -0.81013704589E+02 -0.11326830138E+04  0.15488825367E+04  0.00000000000E+00 0. -1.
        -11    1    3    3    0    0  0.52566885352E+03 -0.41176559520E+02 -0.47473042930E+03  0.70950139755E+03  0.00000000000E+00 0.  1.
          2    1    6    6  502    0 -0.54487605616E+02 -0.99892521276E+01  0.25907144972E+01  0.55456254159E+02  0.00000000000E+00 0. -1.
          1    1    5    5  503    0 -0.59418318641E+03  0.38526063276E+02 -0.98715377120E+03  0.11528271703E+04  0.00000000000E+00 0. -1.
         -2    1    5    5    0  503 -0.41803431038E+03 -0.15314682239E+02 -0.79914720847E+03  0.90201080090E+03  0.00000000000E+00 0.  1.
         -1    1    6    6    0  502 -0.51229327334E+03  0.10896813520E+03 -0.14674574471E+03  0.54392349277E+03  0.00000000000E+00 0.  1.
<mgrwt>
<rscale>  0 0.34083918E+04</rscale>
<asrwt>0</asrwt>
<pdfrwt beam="1">  1        2 0.65003624E+00 0.34083918E+04</pdfrwt>
<pdfrwt beam="2">  1       -2 0.10574863E+00 0.34083918E+04</pdfrwt>
<totfact> 0.13182599E-01</totfact>
</mgrwt>
</event>
<event>
12    1  0.2404959E-007  0.2572403E+04  0.7818608E-02  0.8377636E-01
         -2   -1    0    0    0  501 -0.00000000000E+00  0.00000000000E+00  0.15483296304E+04  0.15483296304E+04  0.00000000000E+00 0. -1.
          2   -1    0    0  501    0  0.00000000000E+00 -0.00000000000E+00 -0.10684506839E+04  0.10684506839E+04  0.00000000000E+00 0.  1.
         23    2    1    2    0    0  0.10954450181E+04  0.53518821326E+02  0.47349707373E+03  0.11980022811E+04  0.90254832911E+02 0.  0.
        254    2    1    2    0    0 -0.10954450181E+04 -0.53518821326E+02  0.63818727526E+01  0.14187780332E+04  0.90001462621E+03 0.  0.
        -24    2    4    4    0    0 -0.77901471101E+03  0.34240184030E+03  0.18710402039E+03  0.87481759727E+03  0.78708156154E+02 0.  0.
         24    2    4    4    0    0 -0.31643030706E+03 -0.39592066163E+03 -0.18072214764E+03  0.54396043594E+03  0.79694113321E+02 0.  0.
         11    1    3    3    0    0  0.84772176481E+03  0.15916589099E+02  0.39553547549E+03  0.93559277504E+03  0.00000000000E+00 0. -1.
        -11    1    3    3    0    0  0.24772325326E+03  0.37602232227E+02  0.77961598236E+02  0.26240950606E+03  0.00000000000E+00 0.  1.
          2    1    6    6  502    0 -0.76438504829E+02 -0.48343953959E+02 -0.25614971371E+02  0.94000583314E+02  0.00000000000E+00 0. -1.
          3    1    5    5  503    0 -0.10914938717E+02  0.63064177217E+01 -0.67291573927E+01  0.14289448936E+02  0.00000000000E+00 0. -1.
         -4    1    5    5    0  503 -0.76809977229E+03  0.33609542258E+03  0.19383317778E+03  0.86052814834E+03  0.00000000000E+00 0.  1.
         -1    1    6    6    0  502 -0.23999180223E+03 -0.34757670767E+03 -0.15510717626E+03  0.44995985263E+03  0.00000000000E+00 0.  1.
<mgrwt>
<rscale>  0 0.25724027E+04</rscale>
<asrwt>0</asrwt>
<pdfrwt beam="1">  1        2 0.16437703E+00 0.25724027E+04</pdfrwt>
<pdfrwt beam="2">  1       -2 0.23820456E+00 0.25724027E+04</pdfrwt>
<totfact> 0.15355843E+00</totfact>
</mgrwt>
</event>
<event>
12    1  0.2404959E-007  0.1198075E+04  0.7818608E-02  0.9114543E-01
          1   -1    0    0  501    0  0.00000000000E+00  0.00000000000E+00  0.26270087711E+04  0.26270087711E+04  0.00000000000E+00 0. -1.
         -1   -1    0    0    0  501 -0.00000000000E+00 -0.00000000000E+00 -0.13659862448E+03  0.13659862448E+03  0.00000000000E+00 0.  1.
         23    2    1    2    0    0  0.13934671844E+03  0.16689117076E+03  0.84923020758E+03  0.88125648231E+03  0.90282176199E+02 0.  0.
        254    2    1    2    0    0 -0.13934671844E+03 -0.16689117076E+03  0.16411799391E+04  0.18823509133E+04  0.89582542807E+03 0.  0.
        -24    2    4    4    0    0 -0.64453950730E+02  0.13884682502E+03  0.15295158147E+04  0.15392018880E+04  0.79316278414E+02 0.  0.
         24    2    4    4    0    0 -0.74892767707E+02 -0.30573799578E+03  0.11166412436E+03  0.34314902529E+03  0.78725651287E+02 0.  0.
         11    1    3    3    0    0  0.69221747947E+02  0.11573533257E+03  0.65153046288E+03  0.66534071096E+03  0.00000000000E+00 0. -1.
        -11    1    3    3    0    0  0.70124970490E+02  0.51155838194E+02  0.19769974469E+03  0.21591577135E+03  0.00000000000E+00 0.  1.
          4    1    6    6  502    0 -0.21813707745E+02 -0.10187894907E+02  0.58917826885E+01  0.24785966826E+02  0.00000000000E+00 0. -1.
          3    1    5    5  503    0 -0.15445418761E+02  0.13011628384E+02  0.55575237551E+03  0.55611920154E+03  0.00000000000E+00 0. -1.
         -4    1    5    5    0  503 -0.49008531969E+02  0.12583519664E+03  0.97376343919E+03  0.98308268646E+03  0.00000000000E+00 0.  1.
         -3    1    6    6    0  502 -0.53079059961E+02 -0.29555010087E+03  0.10577234167E+03  0.31836305847E+03  0.00000000000E+00 0.  1.
<mgrwt>
<rscale>  0 0.11980748E+04</rscale>
<asrwt>0</asrwt>
<pdfrwt beam="1">  1        1 0.40415516E+00 0.11980748E+04</pdfrwt>
<pdfrwt beam="2">  1       -1 0.21015175E-01 0.11980748E+04</pdfrwt>
<totfact> 0.20743201E+01</totfact>
</mgrwt>
</event>
<event>
12    1  0.2404959E-007  0.2155838E+04  0.7818608E-02  0.8537037E-01
         -2   -1    0    0    0  501 -0.00000000000E+00  0.00000000000E+00  0.25626398118E+04  0.25626398118E+04  0.00000000000E+00 0. -1.
          2   -1    0    0  501    0  0.00000000000E+00 -0.00000000000E+00 -0.45340339549E+03  0.45340339549E+03  0.00000000000E+00 0.  1.
         23    2    1    2    0    0 -0.29248511170E+03 -0.83127417736E+03  0.71241435665E+03  0.11368171998E+04  0.90856104870E+02 0.  0.
        254    2    1    2    0    0  0.29248511170E+03  0.83127417736E+03  0.13968220596E+04  0.18792260074E+04  0.89655687056E+03 0.  0.
        -24    2    4    4    0    0  0.55678098401E+03  0.60965450512E+03  0.65331649764E+03  0.10558960798E+04  0.80065008278E+02 0.  0.
         24    2    4    4    0    0 -0.26429587231E+03  0.22161967225E+03  0.74350556201E+03  0.82332992760E+03  0.78128494758E+02 0.  0.
         11    1    3    3    0    0 -0.16761765410E+03 -0.37188103193E+03  0.36623920349E+03  0.54819917370E+03  0.00000000000E+00 0.  1.
        -11    1    3    3    0    0 -0.12486745760E+03 -0.45939314543E+03  0.34617515316E+03  0.58861802615E+03  0.00000000000E+00 0. -1.
          4    1    6    6  502    0 -0.15433519274E+03  0.92556046963E+02  0.31979303690E+03  0.36695171344E+03  0.00000000000E+00 0. -1.
          3    1    5    5  503    0  0.31603746494E+03  0.39575105969E+03  0.42463132672E+03  0.66091629132E+03  0.00000000000E+00 0. -1.
         -4    1    5    5    0  503  0.24074351906E+03  0.21390344543E+03  0.22868517092E+03  0.39497978851E+03  0.00000000000E+00 0.  1.
         -3    1    6    6    0  502 -0.10996067957E+03  0.12906362528E+03  0.42371252511E+03  0.45637821416E+03  0.00000000000E+00 0.  1.
<mgrwt>
<rscale>  0 0.21558382E+04</rscale>
<asrwt>0</asrwt>
<pdfrwt beam="1">  1        2 0.69754370E-01 0.21558382E+04</pdfrwt>
<pdfrwt beam="2">  1       -2 0.39425227E+00 0.21558382E+04</pdfrwt>
<totfact> 0.51283347E-01</totfact>
</mgrwt>
</event>
<event>
12    1  0.2404959E-007  0.2245473E+04  0.7818608E-02  0.8499736E-01
         -1   -1    0    0    0  501 -0.00000000000E+00  0.00000000000E+00  0.19788835269E+04  0.19788835269E+04  0.00000000000E+00 0.  1.
          1   -1    0    0  501    0  0.00000000000E+00 -0.00000000000E+00 -0.63699438724E+03  0.63699438724E+03  0.00000000000E+00 0. -1.
         23    2    1    2    0    0  0.73058385037E+03  0.18149381335E+03 -0.97035708658E+02  0.76518412629E+03  0.96943548801E+02 0.  0.
        254    2    1    2    0    0 -0.73058385037E+03 -0.18149381335E+03  0.14389248483E+04  0.18506937879E+04  0.88762042034E+03 0.  0.
        -24    2    4    4    0    0 -0.62246567848E+03 -0.36316706287E+03  0.14535489443E+04  0.16243700109E+04  0.80122170851E+02 0.  0.
         24    2    4    4    0    0 -0.10811817189E+03  0.18167324952E+03 -0.14624095966E+02  0.22632377701E+03  0.79459921806E+02 0.  0.
         11    1    3    3    0    0  0.13601406968E+03  0.22686747701E+02  0.18156620084E+02  0.13908335100E+03  0.00000000000E+00 0.  1.
        -11    1    3    3    0    0  0.59456978069E+03  0.15880706565E+03 -0.11519232874E+03  0.62610077528E+03  0.00000000000E+00 0. -1.
          2    1    6    6  502    0 -0.26150233324E+02  0.79732424723E+02 -0.40192612462E+02  0.93040530693E+02  0.00000000000E+00 0. -1.
          3    1    5    5  503    0 -0.23249443850E+03 -0.96074028158E+02  0.46754073225E+03  0.53092204619E+03  0.00000000000E+00 0. -1.
         -4    1    5    5    0  503 -0.38997123998E+03 -0.26709303472E+03  0.98600821206E+03  0.10934479647E+04  0.00000000000E+00 0.  1.
         -1    1    6    6    0  502 -0.81967938565E+02  0.10194082480E+03  0.25568516497E+02  0.13328324632E+03  0.00000000000E+00 0.  1.
<mgrwt>
<rscale>  0 0.22454734E+04</rscale>
<asrwt>0</asrwt>
<pdfrwt beam="1">  1        1 0.97999138E-01 0.22454734E+04</pdfrwt>
<pdfrwt beam="2">  1       -1 0.30444362E+00 0.22454734E+04</pdfrwt>
<totfact> 0.88100148E-01</totfact>
</mgrwt>
</event>
<event>
12    1  0.2404959E-007  0.2164693E+04  0.7818608E-02  0.8533269E-01
          2   -1    0    0  501    0  0.00000000000E+00  0.00000000000E+00  0.24327573520E+04  0.24327573520E+04  0.00000000000E+00 0. -1.
         -2   -1    0    0    0  501 -0.00000000000E+00 -0.00000000000E+00 -0.48154154626E+03  0.48154154626E+03  0.00000000000E+00 0.  1.
         23    2    1    2    0    0 -0.37873326553E+02  0.67644855440E+03  0.26853106255E+02  0.68429625162E+03  0.92321368329E+02 0.  0.
        254    2    1    2    0    0  0.37873326553E+02 -0.67644855440E+03  0.19243626994E+04  0.22300026466E+04  0.90040155995E+03 0.  0.
        -24    2    4    4    0    0 -0.29254654617E+03 -0.59747791965E+03  0.75462596911E+03  0.10092031962E+04  0.80420095660E+02 0.  0.
         24    2    4    4    0    0  0.33041987272E+03 -0.78970634758E+02  0.11697367303E+04  0.12207994504E+04  0.81569763845E+02 0.  0.
         13    1    3    3    0    0  0.20855907403E+02  0.17930109457E+03 -0.19451229462E+02  0.18155495508E+03  0.00000000000E+00 0.  1.
        -13    1    3    3    0    0 -0.58729233956E+02  0.49714745984E+03  0.46304335717E+02  0.50274129654E+03  0.00000000000E+00 0. -1.
          4    1    6    6  502    0  0.96769447125E+01 -0.10831688681E+02  0.12430154486E+03  0.12514728440E+03  0.00000000000E+00 0. -1.
          3    1    5    5  503    0 -0.23865320275E+02 -0.14059596445E+02  0.34492480276E+02  0.44237506255E+02  0.00000000000E+00 0. -1.
         -4    1    5    5    0  503 -0.26868122589E+03 -0.58341832320E+03  0.72013348883E+03  0.96496568992E+03  0.00000000000E+00 0.  1.
         -3    1    6    6    0  502  0.32074292801E+03 -0.68138946077E+02  0.10454351855E+04  0.10956521660E+04  0.00000000000E+00 0.  1.
<mgrwt>
<rscale>  0 0.21646928E+04</rscale>
<asrwt>0</asrwt>
<pdfrwt beam="1">  1        2 0.37427036E+00 0.21646928E+04</pdfrwt>
<pdfrwt beam="2">  1       -2 0.74083316E-01 0.21646928E+04</pdfrwt>
<totfact> 0.57268945E+00</totfact>
</mgrwt>
</event>
<event>
12    1  0.2404959E-007  0.1890711E+04  0.7818608E-02  0.8659494E-01
          1   -1    0    0  501    0  0.00000000000E+00  0.00000000000E+00  0.73718169323E+03  0.73718169323E+03  0.00000000000E+00 0. -1.
         -1   -1    0    0    0  501 -0.00000000000E+00 -0.00000000000E+00 -0.12123153428E+04  0.12123153428E+04  0.00000000000E+00 0.  1.
         23    2    1    2    0    0  0.58593363652E+03 -0.39966131348E+03 -0.17272420290E+02  0.71527958228E+03  0.90989847942E+02 0.  0.
        254    2    1    2    0    0 -0.58593363652E+03  0.39966131348E+03 -0.45786122924E+03  0.12342174537E+04  0.90033795094E+03 0.  0.
        -24    2    4    4    0    0 -0.25570767167E+03 -0.20749120348E+03  0.87375632430E+02  0.35024667192E+03  0.81235565968E+02 0.  0.
         24    2    4    4    0    0 -0.33022596486E+03  0.60715251696E+03 -0.54523686167E+03  0.88397078179E+03  0.80235534580E+02 0.  0.
         11    1    3    3    0    0  0.44609384432E+03 -0.31279518656E+03 -0.51081858411E+02  0.54722015948E+03  0.00000000000E+00 0.  1.
        -11    1    3    3    0    0  0.13983979220E+03 -0.86866126918E+02  0.33809438121E+02  0.16805942281E+03  0.00000000000E+00 0. -1.
          2    1    6    6  502    0 -0.28548845393E+03  0.56858082934E+03 -0.48934357972E+03  0.80264871260E+03  0.00000000000E+00 0. -1.
          3    1    5    5  503    0 -0.96281460947E+02 -0.44896220614E+02 -0.30465432615E+00  0.10623503735E+03  0.00000000000E+00 0. -1.
         -4    1    5    5    0  503 -0.15942621072E+03 -0.16259498287E+03  0.87680286756E+02  0.24401163457E+03  0.00000000000E+00 0.  1.
         -1    1    6    6    0  502 -0.44737510924E+02  0.38571687617E+02 -0.55893281956E+02  0.81322069189E+02  0.00000000000E+00 0.  1.
<mgrwt>
<rscale>  0 0.18907106E+04</rscale>
<asrwt>0</asrwt>
<pdfrwt beam="1">  1        1 0.11341257E+00 0.18907106E+04</pdfrwt>
<pdfrwt beam="2">  1       -1 0.18651005E+00 0.18907106E+04</pdfrwt>
<totfact> 0.44049982E+00</totfact>
</mgrwt>
</event>
<event>
12    1  0.2404959E-007  0.1742125E+04  0.7818608E-02  0.8737697E-01
         -1   -1    0    0    0  501 -0.00000000000E+00  0.00000000000E+00  0.44217458891E+03  0.44217458891E+03  0.00000000000E+00 0.  1.
          1   -1    0    0  501    0  0.00000000000E+00 -0.00000000000E+00 -0.17159509745E+04  0.17159509745E+04  0.00000000000E+00 0. -1.
         23    2    1    2    0    0 -0.90668882073E+02  0.49126313460E+03 -0.95261300780E+03  0.10795187726E+04  0.91262939717E+02 0.  0.
        254    2    1    2    0    0  0.90668882073E+02 -0.49126313460E+03 -0.32116337778E+03  0.10786067908E+04  0.90038124166E+03 0.  0.
        -24    2    4    4    0    0  0.31871913660E+03 -0.61548737275E+03 -0.57495532821E+02  0.70016429014E+03  0.80732291229E+02 0.  0.
         24    2    4    4    0    0 -0.22805025453E+03  0.12422423815E+03 -0.26366784496E+03  0.37844250065E+03  0.79116457840E+02 0.  0.
         11    1    3    3    0    0 -0.44599575406E+02  0.23006028882E+03 -0.35108520484E+03  0.42211098029E+03  0.00000000000E+00 0. -1.
        -11    1    3    3    0    0 -0.46069306667E+02  0.26120284578E+03 -0.60152780296E+03  0.65740779231E+03  0.00000000000E+00 0.  1.
          4    1    6    6  502    0 -0.96594760107E+02  0.95188545516E+02 -0.15034013870E+03  0.20246867457E+03  0.00000000000E+00 0. -1.
          1    1    5    5  503    0  0.25515387730E+03 -0.54765636616E+03 -0.39415726118E+02  0.60546229938E+03  0.00000000000E+00 0. -1.
         -2    1    5    5    0  503  0.63565259306E+02 -0.67831006586E+02 -0.18079806704E+02  0.94701990768E+02  0.00000000000E+00 0.  1.
         -3    1    6    6    0  502 -0.13145549442E+03  0.29035692631E+02 -0.11332770625E+03  0.17597382608E+03  0.00000000000E+00 0.  1.
<mgrwt>
<rscale>  0 0.17421250E+04</rscale>
<asrwt>0</asrwt>
<pdfrwt beam="1">  1        1 0.26399246E+00 0.17421250E+04</pdfrwt>
<pdfrwt beam="2">  1       -1 0.68026859E-01 0.17421250E+04</pdfrwt>
<totfact> 0.96422056E+00</totfact>
</mgrwt>
</event>
<event>
12    1  0.2404959E-007  0.2067914E+04  0.7818608E-02  0.8575511E-01
         -1   -1    0    0    0  501 -0.00000000000E+00  0.00000000000E+00  0.80453585317E+03  0.80453585317E+03  0.00000000000E+00 0.  1.
          1   -1    0    0  501    0  0.00000000000E+00 -0.00000000000E+00 -0.13287992854E+04  0.13287992854E+04  0.00000000000E+00 0. -1.
         23    2    1    2    0    0 -0.51801316883E+03 -0.65521146203E+03 -0.25198600630E+03  0.87728158792E+03  0.92121300873E+02 0.  0.
        254    2    1    2    0    0  0.51801316883E+03  0.65521146203E+03 -0.27227742589E+03  0.12560535506E+04  0.89771700568E+03 0.  0.
        -24    2    4    4    0    0  0.35740043440E+03  0.59139250310E+03 -0.57207868896E+03  0.90070712028E+03  0.80741110528E+02 0.  0.
         24    2    4    4    0    0  0.16061273443E+03  0.63818958932E+02  0.29980126308E+03  0.35534643033E+03  0.80752574099E+02 0.  0.
         13    1    3    3    0    0 -0.21389641889E+03 -0.32725459353E+03 -0.14845613643E+03  0.41819429867E+03  0.00000000000E+00 0.  1.
        -13    1    3    3    0    0 -0.30411674994E+03 -0.32795686850E+03 -0.10352986987E+03  0.45908728925E+03  0.00000000000E+00 0. -1.
          4    1    6    6  502    0  0.15855649123E+03  0.75965045231E+02  0.26146104766E+03  0.31507575034E+03  0.00000000000E+00 0. -1.
          3    1    5    5  503    0  0.69465670455E+02  0.16643657414E+03 -0.17974428198E+03  0.25462643124E+03  0.00000000000E+00 0. -1.
         -4    1    5    5    0  503  0.28793476395E+03  0.42495592896E+03 -0.39233440698E+03  0.64608068904E+03  0.00000000000E+00 0.  1.
         -3    1    6    6    0  502  0.20562431985E+01 -0.12146086299E+02  0.38340215416E+02  0.40270679987E+02  0.00000000000E+00 0.  1.
<mgrwt>
<rscale>  0 0.20679136E+04</rscale>
<asrwt>0</asrwt>
<pdfrwt beam="1">  1        1 0.20443066E+00 0.20679136E+04</pdfrwt>
<pdfrwt beam="2">  1       -1 0.12377475E+00 0.20679136E+04</pdfrwt>
<totfact> 0.45634479E+00</totfact>
</mgrwt>
</event>
<event>
12    1  0.2404959E-007  0.2422145E+04  0.7818608E-02  0.8431259E-01
          2   -1    0    0  501    0  0.00000000000E+00  0.00000000000E+00  0.14388521776E+04  0.14388521776E+04  0.00000000000E+00 0. -1.
         -2   -1    0    0    0  501 -0.00000000000E+00 -0.00000000000E+00 -0.10193518377E+04  0.10193518377E+04  0.00000000000E+00 0.  1.
         23    2    1    2    0    0 -0.33313726983E+03  0.91726321924E+03  0.55122082973E+03  0.11243996265E+04  0.89876932359E+02 0.  0.
        254    2    1    2    0    0  0.33313726983E+03 -0.91726321924E+03 -0.13172048978E+03  0.13338043888E+04  0.89962859352E+03 0.  0.
        -24    2    4    4    0    0 -0.15677303188E+02 -0.59559223025E+03 -0.45498514489E+03  0.75393546809E+03  0.80195544752E+02 0.  0.
         24    2    4    4    0    0  0.34881457302E+03 -0.32167098899E+03  0.32326465511E+03  0.57986892073E+03  0.81265592193E+02 0.  0.
         11    1    3    3    0    0 -0.19049852103E+03  0.41531858201E+03  0.28597275251E+03  0.53903583021E+03  0.00000000000E+00 0. -1.
        -11    1    3    3    0    0 -0.14263874880E+03  0.50194463723E+03  0.26524807721E+03  0.58536379626E+03  0.00000000000E+00 0.  1.
          4    1    6    6  502    0  0.12528558307E+03 -0.83770676749E+02  0.13895120690E+03  0.20499132057E+03  0.00000000000E+00 0. -1.
          1    1    5    5  503    0 -0.17767870086E+02 -0.49180668512E+03 -0.33525588814E+03  0.59547126150E+03  0.00000000000E+00 0. -1.
         -2    1    5    5    0  503  0.20905668990E+01 -0.10378554513E+03 -0.11972925675E+03  0.15846420659E+03  0.00000000000E+00 0.  1.
         -3    1    6    6    0  502  0.22352898995E+03 -0.23790031224E+03  0.18431344821E+03  0.37487760016E+03  0.00000000000E+00 0.  1.
<mgrwt>
<rscale>  0 0.24221450E+04</rscale>
<asrwt>0</asrwt>
<pdfrwt beam="1">  1        2 0.22136187E+00 0.24221450E+04</pdfrwt>
<pdfrwt beam="2">  1       -2 0.15682336E+00 0.24221450E+04</pdfrwt>
<totfact> 0.32832795E+00</totfact>
</mgrwt>
</event>
<event>
12    1  0.2404959E-007  0.2561279E+04  0.7818608E-02  0.8381474E-01
          2   -1    0    0  501    0  0.00000000000E+00  0.00000000000E+00  0.52853174619E+04  0.52853174619E+04  0.00000000000E+00 0.  1.
         -2   -1    0    0    0  501 -0.00000000000E+00 -0.00000000000E+00 -0.31030071713E+03  0.31030071713E+03  0.00000000000E+00 0. -1.
         23    2    1    2    0    0 -0.10433765410E+04 -0.37623976077E+03  0.25239314373E+04  0.27584351918E+04  0.92432912594E+02 0.  0.
        254    2    1    2    0    0  0.10433765410E+04  0.37623976077E+03  0.24510853075E+04  0.28371829872E+04  0.90088687105E+03 0.  0.
        -24    2    4    4    0    0  0.50547623675E+03 -0.26513961621E+03  0.82217643621E+03  0.10041051511E+04  0.80298319804E+02 0.  0.
         24    2    4    4    0    0  0.53790030427E+03  0.64137937699E+03  0.16289088713E+04  0.18330778361E+04  0.78268766741E+02 0.  0.
         11    1    3    3    0    0 -0.50878787154E+03 -0.23257048242E+03  0.12648694828E+04  0.13830578209E+04  0.00000000000E+00 0.  1.
        -11    1    3    3    0    0 -0.53458866948E+03 -0.14366927836E+03  0.12590619545E+04  0.13753773709E+04  0.00000000000E+00 0. -1.
          4    1    6    6  502    0  0.36541170848E+03  0.48989756362E+03  0.11823380825E+04  0.13309578058E+04  0.00000000000E+00 0. -1.
          1    1    5    5  503    0  0.44657169239E+03 -0.20300539536E+03  0.68927209212E+03  0.84601033324E+03  0.00000000000E+00 0. -1.
         -2    1    5    5    0  503  0.58904544363E+02 -0.62134220851E+02  0.13290434410E+03  0.15809481784E+03  0.00000000000E+00 0.  1.
         -3    1    6    6    0  502  0.17248859579E+03  0.15148181337E+03  0.44657078880E+03  0.50212003034E+03  0.00000000000E+00 0.  1.
<mgrwt>
<rscale>  0 0.25612792E+04</rscale>
<asrwt>0</asrwt>
<pdfrwt beam="1">  1        2 0.81312569E+00 0.25612792E+04</pdfrwt>
<pdfrwt beam="2">  1       -2 0.47738576E-01 0.25612792E+04</pdfrwt>
<totfact> 0.51284325E-02</totfact>
</mgrwt>
</event>
<event>
12    1  0.2404959E-007  0.3904440E+04  0.7818608E-02  0.8024106E-01
          1   -1    0    0  501    0  0.00000000000E+00  0.00000000000E+00  0.24640978950E+04  0.24640978950E+04  0.00000000000E+00 0. -1.
         -1   -1    0    0    0  501 -0.00000000000E+00 -0.00000000000E+00 -0.15466763985E+04  0.15466763985E+04  0.00000000000E+00 0.  1.
         23    2    1    2    0    0  0.11981042073E+04  0.30110690189E+03  0.18451178543E+04  0.22224767934E+04  0.93936910198E+02 0.  0.
        254    2    1    2    0    0 -0.11981042073E+04 -0.30110690189E+03 -0.92769635783E+03  0.17882975000E+04  0.90070436793E+03 0.  0.
        -24    2    4    4    0    0 -0.13097164301E+04 -0.19523057351E+03 -0.92039321467E+03  0.16148476684E+04  0.84482059902E+02 0.  0.
         24    2    4    4    0    0  0.11161222281E+03 -0.10587632838E+03 -0.73031431594E+01  0.17344983164E+03  0.79777333894E+02 0.  0.
         11    1    3    3    0    0  0.94252437422E+03  0.24284282396E+03  0.15188399270E+04  0.18039400093E+04  0.00000000000E+00 0. -1.
        -11    1    3    3    0    0  0.25557983304E+03  0.58264077931E+02  0.32627792733E+03  0.41853678416E+03  0.00000000000E+00 0.  1.
          4    1    6    6  502    0 -0.89378130084E+00 -0.84246982693E+00  0.17505590585E+02  0.17548626788E+02  0.00000000000E+00 0. -1.
          1    1    5    5  503    0 -0.58157163219E+03 -0.11408524413E+03 -0.45076364022E+03  0.74459980234E+03  0.00000000000E+00 0. -1.
         -2    1    5    5    0  503 -0.72814479787E+03 -0.81145329383E+02 -0.46962957444E+03  0.87024786604E+03  0.00000000000E+00 0.  1.
         -3    1    6    6    0  502  0.11250600411E+03 -0.10503385855E+03 -0.24808733745E+02  0.15590120485E+03  0.00000000000E+00 0.  1.
<mgrwt>
<rscale>  0 0.39044396E+04</rscale>
<asrwt>0</asrwt>
<pdfrwt beam="1">  1        1 0.37909198E+00 0.39044396E+04</pdfrwt>
<pdfrwt beam="2">  1       -1 0.23795021E+00 0.39044396E+04</pdfrwt>
<totfact> 0.94642078E-02</totfact>
</mgrwt>
</event>
<event>
12    1  0.2404959E-007  0.2707566E+04  0.7818608E-02  0.8332554E-01
          1   -1    0    0  501    0  0.00000000000E+00  0.00000000000E+00  0.21357742790E+04  0.21357742790E+04  0.00000000000E+00 0. -1.
         -1   -1    0    0    0  501 -0.00000000000E+00 -0.00000000000E+00 -0.85810929727E+03  0.85810929727E+03  0.00000000000E+00 0.  1.
         23    2    1    2    0    0  0.52424649054E+03  0.66936052697E+03 -0.37196406493E+03  0.93249453869E+03  0.91164144148E+02 0.  0.
        254    2    1    2    0    0 -0.52424649054E+03 -0.66936052697E+03  0.16496290466E+04  0.20613890375E+04  0.89731314196E+03 0.  0.
        -24    2    4    4    0    0  0.91161055490E+02 -0.28732547564E+03  0.66770600103E+02  0.31880707464E+03  0.79456722912E+02 0.  0.
         24    2    4    4    0    0 -0.61540754603E+03 -0.38203505133E+03  0.15828584465E+04  0.17425819629E+04  0.80459974835E+02 0.  0.
         13    1    3    3    0    0  0.17248925700E+03  0.29244479838E+03 -0.14497214123E+03  0.36917939489E+03  0.00000000000E+00 0. -1.
        -13    1    3    3    0    0  0.35175723354E+03  0.37691572859E+03 -0.22699192370E+03  0.56331514380E+03  0.00000000000E+00 0.  1.
          2    1    6    6  502    0 -0.21644583708E+03 -0.17825271968E+03  0.63799065376E+03  0.69688945088E+03  0.00000000000E+00 0. -1.
          3    1    5    5  503    0  0.84161038822E+02 -0.15504302344E+03  0.16734392667E+02  0.17720456955E+03  0.00000000000E+00 0. -1.
         -4    1    5    5    0  503  0.70000166676E+01 -0.13228245220E+03  0.50036207436E+02  0.14160250509E+03  0.00000000000E+00 0.  1.
         -1    1    6    6    0  502 -0.39896170895E+03 -0.20378233166E+03  0.94486779275E+03  0.10456925120E+04  0.00000000000E+00 0.  1.
<mgrwt>
<rscale>  0 0.27075655E+04</rscale>
<asrwt>0</asrwt>
<pdfrwt beam="1">  1        1 0.32858066E+00 0.27075655E+04</pdfrwt>
<pdfrwt beam="2">  1       -1 0.13201682E+00 0.27075655E+04</pdfrwt>
<totfact> 0.10252253E+00</totfact>
</mgrwt>
</event>
<event>
12    1  0.2404959E-007  0.2503616E+04  0.7818608E-02  0.8401698E-01
         -1   -1    0    0    0  501 -0.00000000000E+00  0.00000000000E+00  0.86515714193E+03  0.86515714193E+03  0.00000000000E+00 0.  1.
          1   -1    0    0  501    0  0.00000000000E+00 -0.00000000000E+00 -0.18112592451E+04  0.18112592451E+04  0.00000000000E+00 0. -1.
         23    2    1    2    0    0  0.82637424339E+02 -0.44448253917E+03  0.64541789515E+03  0.79315669615E+03  0.90219807911E+02 0.  0.
        254    2    1    2    0    0 -0.82637424339E+02  0.44448253917E+03 -0.15915199984E+04  0.18832596909E+04  0.89963186176E+03 0.  0.
        -24    2    4    4    0    0 -0.23300195252E+02  0.65941562887E+03 -0.71755715658E+03  0.97800701844E+03  0.78978379657E+02 0.  0.
         24    2    4    4    0    0 -0.59337229087E+02 -0.21493308970E+03 -0.87396284177E+03  0.90525267247E+03  0.77163543260E+02 0.  0.
         13    1    3    3    0    0  0.49789581578E+02 -0.19941707652E+03  0.21978840731E+03  0.30092044934E+03  0.00000000000E+00 0. -1.
        -13    1    3    3    0    0  0.32847842761E+02 -0.24506546265E+03  0.42562948783E+03  0.49223624681E+03  0.00000000000E+00 0.  1.
          4    1    6    6  502    0 -0.41206198136E+02 -0.78185513910E+02 -0.47402827539E+03  0.48219677645E+03  0.00000000000E+00 0. -1.
          3    1    5    5  503    0  0.27356009369E+02  0.14488022997E+03 -0.15320885468E+03  0.21263016117E+03  0.00000000000E+00 0. -1.
         -4    1    5    5    0  503 -0.50656204621E+02  0.51453539890E+03 -0.56434830190E+03  0.76537685727E+03  0.00000000000E+00 0.  1.
         -3    1    6    6    0  502 -0.18131030951E+02 -0.13674757579E+03 -0.39993456638E+03  0.42305589601E+03  0.00000000000E+00 0.  1.
<mgrwt>
<rscale>  0 0.25036165E+04</rscale>
<asrwt>0</asrwt>
<pdfrwt beam="1">  1        1 0.27865527E+00 0.25036165E+04</pdfrwt>
<pdfrwt beam="2">  1       -1 0.13310110E+00 0.25036165E+04</pdfrwt>
<totfact> 0.16979408E+00</totfact>
</mgrwt>
</event>
<event>
12    1  0.3551364E-007  0.2677553E+04  0.7818608E-02  0.8342325E-01
         -2   -1    0    0    0  501 -0.00000000000E+00  0.00000000000E+00  0.76329550573E+03  0.76329550573E+03  0.00000000000E+00 0.  1.
          2   -1    0    0  501    0  0.00000000000E+00 -0.00000000000E+00 -0.23481368062E+04  0.23481368062E+04  0.00000000000E+00 0. -1.
         23    2    1    2    0    0  0.72638647523E+03  0.91383682511E+03 -0.45715711729E+03  0.12569471206E+04  0.90489666137E+02 0.  0.
        254    2    1    2    0    0 -0.72638647523E+03 -0.91383682511E+03 -0.11276841832E+04  0.18544851913E+04  0.89705554657E+03 0.  0.
        -24    2    4    4    0    0 -0.58701114821E+03 -0.93166605565E+03 -0.12380064964E+04  0.16588161184E+04  0.80169209617E+02 0.  0.
         24    2    4    4    0    0 -0.13937532703E+03  0.17829230546E+02  0.11032231326E+03  0.19566907292E+03  0.79824871124E+02 0.  0.
         11    1    3    3    0    0  0.37710250373E+03  0.43758995885E+03 -0.18418044615E+03  0.60631155947E+03  0.00000000000E+00 0.  1.
        -11    1    3    3    0    0  0.34928397151E+03  0.47624686626E+03 -0.27297667114E+03  0.65063556109E+03  0.00000000000E+00 0. -1.
          2    1    6    6  502    0 -0.12862832796E+03  0.24713893474E+02  0.12153467362E+03  0.17868044151E+03  0.00000000000E+00 0. -1.
          1    1    5    5  503    0 -0.54653294365E+03 -0.88155654461E+03 -0.11371091035E+04  0.15391092596E+04  0.00000000000E+00 0. -1.
         -2    1    5    5    0  503 -0.40478204558E+02 -0.50109511048E+02 -0.10089739293E+03  0.11970685879E+03  0.00000000000E+00 0.  1.
         -1    1    6    6    0  502 -0.10746999064E+02 -0.68846629288E+01 -0.11212360361E+02  0.16988631416E+02  0.00000000000E+00 0.  1.
<mgrwt>
<rscale>  0 0.26775528E+04</rscale>
<asrwt>0</asrwt>
<pdfrwt beam="1">  1        2 0.36125182E+00 0.26775528E+04</pdfrwt>
<pdfrwt beam="2">  1       -2 0.11743008E+00 0.26775528E+04</pdfrwt>
<totfact> 0.20954581E+00</totfact>
</mgrwt>
</event>
<event>
12    1  0.2404959E-007  0.1871122E+04  0.7818608E-02  0.8669366E-01
          2   -1    0    0  501    0  0.00000000000E+00  0.00000000000E+00  0.79001007471E+03  0.79001007471E+03  0.00000000000E+00 0. -1.
         -2   -1    0    0    0  501 -0.00000000000E+00 -0.00000000000E+00 -0.11079286059E+04  0.11079286059E+04  0.00000000000E+00 0.  1.
         23    2    1    2    0    0  0.55502847740E+03  0.41382326131E+03 -0.26949336267E+03  0.74851716178E+03  0.91350788832E+02 0.  0.
        254    2    1    2    0    0 -0.55502847740E+03 -0.41382326131E+03 -0.48425168493E+02  0.11494215188E+04  0.91625243716E+03 0.  0.
        -24    2    4    4    0    0 -0.56139569880E+03 -0.23329668841E+03 -0.40968999730E+03  0.73760659376E+03  0.81394826669E+02 0.  0.
         24    2    4    4    0    0  0.63672213939E+01 -0.18052657290E+03  0.36126482881E+03  0.41181492504E+03  0.80304862366E+02 0.  0.
         13    1    3    3    0    0  0.39364451933E+03  0.31012894511E+03 -0.23546392453E+03  0.55369597249E+03  0.00000000000E+00 0.  1.
        -13    1    3    3    0    0  0.16138395808E+03  0.10369431620E+03 -0.34029438140E+02  0.19482118929E+03  0.00000000000E+00 0. -1.
          2    1    6    6  502    0 -0.60826478982E+01 -0.18139093449E+03  0.31156663812E+03  0.36057376459E+03  0.00000000000E+00 0. -1.
          1    1    5    5  503    0 -0.38334377603E+03 -0.12900282231E+03 -0.30252647710E+03  0.50509053459E+03  0.00000000000E+00 0. -1.
         -2    1    5    5    0  503 -0.17805192277E+03 -0.10429386610E+03 -0.10716352020E+03  0.23251605917E+03  0.00000000000E+00 0.  1.
         -1    1    6    6    0  502  0.12449869292E+02  0.86436159238E+00  0.49698190695E+02  0.51241160454E+02  0.00000000000E+00 0.  1.
<mgrwt>
<rscale>  0 0.18711224E+04</rscale>
<asrwt>0</asrwt>
<pdfrwt beam="1">  1        2 0.12154001E+00 0.18711224E+04</pdfrwt>
<pdfrwt beam="2">  1       -2 0.17045055E+00 0.18711224E+04</pdfrwt>
<totfact> 0.69527635E+00</totfact>
</mgrwt>
</event>
<event>
12    1  0.2705460E-007  0.2318788E+04  0.7818608E-02  0.8470550E-01
         -2   -1    0    0    0  501 -0.00000000000E+00  0.00000000000E+00  0.74373097771E+03  0.74373097771E+03  0.00000000000E+00 0. -1.
          2   -1    0    0  501    0  0.00000000000E+00 -0.00000000000E+00 -0.18073662312E+04  0.18073662312E+04  0.00000000000E+00 0.  1.
         23    2    1    2    0    0  0.19513091069E+03  0.89853109727E+03 -0.73181142488E+02  0.92705935383E+03  0.93001939993E+02 0.  0.
        254    2    1    2    0    0 -0.19513091069E+03 -0.89853109727E+03 -0.99045411096E+03  0.16240378550E+04  0.90059169639E+03 0.  0.
        -24    2    4    4    0    0 -0.30556622257E+03 -0.17551771657E+03  0.33916452051E+02  0.36277662529E+03  0.79242469252E+02 0.  0.
         24    2    4    4    0    0  0.11043531188E+03 -0.72301338070E+03 -0.10243705630E+04  0.12612612297E+04  0.80625879887E+02 0.  0.
         13    1    3    3    0    0  0.52718163461E+02  0.27308124412E+03 -0.64677091657E+02  0.28554456191E+03  0.00000000000E+00 0.  1.
        -13    1    3    3    0    0  0.14241274723E+03  0.62544985315E+03 -0.85040508308E+01  0.64151479193E+03  0.00000000000E+00 0. -1.
          2    1    6    6  502    0 -0.35688961396E+01 -0.14419371216E+03 -0.16904388334E+03  0.22221700686E+03  0.00000000000E+00 0. -1.
          1    1    5    5  503    0 -0.11514498194E+03 -0.33525640708E+02  0.36071370085E+02  0.12523369831E+03  0.00000000000E+00 0. -1.
         -2    1    5    5    0  503 -0.19042124063E+03 -0.14199207586E+03 -0.21549180339E+01  0.23754292699E+03  0.00000000000E+00 0.  1.
         -1    1    6    6    0  502  0.11400420802E+03 -0.57881966854E+03 -0.85532667967E+03  0.10390442229E+04  0.00000000000E+00 0.  1.
<mgrwt>
<rscale>  0 0.23187878E+04</rscale>
<asrwt>0</asrwt>
<pdfrwt beam="1">  1        2 0.27805634E+00 0.23187878E+04</pdfrwt>
<pdfrwt beam="2">  1       -2 0.11442015E+00 0.23187878E+04</pdfrwt>
<totfact> 0.46195287E+00</totfact>
</mgrwt>
</event>
<event>
12    1  0.2987765E-007  0.1729433E+04  0.7818608E-02  0.8744754E-01
          3   -1    0    0  501    0  0.00000000000E+00  0.00000000000E+00  0.78528835391E+03  0.78528835391E+03  0.00000000000E+00 0.  1.
         -3   -1    0    0    0  501 -0.00000000000E+00 -0.00000000000E+00 -0.95217804974E+03  0.95217804974E+03  0.00000000000E+00 0. -1.
         23    2    1    2    0    0  0.41193562492E+03  0.39869806120E+03  0.18539871364E+03  0.61312261133E+03  0.11355857704E+03 0.  0.
        254    2    1    2    0    0 -0.41193562492E+03 -0.39869806120E+03 -0.35228840947E+03  0.11243437923E+04  0.90077230020E+03 0.  0.
        -24    2    4    4    0    0 -0.49629807430E+03 -0.14249188480E+02 -0.48818000018E+03  0.70060603230E+03  0.77551801952E+02 0.  0.
         24    2    4    4    0    0  0.84362449378E+02 -0.38444887272E+03  0.13589159071E+03  0.42373776003E+03  0.78544294823E+02 0.  0.
         13    1    3    3    0    0  0.24355895820E+03  0.22291968087E+03  0.16431607534E+03  0.36880065463E+03  0.00000000000E+00 0.  1.
        -13    1    3    3    0    0  0.16837666672E+03  0.17577838034E+03  0.21082638298E+02  0.24432195670E+03  0.00000000000E+00 0. -1.
          2    1    6    6  502    0  0.46418288679E+01 -0.37987137252E+02 -0.98373377300E+01  0.39513825245E+02  0.00000000000E+00 0. -1.
          1    1    5    5  503    0 -0.11055662392E+03 -0.22706605942E+02 -0.76293551965E+02  0.13623165240E+03  0.00000000000E+00 0. -1.
         -2    1    5    5    0  503 -0.38574145038E+03  0.84574174621E+01 -0.41188644822E+03  0.56437437989E+03  0.00000000000E+00 0.  1.
         -1    1    6    6    0  502  0.79720620510E+02 -0.34646173547E+03  0.14572892844E+03  0.38422393479E+03  0.00000000000E+00 0.  1.
<mgrwt>
<rscale>  0 0.17294327E+04</rscale>
<asrwt>0</asrwt>
<pdfrwt beam="1">  1        3 0.12081359E+00 0.17294327E+04</pdfrwt>
<pdfrwt beam="2">  1       -3 0.14648893E+00 0.17294327E+04</pdfrwt>
<totfact> 0.47465069E-01</totfact>
</mgrwt>
</event>
<event>
12    1  0.2404959E-007  0.1162702E+04  0.7818608E-02  0.9146144E-01
         -2   -1    0    0    0  501 -0.00000000000E+00  0.00000000000E+00  0.17830488711E+03  0.17830488711E+03  0.00000000000E+00 0.  1.
          2   -1    0    0  501    0  0.00000000000E+00 -0.00000000000E+00 -0.18954571245E+04  0.18954571245E+04  0.00000000000E+00 0. -1.
         23    2    1    2    0    0 -0.19075371323E+01  0.73335577979E+02 -0.71354676598E+03  0.72391769066E+03  0.97601690127E+02 0.  0.
        254    2    1    2    0    0  0.19075371323E+01 -0.73335577979E+02 -0.10036054714E+04  0.13498443210E+04  0.89970773191E+03 0.  0.
        -24    2    4    4    0    0  0.58219380383E+01  0.40609392593E+03 -0.40694591693E+03  0.58028224987E+03  0.78589684842E+02 0.  0.
         24    2    4    4    0    0 -0.39144009060E+01 -0.47942950391E+03 -0.59665955450E+03  0.76956207110E+03  0.79719417583E+02 0.  0.
         11    1    3    3    0    0  0.41874512748E+02  0.42879302205E+02 -0.50961491634E+03  0.51312715026E+03  0.00000000000E+00 0. -1.
        -11    1    3    3    0    0 -0.43782049881E+02  0.30456275774E+02 -0.20393184964E+03  0.21079054040E+03  0.00000000000E+00 0.  1.
          4    1    6    6  502    0  0.31579034105E+02 -0.35968475981E+03 -0.43776546386E+03  0.56745833608E+03  0.00000000000E+00 0. -1.
          1    1    5    5  503    0 -0.33048911995E+02  0.19508818177E+03 -0.17280809675E+03  0.26270566715E+03  0.00000000000E+00 0. -1.
         -2    1    5    5    0  503  0.38870850033E+02  0.21100574416E+03 -0.23413782018E+03  0.31757658272E+03  0.00000000000E+00 0.  1.
         -3    1    6    6    0  502 -0.35493435011E+02 -0.11974474410E+03 -0.15889409064E+03  0.20210373502E+03  0.00000000000E+00 0.  1.
<mgrwt>
<rscale>  0 0.11627025E+04</rscale>
<asrwt>0</asrwt>
<pdfrwt beam="1">  1        2 0.29160879E+00 0.11627025E+04</pdfrwt>
<pdfrwt beam="2">  1       -2 0.27431521E-01 0.11627025E+04</pdfrwt>
<totfact> 0.91538211E+01</totfact>
</mgrwt>
</event>
<event>
12    1  0.2404959E-007  0.2778849E+04  0.7818608E-02  0.8309865E-01
         -2   -1    0    0    0  501 -0.00000000000E+00  0.00000000000E+00  0.65177183378E+03  0.65177183378E+03  0.00000000000E+00 0.  1.
          2   -1    0    0  501    0  0.00000000000E+00 -0.00000000000E+00 -0.29619273391E+04  0.29619273391E+04  0.00000000000E+00 0. -1.
         23    2    1    2    0    0 -0.27849248803E+03  0.10855734757E+04 -0.33957214653E+03  0.11746960421E+04  0.92594339034E+02 0.  0.
        254    2    1    2    0    0  0.27849248803E+03 -0.10855734757E+04 -0.19705833588E+04  0.24390031308E+04  0.89972754821E+03 0.  0.
        -24    2    4    4    0    0  0.37261974543E+03 -0.83950639295E+03 -0.19576678694E+04  0.21638504578E+04  0.78542081668E+02 0.  0.
         24    2    4    4    0    0 -0.94127257404E+02 -0.24606708273E+03 -0.12915489439E+02  0.27515267296E+03  0.78314965246E+02 0.  0.
         13    1    3    3    0    0 -0.16623288293E+03  0.47930158644E+03 -0.13331001645E+03  0.52453307105E+03  0.00000000000E+00 0.  1.
        -13    1    3    3    0    0 -0.11225960509E+03  0.60627188924E+03 -0.20626213008E+03  0.65016297105E+03  0.00000000000E+00 0. -1.
          4    1    6    6  502    0 -0.70986823941E+02 -0.83590850845E+02  0.66922502478E+01  0.10986967612E+03  0.00000000000E+00 0. -1.
          1    1    5    5  503    0  0.25938104801E+03 -0.54545753713E+03 -0.12053733628E+04  0.13482312103E+04  0.00000000000E+00 0. -1.
         -2    1    5    5    0  503  0.11323869742E+03 -0.29404885583E+03 -0.75229450658E+03  0.81561924747E+03  0.00000000000E+00 0.  1.
         -3    1    6    6    0  502 -0.23140433463E+02 -0.16247623188E+03 -0.19607739687E+02  0.16528299684E+03  0.00000000000E+00 0.  1.
<mgrwt>
<rscale>  0 0.27788493E+04</rscale>
<asrwt>0</asrwt>
<pdfrwt beam="1">  1        2 0.45568112E+00 0.27788493E+04</pdfrwt>
<pdfrwt beam="2">  1       -2 0.10027259E+00 0.27788493E+04</pdfrwt>
<totfact> 0.13152097E+00</totfact>
</mgrwt>
</event>
<event>
12    1  0.2404959E-007  0.2026740E+04  0.7818608E-02  0.8594220E-01
          2   -1    0    0  501    0  0.00000000000E+00  0.00000000000E+00  0.11205221235E+04  0.11205221235E+04  0.00000000000E+00 0. -1.
         -2   -1    0    0    0  501 -0.00000000000E+00 -0.00000000000E+00 -0.91646451626E+03  0.91646451626E+03  0.00000000000E+00 0.  1.
         23    2    1    2    0    0 -0.18435503089E+02 -0.79752490059E+03 -0.58462033495E+02  0.80493802030E+03  0.90119766598E+02 0.  0.
        254    2    1    2    0    0  0.18435503089E+02  0.79752490059E+03  0.26251964074E+03  0.12320486195E+04  0.90146625234E+03 0.  0.
        -24    2    4    4    0    0  0.22811410608E+03  0.14735265242E+03  0.43955127310E+03  0.52183480317E+03  0.73194197536E+02 0.  0.
         24    2    4    4    0    0 -0.20967860299E+03  0.65017224817E+03 -0.17703163236E+03  0.71021381629E+03  0.79839821818E+02 0.  0.
         13    1    3    3    0    0  0.29685681817E+02 -0.43626579151E+03 -0.52735109297E+02  0.44044304092E+03  0.00000000000E+00 0.  1.
        -13    1    3    3    0    0 -0.48121184906E+02 -0.36125910908E+03 -0.57269241985E+01  0.36449497938E+03  0.00000000000E+00 0. -1.
          4    1    6    6  502    0 -0.14118617905E+03  0.53892163445E+03 -0.14651911727E+03  0.57605374485E+03  0.00000000000E+00 0. -1.
          3    1    5    5  503    0  0.23212367297E+03  0.14997628802E+03  0.43377608252E+03  0.51433060990E+03  0.00000000000E+00 0. -1.
         -4    1    5    5    0  503 -0.40095668903E+01 -0.26236355955E+01  0.57751905847E+01  0.75041932727E+01  0.00000000000E+00 0.  1.
         -3    1    6    6    0  502 -0.68492423940E+02  0.11125061371E+03 -0.30512515095E+02  0.13416007143E+03  0.00000000000E+00 0.  1.
<mgrwt>
<rscale>  0 0.20267400E+04</rscale>
<asrwt>0</asrwt>
<pdfrwt beam="1">  1        2 0.17238802E+00 0.20267400E+04</pdfrwt>
<pdfrwt beam="2">  1       -2 0.14099454E+00 0.20267400E+04</pdfrwt>
<totfact> 0.69175991E+00</totfact>
</mgrwt>
</event>
<event>
12    1  0.2404959E-007  0.3922350E+04  0.7818608E-02  0.8020397E-01
         -2   -1    0    0    0  501 -0.00000000000E+00  0.00000000000E+00  0.17304234849E+04  0.17304234849E+04  0.00000000000E+00 0.  1.
          2   -1    0    0  501    0  0.00000000000E+00 -0.00000000000E+00 -0.22226976521E+04  0.22226976521E+04  0.00000000000E+00 0. -1.
         23    2    1    2    0    0  0.13445594763E+04  0.12322686640E+04 -0.58141080619E+03  0.19164780374E+04  0.92321703039E+02 0.  0.
        254    2    1    2    0    0 -0.13445594763E+04 -0.12322686640E+04  0.89136638973E+02  0.20366430995E+04  0.90202191162E+03 0.  0.
        -24    2    4    4    0    0 -0.52504342773E+03 -0.14209563967E+03 -0.28715149573E+03  0.61969954787E+03  0.75563061880E+02 0.  0.
         24    2    4    4    0    0 -0.81951604858E+03 -0.10901730243E+04  0.37628813471E+03  0.14169435517E+04  0.77797760619E+02 0.  0.
         13    1    3    3    0    0  0.45235612145E+03  0.37923180768E+03 -0.15210674157E+03  0.60957303532E+03  0.00000000000E+00 0.  1.
        -13    1    3    3    0    0  0.89220335486E+03  0.85303685627E+03 -0.42930406462E+03  0.13069050021E+04  0.00000000000E+00 0. -1.
          4    1    6    6  502    0 -0.68377259285E+03 -0.90101884624E+03  0.34158892322E+03  0.11815510622E+04  0.00000000000E+00 0. -1.
          1    1    5    5  503    0 -0.49641729688E+03 -0.13949788903E+03 -0.28860923630E+03  0.59091884803E+03  0.00000000000E+00 0. -1.
         -2    1    5    5    0  503 -0.28626130850E+02 -0.25977506333E+01  0.14577405638E+01  0.28780699841E+02  0.00000000000E+00 0.  1.
         -3    1    6    6    0  502 -0.13574345573E+03 -0.18915417804E+03  0.34699211486E+02  0.23539248952E+03  0.00000000000E+00 0.  1.
<mgrwt>
<rscale>  0 0.39223504E+04</rscale>
<asrwt>0</asrwt>
<pdfrwt beam="1">  1        2 0.34195348E+00 0.39223504E+04</pdfrwt>
<pdfrwt beam="2">  1       -2 0.26621900E+00 0.39223504E+04</pdfrwt>
<totfact> 0.20346866E-01</totfact>
</mgrwt>
</event>
<event>
12    1  0.2404959E-007  0.2193922E+04  0.7818608E-02  0.8520962E-01
          1   -1    0    0  501    0  0.00000000000E+00  0.00000000000E+00  0.23810573691E+04  0.23810573691E+04  0.00000000000E+00 0. -1.
         -1   -1    0    0    0  501 -0.00000000000E+00 -0.00000000000E+00 -0.50537365455E+03  0.50537365455E+03  0.00000000000E+00 0.  1.
         23    2    1    2    0    0  0.75814000456E+03  0.16529670235E+03  0.15739021481E+03  0.79680334037E+03  0.89580227666E+02 0.  0.
        254    2    1    2    0    0 -0.75814000456E+03 -0.16529670235E+03  0.17182934997E+04  0.20896276832E+04  0.90106161671E+03 0.  0.
        -24    2    4    4    0    0 -0.38599820378E+03 -0.34441833305E+03  0.15502136944E+04  0.16362598073E+04  0.81025039445E+02 0.  0.
         24    2    4    4    0    0 -0.37214180078E+03  0.17912163070E+03  0.16807980527E+03  0.45336787597E+03  0.81960548726E+02 0.  0.
         11    1    3    3    0    0  0.52938006990E+03  0.15518262452E+03  0.12369323385E+03  0.56535380202E+03  0.00000000000E+00 0. -1.
        -11    1    3    3    0    0  0.22875993466E+03  0.10114077822E+02  0.33696980956E+02  0.23144953835E+03  0.00000000000E+00 0.  1.
          2    1    6    6  502    0 -0.24106328115E+03  0.15125718956E+03  0.13679029405E+03  0.31575596187E+03  0.00000000000E+00 0. -1.
          3    1    5    5  503    0 -0.34483543973E+03 -0.32449893760E+03  0.13420847524E+04  0.14231663724E+04  0.00000000000E+00 0. -1.
         -4    1    5    5    0  503 -0.41162764055E+02 -0.19919395448E+02  0.20812894202E+03  0.21309343483E+03  0.00000000000E+00 0.  1.
         -1    1    6    6    0  502 -0.13107851963E+03  0.27864441140E+02  0.31289511223E+02  0.13761191410E+03  0.00000000000E+00 0.  1.
<mgrwt>
<rscale>  0 0.21939222E+04</rscale>
<asrwt>0</asrwt>
<pdfrwt beam="1">  1        1 0.36631651E+00 0.21939222E+04</pdfrwt>
<pdfrwt beam="2">  1       -1 0.77749794E-01 0.21939222E+04</pdfrwt>
<totfact> 0.24750299E+00</totfact>
</mgrwt>
</event>
<event>
12    1  0.2404959E-007  0.1434900E+04  0.7818608E-02  0.8928937E-01
         -2   -1    0    0    0  501 -0.00000000000E+00  0.00000000000E+00  0.40390638497E+03  0.40390638497E+03  0.00000000000E+00 0.  1.
          2   -1    0    0  501    0  0.00000000000E+00 -0.00000000000E+00 -0.12743902294E+04  0.12743902294E+04  0.00000000000E+00 0. -1.
         23    2    1    2    0    0 -0.27176053792E+03 -0.34069494364E+03 -0.22213509302E+03  0.49784506038E+03  0.92622189555E+02 0.  0.
        254    2    1    2    0    0  0.27176053792E+03  0.34069494364E+03 -0.64834875144E+03  0.11804515540E+04  0.88497623319E+03 0.  0.
        -24    2    4    4    0    0 -0.74370930610E+02 -0.24717689159E+03 -0.31996594528E+03  0.41902214905E+03  0.81079616410E+02 0.  0.
         24    2    4    4    0    0  0.34613146853E+03  0.58787183523E+03 -0.32838280615E+03  0.76142940497E+03  0.80865216359E+02 0.  0.
         13    1    3    3    0    0 -0.20602443662E+03 -0.23414489963E+03 -0.20056292554E+03  0.37080370765E+03  0.00000000000E+00 0. -1.
        -13    1    3    3    0    0 -0.65736101298E+02 -0.10655004401E+03 -0.21572167487E+02  0.12704135273E+03  0.00000000000E+00 0.  1.
          4    1    6    6  502    0  0.23619856514E+03  0.32649984390E+03 -0.20628154457E+03  0.45270739543E+03  0.00000000000E+00 0. -1.
          1    1    5    5  503    0 -0.87700960825E+02 -0.16306011597E+03 -0.22728784461E+03  0.29315494922E+03  0.00000000000E+00 0. -1.
         -2    1    5    5    0  503  0.13330030216E+02 -0.84116775623E+02 -0.92678100680E+02  0.12586719983E+03  0.00000000000E+00 0.  1.
         -3    1    6    6    0  502  0.10993290339E+03  0.26137199133E+03 -0.12210126158E+03  0.30872200955E+03  0.00000000000E+00 0.  1.
<mgrwt>
<rscale>  0 0.14348998E+04</rscale>
<asrwt>0</asrwt>
<pdfrwt beam="1">  1        2 0.19606003E+00 0.14348998E+04</pdfrwt>
<pdfrwt beam="2">  1       -2 0.62139445E-01 0.14348998E+04</pdfrwt>
<totfact> 0.39939816E+01</totfact>
</mgrwt>
</event>
<event>
12    1  0.2404959E-007  0.2472598E+04  0.7818608E-02  0.8412813E-01
         -1   -1    0    0    0  501 -0.00000000000E+00  0.00000000000E+00  0.22075823362E+04  0.22075823362E+04  0.00000000000E+00 0.  1.
          1   -1    0    0  501    0  0.00000000000E+00 -0.00000000000E+00 -0.69235727810E+03  0.69235727810E+03  0.00000000000E+00 0. -1.
         23    2    1    2    0    0 -0.91885493092E+03 -0.27378936709E+03  0.10072907721E+03  0.96831332271E+03  0.90715722662E+02 0.  0.
        254    2    1    2    0    0  0.91885493092E+03  0.27378936709E+03  0.14144959809E+04  0.19316262916E+04  0.90062547648E+03 0.  0.
        -24    2    4    4    0    0  0.91772001696E+03 -0.59543855203E+02  0.12434120206E+04  0.15485692100E+04  0.78978761587E+02 0.  0.
         24    2    4    4    0    0  0.11349139557E+01  0.33333322230E+03  0.17108396030E+03  0.38305708167E+03  0.79691161559E+02 0.  0.
         13    1    3    3    0    0 -0.71931784775E+03 -0.19310332134E+03  0.45863766600E+02  0.74619738936E+03  0.00000000000E+00 0. -1.
        -13    1    3    3    0    0 -0.19953708317E+03 -0.80686045759E+02  0.54865310614E+02  0.22211593335E+03  0.00000000000E+00 0.  1.
          4    1    6    6  502    0  0.19274141678E+02  0.28032441223E+03  0.11447360522E+03  0.30340974757E+03  0.00000000000E+00 0. -1.
          3    1    5    5  503    0  0.76298341760E+03 -0.30520727028E+02  0.10675724373E+04  0.13125494730E+04  0.00000000000E+00 0. -1.
         -4    1    5    5    0  503  0.15473659936E+03 -0.29023128175E+02  0.17583958336E+03  0.23601973695E+03  0.00000000000E+00 0.  1.
         -3    1    6    6    0  502 -0.18139227722E+02  0.53008810069E+02  0.56610355080E+02  0.79647334102E+02  0.00000000000E+00 0.  1.
<mgrwt>
<rscale>  0 0.24725984E+04</rscale>
<asrwt>0</asrwt>
<pdfrwt beam="1">  1        1 0.10651651E+00 0.24725984E+04</pdfrwt>
<pdfrwt beam="2">  1       -1 0.33962805E+00 0.24725984E+04</pdfrwt>
<totfact> 0.44903307E-01</totfact>
</mgrwt>
</event>
<event>
12    1  0.2404959E-007  0.1283959E+04  0.7818608E-02  0.9042384E-01
         -2   -1    0    0    0  501 -0.00000000000E+00  0.00000000000E+00  0.29170901327E+03  0.29170901327E+03  0.00000000000E+00 0.  1.
          2   -1    0    0  501    0  0.00000000000E+00 -0.00000000000E+00 -0.14128376333E+04  0.14128376333E+04  0.00000000000E+00 0. -1.
         23    2    1    2    0    0  0.23904377333E+03  0.77031868327E+02 -0.32555346020E+02  0.26913928201E+03  0.91105808031E+02 0.  0.
        254    2    1    2    0    0 -0.23904377333E+03 -0.77031868327E+02 -0.10885732740E+04  0.14354073645E+04  0.90129168145E+03 0.  0.
        -24    2    4    4    0    0 -0.24005139976E+03  0.32923458682E+03 -0.87642264302E+03  0.97016190208E+03  0.84127161878E+02 0.  0.
         24    2    4    4    0    0  0.10076264207E+01 -0.40626645515E+03 -0.21215063097E+03  0.46524546247E+03  0.79949998367E+02 0.  0.
         13    1    3    3    0    0  0.58263599209E+02 -0.20368641083E+02 -0.10513715598E+02  0.62610436415E+02  0.00000000000E+00 0. -1.
        -13    1    3    3    0    0  0.18078017413E+03  0.97400509410E+02 -0.22041630422E+02  0.20652884559E+03  0.00000000000E+00 0.  1.
          4    1    6    6  502    0 -0.26576149123E+02 -0.25155620407E+03 -0.16158401124E+03  0.30016030417E+03  0.00000000000E+00 0. -1.
          1    1    5    5  503    0 -0.51388528880E+02  0.12022683790E+03 -0.34125289760E+03  0.36544331102E+03  0.00000000000E+00 0. -1.
         -2    1    5    5    0  503 -0.18866287088E+03  0.20900774892E+03 -0.53516974543E+03  0.60471859106E+03  0.00000000000E+00 0.  1.
         -3    1    6    6    0  502  0.27583775543E+02 -0.15471025107E+03 -0.50566619729E+02  0.16508515830E+03  0.00000000000E+00 0.  1.
<mgrwt>
<rscale>  0 0.12839587E+04</rscale>
<asrwt>0</asrwt>
<pdfrwt beam="1">  1        2 0.21735963E+00 0.12839587E+04</pdfrwt>
<pdfrwt beam="2">  1       -2 0.44878310E-01 0.12839587E+04</pdfrwt>
<totfact> 0.65711302E+01</totfact>
</mgrwt>
</event>
<event>
12    1  0.2404959E-007  0.1851452E+04  0.7818608E-02  0.8679406E-01
          1   -1    0    0  501    0  0.00000000000E+00  0.00000000000E+00  0.10659132619E+04  0.10659132619E+04  0.00000000000E+00 0. -1.
         -1   -1    0    0    0  501 -0.00000000000E+00 -0.00000000000E+00 -0.80397629820E+03  0.80397629820E+03  0.00000000000E+00 0.  1.
         23    2    1    2    0    0  0.12001707078E+03 -0.18581576293E+03  0.77482048770E+03  0.81095835035E+03  0.91515369317E+02 0.  0.
        254    2    1    2    0    0 -0.12001707078E+03  0.18581576293E+03 -0.51288352397E+03  0.10589312098E+04  0.89964115226E+03 0.  0.
        -24    2    4    4    0    0  0.33452080564E+03  0.27901839742E+03 -0.33610996315E+03  0.55621499996E+03  0.81546203750E+02 0.  0.
         24    2    4    4    0    0 -0.45453787642E+03 -0.93202634493E+02 -0.17677356082E+03  0.50271620982E+03  0.78633858037E+02 0.  0.
         13    1    3    3    0    0  0.18910750757E+02 -0.19678220914E+01  0.20320587010E+02  0.27828314257E+02  0.00000000000E+00 0.  1.
        -13    1    3    3    0    0  0.10110632002E+03 -0.18384794083E+03  0.75449990069E+03  0.78313003610E+03  0.00000000000E+00 0. -1.
          2    1    6    6  502    0 -0.42643677130E+03 -0.97287058765E+02 -0.14666244074E+03  0.46132739269E+03  0.00000000000E+00 0. -1.
          3    1    5    5  503    0  0.19328050240E+03  0.13088631963E+03 -0.13696192256E+03  0.27064210593E+03  0.00000000000E+00 0. -1.
         -4    1    5    5    0  503  0.14124030324E+03  0.14813207779E+03 -0.19914804059E+03  0.28557289403E+03  0.00000000000E+00 0.  1.
         -1    1    6    6    0  502 -0.28101105117E+02  0.40844242717E+01 -0.30111120085E+02  0.41388817128E+02  0.00000000000E+00 0.  1.
<mgrwt>
<rscale>  0 0.18514524E+04</rscale>
<asrwt>0</asrwt>
<pdfrwt beam="1">  1        1 0.16398666E+00 0.18514524E+04</pdfrwt>
<pdfrwt beam="2">  1       -1 0.12368866E+00 0.18514524E+04</pdfrwt>
<totfact> 0.72639832E+00</totfact>
</mgrwt>
</event>
<event>
12    1  0.2404959E-007  0.3275671E+04  0.7818608E-02  0.8169114E-01
          2   -1    0    0  501    0  0.00000000000E+00  0.00000000000E+00  0.17784089254E+04  0.17784089254E+04  0.00000000000E+00 0. -1.
         -2   -1    0    0    0  501 -0.00000000000E+00 -0.00000000000E+00 -0.15083740105E+04  0.15083740105E+04  0.00000000000E+00 0.  1.
         23    2    1    2    0    0  0.71318076088E+03 -0.99341078312E+03  0.10210381276E+04  0.15952691874E+04  0.82904406217E+02 0.  0.
        254    2    1    2    0    0 -0.71318076088E+03  0.99341078312E+03 -0.75100321266E+03  0.16915137486E+04  0.89538882864E+03 0.  0.
        -24    2    4    4    0    0  0.14319057678E+03 -0.39272261506E+02 -0.12082489719E+03  0.20671234563E+03  0.78009526696E+02 0.  0.
         24    2    4    4    0    0 -0.85637133765E+03  0.10326830446E+04 -0.63017831547E+03  0.14848014029E+04  0.87774473776E+02 0.  0.
         13    1    3    3    0    0  0.46608832274E+03 -0.62121924748E+03  0.69506612651E+03  0.10422421016E+04  0.00000000000E+00 0. -1.
        -13    1    3    3    0    0  0.24709243814E+03 -0.37219153564E+03  0.32597200104E+03  0.55302708582E+03  0.00000000000E+00 0.  1.
          4    1    6    6  502    0 -0.16586730933E+03  0.16449005944E+03 -0.83194398527E+02  0.24797228052E+03  0.00000000000E+00 0. -1.
          3    1    5    5  503    0  0.78837268717E+02  0.92541480624E+01 -0.28945740205E+02  0.84491479281E+02  0.00000000000E+00 0. -1.
         -4    1    5    5    0  503  0.64353308060E+02 -0.48526409569E+02 -0.91879156986E+02  0.12222086635E+03  0.00000000000E+00 0.  1.
         -1    1    6    6    0  502 -0.69050402832E+03  0.86819298518E+03 -0.54698391694E+03  0.12368291224E+04  0.00000000000E+00 0.  1.
<mgrwt>
<rscale>  0 0.32756714E+04</rscale>
<asrwt>0</asrwt>
<pdfrwt beam="1">  1        2 0.27360137E+00 0.32756714E+04</pdfrwt>
<pdfrwt beam="2">  1       -2 0.23205754E+00 0.32756714E+04</pdfrwt>
<totfact> 0.61618735E-01</totfact>
</mgrwt>
</event>
<event>
12    1  0.2404959E-007  0.2892732E+04  0.7818608E-02  0.8275043E-01
         -2   -1    0    0    0  501 -0.00000000000E+00  0.00000000000E+00  0.23490233743E+04  0.23490233743E+04  0.00000000000E+00 0. -1.
          2   -1    0    0  501    0  0.00000000000E+00 -0.00000000000E+00 -0.89057179884E+03  0.89057179884E+03  0.00000000000E+00 0.  1.
         23    2    1    2    0    0  0.46413960420E+03 -0.90255498457E+03  0.15767358885E+04  0.18774102453E+04  0.92423452709E+02 0.  0.
        254    2    1    2    0    0 -0.46413960420E+03  0.90255498457E+03 -0.11828431304E+03  0.13621849279E+04  0.90084711615E+03 0.  0.
        -24    2    4    4    0    0  0.23296975005E+03  0.31732790222E+03 -0.19176084447E+03  0.44553901268E+03  0.82224621516E+02 0.  0.
         24    2    4    4    0    0 -0.69710935425E+03  0.58522708235E+03  0.73476531433E+02  0.91664591520E+03  0.79929615775E+02 0.  0.
         13    1    3    3    0    0  0.19678656321E+03 -0.31486653536E+03  0.63538982500E+03  0.73592534693E+03  0.00000000000E+00 0. -1.
        -13    1    3    3    0    0  0.26735304099E+03 -0.58768844921E+03  0.94134606348E+03  0.11414848983E+04  0.00000000000E+00 0.  1.
          4    1    6    6  502    0 -0.51097666634E+02  0.29030678514E+02  0.21592874685E+02  0.62609935854E+02  0.00000000000E+00 0. -1.
          3    1    5    5  503    0  0.79843453229E+01  0.90312430606E+01  0.82865836254E+01  0.14628075391E+02  0.00000000000E+00 0. -1.
         -4    1    5    5    0  503  0.22498540473E+03  0.30829665916E+03 -0.20004742809E+03  0.43091093729E+03  0.00000000000E+00 0.  1.
         -3    1    6    6    0  502 -0.64601168762E+03  0.55619640383E+03  0.51883656748E+02  0.85403597934E+03  0.00000000000E+00 0.  1.
<mgrwt>
<rscale>  0 0.28927316E+04</rscale>
<asrwt>0</asrwt>
<pdfrwt beam="1">  1        2 0.13701105E+00 0.28927316E+04</pdfrwt>
<pdfrwt beam="2">  1       -2 0.36138821E+00 0.28927316E+04</pdfrwt>
<totfact> 0.33854388E-01</totfact>
</mgrwt>
</event>
<event>
12    1  0.2404959E-007  0.2367208E+04  0.7818608E-02  0.8451883E-01
         -1   -1    0    0    0  501 -0.00000000000E+00  0.00000000000E+00  0.73735623879E+03  0.73735623879E+03  0.00000000000E+00 0.  1.
          1   -1    0    0  501    0  0.00000000000E+00 -0.00000000000E+00 -0.18999204512E+04  0.18999204512E+04  0.00000000000E+00 0. -1.
         23    2    1    2    0    0  0.37065592099E+03  0.82054921983E+03 -0.10088371854E+04  0.13550964800E+04  0.88584251032E+02 0.  0.
        254    2    1    2    0    0 -0.37065592099E+03 -0.82054921983E+03 -0.15372702691E+03  0.12821802099E+04  0.89981512433E+03 0.  0.
        -24    2    4    4    0    0  0.55097141086E+02  0.63312176303E+02  0.20422387847E+03  0.23479417634E+03  0.79854781207E+02 0.  0.
         24    2    4    4    0    0 -0.42575306208E+03 -0.88386139613E+03 -0.35795090538E+03  0.10473860336E+04  0.80075059948E+02 0.  0.
         13    1    3    3    0    0  0.21843310505E+03  0.45961736749E+03 -0.63354671415E+03  0.81261465954E+03  0.00000000000E+00 0.  1.
        -13    1    3    3    0    0  0.15222281594E+03  0.36093185233E+03 -0.37529047130E+03  0.54248182049E+03  0.00000000000E+00 0. -1.
          2    1    6    6  502    0 -0.30873258307E+03 -0.65053269155E+03 -0.29959310733E+03  0.77991321350E+03  0.00000000000E+00 0. -1.
          1    1    5    5  503    0  0.32062742173E+02  0.84059530865E+01  0.15207001972E+03  0.15564051652E+03  0.00000000000E+00 0. -1.
         -2    1    5    5    0  503  0.23034398913E+02  0.54906223216E+02  0.52153858746E+02  0.79153659822E+02  0.00000000000E+00 0.  1.
         -1    1    6    6    0  502 -0.11702047901E+03 -0.23332870458E+03 -0.58357798055E+02  0.26747282008E+03  0.00000000000E+00 0.  1.
<mgrwt>
<rscale>  0 0.23672078E+04</rscale>
<asrwt>0</asrwt>
<pdfrwt beam="1">  1        1 0.29229545E+00 0.23672078E+04</pdfrwt>
<pdfrwt beam="2">  1       -1 0.11343942E+00 0.23672078E+04</pdfrwt>
<totfact> 0.22206520E+00</totfact>
</mgrwt>
</event>
<event>
12    1  0.2404959E-007  0.1716258E+04  0.7818608E-02  0.8752146E-01
         -1   -1    0    0    0  501 -0.00000000000E+00  0.00000000000E+00  0.87124335125E+03  0.87124335125E+03  0.00000000000E+00 0.  1.
          1   -1    0    0  501    0  0.00000000000E+00 -0.00000000000E+00 -0.84521222515E+03  0.84521222515E+03  0.00000000000E+00 0. -1.
         23    2    1    2    0    0 -0.35644509578E+03  0.38864220908E+03 -0.31035271562E+03  0.61905694222E+03  0.93897905368E+02 0.  0.
        254    2    1    2    0    0  0.35644509578E+03 -0.38864220908E+03  0.33638384171E+03  0.10973986342E+04  0.90168386940E+03 0.  0.
        -24    2    4    4    0    0  0.50322898422E+03 -0.60582322105E+02 -0.10358351721E+03  0.52384221093E+03  0.82289055137E+02 0.  0.
         24    2    4    4    0    0 -0.14678388844E+03 -0.32805988698E+03  0.43996735892E+03  0.57355642325E+03  0.78910673453E+02 0.  0.
         11    1    3    3    0    0 -0.20768387965E+03  0.27073051224E+03 -0.23750087076E+03  0.41573340945E+03  0.00000000000E+00 0.  1.
        -11    1    3    3    0    0 -0.14876121613E+03  0.11791169684E+03 -0.72851844856E+02  0.20332353277E+03  0.00000000000E+00 0. -1.
          2    1    6    6  502    0 -0.85822723102E+02 -0.26728251762E+03  0.31670554758E+03  0.42321139859E+03  0.00000000000E+00 0. -1.
          3    1    5    5  503    0  0.20542703196E+03  0.15770872807E+02 -0.44481874164E+02  0.21077861139E+03  0.00000000000E+00 0. -1.
         -4    1    5    5    0  503  0.29780195226E+03 -0.76353194912E+02 -0.59101643046E+02  0.31306359953E+03  0.00000000000E+00 0.  1.
         -1    1    6    6    0  502 -0.60961165339E+02 -0.60777369357E+02  0.12326181134E+03  0.15034502466E+03  0.00000000000E+00 0.  1.
<mgrwt>
<rscale>  0 0.17162582E+04</rscale>
<asrwt>0</asrwt>
<pdfrwt beam="1">  1        1 0.13003265E+00 0.17162582E+04</pdfrwt>
<pdfrwt beam="2">  1       -1 0.13403744E+00 0.17162582E+04</pdfrwt>
<totfact> 0.90148138E+00</totfact>
</mgrwt>
</event>
<event>
12    1  0.2404959E-007  0.2326226E+04  0.7818608E-02  0.8467652E-01
          1   -1    0    0  501    0  0.00000000000E+00  0.00000000000E+00  0.12470431361E+04  0.12470431361E+04  0.00000000000E+00 0.  1.
         -1   -1    0    0    0  501 -0.00000000000E+00 -0.00000000000E+00 -0.10848312304E+04  0.10848312304E+04  0.00000000000E+00 0. -1.
         23    2    1    2    0    0  0.81836874768E+03  0.43430085104E+03  0.40781479978E+03  0.10164128377E+04  0.91855915611E+02 0.  0.
        254    2    1    2    0    0 -0.81836874768E+03 -0.43430085104E+03 -0.24560289399E+03  0.13154615289E+04  0.90098480341E+03 0.  0.
        -24    2    4    4    0    0 -0.94139369823E+03 -0.34368606243E+03 -0.40251826991E+03  0.10829730694E+04  0.80420811031E+02 0.  0.
         24    2    4    4    0    0  0.12302495055E+03 -0.90614788619E+02  0.15691537592E+03  0.23248845947E+03  0.77988910827E+02 0.  0.
         11    1    3    3    0    0  0.68376979844E+03  0.34366663728E+03  0.36886161325E+03  0.84953327455E+03  0.00000000000E+00 0.  1.
        -11    1    3    3    0    0  0.13459894924E+03  0.90634213760E+02  0.38953186525E+02  0.16687956310E+03  0.00000000000E+00 0. -1.
          4    1    6    6  502    0  0.11348323568E+03 -0.55415049761E+02  0.86143688008E+02  0.15287252043E+03  0.00000000000E+00 0. -1.
          1    1    5    5  503    0 -0.81132734497E+03 -0.31280463400E+03 -0.32402349115E+03  0.92794936423E+03  0.00000000000E+00 0. -1.
         -4    1    5    5    0  503 -0.13006635325E+03 -0.30881428431E+02 -0.78494778756E+02  0.15502370516E+03  0.00000000000E+00 0.  1.
         -3    1    6    6    0  502  0.95417148674E+01 -0.35199738858E+02  0.70771687912E+02  0.79615939033E+02  0.00000000000E+00 0.  1.
<mgrwt>
<rscale>  0 0.23262256E+04</rscale>
<asrwt>0</asrwt>
<pdfrwt beam="1">  1        1 0.19185279E+00 0.23262256E+04</pdfrwt>
<pdfrwt beam="2">  1       -1 0.16689711E+00 0.23262256E+04</pdfrwt>
<totfact> 0.23104669E+00</totfact>
</mgrwt>
</event>
<event>
12    1  0.2404959E-007  0.1663761E+04  0.7818608E-02  0.8782307E-01
          1   -1    0    0  501    0  0.00000000000E+00  0.00000000000E+00  0.24448234792E+04  0.24448234792E+04  0.00000000000E+00 0. -1.
         -1   -1    0    0    0  501 -0.00000000000E+00 -0.00000000000E+00 -0.28305738169E+03  0.28305738169E+03  0.00000000000E+00 0.  1.
         23    2    1    2    0    0 -0.25450236565E+02 -0.57755254673E+03  0.62194557207E+03  0.85407221453E+03  0.91697296781E+02 0.  0.
        254    2    1    2    0    0  0.25450236565E+02  0.57755254673E+03  0.15398205255E+04  0.18738086464E+04  0.89771762480E+03 0.  0.
        -24    2    4    4    0    0 -0.49555846526E+02  0.80227456375E+03  0.12772260431E+04  0.15112537473E+04  0.80506310161E+02 0.  0.
         24    2    4    4    0    0  0.75006083091E+02 -0.22472201702E+03  0.26259448233E+03  0.36255489907E+03  0.79776533238E+02 0.  0.
         13    1    3    3    0    0 -0.23759893878E+02 -0.12505304162E+03  0.91068647331E+02  0.15651292056E+03  0.00000000000E+00 0.  1.
        -13    1    3    3    0    0 -0.16903426867E+01 -0.45249950512E+03  0.53087692473E+03  0.69755929397E+03  0.00000000000E+00 0. -1.
          2    1    6    6  502    0  0.46122661000E+02 -0.10806649864E+03  0.73788287029E+02  0.13874573611E+03  0.00000000000E+00 0. -1.
          3    1    5    5  503    0 -0.59666327005E+02  0.40562312138E+03  0.68767496861E+03  0.80061666835E+03  0.00000000000E+00 0. -1.
         -4    1    5    5    0  503  0.10110480479E+02  0.39665144237E+03  0.58955107453E+03  0.71063707898E+03  0.00000000000E+00 0.  1.
         -1    1    6    6    0  502  0.28883422091E+02 -0.11665551837E+03  0.18880619531E+03  0.22380916296E+03  0.00000000000E+00 0.  1.
<mgrwt>
<rscale>  0 0.16637612E+04</rscale>
<asrwt>0</asrwt>
<pdfrwt beam="1">  1        1 0.37612668E+00 0.16637612E+04</pdfrwt>
<pdfrwt beam="2">  1       -1 0.43547291E-01 0.16637612E+04</pdfrwt>
<totfact> 0.73630677E+00</totfact>
</mgrwt>
</event>
<event>
12    1  0.2404959E-007  0.1191409E+04  0.7818608E-02  0.9120409E-01
          2   -1    0    0  501    0  0.00000000000E+00  0.00000000000E+00  0.96674627132E+03  0.96674627132E+03  0.00000000000E+00 0. -1.
         -2   -1    0    0    0  501 -0.00000000000E+00 -0.00000000000E+00 -0.36707057460E+03  0.36707057460E+03  0.00000000000E+00 0.  1.
         23    2    1    2    0    0  0.53645284502E+01  0.23711696543E+03  0.83278730093E+02  0.26827711013E+03  0.93723142654E+02 0.  0.
        254    2    1    2    0    0 -0.53645284502E+01 -0.23711696543E+03  0.51639696663E+03  0.10655397358E+04  0.90136333848E+03 0.  0.
        -24    2    4    4    0    0 -0.56171128959E+02 -0.73449525013E+02  0.75190370583E+03  0.76159406891E+03  0.78206870014E+02 0.  0.
         24    2    4    4    0    0  0.50806600509E+02 -0.16366744042E+03 -0.23550673920E+03  0.30394566688E+03  0.86897655313E+02 0.  0.
         13    1    3    3    0    0 -0.16643084028E+02  0.19345040424E+03  0.97612546846E+02  0.21732063972E+03  0.00000000000E+00 0. -1.
        -13    1    3    3    0    0  0.22007612478E+02  0.43666561193E+02 -0.14333816752E+02  0.50956470404E+02  0.00000000000E+00 0.  1.
          2    1    6    6  502    0 -0.12456777260E+01  0.10149454088E+02 -0.17933215812E+02  0.20643724486E+02  0.00000000000E+00 0. -1.
          3    1    5    5  503    0 -0.23651799164E+02 -0.78622589700E+02  0.41213389520E+03  0.42023239617E+03  0.00000000000E+00 0. -1.
         -4    1    5    5    0  503 -0.32519329795E+02  0.51730646870E+01  0.33976981062E+03  0.34136167275E+03  0.00000000000E+00 0.  1.
         -1    1    6    6    0  502  0.52052278235E+02 -0.17381689451E+03 -0.21757352339E+03  0.28330194240E+03  0.00000000000E+00 0.  1.
<mgrwt>
<rscale>  0 0.11914094E+04</rscale>
<asrwt>0</asrwt>
<pdfrwt beam="1">  1        2 0.14873020E+00 0.11914094E+04</pdfrwt>
<pdfrwt beam="2">  1       -2 0.56472396E-01 0.11914094E+04</pdfrwt>
<totfact> 0.76898064E+01</totfact>
</mgrwt>
</event>
<event>
12    1  0.2404959E-007  0.1997355E+04  0.7818608E-02  0.8607858E-01
          2   -1    0    0  501    0  0.00000000000E+00  0.00000000000E+00  0.13927499284E+04  0.13927499284E+04  0.00000000000E+00 0. -1.
         -2   -1    0    0    0  501 -0.00000000000E+00 -0.00000000000E+00 -0.71610642134E+03  0.71610642134E+03  0.00000000000E+00 0.  1.
         23    2    1    2    0    0  0.11678701779E+03 -0.48418552702E+03  0.92372101552E+03  0.10536232079E+04  0.93736426584E+02 0.  0.
        254    2    1    2    0    0 -0.11678701779E+03  0.48418552702E+03 -0.24707750849E+03  0.10552331418E+04  0.89688062540E+03 0.  0.
        -24    2    4    4    0    0 -0.33535894685E+03 -0.11925520412E+03 -0.51650536584E+01  0.36503829520E+03  0.80863169877E+02 0.  0.
         24    2    4    4    0    0  0.21857192906E+03  0.60344073114E+03 -0.24191245483E+03  0.69019484658E+03  0.77025231386E+02 0.  0.
         11    1    3    3    0    0  0.12391947664E+02 -0.22636392493E+03  0.46116342990E+03  0.51387342406E+03  0.00000000000E+00 0. -1.
        -11    1    3    3    0    0  0.10439507013E+03 -0.25782160209E+03  0.46255758562E+03  0.53974978387E+03  0.00000000000E+00 0.  1.
          2    1    6    6  502    0  0.36680372351E+02  0.20449202682E+03 -0.85784949318E+02  0.22476987405E+03  0.00000000000E+00 0. -1.
          3    1    5    5  503    0 -0.10322528119E+03 -0.64499829088E+02  0.26121151656E+02  0.12449096832E+03  0.00000000000E+00 0. -1.
         -4    1    5    5    0  503 -0.23213366566E+03 -0.54755375035E+02 -0.31286205315E+02  0.24054732688E+03  0.00000000000E+00 0.  1.
         -1    1    6    6    0  502  0.18189155671E+03  0.39894870432E+03 -0.15612750552E+03  0.46542497253E+03  0.00000000000E+00 0.  1.
<mgrwt>
<rscale>  0 0.19973554E+04</rscale>
<asrwt>0</asrwt>
<pdfrwt beam="1">  1        2 0.21426922E+00 0.19973554E+04</pdfrwt>
<pdfrwt beam="2">  1       -2 0.11017022E+00 0.19973554E+04</pdfrwt>
<totfact> 0.88879930E+00</totfact>
</mgrwt>
</event>
<event>
12    1  0.2404959E-007  0.1840714E+04  0.7818608E-02  0.8684943E-01
         -2   -1    0    0    0  501 -0.00000000000E+00  0.00000000000E+00  0.68468172401E+03  0.68468172401E+03  0.00000000000E+00 0.  1.
          2   -1    0    0  501    0  0.00000000000E+00 -0.00000000000E+00 -0.12371549647E+04  0.12371549647E+04  0.00000000000E+00 0. -1.
         23    2    1    2    0    0 -0.54905113053E+03 -0.25663784279E+03  0.14811609074E+03  0.63020623173E+03  0.88889773834E+02 0.  0.
        254    2    1    2    0    0  0.54905113053E+03  0.25663784279E+03 -0.70058933148E+03  0.12916304570E+04  0.90009093976E+03 0.  0.
        -24    2    4    4    0    0 -0.29681530256E+02 -0.24003998783E+03 -0.30094862803E+01  0.25499112353E+03  0.80692174806E+02 0.  0.
         24    2    4    4    0    0  0.57873266078E+03  0.49667783061E+03 -0.69757984520E+03  0.10366393335E+04  0.79894350478E+02 0.  0.
         13    1    3    3    0    0 -0.18949025550E+03 -0.11995665416E+03  0.87803055870E+02  0.24084337738E+03  0.00000000000E+00 0.  1.
        -13    1    3    3    0    0 -0.35956087502E+03 -0.13668118863E+03  0.60313034873E+02  0.38936285435E+03  0.00000000000E+00 0. -1.
          2    1    6    6  502    0  0.49681312102E+03  0.45932113657E+03 -0.60850637879E+03  0.90998856957E+03  0.00000000000E+00 0. -1.
          3    1    5    5  503    0 -0.48862704300E+02 -0.21710137994E+03 -0.14390487079E+02  0.22299699362E+03  0.00000000000E+00 0. -1.
         -4    1    5    5    0  503  0.19181174044E+02 -0.22938607888E+02  0.11381000799E+02  0.31994129910E+02  0.00000000000E+00 0.  1.
         -1    1    6    6    0  502  0.81919539759E+02  0.37356694046E+02 -0.89073466410E+02  0.12665076392E+03  0.00000000000E+00 0.  1.
<mgrwt>
<rscale>  0 0.18407144E+04</rscale>
<asrwt>0</asrwt>
<pdfrwt beam="1">  1        2 0.19033153E+00 0.18407144E+04</pdfrwt>
<pdfrwt beam="2">  1       -2 0.10533565E+00 0.18407144E+04</pdfrwt>
<totfact> 0.12357876E+01</totfact>
</mgrwt>
</event>
<event>
12    1  0.2404959E-007  0.1462460E+04  0.7818608E-02  0.8909808E-01
         -1   -1    0    0    0  501 -0.00000000000E+00  0.00000000000E+00  0.10244564097E+04  0.10244564097E+04  0.00000000000E+00 0.  1.
          1   -1    0    0  501    0  0.00000000000E+00 -0.00000000000E+00 -0.52193273181E+03  0.52193273181E+03  0.00000000000E+00 0. -1.
         23    2    1    2    0    0  0.32796905911E+03  0.29185402496E+03  0.58097496401E+02  0.45223000521E+03  0.91619773556E+02 0.  0.
        254    2    1    2    0    0 -0.32796905911E+03 -0.29185402496E+03  0.44442618145E+03  0.10941591363E+04  0.89829121619E+03 0.  0.
        -24    2    4    4    0    0 -0.20649339759E+03  0.22872473965E+03  0.45377205080E+03  0.55338163522E+03  0.73264113570E+02 0.  0.
         24    2    4    4    0    0 -0.12147566151E+03 -0.52057876461E+03 -0.93458693493E+01  0.54077750104E+03  0.81205750152E+02 0.  0.
         13    1    3    3    0    0  0.32059459042E+03  0.26767630318E+03  0.36964903527E+02  0.41928260015E+03  0.00000000000E+00 0. -1.
        -13    1    3    3    0    0  0.73744686843E+01  0.24177721776E+02  0.21132592874E+02  0.32947405061E+02  0.00000000000E+00 0.  1.
          2    1    6    6  502    0 -0.11876396351E+03 -0.44997513379E+03 -0.32254853516E+02  0.46650067056E+03  0.00000000000E+00 0. -1.
          3    1    5    5  503    0 -0.13448737213E+03  0.19563328364E+03  0.33443477047E+03  0.41012906582E+03  0.00000000000E+00 0. -1.
         -4    1    5    5    0  503 -0.72006025466E+02  0.33091456005E+02  0.11933728032E+03  0.14325256940E+03  0.00000000000E+00 0.  1.
         -1    1    6    6    0  502 -0.27116980040E+01 -0.70603630814E+02  0.22908984167E+02  0.74276830478E+02  0.00000000000E+00 0.  1.
<mgrwt>
<rscale>  0 0.14624600E+04</rscale>
<asrwt>0</asrwt>
<pdfrwt beam="1">  1        1 0.80297344E-01 0.14624600E+04</pdfrwt>
<pdfrwt beam="2">  1       -1 0.15760868E+00 0.14624600E+04</pdfrwt>
<totfact> 0.12346502E+01</totfact>
</mgrwt>
</event>
<event>
12    1  0.2404959E-007  0.1826385E+04  0.7818608E-02  0.8692392E-01
          2   -1    0    0  501    0  0.00000000000E+00  0.00000000000E+00  0.34139155575E+03  0.34139155575E+03  0.00000000000E+00 0. -1.
         -2   -1    0    0    0  501 -0.00000000000E+00 -0.00000000000E+00 -0.24427111833E+04  0.24427111833E+04  0.00000000000E+00 0.  1.
         23    2    1    2    0    0 -0.49664378820E+03  0.42366589520E+03 -0.46626714648E+03  0.80754056351E+03  0.92568173292E+02 0.  0.
        254    2    1    2    0    0  0.49664378820E+03 -0.42366589520E+03 -0.16350524810E+04  0.19765621755E+04  0.89847291268E+03 0.  0.
        -24    2    4    4    0    0  0.26905692014E+03 -0.55271496124E+03 -0.15806464116E+04  0.16977564750E+04  0.77772200932E+02 0.  0.
         24    2    4    4    0    0  0.22758686806E+03  0.12904906604E+03 -0.54406069476E+02  0.27880570055E+03  0.79518263972E+02 0.  0.
         13    1    3    3    0    0 -0.87694310142E+02  0.50682726316E+02 -0.10879780834E+03  0.14864721281E+03  0.00000000000E+00 0.  1.
        -13    1    3    3    0    0 -0.40894947806E+03  0.37298316889E+03 -0.35746933815E+03  0.65889335070E+03  0.00000000000E+00 0. -1.
          2    1    6    6  502    0  0.51417757548E+02  0.15135066080E+01  0.90936381935E+01  0.52237637285E+02  0.00000000000E+00 0. -1.
          1    1    5    5  503    0  0.26042320253E+02 -0.12415147523E+03 -0.31139824217E+03  0.33624493524E+03  0.00000000000E+00 0. -1.
         -2    1    5    5    0  503  0.24301459989E+03 -0.42856348601E+03 -0.12692481694E+04  0.13615115397E+04  0.00000000000E+00 0.  1.
         -1    1    6    6    0  502  0.17616911051E+03  0.12753555943E+03 -0.63499707670E+02  0.22656806327E+03  0.00000000000E+00 0.  1.
<mgrwt>
<rscale>  0 0.18263855E+04</rscale>
<asrwt>0</asrwt>
<pdfrwt beam="1">  1        2 0.52521777E-01 0.18263855E+04</pdfrwt>
<pdfrwt beam="2">  1       -2 0.37580173E+00 0.18263855E+04</pdfrwt>
<totfact> 0.95791990E-01</totfact>
</mgrwt>
</event>
<event>
12    1  0.2404959E-007  0.1360090E+04  0.7818608E-02  0.8983225E-01
          2   -1    0    0  501    0  0.00000000000E+00  0.00000000000E+00  0.37227982881E+03  0.37227982881E+03  0.00000000000E+00 0. -1.
         -2   -1    0    0    0  501 -0.00000000000E+00 -0.00000000000E+00 -0.12422415587E+04  0.12422415587E+04  0.00000000000E+00 0.  1.
         23    2    1    2    0    0 -0.13198501370E+03  0.24676754785E+03  0.46073152397E+02  0.29912898293E+03  0.95084943833E+02 0.  0.
        254    2    1    2    0    0  0.13198501370E+03 -0.24676754785E+03 -0.91603488233E+03  0.13153924046E+04  0.90156697254E+03 0.  0.
        -24    2    4    4    0    0  0.89205771685E+02  0.29808829666E+03 -0.59573042226E+03  0.67686444848E+03  0.80227447313E+02 0.  0.
         24    2    4    4    0    0  0.42779242016E+02 -0.54485584451E+03 -0.32030446007E+03  0.63852795615E+03  0.80156402081E+02 0.  0.
         13    1    3    3    0    0 -0.81560805654E+01  0.10637625623E+03  0.32084417158E+02  0.11140843488E+03  0.00000000000E+00 0.  1.
        -13    1    3    3    0    0 -0.12382893314E+03  0.14039129162E+03  0.13988735239E+02  0.18772054804E+03  0.00000000000E+00 0. -1.
          2    1    6    6  502    0  0.51155482425E+02 -0.49993584152E+03 -0.31354331122E+03  0.59233616894E+03  0.00000000000E+00 0. -1.
          1    1    5    5  503    0  0.48988194861E+02  0.14158753566E+03 -0.37067687126E+03  0.39981022545E+03  0.00000000000E+00 0. -1.
         -4    1    5    5    0  503  0.40217576824E+02  0.15650076100E+03 -0.22505355100E+03  0.27705422302E+03  0.00000000000E+00 0.  1.
         -3    1    6    6    0  502 -0.83762404085E+01 -0.44920002987E+02 -0.67611488525E+01  0.46191787209E+02  0.00000000000E+00 0.  1.
<mgrwt>
<rscale>  0 0.13600904E+04</rscale>
<asrwt>0</asrwt>
<pdfrwt beam="1">  1        2 0.57273820E-01 0.13600904E+04</pdfrwt>
<pdfrwt beam="2">  1       -2 0.19111409E+00 0.13600904E+04</pdfrwt>
<totfact> 0.12808354E+01</totfact>
</mgrwt>
</event>
<event>
12    1  0.2404959E-007  0.2254625E+04  0.7818608E-02  0.8496030E-01
          1   -1    0    0  501    0  0.00000000000E+00  0.00000000000E+00  0.79866301577E+03  0.79866301577E+03  0.00000000000E+00 0. -1.
         -1   -1    0    0    0  501 -0.00000000000E+00 -0.00000000000E+00 -0.15912010429E+04  0.15912010429E+04  0.00000000000E+00 0.  1.
         23    2    1    2    0    0 -0.89969172237E+03 -0.21114697702E+03 -0.12659112055E+03  0.93715388431E+03  0.90575106268E+02 0.  0.
        254    2    1    2    0    0  0.89969172237E+03  0.21114697702E+03 -0.66594690657E+03  0.14527101743E+04  0.90158378816E+03 0.  0.
        -24    2    4    4    0    0  0.18643038076E+03 -0.17426601944E+03  0.14489230135E+03  0.30317913965E+03  0.76150373118E+02 0.  0.
         24    2    4    4    0    0  0.71326134160E+03  0.38541299646E+03 -0.81083920792E+03  0.11495310347E+04  0.81709603897E+02 0.  0.
         11    1    3    3    0    0 -0.82021686531E+02  0.15697720921E+01  0.44912821754E+01  0.82159557334E+02  0.00000000000E+00 0. -1.
        -11    1    3    3    0    0 -0.81767003584E+03 -0.21271674911E+03 -0.13108240272E+03  0.85499432697E+03  0.00000000000E+00 0.  1.
          4    1    6    6  502    0  0.40806786533E+03  0.19301874074E+03 -0.40435755667E+03  0.60603683933E+03  0.00000000000E+00 0. -1.
          1    1    5    5  503    0  0.68896670111E+02 -0.11580499936E+03  0.80525432137E+02  0.15697736859E+03  0.00000000000E+00 0. -1.
         -2    1    5    5    0  503  0.11753371065E+03 -0.58461020076E+02  0.64366869210E+02  0.14620177105E+03  0.00000000000E+00 0.  1.
         -3    1    6    6    0  502  0.30519347627E+03  0.19239425571E+03 -0.40648165125E+03  0.54349419536E+03  0.00000000000E+00 0.  1.
<mgrwt>
<rscale>  0 0.22546250E+04</rscale>
<asrwt>0</asrwt>
<pdfrwt beam="1">  1        1 0.12287123E+00 0.22546250E+04</pdfrwt>
<pdfrwt beam="2">  1       -1 0.24480016E+00 0.22546250E+04</pdfrwt>
<totfact> 0.15167375E+00</totfact>
</mgrwt>
</event>
<event>
12    1  0.2404959E-007  0.1716790E+04  0.7818608E-02  0.8751846E-01
         -1   -1    0    0    0  501 -0.00000000000E+00  0.00000000000E+00  0.10293555541E+04  0.10293555541E+04  0.00000000000E+00 0.  1.
          1   -1    0    0  501    0  0.00000000000E+00 -0.00000000000E+00 -0.71582847736E+03  0.71582847736E+03  0.00000000000E+00 0. -1.
         23    2    1    2    0    0 -0.24616181910E+03  0.55986870292E+03  0.20942292125E+02  0.61872851903E+03  0.91311527079E+02 0.  0.
        254    2    1    2    0    0  0.24616181910E+03 -0.55986870292E+03  0.29258478461E+03  0.11264555124E+04  0.89958188043E+03 0.  0.
        -24    2    4    4    0    0  0.17717340888E+03 -0.57750574282E+03  0.56667284780E+03  0.83214056766E+03  0.80227851160E+02 0.  0.
         24    2    4    4    0    0  0.68988410219E+02  0.17637039908E+02 -0.27408806319E+03  0.29431494476E+03  0.80165793253E+02 0.  0.
         13    1    3    3    0    0 -0.21328311238E+03  0.42053812912E+03 -0.12577588451E+02  0.47169926839E+03  0.00000000000E+00 0. -1.
        -13    1    3    3    0    0 -0.32878706717E+02  0.13933057380E+03  0.33519880576E+02  0.14702925064E+03  0.00000000000E+00 0.  1.
          2    1    6    6  502    0  0.30887286704E+02 -0.30113625148E+02 -0.80675566262E+02  0.91484435240E+02  0.00000000000E+00 0. -1.
          3    1    5    5  503    0  0.49630991781E+02 -0.92556079900E+02  0.13075507370E+03  0.16771032339E+03  0.00000000000E+00 0. -1.
         -4    1    5    5    0  503  0.12754241710E+03 -0.48494966292E+03  0.43591777410E+03  0.66443024427E+03  0.00000000000E+00 0.  1.
         -1    1    6    6    0  502  0.38101123515E+02  0.47750665056E+02 -0.19341249693E+03  0.20283050952E+03  0.00000000000E+00 0.  1.
<mgrwt>
<rscale>  0 0.17167901E+04</rscale>
<asrwt>0</asrwt>
<pdfrwt beam="1">  1        1 0.11012746E+00 0.17167901E+04</pdfrwt>
<pdfrwt beam="2">  1       -1 0.15836239E+00 0.17167901E+04</pdfrwt>
<totfact> 0.75243252E+00</totfact>
</mgrwt>
</event>
<event>
12    1  0.2404959E-007  0.1286654E+04  0.7818608E-02  0.9040216E-01
          2   -1    0    0  501    0  0.00000000000E+00  0.00000000000E+00  0.15798191122E+04  0.15798191122E+04  0.00000000000E+00 0. -1.
         -2   -1    0    0    0  501 -0.00000000000E+00 -0.00000000000E+00 -0.26197291870E+03  0.26197291870E+03  0.00000000000E+00 0.  1.
         23    2    1    2    0    0  0.58269409071E+02 -0.22617014222E+03  0.65396303325E+03  0.70019223096E+03  0.89739925167E+02 0.  0.
        254    2    1    2    0    0 -0.58269409071E+02  0.22617014222E+03  0.66388316027E+03  0.11415998000E+04  0.89886650595E+03 0.  0.
        -24    2    4    4    0    0 -0.13068838398E+03  0.64006104852E+02 -0.19728434468E+03  0.25883885140E+03  0.83067461582E+02 0.  0.
         24    2    4    4    0    0  0.72418974913E+02  0.16216403736E+03  0.86116750495E+03  0.88276094856E+03  0.78203182668E+02 0.  0.
         11    1    3    3    0    0  0.15667176879E+02 -0.18104751111E+03  0.41014260550E+03  0.44859850486E+03  0.00000000000E+00 0. -1.
        -11    1    3    3    0    0  0.42602232192E+02 -0.45122631106E+02  0.24382042775E+03  0.25159372610E+03  0.00000000000E+00 0.  1.
          2    1    6    6  502    0  0.71299236625E+02  0.13894257249E+03  0.58074004366E+03  0.60137144753E+03  0.00000000000E+00 0. -1.
          3    1    5    5  503    0 -0.62302977017E+01 -0.13721309552E+02 -0.44591392590E+02  0.47068920090E+02  0.00000000000E+00 0. -1.
         -4    1    5    5    0  503 -0.12445808628E+03  0.77727414404E+02 -0.15269295209E+03  0.21176993131E+03  0.00000000000E+00 0.  1.
         -1    1    6    6    0  502  0.11197382876E+01  0.23221464874E+02  0.28042746129E+03  0.28138950103E+03  0.00000000000E+00 0.  1.
<mgrwt>
<rscale>  0 0.12866543E+04</rscale>
<asrwt>0</asrwt>
<pdfrwt beam="1">  1        2 0.24304909E+00 0.12866543E+04</pdfrwt>
<pdfrwt beam="2">  1       -2 0.40303527E-01 0.12866543E+04</pdfrwt>
<totfact> 0.65413326E+01</totfact>
</mgrwt>
</event>
<event>
12    1  0.2404959E-007  0.1373128E+04  0.7818608E-02  0.8973503E-01
          1   -1    0    0  501    0  0.00000000000E+00  0.00000000000E+00  0.29234729279E+03  0.29234729279E+03  0.00000000000E+00 0. -1.
         -1   -1    0    0    0  501 -0.00000000000E+00 -0.00000000000E+00 -0.16123642698E+04  0.16123642698E+04  0.00000000000E+00 0.  1.
         23    2    1    2    0    0  0.13949428346E+03  0.79913251949E+02 -0.86504119809E+03  0.88485299871E+03  0.93934934747E+02 0.  0.
        254    2    1    2    0    0 -0.13949428346E+03 -0.79913251949E+02 -0.45497577895E+03  0.10198585639E+04  0.89847857404E+03 0.  0.
        -24    2    4    4    0    0 -0.18454765420E+03  0.26911081278E+03 -0.55188985040E+03  0.64608931304E+03  0.79815582533E+02 0.  0.
         24    2    4    4    0    0  0.45053370742E+02 -0.34902406473E+03  0.96914071452E+02  0.37376925089E+03  0.80395968113E+02 0.  0.
         11    1    3    3    0    0 -0.12462968320E+01  0.28634248174E+02 -0.25872673261E+03  0.26030942279E+03  0.00000000000E+00 0.  1.
        -11    1    3    3    0    0  0.14074058029E+03  0.51279003776E+02 -0.60631446548E+03  0.62454357591E+03  0.00000000000E+00 0. -1.
          4    1    6    6  502    0 -0.14157076019E+02 -0.13870225150E+03  0.14217477081E+02  0.14014590264E+03  0.00000000000E+00 0. -1.
          1    1    5    5  503    0 -0.23150458829E+02  0.54239753890E+02 -0.52374914212E+02  0.78873482773E+02  0.00000000000E+00 0. -1.
         -2    1    5    5    0  503 -0.16139719537E+03  0.21487105889E+03 -0.49951493619E+03  0.56721583026E+03  0.00000000000E+00 0.  1.
         -3    1    6    6    0  502  0.59210446760E+02 -0.21032181323E+03  0.82696594371E+02  0.23362334824E+03  0.00000000000E+00 0.  1.
<mgrwt>
<rscale>  0 0.13731283E+04</rscale>
<asrwt>0</asrwt>
<pdfrwt beam="1">  1        1 0.44976507E-01 0.13731283E+04</pdfrwt>
<pdfrwt beam="2">  1       -1 0.24805604E+00 0.13731283E+04</pdfrwt>
<totfact> 0.63680218E+00</totfact>
</mgrwt>
</event>
<event>
12    1  0.2404959E-007  0.1467644E+04  0.7818608E-02  0.8906259E-01
         -1   -1    0    0    0  501 -0.00000000000E+00  0.00000000000E+00  0.95660639160E+03  0.95660639160E+03  0.00000000000E+00 0.  1.
          1   -1    0    0  501    0  0.00000000000E+00 -0.00000000000E+00 -0.56292201590E+03  0.56292201590E+03  0.00000000000E+00 0. -1.
         23    2    1    2    0    0 -0.13077093438E+03  0.37514973136E+02  0.56910154916E+03  0.59232018169E+03  0.91968548368E+02 0.  0.
        254    2    1    2    0    0  0.13077093438E+03 -0.37514973136E+02 -0.17541717347E+03  0.92720822581E+03  0.90024191125E+03 0.  0.
        -24    2    4    4    0    0  0.14053183421E+03  0.25187633338E+03  0.26122957835E+03  0.39728491529E+03  0.80022044220E+02 0.  0.
         24    2    4    4    0    0 -0.97608998349E+01 -0.28939130652E+03 -0.43664675182E+03  0.52992331053E+03  0.79471540254E+02 0.  0.
         13    1    3    3    0    0 -0.27403897722E+02 -0.27927106180E+02  0.96263382167E+02  0.10391119101E+03  0.00000000000E+00 0. -1.
        -13    1    3    3    0    0 -0.10336703666E+03  0.65442079317E+02  0.47283816699E+03  0.48840899068E+03  0.00000000000E+00 0.  1.
          4    1    6    6  502    0 -0.67897503486E+01 -0.23516492186E+03 -0.28928675320E+03  0.37287459924E+03  0.00000000000E+00 0. -1.
          3    1    5    5  503    0  0.10122870171E+02  0.80045889978E+02  0.47538334507E+02  0.93646731126E+02  0.00000000000E+00 0. -1.
         -4    1    5    5    0  503  0.13040896404E+03  0.17183044341E+03  0.21369124384E+03  0.30363818416E+03  0.00000000000E+00 0.  1.
         -3    1    6    6    0  502 -0.29711494863E+01 -0.54226384658E+02 -0.14735999862E+03  0.15704871129E+03  0.00000000000E+00 0.  1.
<mgrwt>
<rscale>  0 0.14676441E+04</rscale>
<asrwt>0</asrwt>
<pdfrwt beam="1">  1        1 0.86603387E-01 0.14676441E+04</pdfrwt>
<pdfrwt beam="2">  1       -1 0.14717021E+00 0.14676441E+04</pdfrwt>
<totfact> 0.13369338E+01</totfact>
</mgrwt>
</event>
<event>
12    1  0.2404959E-007  0.2127983E+04  0.7818608E-02  0.8549016E-01
         -1   -1    0    0    0  501 -0.00000000000E+00  0.00000000000E+00  0.83936593704E+03  0.83936593704E+03  0.00000000000E+00 0.  1.
          1   -1    0    0  501    0  0.00000000000E+00 -0.00000000000E+00 -0.13487292611E+04  0.13487292611E+04  0.00000000000E+00 0. -1.
         23    2    1    2    0    0 -0.60521982397E+03 -0.26383770407E+03  0.37261269650E+03  0.76321612740E+03  0.88075343370E+02 0.  0.
        254    2    1    2    0    0  0.60521982397E+03  0.26383770407E+03 -0.88197602059E+03  0.14248790708E+04  0.90360239929E+03 0.  0.
        -24    2    4    4    0    0  0.80182729732E+03  0.36145094111E+02 -0.67862968160E+03  0.10541405282E+04  0.80252886848E+02 0.  0.
         24    2    4    4    0    0 -0.19660747335E+03  0.22769260996E+03 -0.20334633899E+03  0.37073854259E+03  0.74825865647E+02 0.  0.
         13    1    3    3    0    0 -0.32716397565E+03 -0.11625853965E+03  0.23742752726E+03  0.42062352016E+03  0.00000000000E+00 0.  1.
        -13    1    3    3    0    0 -0.27805584831E+03 -0.14757916442E+03  0.13518516924E+03  0.34259260724E+03  0.00000000000E+00 0. -1.
          2    1    6    6  502    0 -0.74232907075E+02  0.38831560371E+02 -0.41148661913E+02  0.93336096720E+02  0.00000000000E+00 0. -1.
          3    1    5    5  503    0  0.41704882512E+03  0.46973960111E+02 -0.31659132283E+03  0.52570556508E+03  0.00000000000E+00 0. -1.
         -4    1    5    5    0  503  0.38477847220E+03 -0.10828866000E+02 -0.36203835877E+03  0.52843496310E+03  0.00000000000E+00 0.  1.
         -1    1    6    6    0  502 -0.12237456628E+03  0.18886104959E+03 -0.16219767708E+03  0.27740244587E+03  0.00000000000E+00 0.  1.
<mgrwt>
<rscale>  0 0.21279825E+04</rscale>
<asrwt>0</asrwt>
<pdfrwt beam="1">  1        1 0.20749681E+00 0.21279825E+04</pdfrwt>
<pdfrwt beam="2">  1       -1 0.12913322E+00 0.21279825E+04</pdfrwt>
<totfact> 0.39518726E+00</totfact>
</mgrwt>
</event>
<event>
12    1  0.2404959E-007  0.1433780E+04  0.7818608E-02  0.8929724E-01
          2   -1    0    0  501    0  0.00000000000E+00  0.00000000000E+00  0.47623474073E+03  0.47623474073E+03  0.00000000000E+00 0. -1.
         -2   -1    0    0    0  501 -0.00000000000E+00 -0.00000000000E+00 -0.10791547060E+04  0.10791547060E+04  0.00000000000E+00 0.  1.
         23    2    1    2    0    0 -0.40841439910E+02  0.37785139226E+03  0.28854015772E+02  0.39199508852E+03  0.91585464744E+02 0.  0.
        254    2    1    2    0    0  0.40841439910E+02 -0.37785139226E+03 -0.63177398101E+03  0.11633943582E+04  0.89994909396E+03 0.  0.
        -24    2    4    4    0    0  0.58232445291E+02 -0.62592484906E+03 -0.20936464620E+03  0.66679810535E+03  0.74921451271E+02 0.  0.
         24    2    4    4    0    0 -0.17391005380E+02  0.24807345680E+03 -0.42240933482E+03  0.49659625283E+03  0.79594630138E+02 0.  0.
         11    1    3    3    0    0 -0.50322958252E+02  0.37667024243E+03  0.33267292976E+02  0.38147029300E+03  0.00000000000E+00 0. -1.
        -11    1    3    3    0    0  0.94815183421E+01  0.11811498238E+01 -0.44132772033E+01  0.10524795516E+02  0.00000000000E+00 0.  1.
          4    1    6    6  502    0  0.17435791943E+02  0.66046300917E+02 -0.17197827049E+03  0.18504768635E+03  0.00000000000E+00 0. -1.
          3    1    5    5  503    0 -0.14578810342E+02 -0.17524777154E+03 -0.72400950763E+02  0.19017418545E+03  0.00000000000E+00 0. -1.
         -4    1    5    5    0  503  0.72811255633E+02 -0.45067707752E+03 -0.13696369543E+03  0.47662391990E+03  0.00000000000E+00 0.  1.
         -3    1    6    6    0  502 -0.34826797324E+02  0.18202715589E+03 -0.25043106433E+03  0.31154856648E+03  0.00000000000E+00 0.  1.
<mgrwt>
<rscale>  0 0.14337796E+04</rscale>
<asrwt>0</asrwt>
<pdfrwt beam="1">  1        2 0.73266884E-01 0.14337796E+04</pdfrwt>
<pdfrwt beam="2">  1       -2 0.16602380E+00 0.14337796E+04</pdfrwt>
<totfact> 0.14383431E+01</totfact>
</mgrwt>
</event>
<event>
12    1  0.2404959E-007  0.2942388E+04  0.7818608E-02  0.8260376E-01
          1   -1    0    0  501    0  0.00000000000E+00  0.00000000000E+00  0.14779191445E+04  0.14779191445E+04  0.00000000000E+00 0. -1.
         -1   -1    0    0    0  501 -0.00000000000E+00 -0.00000000000E+00 -0.14644993745E+04  0.14644993745E+04  0.00000000000E+00 0.  1.
         23    2    1    2    0    0 -0.21000827634E+03  0.13087663101E+04 -0.12244663067E+03  0.13344012153E+04  0.93062858267E+02 0.  0.
        254    2    1    2    0    0  0.21000827634E+03 -0.13087663101E+04  0.13586640069E+03  0.16080173037E+04  0.90015956343E+03 0.  0.
        -24    2    4    4    0    0 -0.23020168522E+03 -0.27872001877E+02  0.29243687452E+02  0.24715036775E+03  0.80364461405E+02 0.  0.
         24    2    4    4    0    0  0.44020996156E+03 -0.12808943082E+04  0.10662271323E+03  0.13608669360E+04  0.78200865263E+02 0.  0.
         11    1    3    3    0    0 -0.10443336204E+03  0.38274268392E+03 -0.33714160340E+02  0.39816445573E+03  0.00000000000E+00 0. -1.
        -11    1    3    3    0    0 -0.10557491430E+03  0.92602362617E+03 -0.88732470334E+02  0.93623675961E+03  0.00000000000E+00 0.  1.
          4    1    6    6  502    0  0.43752883664E+03 -0.12586070101E+04  0.11370002647E+03  0.13373297218E+04  0.00000000000E+00 0. -1.
          1    1    5    5  503    0 -0.18783099654E+03 -0.23571562673E+02 -0.95459225059E+01  0.18954478749E+03  0.00000000000E+00 0. -1.
         -2    1    5    5    0  503 -0.42370688681E+02 -0.43004392035E+01  0.38789609957E+02  0.57605580261E+02  0.00000000000E+00 0.  1.
         -3    1    6    6    0  502  0.26811249268E+01 -0.22287298110E+02 -0.70773132375E+01  0.23537214164E+02  0.00000000000E+00 0.  1.
<mgrwt>
<rscale>  0 0.29423879E+04</rscale>
<asrwt>0</asrwt>
<pdfrwt beam="1">  1        1 0.22737218E+00 0.29423879E+04</pdfrwt>
<pdfrwt beam="2">  1       -1 0.22530760E+00 0.29423879E+04</pdfrwt>
<totfact> 0.58784828E-01</totfact>
</mgrwt>
</event>
<event>
12    1  0.2404959E-007  0.1859465E+04  0.7818608E-02  0.8675301E-01
         -2   -1    0    0    0  501 -0.00000000000E+00  0.00000000000E+00  0.83074771873E+03  0.83074771873E+03  0.00000000000E+00 0. -1.
          2   -1    0    0  501    0  0.00000000000E+00 -0.00000000000E+00 -0.10405109240E+04  0.10405109240E+04  0.00000000000E+00 0.  1.
         23    2    1    2    0    0  0.63520115160E+03  0.28345469900E+03 -0.21529395560E+03  0.73379459219E+03  0.90972231057E+02 0.  0.
        254    2    1    2    0    0 -0.63520115160E+03 -0.28345469900E+03  0.55307503430E+01  0.11374640505E+04  0.89998155962E+03 0.  0.
        -24    2    4    4    0    0  0.14608624257E+03  0.13857699616E+01  0.21913687454E+03  0.27520523937E+03  0.79836353665E+02 0.  0.
         24    2    4    4    0    0 -0.78128739418E+03 -0.28484046896E+03 -0.21360612420E+03  0.86225881115E+03  0.79489597158E+02 0.  0.
         11    1    3    3    0    0  0.23271500817E+03  0.80989602913E+02 -0.36592273497E+02  0.24910757774E+03  0.00000000000E+00 0. -1.
        -11    1    3    3    0    0  0.40248614344E+03  0.20246509609E+03 -0.17870168210E+03  0.48468701445E+03  0.00000000000E+00 0.  1.
          4    1    6    6  502    0 -0.27201476175E+03 -0.91454833871E+02 -0.11228734516E+03  0.30816304959E+03  0.00000000000E+00 0. -1.
          3    1    5    5  503    0  0.97379200716E+01 -0.84655294856E+01  0.76713657205E+02  0.77791242942E+02  0.00000000000E+00 0. -1.
         -2    1    5    5    0  503  0.13634832250E+03  0.98512994472E+01  0.14242321734E+03  0.19741399643E+03  0.00000000000E+00 0.  1.
         -3    1    6    6    0  502 -0.50927263242E+03 -0.19338563509E+03 -0.10131877904E+03  0.55409576156E+03  0.00000000000E+00 0.  1.
<mgrwt>
<rscale>  0 0.18594645E+04</rscale>
<asrwt>0</asrwt>
<pdfrwt beam="1">  1        2 0.16007860E+00 0.18594645E+04</pdfrwt>
<pdfrwt beam="2">  1       -2 0.12780734E+00 0.18594645E+04</pdfrwt>
<totfact> 0.10111248E+01</totfact>
</mgrwt>
</event>
<event>
12    1  0.2404959E-007  0.2801794E+04  0.7818608E-02  0.8302712E-01
          2   -1    0    0  501    0  0.00000000000E+00  0.00000000000E+00  0.18295993368E+04  0.18295993368E+04  0.00000000000E+00 0. -1.
         -2   -1    0    0    0  501 -0.00000000000E+00 -0.00000000000E+00 -0.10726460638E+04  0.10726460638E+04  0.00000000000E+00 0.  1.
         23    2    1    2    0    0 -0.11564602126E+04 -0.46301942936E+03  0.49400628165E+03  0.13433807853E+04  0.94034635280E+02 0.  0.
        254    2    1    2    0    0  0.11564602126E+04  0.46301942936E+03  0.26294699137E+03  0.15588646153E+04  0.89951684423E+03 0.  0.
        -24    2    4    4    0    0  0.19258325510E+03 -0.10909708749E+03  0.36071383983E+03  0.43083938760E+03  0.80731772051E+02 0.  0.
         24    2    4    4    0    0  0.96387695754E+03  0.57211651685E+03 -0.97766848459E+02  0.11280252277E+04  0.80662627373E+02 0.  0.
         11    1    3    3    0    0 -0.46688437211E+03 -0.22993504586E+03  0.18066859558E+03  0.55090133750E+03  0.00000000000E+00 0. -1.
        -11    1    3    3    0    0 -0.68957584054E+03 -0.23308438350E+03  0.31333768607E+03  0.79247944781E+03  0.00000000000E+00 0.  1.
          4    1    6    6  502    0  0.70510468578E+03  0.44759057891E+03 -0.97560791087E+02  0.84084960141E+03  0.00000000000E+00 0. -1.
          1    1    5    5  503    0  0.12211484335E+03 -0.25338258588E+02  0.21558399150E+03  0.24905926947E+03  0.00000000000E+00 0. -1.
         -2    1    5    5    0  503  0.70468411758E+02 -0.83758828898E+02  0.14512984833E+03  0.18178011814E+03  0.00000000000E+00 0.  1.
         -3    1    6    6    0  502  0.25877227177E+03  0.12452593794E+03 -0.20605737245E+00  0.28717562625E+03  0.00000000000E+00 0.  1.
<mgrwt>
<rscale>  0 0.28017941E+04</rscale>
<asrwt>0</asrwt>
<pdfrwt beam="1">  1        2 0.28147682E+00 0.28017941E+04</pdfrwt>
<pdfrwt beam="2">  1       -2 0.16502247E+00 0.28017941E+04</pdfrwt>
<totfact> 0.16731419E+00</totfact>
</mgrwt>
</event>
<event>
12    1  0.2404959E-007  0.1755741E+04  0.7818608E-02  0.8730197E-01
         -2   -1    0    0    0  501 -0.00000000000E+00  0.00000000000E+00  0.76024092315E+03  0.76024092315E+03  0.00000000000E+00 0.  1.
          2   -1    0    0  501    0  0.00000000000E+00 -0.00000000000E+00 -0.10137003717E+04  0.10137003717E+04  0.00000000000E+00 0. -1.
         23    2    1    2    0    0 -0.51723019868E+03  0.18657803380E+03 -0.43236830038E+03  0.70464109597E+03  0.85078116074E+02 0.  0.
        254    2    1    2    0    0  0.51723019868E+03 -0.18657803380E+03  0.17890885184E+03  0.10693001989E+04  0.89947545654E+03 0.  0.
        -24    2    4    4    0    0  0.27415859664E+03 -0.17446338464E+03 -0.34842857197E+03  0.48307574150E+03  0.79745178916E+02 0.  0.
         24    2    4    4    0    0  0.24307160203E+03 -0.12114649160E+02  0.52733742381E+03  0.58622445737E+03  0.79647896577E+02 0.  0.
         13    1    3    3    0    0 -0.18378016538E+03  0.65428033271E+02 -0.10326833872E+03  0.22072681420E+03  0.00000000000E+00 0.  1.
        -13    1    3    3    0    0 -0.33345003329E+03  0.12115000053E+03 -0.32909996167E+03  0.48391428177E+03  0.00000000000E+00 0. -1.
          4    1    6    6  502    0  0.48977999124E+02 -0.35169309836E+02  0.13711344522E+03  0.14978591928E+03  0.00000000000E+00 0. -1.
          1    1    5    5  503    0  0.59541347723E+02 -0.57645155935E+02 -0.47810797836E+02  0.95676582721E+02  0.00000000000E+00 0. -1.
         -2    1    5    5    0  503  0.21461724892E+03 -0.11681822871E+03 -0.30061777414E+03  0.38739915878E+03  0.00000000000E+00 0.  1.
         -3    1    6    6    0  502  0.19409360291E+03  0.23054660676E+02  0.39022397859E+03  0.43643853809E+03  0.00000000000E+00 0.  1.
<mgrwt>
<rscale>  0 0.17557409E+04</rscale>
<asrwt>0</asrwt>
<pdfrwt beam="1">  1        2 0.15595390E+00 0.17557409E+04</pdfrwt>
<pdfrwt beam="2">  1       -2 0.11696014E+00 0.17557409E+04</pdfrwt>
<totfact> 0.13231365E+01</totfact>
</mgrwt>
</event>
<event>
12    1  0.2404959E-007  0.1754245E+04  0.7818608E-02  0.8731017E-01
         -2   -1    0    0    0  501 -0.00000000000E+00  0.00000000000E+00  0.34319630581E+03  0.34319630581E+03  0.00000000000E+00 0.  1.
          2   -1    0    0  501    0  0.00000000000E+00 -0.00000000000E+00 -0.22417028734E+04  0.22417028734E+04  0.00000000000E+00 0. -1.
         23    2    1    2    0    0 -0.44363054096E+03 -0.32356696020E+03 -0.21231667955E+03  0.59578411474E+03  0.91524337497E+02 0.  0.
        254    2    1    2    0    0  0.44363054096E+03  0.32356696020E+03 -0.16861898881E+04  0.19891150645E+04  0.90102095792E+03 0.  0.
        -24    2    4    4    0    0  0.87841615601E+02  0.37997186483E+02 -0.14746143939E+04  0.14799569094E+04  0.81393532675E+02 0.  0.
         24    2    4    4    0    0  0.35578892536E+03  0.28556977372E+03 -0.21157549416E+03  0.50915815516E+03  0.79636563053E+02 0.  0.
         11    1    3    3    0    0 -0.42832859537E+03 -0.28481063767E+03 -0.18874866255E+03  0.54791289687E+03  0.00000000000E+00 0. -1.
        -11    1    3    3    0    0 -0.15301945590E+02 -0.38756322534E+02 -0.23568016996E+02  0.47871217869E+02  0.00000000000E+00 0.  1.
          4    1    6    6  502    0  0.72550412304E+02  0.35830476810E+02 -0.11245304944E+02  0.81693587736E+02  0.00000000000E+00 0. -1.
          1    1    5    5  503    0  0.36225709424E+02  0.27922535841E+02 -0.24589666481E+03  0.25011425349E+03  0.00000000000E+00 0. -1.
         -2    1    5    5    0  503  0.51615906177E+02  0.10074650643E+02 -0.12287177291E+04  0.12298426559E+04  0.00000000000E+00 0.  1.
         -3    1    6    6    0  502  0.28323851305E+03  0.24973929691E+03 -0.20033018922E+03  0.42746456743E+03  0.00000000000E+00 0.  1.
<mgrwt>
<rscale>  0 0.17542453E+04</rscale>
<asrwt>0</asrwt>
<pdfrwt beam="1">  1        2 0.34487737E+00 0.17542453E+04</pdfrwt>
<pdfrwt beam="2">  1       -2 0.52799431E-01 0.17542453E+04</pdfrwt>
<totfact> 0.15690408E+01</totfact>
</mgrwt>
</event>
<event>
12    1  0.2404959E-007  0.1414287E+04  0.7818608E-02  0.8943541E-01
          1   -1    0    0  501    0  0.00000000000E+00  0.00000000000E+00  0.17661260947E+04  0.17661260947E+04  0.00000000000E+00 0. -1.
         -1   -1    0    0    0  501 -0.00000000000E+00 -0.00000000000E+00 -0.28313499181E+03  0.28313499181E+03  0.00000000000E+00 0.  1.
         23    2    1    2    0    0 -0.22988993529E+03  0.31328619280E+03  0.23679707548E+03  0.46400309785E+03  0.90710522595E+02 0.  0.
        254    2    1    2    0    0  0.22988993529E+03 -0.31328619280E+03  0.12461940274E+04  0.15852579887E+04  0.89946968583E+03 0.  0.
        -24    2    4    4    0    0  0.22769461652E+02  0.96837828236E+02  0.10839210696E+04  0.10913878345E+04  0.79664965695E+02 0.  0.
         24    2    4    4    0    0  0.20712047364E+03 -0.41012402104E+03  0.16227295782E+03  0.49387015420E+03  0.80464980770E+02 0.  0.
         13    1    3    3    0    0 -0.13638209854E+03  0.12975376705E+03  0.14906407287E+03  0.24011708537E+03  0.00000000000E+00 0. -1.
        -13    1    3    3    0    0 -0.93507836752E+02  0.18353242576E+03  0.87733002610E+02  0.22388601248E+03  0.00000000000E+00 0.  1.
          4    1    6    6  502    0  0.14136645399E+03 -0.33750051973E+03  0.14867641722E+03  0.39496297570E+03  0.00000000000E+00 0. -1.
          1    1    5    5  503    0  0.19035855688E+02  0.10340509541E+03  0.74502957975E+03  0.75241215584E+03  0.00000000000E+00 0. -1.
         -2    1    5    5    0  503  0.37336059638E+01 -0.65672671769E+01  0.33889148986E+03  0.33897567865E+03  0.00000000000E+00 0.  1.
         -3    1    6    6    0  502  0.65754019656E+02 -0.72623501305E+02  0.13596540608E+02  0.98907178502E+02  0.00000000000E+00 0.  1.
<mgrwt>
<rscale>  0 0.14142872E+04</rscale>
<asrwt>0</asrwt>
<pdfrwt beam="1">  1        1 0.27171170E+00 0.14142872E+04</pdfrwt>
<pdfrwt beam="2">  1       -1 0.43559231E-01 0.14142872E+04</pdfrwt>
<totfact> 0.21779627E+01</totfact>
</mgrwt>
</event>
<event>
12    1  0.2404959E-007  0.1858780E+04  0.7818608E-02  0.8675651E-01
         -1   -1    0    0    0  501 -0.00000000000E+00  0.00000000000E+00  0.38202468689E+03  0.38202468689E+03  0.00000000000E+00 0.  1.
          1   -1    0    0  501    0  0.00000000000E+00 -0.00000000000E+00 -0.22610202286E+04  0.22610202286E+04  0.00000000000E+00 0. -1.
         23    2    1    2    0    0 -0.67168128922E+03 -0.73640438166E+01 -0.40700264744E+03  0.79158885174E+03  0.98751059457E+02 0.  0.
        254    2    1    2    0    0  0.67168128922E+03  0.73640438166E+01 -0.14719928943E+04  0.18514560638E+04  0.89995360536E+03 0.  0.
        -24    2    4    4    0    0  0.32535309365E+03  0.12059328341E+03 -0.14320534905E+04  0.14755325925E+04  0.77600621868E+02 0.  0.
         24    2    4    4    0    0  0.34632819557E+03 -0.11322923960E+03 -0.39939403845E+02  0.37592347126E+03  0.83421942667E+02 0.  0.
         11    1    3    3    0    0 -0.50431781248E+03  0.27807957186E+02 -0.33468753280E+03  0.60590880756E+03  0.00000000000E+00 0. -1.
        -11    1    3    3    0    0 -0.16736347673E+03 -0.35172001002E+02 -0.72315114644E+02  0.18568004417E+03  0.00000000000E+00 0.  1.
          2    1    6    6  502    0  0.13692498218E+03 -0.60250256960E+01  0.14245639154E+01  0.13706487902E+03  0.00000000000E+00 0. -1.
          1    1    5    5  503    0  0.20775766783E+03  0.37603211977E+02 -0.81311777507E+03  0.84008199970E+03  0.00000000000E+00 0. -1.
         -2    1    5    5    0  503  0.11759542582E+03  0.82990071434E+02 -0.61893571539E+03  0.63545059282E+03  0.00000000000E+00 0.  1.
         -1    1    6    6    0  502  0.20940321339E+03 -0.10720421390E+03 -0.41363967760E+02  0.23885859223E+03  0.00000000000E+00 0.  1.
<mgrwt>
<rscale>  0 0.18587798E+04</rscale>
<asrwt>0</asrwt>
<pdfrwt beam="1">  1        1 0.34784927E+00 0.18587798E+04</pdfrwt>
<pdfrwt beam="2">  1       -1 0.58773028E-01 0.18587798E+04</pdfrwt>
<totfact> 0.54540192E+00</totfact>
</mgrwt>
</event>
<event>
12    1  0.2404959E-007  0.3744019E+04  0.7818608E-02  0.8058276E-01
          2   -1    0    0  501    0  0.00000000000E+00  0.00000000000E+00  0.24096404356E+04  0.24096404356E+04  0.00000000000E+00 0. -1.
         -2   -1    0    0    0  501 -0.00000000000E+00 -0.00000000000E+00 -0.14543329733E+04  0.14543329733E+04  0.00000000000E+00 0.  1.
         23    2    1    2    0    0 -0.11883363137E+04 -0.12027145069E+04 -0.65004276624E+02  0.16945219661E+04  0.92270027332E+02 0.  0.
        254    2    1    2    0    0  0.11883363137E+04  0.12027145069E+04  0.10203117390E+04  0.21694514428E+04  0.89823055971E+03 0.  0.
        -24    2    4    4    0    0  0.10782216805E+04  0.10695972834E+04  0.47713547633E+03  0.15939123839E+04  0.79360467805E+02 0.  0.
         24    2    4    4    0    0  0.11011463316E+03  0.13311722352E+03  0.54317626264E+03  0.57553905887E+03  0.79745397136E+02 0.  0.
         11    1    3    3    0    0 -0.72402915449E+03 -0.66869669400E+03 -0.44297968997E+02  0.98657782013E+03  0.00000000000E+00 0. -1.
        -11    1    3    3    0    0 -0.46430715918E+03 -0.53401781292E+03 -0.20706307627E+02  0.70794414593E+03  0.00000000000E+00 0.  1.
          2    1    6    6  502    0  0.48705592099E+02  0.57728645937E+02  0.36325796874E+03  0.37102719997E+03  0.00000000000E+00 0. -1.
          1    1    5    5  503    0  0.10325968350E+04  0.99911754893E+03  0.45303951901E+03  0.15065646040E+04  0.00000000000E+00 0. -1.
         -2    1    5    5    0  503  0.45624845548E+02  0.70479734468E+02  0.24095957321E+02  0.87347779945E+02  0.00000000000E+00 0.  1.
         -1    1    6    6    0  502  0.61409041062E+02  0.75388577585E+02  0.17991829389E+03  0.20451185890E+03  0.00000000000E+00 0.  1.
<mgrwt>
<rscale>  0 0.37440190E+04</rscale>
<asrwt>0</asrwt>
<pdfrwt beam="1">  1        2 0.37071391E+00 0.37440190E+04</pdfrwt>
<pdfrwt beam="2">  1       -2 0.22374353E+00 0.37440190E+04</pdfrwt>
<totfact> 0.29591684E-01</totfact>
</mgrwt>
</event>
<event>
12    1  0.2404959E-007  0.1306890E+04  0.7818608E-02  0.9024119E-01
          2   -1    0    0  501    0  0.00000000000E+00  0.00000000000E+00  0.43195236279E+03  0.43195236279E+03  0.00000000000E+00 0. -1.
         -2   -1    0    0    0  501 -0.00000000000E+00 -0.00000000000E+00 -0.98851301879E+03  0.98851301879E+03  0.00000000000E+00 0.  1.
         23    2    1    2    0    0  0.20638706853E+03 -0.57582771633E+02 -0.42896700807E+03  0.48807665854E+03  0.91075424546E+02 0.  0.
        254    2    1    2    0    0 -0.20638706853E+03  0.57582771633E+02 -0.12759364794E+03  0.93238872303E+03  0.89841927528E+03 0.  0.
        -24    2    4    4    0    0 -0.91713646654E+02 -0.39756118044E+03  0.61033872868E+02  0.42029211092E+03  0.80337038109E+02 0.  0.
         24    2    4    4    0    0 -0.11467342188E+03  0.45514395207E+03 -0.18862752080E+03  0.51209661211E+03  0.79728211710E+02 0.  0.
         13    1    3    3    0    0  0.17362969093E+03 -0.35608969111E+02 -0.40458089217E+03  0.44170235064E+03  0.00000000000E+00 0.  1.
        -13    1    3    3    0    0  0.32757377602E+02 -0.21973802522E+02 -0.24386115899E+02  0.46374307901E+02  0.00000000000E+00 0. -1.
          2    1    6    6  502    0 -0.45272101369E+02  0.24004596716E+03 -0.58084044380E+02  0.25108840221E+03  0.00000000000E+00 0. -1.
          3    1    5    5  503    0 -0.92469658437E+02 -0.23875592468E+03  0.23525826846E+02  0.25711572070E+03  0.00000000000E+00 0. -1.
         -4    1    5    5    0  503  0.75601178355E+00 -0.15880525575E+03  0.37508046021E+02  0.16317639022E+03  0.00000000000E+00 0.  1.
         -1    1    6    6    0  502 -0.69401320511E+02  0.21509798491E+03 -0.13054347642E+03  0.26100820990E+03  0.00000000000E+00 0.  1.
<mgrwt>
<rscale>  0 0.13068903E+04</rscale>
<asrwt>0</asrwt>
<pdfrwt beam="1">  1        2 0.66454210E-01 0.13068903E+04</pdfrwt>
<pdfrwt beam="2">  1       -2 0.15207892E+00 0.13068903E+04</pdfrwt>
<totfact> 0.20602564E+01</totfact>
</mgrwt>
</event>
<event>
12    1  0.2404959E-007  0.1647139E+04  0.7818608E-02  0.8792101E-01
         -2   -1    0    0    0  501 -0.00000000000E+00  0.00000000000E+00  0.57301435262E+03  0.57301435262E+03  0.00000000000E+00 0.  1.
          2   -1    0    0  501    0  0.00000000000E+00 -0.00000000000E+00 -0.11836820750E+04  0.11836820750E+04  0.00000000000E+00 0. -1.
         23    2    1    2    0    0 -0.50954668225E+03  0.14354160739E+03 -0.43909832673E+03  0.69402829217E+03  0.92875806092E+02 0.  0.
        254    2    1    2    0    0  0.50954668225E+03 -0.14354160739E+03 -0.17156939562E+03  0.10626681354E+04  0.90530961229E+03 0.  0.
        -24    2    4    4    0    0  0.63025377463E+02 -0.42439933441E+03 -0.28056934539E+03  0.51870183843E+03  0.79028136522E+02 0.  0.
         24    2    4    4    0    0  0.44652130478E+03  0.28085772703E+03  0.10899994977E+03  0.54396629700E+03  0.75868338361E+02 0.  0.
         13    1    3    3    0    0 -0.61108148539E+02 -0.12097383852E+02 -0.41739081920E+02  0.74984688260E+02  0.00000000000E+00 0.  1.
        -13    1    3    3    0    0 -0.44843853371E+03  0.15563899124E+03 -0.39735924481E+03  0.61904360391E+03  0.00000000000E+00 0. -1.
          2    1    6    6  502    0  0.43179266336E+03  0.28468008642E+03  0.10172939391E+03  0.52710200656E+03  0.00000000000E+00 0. -1.
          1    1    5    5  503    0  0.45932145618E+02 -0.40011524028E+03 -0.24140348018E+03  0.46955043152E+03  0.00000000000E+00 0. -1.
         -2    1    5    5    0  503  0.17093231845E+02 -0.24284094137E+02 -0.39165865210E+02  0.49151406904E+02  0.00000000000E+00 0.  1.
         -1    1    6    6    0  502  0.14728641426E+02 -0.38223593938E+01  0.72705558535E+01  0.16864290439E+02  0.00000000000E+00 0.  1.
<mgrwt>
<rscale>  0 0.16471391E+04</rscale>
<asrwt>0</asrwt>
<pdfrwt beam="1">  1        2 0.18210493E+00 0.16471391E+04</pdfrwt>
<pdfrwt beam="2">  1       -2 0.88156055E-01 0.16471391E+04</pdfrwt>
<totfact> 0.20520434E+01</totfact>
</mgrwt>
</event>
<event>
12    1  0.2404959E-007  0.1825936E+04  0.7818608E-02  0.8692627E-01
          2   -1    0    0  501    0  0.00000000000E+00  0.00000000000E+00  0.80261134210E+03  0.80261134210E+03  0.00000000000E+00 0. -1.
         -2   -1    0    0    0  501 -0.00000000000E+00 -0.00000000000E+00 -0.10384980452E+04  0.10384980452E+04  0.00000000000E+00 0.  1.
         23    2    1    2    0    0  0.48998547090E+03 -0.42112446417E+03  0.14946354468E+03  0.66935752589E+03  0.90931679096E+02 0.  0.
        254    2    1    2    0    0 -0.48998547090E+03  0.42112446417E+03 -0.38535024781E+03  0.11717518614E+04  0.89837410653E+03 0.  0.
        -24    2    4    4    0    0 -0.66502648281E+03  0.15861814808E+03 -0.47247067583E+03  0.83493854680E+03  0.80460534898E+02 0.  0.
         24    2    4    4    0    0  0.17504101191E+03  0.26250631609E+03  0.87120428017E+02  0.33681331464E+03  0.79399736157E+02 0.  0.
         13    1    3    3    0    0  0.17000903718E+03 -0.19815723733E+03  0.38784816125E+02  0.26395762045E+03  0.00000000000E+00 0. -1.
        -13    1    3    3    0    0  0.31997643372E+03 -0.22296722684E+03  0.11067872856E+03  0.40539990545E+03  0.00000000000E+00 0.  1.
          2    1    6    6  502    0  0.19808830200E+02  0.70673701492E+02 -0.46126504412E+01  0.73542085778E+02  0.00000000000E+00 0. -1.
          1    1    5    5  503    0 -0.17203034277E+03  0.53263724781E+01 -0.11988725015E+03  0.20975166704E+03  0.00000000000E+00 0. -1.
         -2    1    5    5    0  503 -0.49299614004E+03  0.15329177560E+03 -0.35258342568E+03  0.62518687976E+03  0.00000000000E+00 0.  1.
         -1    1    6    6    0  502  0.15523218171E+03  0.19183261460E+03  0.91733078458E+02  0.26327122886E+03  0.00000000000E+00 0.  1.
<mgrwt>
<rscale>  0 0.18259357E+04</rscale>
<asrwt>0</asrwt>
<pdfrwt beam="1">  1        2 0.12347867E+00 0.18259357E+04</pdfrwt>
<pdfrwt beam="2">  1       -2 0.15976893E+00 0.18259357E+04</pdfrwt>
<totfact> 0.81674580E+00</totfact>
</mgrwt>
</event>
<event>
12    1  0.2404959E-007  0.1666402E+04  0.7818608E-02  0.8780762E-01
          1   -1    0    0  501    0  0.00000000000E+00  0.00000000000E+00  0.84483258734E+03  0.84483258734E+03  0.00000000000E+00 0. -1.
         -1   -1    0    0    0  501 -0.00000000000E+00 -0.00000000000E+00 -0.82172967245E+03  0.82172967245E+03  0.00000000000E+00 0.  1.
         23    2    1    2    0    0 -0.45299848313E+03 -0.25186775915E+03  0.28261845494E+03  0.59754254896E+03  0.92406238544E+02 0.  0.
        254    2    1    2    0    0  0.45299848313E+03  0.25186775915E+03 -0.25951554005E+03  0.10690197108E+04  0.89822593639E+03 0.  0.
        -24    2    4    4    0    0  0.48744679517E+03 -0.15196307714E+03  0.92559911149E+02  0.52499436888E+03  0.79715715286E+02 0.  0.
         24    2    4    4    0    0 -0.34448312045E+02  0.40383083629E+03 -0.35207545120E+03  0.54402534195E+03  0.87979649958E+02 0.  0.
         13    1    3    3    0    0 -0.26025625057E+03 -0.18714481540E+03  0.14367009903E+03  0.35127993858E+03  0.00000000000E+00 0.  1.
        -13    1    3    3    0    0 -0.19274223256E+03 -0.64722943748E+02  0.13894835591E+03  0.24626261037E+03  0.00000000000E+00 0. -1.
          4    1    6    6  502    0 -0.55679848345E-01  0.27650470908E+03 -0.28089729373E+03  0.39415497823E+03  0.00000000000E+00 0. -1.
          1    1    5    5  503    0  0.24308433512E+03 -0.10603045680E+03  0.75633932026E+02  0.27577698131E+03  0.00000000000E+00 0. -1.
         -2    1    5    5    0  503  0.24436246005E+03 -0.45932620344E+02  0.16925979124E+02  0.24921738757E+03  0.00000000000E+00 0.  1.
         -3    1    6    6    0  502 -0.34392632197E+02  0.12732612721E+03 -0.71178157477E+02  0.14987036372E+03  0.00000000000E+00 0.  1.
<mgrwt>
<rscale>  0 0.16664021E+04</rscale>
<asrwt>0</asrwt>
<pdfrwt beam="1">  1        1 0.12997424E+00 0.16664021E+04</pdfrwt>
<pdfrwt beam="2">  1       -1 0.12641995E+00 0.16664021E+04</pdfrwt>
<totfact> 0.10505708E+01</totfact>
</mgrwt>
</event>
<event>
12    1  0.2404959E-007  0.2861934E+04  0.7818608E-02  0.8284294E-01
          1   -1    0    0  501    0  0.00000000000E+00  0.00000000000E+00  0.18597019131E+04  0.18597019131E+04  0.00000000000E+00 0. -1.
         -1   -1    0    0    0  501 -0.00000000000E+00 -0.00000000000E+00 -0.11010725636E+04  0.11010725636E+04  0.00000000000E+00 0.  1.
         23    2    1    2    0    0 -0.12014498735E+04  0.45468269998E+03  0.25432395006E+03  0.13127578548E+04  0.91838759158E+02 0.  0.
        254    2    1    2    0    0  0.12014498735E+04 -0.45468269998E+03  0.50430539938E+03  0.16480166218E+04  0.90078670833E+03 0.  0.
        -24    2    4    4    0    0  0.76224155713E+03 -0.27038625525E+03  0.75022811018E+03  0.11059278086E+04  0.78186841238E+02 0.  0.
         24    2    4    4    0    0  0.43920831635E+03 -0.18429644474E+03 -0.24592271079E+03  0.54208881323E+03  0.80704256708E+02 0.  0.
         13    1    3    3    0    0 -0.75490250000E+03  0.28234058277E+03  0.20455547377E+03  0.83152686730E+03  0.00000000000E+00 0.  1.
        -13    1    3    3    0    0 -0.44654737348E+03  0.17234211721E+03  0.49768476290E+02  0.48123098753E+03  0.00000000000E+00 0. -1.
          2    1    6    6  502    0  0.97386128042E+02 -0.78599703795E+02 -0.57690972009E+02  0.13780500580E+03  0.00000000000E+00 0. -1.
          1    1    5    5  503    0  0.16311411894E+03 -0.28731769878E+02  0.13264427058E+03  0.21219385692E+03  0.00000000000E+00 0. -1.
         -2    1    5    5    0  503  0.59912743820E+03 -0.24165448537E+03  0.61758383960E+03  0.89373395170E+03  0.00000000000E+00 0.  1.
         -1    1    6    6    0  502  0.34182218830E+03 -0.10569674094E+03 -0.18823173878E+03  0.40428380743E+03  0.00000000000E+00 0.  1.
<mgrwt>
<rscale>  0 0.28619341E+04</rscale>
<asrwt>0</asrwt>
<pdfrwt beam="1">  1        1 0.28610799E+00 0.28619341E+04</pdfrwt>
<pdfrwt beam="2">  1       -1 0.16939578E+00 0.28619341E+04</pdfrwt>
<totfact> 0.79438533E-01</totfact>
</mgrwt>
</event>
<event>
12    1  0.2404959E-007  0.1896482E+04  0.7818608E-02  0.8656609E-01
          2   -1    0    0  501    0  0.00000000000E+00  0.00000000000E+00  0.28174132748E+04  0.28174132748E+04  0.00000000000E+00 0. -1.
         -2   -1    0    0    0  501 -0.00000000000E+00 -0.00000000000E+00 -0.31914424235E+03  0.31914424235E+03  0.00000000000E+00 0.  1.
         23    2    1    2    0    0 -0.32080003732E+03  0.15868236583E+03  0.20253622808E+04  0.20587801552E+04  0.91600226195E+02 0.  0.
        254    2    1    2    0    0  0.32080003732E+03 -0.15868236583E+03  0.47290675163E+03  0.10777773620E+04  0.89992804667E+03 0.  0.
        -24    2    4    4    0    0  0.30438670071E+03 -0.15765526287E+02  0.71749036255E+03  0.78367662912E+03  0.80354360771E+02 0.  0.
         24    2    4    4    0    0  0.16413336610E+02 -0.14291683954E+03 -0.24458361092E+03  0.29410073290E+03  0.77327082712E+02 0.  0.
         11    1    3    3    0    0 -0.24594841536E+03  0.74932672139E+02  0.14063170265E+04  0.14296269119E+04  0.00000000000E+00 0.  1.
        -11    1    3    3    0    0 -0.74851621956E+02  0.83749693687E+02  0.61904525436E+03  0.62915324321E+03  0.00000000000E+00 0. -1.
          4    1    6    6  502    0  0.24063019123E+02 -0.27640105131E+02 -0.20507187985E+02  0.41994631323E+02  0.00000000000E+00 0. -1.
          3    1    5    5  503    0  0.53608693589E+02  0.24793877948E+02  0.10278363811E+03  0.11854579147E+03  0.00000000000E+00 0. -1.
         -2    1    5    5    0  503  0.25077800712E+03 -0.40559404235E+02  0.61470672443E+03  0.66513083765E+03  0.00000000000E+00 0.  1.
         -3    1    6    6    0  502 -0.76496825130E+01 -0.11527673441E+03 -0.22407642293E+03  0.25210610158E+03  0.00000000000E+00 0.  1.
<mgrwt>
<rscale>  0 0.18964822E+04</rscale>
<asrwt>0</asrwt>
<pdfrwt beam="1">  1        2 0.43344818E+00 0.18964822E+04</pdfrwt>
<pdfrwt beam="2">  1       -2 0.49099116E-01 0.18964822E+04</pdfrwt>
<totfact> 0.83207620E+00</totfact>
</mgrwt>
</event>
<event>
12    1  0.2404959E-007  0.2427700E+04  0.7818608E-02  0.8429205E-01
         -1   -1    0    0    0  501 -0.00000000000E+00  0.00000000000E+00  0.99830276044E+03  0.99830276044E+03  0.00000000000E+00 0.  1.
          1   -1    0    0  501    0  0.00000000000E+00 -0.00000000000E+00 -0.14759368455E+04  0.14759368455E+04  0.00000000000E+00 0. -1.
         23    2    1    2    0    0 -0.76778236309E+03 -0.41879013597E+02  0.51392826654E+03  0.92943606250E+03  0.92116894649E+02 0.  0.
        254    2    1    2    0    0  0.76778236309E+03  0.41879013597E+02 -0.99156235156E+03  0.15448035434E+04  0.90109848621E+03 0.  0.
        -24    2    4    4    0    0  0.95825588170E+03  0.42347194243E+02 -0.71080909772E+03  0.11965196664E+04  0.79762891985E+02 0.  0.
         24    2    4    4    0    0 -0.19047351862E+03 -0.46818064664E+00 -0.28075325383E+03  0.34828387703E+03  0.78733023420E+02 0.  0.
         11    1    3    3    0    0 -0.44387591880E+03 -0.22008595450E+02  0.35101617395E+03  0.56632372715E+03  0.00000000000E+00 0.  1.
        -11    1    3    3    0    0 -0.32390644429E+03 -0.19870418147E+02  0.16291209259E+03  0.36311233534E+03  0.00000000000E+00 0. -1.
          2    1    6    6  502    0  0.31103339663E+01 -0.10610594777E+02 -0.25265664968E+02  0.27579208204E+02  0.00000000000E+00 0. -1.
          3    1    5    5  503    0  0.53461070476E+02 -0.13638571094E+01 -0.64249702153E+02  0.83594081067E+02  0.00000000000E+00 0. -1.
         -2    1    5    5    0  503  0.90479481123E+03  0.43711051353E+02 -0.64655939557E+03  0.11129255853E+04  0.00000000000E+00 0.  1.
         -1    1    6    6    0  502 -0.19358385258E+03  0.10142414130E+02 -0.25548758887E+03  0.32070466883E+03  0.00000000000E+00 0.  1.
<mgrwt>
<rscale>  0 0.24277000E+04</rscale>
<asrwt>0</asrwt>
<pdfrwt beam="1">  1        1 0.22706721E+00 0.24277000E+04</pdfrwt>
<pdfrwt beam="2">  1       -1 0.15358504E+00 0.24277000E+04</pdfrwt>
<totfact> 0.19889088E+00</totfact>
</mgrwt>
</event>
<event>
12    1  0.2404959E-007  0.1159860E+04  0.7818608E-02  0.9148735E-01
         -1   -1    0    0    0  501 -0.00000000000E+00  0.00000000000E+00  0.87439887765E+03  0.87439887765E+03  0.00000000000E+00 0.  1.
          1   -1    0    0  501    0  0.00000000000E+00 -0.00000000000E+00 -0.38462842271E+03  0.38462842271E+03  0.00000000000E+00 0. -1.
         23    2    1    2    0    0  0.14858696655E+03 -0.15709117402E+03  0.10187215111E+03  0.25593187035E+03  0.91473840535E+02 0.  0.
        254    2    1    2    0    0 -0.14858696655E+03  0.15709117402E+03  0.38789830383E+03  0.10030954300E+04  0.89943294581E+03 0.  0.
        -24    2    4    4    0    0  0.22892360791E+03  0.36142361971E+03  0.26361180797E+02  0.43607296365E+03  0.80197672213E+02 0.  0.
         24    2    4    4    0    0 -0.37751057447E+03 -0.20433244569E+03  0.36153712303E+03  0.56702246636E+03  0.80866580398E+02 0.  0.
         13    1    3    3    0    0  0.67295765302E+02 -0.24151688662E+02  0.33556174166E+01  0.71577121073E+02  0.00000000000E+00 0. -1.
        -13    1    3    3    0    0  0.81291201252E+02 -0.13293948536E+03  0.98516533696E+02  0.18435474928E+03  0.00000000000E+00 0.  1.
          2    1    6    6  502    0 -0.16442102012E+03 -0.89988866659E+02  0.21071262821E+03  0.28201432529E+03  0.00000000000E+00 0. -1.
          3    1    5    5  503    0  0.17295223552E+03  0.21467761938E+03 -0.58717382127E+01  0.27574160612E+03  0.00000000000E+00 0. -1.
         -4    1    5    5    0  503  0.55971372394E+02  0.14674600033E+03  0.32232919010E+02  0.16033135753E+03  0.00000000000E+00 0.  1.
         -1    1    6    6    0  502 -0.21308955435E+03 -0.11434357903E+03  0.15082449483E+03  0.28500814107E+03  0.00000000000E+00 0.  1.
<mgrwt>
<rscale>  0 0.11598598E+04</rscale>
<asrwt>0</asrwt>
<pdfrwt beam="1">  1        1 0.59173604E-01 0.11598598E+04</pdfrwt>
<pdfrwt beam="2">  1       -1 0.13452290E+00 0.11598598E+04</pdfrwt>
<totfact> 0.29169412E+01</totfact>
</mgrwt>
</event>
<event>
12    1  0.2404959E-007  0.2510322E+04  0.7818608E-02  0.8399317E-01
          1   -1    0    0  501    0  0.00000000000E+00  0.00000000000E+00  0.88187542986E+03  0.88187542986E+03  0.00000000000E+00 0. -1.
         -1   -1    0    0    0  501 -0.00000000000E+00 -0.00000000000E+00 -0.17864530859E+04  0.17864530859E+04  0.00000000000E+00 0.  1.
         23    2    1    2    0    0  0.86550328701E+03  0.35960691235E+03  0.20012768119E+03  0.96324286995E+03  0.96812532841E+02 0.  0.
        254    2    1    2    0    0 -0.86550328701E+03 -0.35960691235E+03 -0.11047053372E+04  0.17050856458E+04  0.89918302153E+03 0.  0.
        -24    2    4    4    0    0  0.10681931055E+03 -0.50119059325E+02 -0.49240473842E+03  0.51238081500E+03  0.78418033364E+02 0.  0.
         24    2    4    4    0    0 -0.97232259756E+03 -0.30948785302E+03 -0.61230059881E+03  0.11927048308E+04  0.80242290692E+02 0.  0.
         11    1    3    3    0    0  0.46860864814E+03  0.15579045295E+03  0.72050444824E+02  0.49905510412E+03  0.00000000000E+00 0. -1.
        -11    1    3    3    0    0  0.39689463886E+03  0.20381645940E+03  0.12807723636E+03  0.46418776584E+03  0.00000000000E+00 0.  1.
          4    1    6    6  502    0 -0.57693213540E+03 -0.20302428652E+03 -0.32600813916E+03  0.69307348569E+03  0.00000000000E+00 0. -1.
          1    1    5    5  503    0  0.38735510533E+02 -0.12126386963E+01 -0.30019491977E+03  0.30268614128E+03  0.00000000000E+00 0. -1.
         -2    1    5    5    0  503  0.68083800019E+02 -0.48906420628E+02 -0.19220981864E+03  0.20969467372E+03  0.00000000000E+00 0.  1.
         -3    1    6    6    0  502 -0.39539046216E+03 -0.10646356651E+03 -0.28629245965E+03  0.49963134511E+03  0.00000000000E+00 0.  1.
<mgrwt>
<rscale>  0 0.25103220E+04</rscale>
<asrwt>0</asrwt>
<pdfrwt beam="1">  1        1 0.13567314E+00 0.25103220E+04</pdfrwt>
<pdfrwt beam="2">  1       -1 0.27483893E+00 0.25103220E+04</pdfrwt>
<totfact> 0.80357317E-01</totfact>
</mgrwt>
</event>
<event>
12    1  0.2404959E-007  0.1473539E+04  0.7818608E-02  0.8902242E-01
          2   -1    0    0  501    0  0.00000000000E+00  0.00000000000E+00  0.36491001812E+04  0.36491001812E+04  0.00000000000E+00 0. -1.
         -2   -1    0    0    0  501 -0.00000000000E+00 -0.00000000000E+00 -0.14875698773E+03  0.14875698773E+03  0.00000000000E+00 0.  1.
         23    2    1    2    0    0  0.32939806250E+03  0.27563381784E+03  0.72563171004E+03  0.85023776243E+03  0.10902196537E+03 0.  0.
        254    2    1    2    0    0 -0.32939806250E+03 -0.27563381784E+03  0.27747114834E+04  0.29476194065E+04  0.89719522079E+03 0.  0.
        -24    2    4    4    0    0 -0.20746754061E+03  0.12964385821E+03  0.17056986483E+03  0.30814344849E+03  0.77511261651E+02 0.  0.
         24    2    4    4    0    0 -0.12193052189E+03 -0.40527767605E+03  0.26041416186E+04  0.26394759580E+04  0.78502970167E+02 0.  0.
         11    1    3    3    0    0  0.24643083281E+03  0.14765057428E+03  0.52185426843E+03  0.59570187588E+03  0.00000000000E+00 0.  1.
        -11    1    3    3    0    0  0.82967229686E+02  0.12798324356E+03  0.20377744161E+03  0.25453588656E+03  0.00000000000E+00 0. -1.
          2    1    6    6  502    0 -0.10977341501E+03 -0.38644970193E+03  0.25390084881E+04  0.25705948100E+04  0.00000000000E+00 0. -1.
          1    1    5    5  503    0 -0.14910116029E+03  0.99892314568E+02  0.16255347138E+03  0.24214306013E+03  0.00000000000E+00 0. -1.
         -2    1    5    5    0  503 -0.58366380316E+02  0.29751543645E+02  0.80163934504E+01  0.66000388366E+02  0.00000000000E+00 0.  1.
         -1    1    6    6    0  502 -0.12157106876E+02 -0.18827974124E+02  0.65133130511E+02  0.68881147982E+02  0.00000000000E+00 0.  1.
<mgrwt>
<rscale>  0 0.14735388E+04</rscale>
<asrwt>0</asrwt>
<pdfrwt beam="1">  1        2 0.56139996E+00 0.14735388E+04</pdfrwt>
<pdfrwt beam="2">  1       -2 0.22885693E-01 0.14735388E+04</pdfrwt>
<totfact> 0.10545960E+01</totfact>
</mgrwt>
</event>
<event>
12    1  0.2404959E-007  0.3480179E+04  0.7818608E-02  0.8118503E-01
          1   -1    0    0  501    0  0.00000000000E+00  0.00000000000E+00  0.27276956030E+04  0.27276956030E+04  0.00000000000E+00 0. -1.
         -1   -1    0    0    0  501 -0.00000000000E+00 -0.00000000000E+00 -0.11100618028E+04  0.11100618028E+04  0.00000000000E+00 0.  1.
         23    2    1    2    0    0 -0.15037141710E+04 -0.58741498410E+03  0.92840173224E+03  0.18646404803E+04  0.93496911726E+02 0.  0.
        254    2    1    2    0    0  0.15037141710E+04  0.58741498410E+03  0.68923206796E+03  0.19731169256E+04  0.90107540567E+03 0.  0.
        -24    2    4    4    0    0  0.80119328869E+03  0.77447809164E+03  0.43229255199E+03  0.11978804504E+04  0.79458937269E+02 0.  0.
         24    2    4    4    0    0  0.70252088233E+03 -0.18706310753E+03  0.25693951597E+03  0.77523647514E+03  0.80283754288E+02 0.  0.
         13    1    3    3    0    0 -0.11395139500E+04 -0.41375569619E+03  0.72846248084E+03  0.14143349689E+04  0.00000000000E+00 0. -1.
        -13    1    3    3    0    0 -0.36420022102E+03 -0.17365928791E+03  0.19993925139E+03  0.45030551131E+03  0.00000000000E+00 0.  1.
          2    1    6    6  502    0  0.41958955127E+03 -0.95875381465E+02  0.11317913418E+03  0.44503594991E+03  0.00000000000E+00 0. -1.
          3    1    5    5  503    0  0.78088137965E+03  0.76232896729E+03  0.41125001297E+03  0.11662108543E+04  0.00000000000E+00 0. -1.
         -4    1    5    5    0  503  0.20311909040E+02  0.12149124345E+02  0.21042539028E+02  0.31669596144E+02  0.00000000000E+00 0.  1.
         -1    1    6    6    0  502  0.28293133107E+03 -0.91187726066E+02  0.14376038179E+03  0.33020052522E+03  0.00000000000E+00 0.  1.
<mgrwt>
<rscale>  0 0.34801786E+04</rscale>
<asrwt>0</asrwt>
<pdfrwt beam="1">  1        1 0.41964547E+00 0.34801786E+04</pdfrwt>
<pdfrwt beam="2">  1       -1 0.17077874E+00 0.34801786E+04</pdfrwt>
<totfact> 0.18608709E-01</totfact>
</mgrwt>
</event>
<event>
12    1  0.2404959E-007  0.3764218E+04  0.7818608E-02  0.8053878E-01
          2   -1    0    0  501    0  0.00000000000E+00  0.00000000000E+00  0.35527897866E+04  0.35527897866E+04  0.00000000000E+00 0. -1.
         -2   -1    0    0    0  501 -0.00000000000E+00 -0.00000000000E+00 -0.99705692776E+03  0.99705692776E+03  0.00000000000E+00 0.  1.
         23    2    1    2    0    0 -0.17218300745E+04 -0.13554634259E+03  0.16886985753E+04  0.24168574074E+04  0.80157551677E+02 0.  0.
        254    2    1    2    0    0  0.17218300745E+04  0.13554634259E+03  0.86703428349E+03  0.21329893069E+04  0.90267564394E+03 0.  0.
        -24    2    4    4    0    0  0.96926779701E+03 -0.25951773619E+01  0.94953058640E+03  0.13592292439E+04  0.80056265728E+02 0.  0.
         24    2    4    4    0    0  0.75256227750E+03  0.13814151995E+03 -0.82496302909E+02  0.77376006301E+03  0.80411032040E+02 0.  0.
         13    1    3    3    0    0 -0.98605834738E+03 -0.87063612201E+02  0.10213822724E+04  0.14223617273E+04  0.00000000000E+00 0. -1.
        -13    1    3    3    0    0 -0.73577172713E+03 -0.48482730384E+02  0.66731630289E+03  0.99449568007E+03  0.00000000000E+00 0.  1.
          2    1    6    6  502    0  0.29410484525E+02  0.50971776992E+01 -0.19766568251E+02  0.35800489395E+02  0.00000000000E+00 0. -1.
          1    1    5    5  503    0  0.10800963997E+03  0.16574587501E+02  0.81877082935E+02  0.13654543562E+03  0.00000000000E+00 0. -1.
         -2    1    5    5    0  503  0.86125815703E+03 -0.19169764863E+02  0.86765350346E+03  0.12226838083E+04  0.00000000000E+00 0.  1.
         -1    1    6    6    0  502  0.72315179297E+03  0.13304434225E+03 -0.62729734658E+02  0.73795957362E+03  0.00000000000E+00 0.  1.
<mgrwt>
<rscale>  0 0.37642177E+04</rscale>
<asrwt>0</asrwt>
<pdfrwt beam="1">  1        2 0.54658304E+00 0.37642177E+04</pdfrwt>
<pdfrwt beam="2">  1       -2 0.15339338E+00 0.37642177E+04</pdfrwt>
<totfact> 0.16906519E-01</totfact>
</mgrwt>
</event>
<event>
12    1  0.2404959E-007  0.4582873E+04  0.7818608E-02  0.7896287E-01
          2   -1    0    0  501    0  0.00000000000E+00  0.00000000000E+00  0.28748896244E+04  0.28748896244E+04  0.00000000000E+00 0. -1.
         -2   -1    0    0    0  501 -0.00000000000E+00 -0.00000000000E+00 -0.18263941354E+04  0.18263941354E+04  0.00000000000E+00 0.  1.
         23    2    1    2    0    0 -0.15678389513E+04  0.15328577050E+04  0.29616771510E+03  0.22144196159E+04  0.90372555524E+02 0.  0.
        254    2    1    2    0    0  0.15678389513E+04 -0.15328577050E+04  0.75232777393E+03  0.24868641440E+04  0.90040239350E+03 0.  0.
        -24    2    4    4    0    0 -0.56258342021E+02  0.35205884111E+02  0.73105668077E+02  0.12811873358E+03  0.81642610600E+02 0.  0.
         24    2    4    4    0    0  0.16240972933E+04 -0.15680635891E+04  0.67922210585E+03  0.23587454104E+04  0.76300749483E+02 0.  0.
         11    1    3    3    0    0 -0.13402169678E+04  0.12653679431E+04  0.24070153832E+03  0.18588369436E+04  0.00000000000E+00 0.  1.
        -11    1    3    3    0    0 -0.22762198348E+03  0.26748976190E+03  0.55466176775E+02  0.35558267232E+03  0.00000000000E+00 0. -1.
          4    1    6    6  502    0  0.17249398676E+03 -0.19483469069E+03  0.92315399874E+02  0.27611024106E+03  0.00000000000E+00 0. -1.
          1    1    5    5  503    0 -0.52555946978E+02  0.12704152669E+02  0.27277018817E+01  0.54138372855E+02  0.00000000000E+00 0. -1.
         -2    1    5    5    0  503 -0.37023950431E+01  0.22501731442E+02  0.70377966196E+02  0.73980360724E+02  0.00000000000E+00 0.  1.
         -3    1    6    6    0  502  0.14516033066E+04 -0.13732288984E+04  0.58690670598E+03  0.20826351693E+04  0.00000000000E+00 0.  1.
<mgrwt>
<rscale>  0 0.45828731E+04</rscale>
<asrwt>0</asrwt>
<pdfrwt beam="1">  1        2 0.44229071E+00 0.45828731E+04</pdfrwt>
<pdfrwt beam="2">  1       -2 0.28098371E+00 0.45828731E+04</pdfrwt>
<totfact> 0.65057695E-02</totfact>
</mgrwt>
</event>
<event>
12    1  0.2404959E-007  0.1392449E+04  0.7818608E-02  0.8959303E-01
          2   -1    0    0  501    0  0.00000000000E+00  0.00000000000E+00  0.34957527422E+04  0.34957527422E+04  0.00000000000E+00 0. -1.
         -2   -1    0    0    0  501 -0.00000000000E+00 -0.00000000000E+00 -0.13866205165E+03  0.13866205165E+03  0.00000000000E+00 0.  1.
         23    2    1    2    0    0 -0.12640671112E+02 -0.44113326355E+02  0.20211046179E+04  0.20233112361E+04  0.82575477881E+02 0.  0.
        254    2    1    2    0    0  0.12640671112E+02  0.44113326355E+02  0.13359860726E+04  0.16111035577E+04  0.89927199184E+03 0.  0.
        -24    2    4    4    0    0 -0.31910547092E+03  0.32008164394E+03  0.74140514453E+03  0.87202401615E+03  0.80397363491E+02 0.  0.
         24    2    4    4    0    0  0.33174614203E+03 -0.27596831758E+03  0.59458092810E+03  0.73907954157E+03  0.80610629806E+02 0.  0.
         13    1    3    3    0    0 -0.11973760866E+02 -0.62141281447E+02  0.97529005244E+03  0.97734108488E+03  0.00000000000E+00 0.  1.
        -13    1    3    3    0    0 -0.66691024557E+00  0.18027955092E+02  0.10458145655E+04  0.10459701512E+04  0.00000000000E+00 0. -1.
          2    1    6    6  502    0  0.25838274969E+02 -0.43191570403E+02  0.39936725042E+02  0.64250060034E+02  0.00000000000E+00 0. -1.
          1    1    5    5  503    0 -0.70218785621E+02  0.66285930162E+02  0.10203341178E+03  0.14048245268E+03  0.00000000000E+00 0. -1.
         -2    1    5    5    0  503 -0.24888668530E+03  0.25379571378E+03  0.63937173275E+03  0.73154156347E+03  0.00000000000E+00 0.  1.
         -1    1    6    6    0  502  0.30590786706E+03 -0.23277674718E+03  0.55464420306E+03  0.67482948153E+03  0.00000000000E+00 0.  1.
<mgrwt>
<rscale>  0 0.13924486E+04</rscale>
<asrwt>0</asrwt>
<pdfrwt beam="1">  1        2 0.53780805E+00 0.13924486E+04</pdfrwt>
<pdfrwt beam="2">  1       -2 0.21332626E-01 0.13924486E+04</pdfrwt>
<totfact> 0.15470396E+01</totfact>
</mgrwt>
</event>
<event>
12    1  0.2404959E-007  0.2831739E+04  0.7818608E-02  0.8293482E-01
          2   -1    0    0  501    0  0.00000000000E+00  0.00000000000E+00  0.16062552716E+04  0.16062552716E+04  0.00000000000E+00 0. -1.
         -2   -1    0    0    0  501 -0.00000000000E+00 -0.00000000000E+00 -0.12480498997E+04  0.12480498997E+04  0.00000000000E+00 0.  1.
         23    2    1    2    0    0 -0.85080246614E+03 -0.66388125003E+03  0.83726378962E+03  0.13689140909E+04  0.91170084011E+02 0.  0.
        254    2    1    2    0    0  0.85080246614E+03  0.66388125003E+03 -0.47905841774E+03  0.14853910804E+04  0.90126940680E+03 0.  0.
        -24    2    4    4    0    0  0.90127424276E+02  0.33769952670E+03  0.20094563190E+03  0.41107377650E+03  0.80240761499E+02 0.  0.
         24    2    4    4    0    0  0.76067504186E+03  0.32618172333E+03 -0.68000404964E+03  0.10743173039E+04  0.82043439797E+02 0.  0.
         13    1    3    3    0    0 -0.40832234622E+03 -0.29361139002E+03  0.33829142301E+03  0.60611539632E+03  0.00000000000E+00 0.  1.
        -13    1    3    3    0    0 -0.44248011992E+03 -0.37026986001E+03  0.49897236661E+03  0.76279869454E+03  0.00000000000E+00 0. -1.
          2    1    6    6  502    0  0.10244868993E+03  0.71658800964E+02 -0.12147162590E+03  0.17431601683E+03  0.00000000000E+00 0. -1.
          3    1    5    5  503    0  0.38213068470E+02  0.43785832427E+02  0.49735219989E+02  0.76492024621E+02  0.00000000000E+00 0. -1.
         -4    1    5    5    0  503  0.51914355806E+02  0.29391369428E+03  0.15121041191E+03  0.33458175188E+03  0.00000000000E+00 0.  1.
         -1    1    6    6    0  502  0.65822635193E+03  0.25452292237E+03 -0.55853242374E+03  0.90000128708E+03  0.00000000000E+00 0.  1.
<mgrwt>
<rscale>  0 0.28317392E+04</rscale>
<asrwt>0</asrwt>
<pdfrwt beam="1">  1        2 0.24711619E+00 0.28317392E+04</pdfrwt>
<pdfrwt beam="2">  1       -2 0.19200768E+00 0.28317392E+04</pdfrwt>
<totfact> 0.14429638E+00</totfact>
</mgrwt>
</event>
<event>
12    1  0.2404959E-007  0.1320851E+04  0.7818608E-02  0.9013192E-01
          2   -1    0    0  501    0  0.00000000000E+00  0.00000000000E+00  0.92966487481E+03  0.92966487481E+03  0.00000000000E+00 0. -1.
         -2   -1    0    0    0  501 -0.00000000000E+00 -0.00000000000E+00 -0.46916012884E+03  0.46916012884E+03  0.00000000000E+00 0.  1.
         23    2    1    2    0    0  0.17858477220E+03 -0.22706989854E+03 -0.73055742716E+02  0.31152464976E+03  0.90869170675E+02 0.  0.
        254    2    1    2    0    0 -0.17858477220E+03  0.22706989854E+03  0.53356048868E+03  0.10873003539E+04  0.90226493050E+03 0.  0.
        -24    2    4    4    0    0 -0.95183603275E+02  0.21094100708E+03  0.77831415159E+03  0.81599561237E+03  0.80745860775E+02 0.  0.
         24    2    4    4    0    0 -0.83401168923E+02  0.16128891454E+02 -0.24475366291E+03  0.27130474153E+03  0.80535775595E+02 0.  0.
         11    1    3    3    0    0  0.47390926654E+02 -0.10709264035E+03 -0.64129251894E+02  0.13351889190E+03  0.00000000000E+00 0. -1.
        -11    1    3    3    0    0  0.13119384554E+03 -0.11997725819E+03 -0.89264908216E+01  0.17800575785E+03  0.00000000000E+00 0.  1.
          2    1    6    6  502    0 -0.48648888887E+02 -0.67870149389E+01 -0.21395821758E+03  0.21952425112E+03  0.00000000000E+00 0. -1.
          3    1    5    5  503    0 -0.10766717091E+03  0.16818074967E+03  0.66115133349E+03  0.69065046878E+03  0.00000000000E+00 0. -1.
         -4    1    5    5    0  503  0.12483567639E+02  0.42760257410E+02  0.11716281810E+03  0.12534514358E+03  0.00000000000E+00 0.  1.
         -1    1    6    6    0  502 -0.34752280036E+02  0.22915906393E+02 -0.30795445332E+02  0.51780490407E+02  0.00000000000E+00 0.  1.
<mgrwt>
<rscale>  0 0.13208508E+04</rscale>
<asrwt>0</asrwt>
<pdfrwt beam="1">  1        2 0.14302537E+00 0.13208508E+04</pdfrwt>
<pdfrwt beam="2">  1       -2 0.72178481E-01 0.13208508E+04</pdfrwt>
<totfact> 0.47656935E+01</totfact>
</mgrwt>
</event>
<event>
12    1  0.2404959E-007  0.2188679E+04  0.7818608E-02  0.8523155E-01
         -2   -1    0    0    0  501 -0.00000000000E+00  0.00000000000E+00  0.35353453224E+03  0.35353453224E+03  0.00000000000E+00 0.  1.
          2   -1    0    0  501    0  0.00000000000E+00 -0.00000000000E+00 -0.33874459018E+04  0.33874459018E+04  0.00000000000E+00 0. -1.
         23    2    1    2    0    0  0.88837221554E+03  0.93839157999E+02 -0.99423570448E+03  0.13397937744E+04  0.92367423107E+02 0.  0.
        254    2    1    2    0    0 -0.88837221554E+03 -0.93839157999E+02 -0.20396756651E+04  0.24011866597E+04  0.89855972257E+03 0.  0.
        -24    2    4    4    0    0 -0.98502346159E+03 -0.18721514434E+03 -0.20000425604E+04  0.22387107688E+04  0.79592290788E+02 0.  0.
         24    2    4    4    0    0  0.96651246055E+02  0.93375986337E+02 -0.39633104749E+02  0.16247589095E+03  0.82262348373E+02 0.  0.
         13    1    3    3    0    0  0.39311522664E+03  0.17815365057E+02 -0.49648743717E+03  0.63352722429E+03  0.00000000000E+00 0.  1.
        -13    1    3    3    0    0  0.49525698890E+03  0.76023792942E+02 -0.49774826731E+03  0.70626655007E+03  0.00000000000E+00 0. -1.
          4    1    6    6  502    0  0.52082152392E+02  0.93036956707E+02 -0.48329886164E+02  0.11706495551E+03  0.00000000000E+00 0. -1.
          1    1    5    5  503    0 -0.96804612606E+03 -0.19382563864E+03 -0.19554567985E+04  0.21905462723E+04  0.00000000000E+00 0. -1.
         -2    1    5    5    0  503 -0.16977335527E+02  0.66104943024E+01 -0.44585761840E+02  0.48164496420E+02  0.00000000000E+00 0.  1.
         -3    1    6    6    0  502  0.44569093662E+02  0.33902963005E+00  0.86967814147E+01  0.45410935444E+02  0.00000000000E+00 0.  1.
<mgrwt>
<rscale>  0 0.21886791E+04</rscale>
<asrwt>0</asrwt>
<pdfrwt beam="1">  1        2 0.52114555E+00 0.21886791E+04</pdfrwt>
<pdfrwt beam="2">  1       -2 0.54389926E-01 0.21886791E+04</pdfrwt>
<totfact> 0.28392467E+00</totfact>
</mgrwt>
</event>
<event>
12    1  0.2404959E-007  0.1835150E+04  0.7818608E-02  0.8687828E-01
         -1   -1    0    0    0  501 -0.00000000000E+00  0.00000000000E+00  0.19277361131E+04  0.19277361131E+04  0.00000000000E+00 0.  1.
          1   -1    0    0  501    0  0.00000000000E+00 -0.00000000000E+00 -0.43675244527E+03  0.43675244527E+03  0.00000000000E+00 0. -1.
         23    2    1    2    0    0  0.63465485644E+03  0.19862285488E+03  0.81816825490E+03  0.10588736477E+04  0.97858485750E+02 0.  0.
        254    2    1    2    0    0 -0.63465485644E+03 -0.19862285488E+03  0.67281541292E+03  0.13056149106E+04  0.89983992449E+03 0.  0.
        -24    2    4    4    0    0 -0.15529385907E+03  0.24256323543E+03  0.56659700090E+03  0.64068639467E+03  0.80584049494E+02 0.  0.
         24    2    4    4    0    0 -0.47936099737E+03 -0.44118609031E+03  0.10621841201E+03  0.66492851596E+03  0.80096493062E+02 0.  0.
         13    1    3    3    0    0  0.25068401322E+03  0.11966417193E+03  0.38373043246E+03  0.47372041683E+03  0.00000000000E+00 0.  1.
        -13    1    3    3    0    0  0.38397084322E+03  0.78958682949E+02  0.43443782245E+03  0.58515323089E+03  0.00000000000E+00 0. -1.
          4    1    6    6  502    0 -0.11120660227E+03 -0.15091951999E+03  0.25017801217E+02  0.18912826410E+03  0.00000000000E+00 0. -1.
          3    1    5    5  503    0 -0.13215292182E+03  0.13977873477E+03  0.39452322914E+03  0.43892034331E+03  0.00000000000E+00 0. -1.
         -4    1    5    5    0  503 -0.23140937255E+02  0.10278450066E+03  0.17207377176E+03  0.20176605136E+03  0.00000000000E+00 0.  1.
         -3    1    6    6    0  502 -0.36815439510E+03 -0.29026657032E+03  0.81200610798E+02  0.47580025186E+03  0.00000000000E+00 0.  1.
<mgrwt>
<rscale>  0 0.18351495E+04</rscale>
<asrwt>0</asrwt>
<pdfrwt beam="1">  1        1 0.67192685E-01 0.18351495E+04</pdfrwt>
<pdfrwt beam="2">  1       -1 0.29657478E+00 0.18351495E+04</pdfrwt>
<totfact> 0.17451351E+00</totfact>
</mgrwt>
</event>
<event>
12    1  0.2404959E-007  0.1710700E+04  0.7818608E-02  0.8755285E-01
          2   -1    0    0  501    0  0.00000000000E+00  0.00000000000E+00  0.14243939191E+04  0.14243939191E+04  0.00000000000E+00 0. -1.
         -2   -1    0    0    0  501 -0.00000000000E+00 -0.00000000000E+00 -0.51363862766E+03  0.51363862766E+03  0.00000000000E+00 0.  1.
         23    2    1    2    0    0 -0.35261416203E+03 -0.27405148902E+03 -0.14627170197E+03  0.47934382403E+03  0.94520500107E+02 0.  0.
        254    2    1    2    0    0  0.35261416203E+03  0.27405148902E+03  0.10570269934E+04  0.14586887227E+04  0.90056968588E+03 0.  0.
        -24    2    4    4    0    0  0.63061073314E+03  0.30673360987E+03  0.66027444654E+03  0.96648307470E+03  0.79823459959E+02 0.  0.
         24    2    4    4    0    0 -0.27799657110E+03 -0.32682120848E+02  0.39675254687E+03  0.49220564803E+03  0.80644912641E+02 0.  0.
         13    1    3    3    0    0 -0.17504519807E+03 -0.17092362513E+03 -0.39244219183E+02  0.24778179056E+03  0.00000000000E+00 0. -1.
        -13    1    3    3    0    0 -0.17756896396E+03 -0.10312786389E+03 -0.10702748279E+03  0.23156203347E+03  0.00000000000E+00 0.  1.
          4    1    6    6  502    0 -0.26994427528E+03 -0.17291772223E+02  0.35009602101E+03  0.44242077378E+03  0.00000000000E+00 0. -1.
          3    1    5    5  503    0  0.32209947990E+03  0.14737701815E+03  0.38682071174E+03  0.52449816345E+03  0.00000000000E+00 0. -1.
         -4    1    5    5    0  503  0.30851125324E+03  0.15935659172E+03  0.27345373480E+03  0.44198491125E+03  0.00000000000E+00 0.  1.
         -3    1    6    6    0  502 -0.80522958227E+01 -0.15390348625E+02  0.46656525858E+02  0.49784874249E+02  0.00000000000E+00 0.  1.
<mgrwt>
<rscale>  0 0.17107001E+04</rscale>
<asrwt>0</asrwt>
<pdfrwt beam="1">  1        2 0.21913752E+00 0.17107001E+04</pdfrwt>
<pdfrwt beam="2">  1       -2 0.79021328E-01 0.17107001E+04</pdfrwt>
<totfact> 0.18933381E+01</totfact>
</mgrwt>
</event>
<event>
12    1  0.2404959E-007  0.1353611E+04  0.7818608E-02  0.8988099E-01
         -1   -1    0    0    0  501 -0.00000000000E+00  0.00000000000E+00  0.74868008863E+03  0.74868008863E+03  0.00000000000E+00 0.  1.
          1   -1    0    0  501    0  0.00000000000E+00 -0.00000000000E+00 -0.61183120746E+03  0.61183120746E+03  0.00000000000E+00 0. -1.
         23    2    1    2    0    0 -0.22179262230E+03 -0.99995971480E+02 -0.24051188902E+03  0.35421780139E+03  0.91832022980E+02 0.  0.
        254    2    1    2    0    0  0.22179262230E+03  0.99995971480E+02  0.37736077019E+03  0.10062934947E+04  0.90057441946E+03 0.  0.
        -24    2    4    4    0    0  0.42213104578E+03 -0.14900238415E+03  0.47986328273E+03  0.66125535503E+03  0.81200641329E+02 0.  0.
         24    2    4    4    0    0 -0.20033842348E+03  0.24899835563E+03 -0.10250251255E+03  0.34503813967E+03  0.80055528951E+02 0.  0.
         11    1    3    3    0    0 -0.61293176044E+02  0.45350567708E+01 -0.26270831945E+02  0.66839934026E+02  0.00000000000E+00 0.  1.
        -11    1    3    3    0    0 -0.16049944625E+03 -0.10453102825E+03 -0.21424105707E+03  0.28737786736E+03  0.00000000000E+00 0. -1.
          2    1    6    6  502    0 -0.17250890812E+03  0.24296830567E+03 -0.79423373373E+02  0.30838448919E+03  0.00000000000E+00 0. -1.
          3    1    5    5  503    0  0.42491341070E+03 -0.14310566807E+03  0.47145810010E+03  0.65061769033E+03  0.00000000000E+00 0. -1.
         -4    1    5    5    0  503 -0.27823649217E+01 -0.58967160870E+01  0.84051826387E+01  0.10637664704E+02  0.00000000000E+00 0.  1.
         -1    1    6    6    0  502 -0.27829515364E+02  0.60300499686E+01 -0.23079139174E+02  0.36653650474E+02  0.00000000000E+00 0.  1.
<mgrwt>
<rscale>  0 0.13536112E+04</rscale>
<asrwt>0</asrwt>
<pdfrwt beam="1">  1        1 0.94127878E-01 0.13536112E+04</pdfrwt>
<pdfrwt beam="2">  1       -1 0.11518155E+00 0.13536112E+04</pdfrwt>
<totfact> 0.22285460E+01</totfact>
</mgrwt>
</event>
<event>
12    1  0.2404959E-007  0.1432249E+04  0.7818608E-02  0.8930800E-01
          2   -1    0    0  501    0  0.00000000000E+00  0.00000000000E+00  0.64383385486E+03  0.64383385486E+03  0.00000000000E+00 0. -1.
         -2   -1    0    0    0  501 -0.00000000000E+00 -0.00000000000E+00 -0.79653223868E+03  0.79653223868E+03  0.00000000000E+00 0.  1.
         23    2    1    2    0    0  0.17334986823E+03  0.38993726554E+03 -0.57863513908E+02  0.44013001335E+03  0.90912015352E+02 0.  0.
        254    2    1    2    0    0 -0.17334986823E+03 -0.38993726554E+03 -0.94834869915E+02  0.10002360802E+04  0.89965399775E+03 0.  0.
        -24    2    4    4    0    0 -0.43356364143E+03 -0.51734278671E+03 -0.14722526882E+03  0.69552189179E+03  0.80339480053E+02 0.  0.
         24    2    4    4    0    0  0.26021377320E+03  0.12740552116E+03  0.52390398905E+02  0.30471418839E+03  0.78502281005E+02 0.  0.
         11    1    3    3    0    0  0.88276156591E+02  0.13219403243E+03 -0.56513815849E+02  0.16870611552E+03  0.00000000000E+00 0. -1.
        -11    1    3    3    0    0  0.85073711643E+02  0.25774323312E+03 -0.13496980595E+01  0.27142389783E+03  0.00000000000E+00 0.  1.
          2    1    6    6  502    0  0.26789780898E+02  0.57073448301E+01 -0.17306444085E+02  0.32400295561E+02  0.00000000000E+00 0. -1.
          1    1    5    5  503    0 -0.22194805128E+03 -0.20670694560E+03 -0.80263715644E+02  0.31373709197E+03  0.00000000000E+00 0. -1.
         -2    1    5    5    0  503 -0.21161559015E+03 -0.31063584110E+03 -0.66961553176E+02  0.38178479982E+03  0.00000000000E+00 0.  1.
         -1    1    6    6    0  502  0.23342399230E+03  0.12169817633E+03  0.69696842990E+02  0.27231389283E+03  0.00000000000E+00 0.  1.
<mgrwt>
<rscale>  0 0.14322492E+04</rscale>
<asrwt>0</asrwt>
<pdfrwt beam="1">  1        2 0.99051363E-01 0.14322492E+04</pdfrwt>
<pdfrwt beam="2">  1       -2 0.12254342E+00 0.14322492E+04</pdfrwt>
<totfact> 0.22258165E+01</totfact>
</mgrwt>
</event>
<event>
12    1  0.2404959E-007  0.1557278E+04  0.7818608E-02  0.8847233E-01
          2   -1    0    0  501    0  0.00000000000E+00  0.00000000000E+00  0.12565532309E+04  0.12565532309E+04  0.00000000000E+00 0. -1.
         -2   -1    0    0    0  501 -0.00000000000E+00 -0.00000000000E+00 -0.48249325999E+03  0.48249325999E+03  0.00000000000E+00 0.  1.
         23    2    1    2    0    0 -0.33234878142E+03 -0.28688346306E+03 -0.34986559533E+02  0.45043675013E+03  0.94400066902E+02 0.  0.
        254    2    1    2    0    0  0.33234878142E+03  0.28688346306E+03  0.80904653048E+03  0.12886097408E+04  0.90177654753E+03 0.  0.
        -24    2    4    4    0    0 -0.15999294859E+03 -0.17065326560E+03  0.47041976851E+03  0.53167833657E+03  0.81650562244E+02 0.  0.
         24    2    4    4    0    0  0.49234173001E+03  0.45753672865E+03  0.33862676196E+03  0.75693140421E+03  0.80850662292E+02 0.  0.
         11    1    3    3    0    0 -0.13664382678E+03 -0.17995771403E+03 -0.22576920637E+02  0.22708155271E+03  0.00000000000E+00 0.  1.
        -11    1    3    3    0    0 -0.19570495464E+03 -0.10692574903E+03 -0.12409638896E+02  0.22335519742E+03  0.00000000000E+00 0. -1.
          2    1    6    6  502    0  0.27075350656E+03  0.20528546767E+03  0.14575709629E+03  0.36972248467E+03  0.00000000000E+00 0. -1.
          1    1    5    5  503    0 -0.15331545854E+03 -0.11592967330E+03  0.37805895109E+03  0.42411541999E+03  0.00000000000E+00 0. -1.
         -2    1    5    5    0  503 -0.66774900462E+01 -0.54723592296E+02  0.92360817427E+02  0.10756291658E+03  0.00000000000E+00 0.  1.
         -1    1    6    6    0  502  0.22158822345E+03  0.25225126099E+03  0.19286966567E+03  0.38720891955E+03  0.00000000000E+00 0.  1.
<mgrwt>
<rscale>  0 0.15572777E+04</rscale>
<asrwt>0</asrwt>
<pdfrwt beam="1">  1        2 0.19331588E+00 0.15572777E+04</pdfrwt>
<pdfrwt beam="2">  1       -2 0.74229733E-01 0.15572777E+04</pdfrwt>
<totfact> 0.27556501E+01</totfact>
</mgrwt>
</event>
<event>
12    1  0.2404959E-007  0.3271851E+04  0.7818608E-02  0.8170095E-01
          1   -1    0    0  501    0  0.00000000000E+00  0.00000000000E+00  0.10694181598E+04  0.10694181598E+04  0.00000000000E+00 0. -1.
         -1   -1    0    0    0  501 -0.00000000000E+00 -0.00000000000E+00 -0.25025311296E+04  0.25025311296E+04  0.00000000000E+00 0.  1.
         23    2    1    2    0    0  0.14370982888E+04  0.44917273763E+03 -0.53800079834E+03  0.16014589177E+04  0.90654102912E+02 0.  0.
        254    2    1    2    0    0 -0.14370982888E+04 -0.44917273763E+03 -0.89511217141E+03  0.19704903716E+04  0.90255130911E+03 0.  0.
        -24    2    4    4    0    0 -0.68823162374E+02 -0.30600016829E+03  0.87967238136E+01  0.32249319670E+03  0.74510059011E+02 0.  0.
         24    2    4    4    0    0 -0.13682751264E+04 -0.14317256934E+03 -0.90390889522E+03  0.16479971749E+04  0.78537836042E+02 0.  0.
         13    1    3    3    0    0  0.10762901196E+04  0.35430614170E+03 -0.44173804758E+03  0.12161684778E+04  0.00000000000E+00 0. -1.
        -13    1    3    3    0    0  0.36080816914E+03  0.94866595929E+02 -0.96262750762E+02  0.38529043997E+03  0.00000000000E+00 0.  1.
          2    1    6    6  502    0 -0.10006458469E+04 -0.12806129616E+03 -0.63103901709E+03  0.11899168238E+04  0.00000000000E+00 0. -1.
          1    1    5    5  503    0 -0.17875423453E+02 -0.14157411785E+03  0.38524107563E+02  0.14780686206E+03  0.00000000000E+00 0. -1.
         -2    1    5    5    0  503 -0.50947738921E+02 -0.16442605044E+03 -0.29727383749E+02  0.17468633464E+03  0.00000000000E+00 0.  1.
         -1    1    6    6    0  502 -0.36762927951E+03 -0.15111273172E+02 -0.27286987813E+03  0.45808035116E+03  0.00000000000E+00 0.  1.
<mgrwt>
<rscale>  0 0.32718510E+04</rscale>
<asrwt>0</asrwt>
<pdfrwt beam="1">  1        1 0.16452587E+00 0.32718510E+04</pdfrwt>
<pdfrwt beam="2">  1       -1 0.38500479E+00 0.32718510E+04</pdfrwt>
<totfact> 0.10057341E-01</totfact>
</mgrwt>
</event>
<event>
12    1  0.2404959E-007  0.2541563E+04  0.7818608E-02  0.8388326E-01
          1   -1    0    0  501    0  0.00000000000E+00  0.00000000000E+00  0.19530386423E+04  0.19530386423E+04  0.00000000000E+00 0. -1.
         -1   -1    0    0    0  501 -0.00000000000E+00 -0.00000000000E+00 -0.82685770843E+03  0.82685770843E+03  0.00000000000E+00 0.  1.
         23    2    1    2    0    0 -0.63148222871E+03 -0.68017774323E+03 -0.17172988982E+03  0.94796656443E+03  0.87965246883E+02 0.  0.
        254    2    1    2    0    0  0.63148222871E+03  0.68017774323E+03  0.12979108237E+04  0.18319297863E+04  0.89999037116E+03 0.  0.
        -24    2    4    4    0    0  0.44925815704E+03  0.83734481486E+03  0.70094004183E+03  0.11834835568E+04  0.79606258268E+02 0.  0.
         24    2    4    4    0    0  0.18222407167E+03 -0.15716707163E+03  0.59697078191E+03  0.64844622954E+03  0.78748317158E+02 0.  0.
         11    1    3    3    0    0 -0.43951393671E+03 -0.43179813538E+03 -0.14462392091E+03  0.63288088040E+03  0.00000000000E+00 0.  1.
        -11    1    3    3    0    0 -0.19196829200E+03 -0.24837960785E+03 -0.27105968911E+02  0.31508568403E+03  0.00000000000E+00 0. -1.
          2    1    6    6  502    0  0.49519592462E+02 -0.73692142201E+02  0.14462704388E+03  0.16970475444E+03  0.00000000000E+00 0. -1.
          3    1    5    5  503    0  0.27330425012E+03  0.43530655038E+03  0.40119828749E+03  0.65203302970E+03  0.00000000000E+00 0. -1.
         -4    1    5    5    0  503  0.17595390692E+03  0.40203826448E+03  0.29974175434E+03  0.53145052711E+03  0.00000000000E+00 0.  1.
         -1    1    6    6    0  502  0.13270447921E+03 -0.83474929430E+02  0.45234373803E+03  0.47874147510E+03  0.00000000000E+00 0.  1.
<mgrwt>
<rscale>  0 0.25415626E+04</rscale>
<asrwt>0</asrwt>
<pdfrwt beam="1">  1        1 0.30046748E+00 0.25415626E+04</pdfrwt>
<pdfrwt beam="2">  1       -1 0.12720888E+00 0.25415626E+04</pdfrwt>
<totfact> 0.15203844E+00</totfact>
</mgrwt>
</event>
<event>
12    1  0.2404959E-007  0.1839674E+04  0.7818608E-02  0.8685481E-01
          2   -1    0    0  501    0  0.00000000000E+00  0.00000000000E+00  0.82872412866E+03  0.82872412866E+03  0.00000000000E+00 0. -1.
         -2   -1    0    0    0  501 -0.00000000000E+00 -0.00000000000E+00 -0.10209669904E+04  0.10209669904E+04  0.00000000000E+00 0.  1.
         23    2    1    2    0    0  0.11501862939E+03  0.47644009865E+03  0.43109336032E+03  0.65914188534E+03  0.91662898688E+02 0.  0.
        254    2    1    2    0    0 -0.11501862939E+03 -0.47644009865E+03 -0.62333622209E+03  0.11905492338E+04  0.88805122573E+03 0.  0.
        -24    2    4    4    0    0 -0.10702526701E+03 -0.11240776770E+03 -0.77002135007E+03  0.78954153224E+03  0.79705944286E+02 0.  0.
         24    2    4    4    0    0 -0.79933623818E+01 -0.36403233095E+03  0.14668512798E+03  0.40100770151E+03  0.81897607294E+02 0.  0.
         13    1    3    3    0    0  0.10023362690E+03  0.22059490620E+03  0.21432966309E+03  0.32349048994E+03  0.00000000000E+00 0.  1.
        -13    1    3    3    0    0  0.14785002486E+02  0.25584519245E+03  0.21676369723E+03  0.33565139540E+03  0.00000000000E+00 0. -1.
          2    1    6    6  502    0 -0.41067940851E+02 -0.25663837366E+03  0.11533503013E+03  0.28434486064E+03  0.00000000000E+00 0. -1.
          1    1    5    5  503    0 -0.42887508247E+02 -0.91051850658E+02 -0.55800559685E+03  0.56700972124E+03  0.00000000000E+00 0. -1.
         -2    1    5    5    0  503 -0.64137758762E+02 -0.21355917038E+02 -0.21201575322E+03  0.22253181100E+03  0.00000000000E+00 0.  1.
         -1    1    6    6    0  502  0.33074578470E+02 -0.10739395729E+03  0.31350097855E+02  0.11666284087E+03  0.00000000000E+00 0.  1.
<mgrwt>
<rscale>  0 0.18396739E+04</rscale>
<asrwt>0</asrwt>
<pdfrwt beam="1">  1        2 0.12749602E+00 0.18396739E+04</pdfrwt>
<pdfrwt beam="2">  1       -2 0.15707184E+00 0.18396739E+04</pdfrwt>
<totfact> 0.81852405E+00</totfact>
</mgrwt>
</event>
<event>
12    1  0.2404959E-007  0.1424528E+04  0.7818608E-02  0.8936253E-01
          1   -1    0    0  501    0  0.00000000000E+00  0.00000000000E+00  0.71005121791E+03  0.71005121791E+03  0.00000000000E+00 0. -1.
         -1   -1    0    0    0  501 -0.00000000000E+00 -0.00000000000E+00 -0.71448410741E+03  0.71448410741E+03  0.00000000000E+00 0.  1.
         23    2    1    2    0    0  0.36101771248E+03 -0.19242846956E+03 -0.10037853123E+03  0.43097870121E+03  0.91127859293E+02 0.  0.
        254    2    1    2    0    0 -0.36101771248E+03  0.19242846956E+03  0.95945641723E+02  0.99355662411E+03  0.90032588241E+03 0.  0.
        -24    2    4    4    0    0 -0.17304610089E+03 -0.36968738431E+02 -0.38012240484E+03  0.42680727003E+03  0.79748118660E+02 0.  0.
         24    2    4    4    0    0 -0.18797161159E+03  0.22939720799E+03  0.47606804656E+03  0.56674935409E+03  0.81287388940E+02 0.  0.
         11    1    3    3    0    0  0.27511701327E+03 -0.15065692558E+03 -0.11552897149E+03  0.33426609680E+03  0.00000000000E+00 0. -1.
        -11    1    3    3    0    0  0.85900699211E+02 -0.41771543986E+02  0.15150440257E+02  0.96712604411E+02  0.00000000000E+00 0.  1.
          2    1    6    6  502    0 -0.19404127940E+03  0.21059874595E+03  0.43003172344E+03  0.51665378453E+03  0.00000000000E+00 0. -1.
          3    1    5    5  503    0 -0.26349887233E+02 -0.37842691514E+02 -0.11313628058E+03  0.12217284413E+03  0.00000000000E+00 0. -1.
         -4    1    5    5    0  503 -0.14669621366E+03  0.87395308317E+00 -0.26698612426E+03  0.30463442590E+03  0.00000000000E+00 0.  1.
         -1    1    6    6    0  502  0.60696678057E+01  0.18798462045E+02  0.46036323121E+02  0.50095569555E+02  0.00000000000E+00 0.  1.
<mgrwt>
<rscale>  0 0.14245284E+04</rscale>
<asrwt>0</asrwt>
<pdfrwt beam="1">  1        1 0.10923865E+00 0.14245284E+04</pdfrwt>
<pdfrwt beam="2">  1       -1 0.10992063E+00 0.14245284E+04</pdfrwt>
<totfact> 0.19840779E+01</totfact>
</mgrwt>
</event>
<event>
12    1  0.2741214E-007  0.1809939E+04  0.7818608E-02  0.8701032E-01
         -2   -1    0    0    0  501 -0.00000000000E+00  0.00000000000E+00  0.31088959197E+03  0.31088959197E+03  0.00000000000E+00 0.  1.
          2   -1    0    0  501    0  0.00000000000E+00 -0.00000000000E+00 -0.26342780542E+04  0.26342780542E+04  0.00000000000E+00 0. -1.
         23    2    1    2    0    0  0.58572570583E+03  0.30225436039E+03 -0.62250978393E+03  0.91140115926E+03  0.93280979621E+02 0.  0.
        254    2    1    2    0    0 -0.58572570583E+03 -0.30225436039E+03 -0.17008786783E+04  0.20337664869E+04  0.89932504923E+03 0.  0.
        -24    2    4    4    0    0  0.97998386826E+02 -0.15801102961E+03 -0.12742068358E+02  0.20461784860E+03  0.84468540648E+02 0.  0.
         24    2    4    4    0    0 -0.68372409266E+03 -0.14424333078E+03 -0.16881366099E+04  0.18291486383E+04  0.87719746314E+02 0.  0.
         11    1    3    3    0    0  0.71610804996E+02  0.66125810156E+02 -0.12094847138E+03  0.15533596779E+03  0.00000000000E+00 0. -1.
        -11    1    3    3    0    0  0.51411490084E+03  0.23612855023E+03 -0.50156131255E+03  0.75606519147E+03  0.00000000000E+00 0.  1.
          2    1    6    6  502    0 -0.84175708911E+02 -0.12517191626E+02 -0.14109656695E+03  0.16477400056E+03  0.00000000000E+00 0. -1.
          3    1    5    5  503    0  0.20535531287E+02 -0.49552519163E+01 -0.24890380644E+02  0.32646494687E+02  0.00000000000E+00 0. -1.
         -4    1    5    5    0  503  0.77462855539E+02 -0.15305577770E+03  0.12148312286E+02  0.17197135391E+03  0.00000000000E+00 0.  1.
         -1    1    6    6    0  502 -0.59954838375E+03 -0.13172613915E+03 -0.15470400430E+04  0.16643746377E+04  0.00000000000E+00 0.  1.
<mgrwt>
<rscale>  0 0.18099388E+04</rscale>
<asrwt>0</asrwt>
<pdfrwt beam="1">  1        2 0.40527354E+00 0.18099388E+04</pdfrwt>
<pdfrwt beam="2">  1       -2 0.47829169E-01 0.18099388E+04</pdfrwt>
<totfact> 0.11369409E+01</totfact>
</mgrwt>
</event>
<event>
12    1  0.2404959E-007  0.3780665E+04  0.7818608E-02  0.8050317E-01
         -2   -1    0    0    0  501 -0.00000000000E+00  0.00000000000E+00  0.18349069075E+04  0.18349069075E+04  0.00000000000E+00 0.  1.
          2   -1    0    0  501    0  0.00000000000E+00 -0.00000000000E+00 -0.19474326632E+04  0.19474326632E+04  0.00000000000E+00 0. -1.
         23    2    1    2    0    0  0.16927784389E+04 -0.24383817779E+03 -0.55579192186E+03  0.18007209117E+04  0.93462512735E+02 0.  0.
        254    2    1    2    0    0 -0.16927784389E+04  0.24383817779E+03  0.44326616616E+03  0.19816186590E+04  0.89742504734E+03 0.  0.
        -24    2    4    4    0    0 -0.12258599413E+04  0.54198835279E+03  0.15061315624E+03  0.13511502451E+04  0.80241459785E+02 0.  0.
         24    2    4    4    0    0 -0.46691849766E+03 -0.29815017500E+03  0.29265300992E+03  0.63046841394E+03  0.70272515633E+02 0.  0.
         13    1    3    3    0    0  0.11117776748E+04 -0.14683424209E+03 -0.40875023034E+03  0.11936023809E+04  0.00000000000E+00 0. -1.
        -13    1    3    3    0    0  0.58100076413E+03 -0.97003935699E+02 -0.14704169152E+03  0.60711853085E+03  0.00000000000E+00 0.  1.
          4    1    6    6  502    0 -0.18316419573E+03 -0.12648392303E+03  0.15580108500E+03  0.27170072408E+03  0.00000000000E+00 0. -1.
          3    1    5    5  503    0 -0.60093084496E+03  0.22186828923E+03  0.71750587393E+02  0.64458635184E+03  0.00000000000E+00 0. -1.
         -4    1    5    5    0  503 -0.62492909629E+03  0.32012006357E+03  0.78862568846E+02  0.70656389326E+03  0.00000000000E+00 0.  1.
         -3    1    6    6    0  502 -0.28375430193E+03 -0.17166625198E+03  0.13685192492E+03  0.35876768986E+03  0.00000000000E+00 0.  1.
<mgrwt>
<rscale>  0 0.37806654E+04</rscale>
<asrwt>0</asrwt>
<pdfrwt beam="1">  1        2 0.29960502E+00 0.37806654E+04</pdfrwt>
<pdfrwt beam="2">  1       -2 0.28229337E+00 0.37806654E+04</pdfrwt>
<totfact> 0.23404022E-01</totfact>
</mgrwt>
</event>
<event>
12    1  0.2404959E-007  0.1405778E+04  0.7818608E-02  0.8949647E-01
         -1   -1    0    0    0  501 -0.00000000000E+00  0.00000000000E+00  0.15234061705E+03  0.15234061705E+03  0.00000000000E+00 0.  1.
          1   -1    0    0  501    0  0.00000000000E+00 -0.00000000000E+00 -0.32430786333E+04  0.32430786333E+04  0.00000000000E+00 0. -1.
         23    2    1    2    0    0 -0.17293829411E+03 -0.22385202838E+03 -0.16199401481E+04  0.16468570983E+04  0.88965357275E+02 0.  0.
        254    2    1    2    0    0  0.17293829411E+03  0.22385202838E+03 -0.14707978681E+04  0.17485621520E+04  0.90233355599E+03 0.  0.
        -24    2    4    4    0    0  0.50536534676E+03 -0.21797714582E+01 -0.61683985453E+03  0.80144197889E+03  0.80118376749E+02 0.  0.
         24    2    4    4    0    0 -0.33242705265E+03  0.22603179984E+03 -0.85395801361E+03  0.94712017309E+03  0.78703325182E+02 0.  0.
         11    1    3    3    0    0 -0.15597633318E+03 -0.15702946831E+03 -0.13618238218E+04  0.13796923541E+04  0.00000000000E+00 0. -1.
        -11    1    3    3    0    0 -0.16961960925E+02 -0.66822560065E+02 -0.25811632631E+03  0.26716474423E+03  0.00000000000E+00 0.  1.
          4    1    6    6  502    0 -0.24438867606E+03  0.13285529618E+03 -0.63762263311E+03  0.69565722663E+03  0.00000000000E+00 0. -1.
          1    1    5    5  503    0  0.48766112786E+02 -0.24039249247E+02 -0.72481010139E+02  0.90606379971E+02  0.00000000000E+00 0. -1.
         -2    1    5    5    0  503  0.45659923397E+03  0.21859477789E+02 -0.54435884439E+03  0.71083559892E+03  0.00000000000E+00 0.  1.
         -1    1    6    6    0  502 -0.88038376598E+02  0.93176503652E+02 -0.21633538049E+03  0.25146294646E+03  0.00000000000E+00 0.  1.
<mgrwt>
<rscale>  0 0.14057775E+04</rscale>
<asrwt>0</asrwt>
<pdfrwt beam="1">  1        1 0.49893518E+00 0.14057775E+04</pdfrwt>
<pdfrwt beam="2">  1       -1 0.23437018E-01 0.14057775E+04</pdfrwt>
<totfact> 0.60791537E+00</totfact>
</mgrwt>
</event>
<event>
12    1  0.2404959E-007  0.2492230E+04  0.7818608E-02  0.8405759E-01
         -1   -1    0    0    0  501 -0.00000000000E+00  0.00000000000E+00  0.14767630015E+04  0.14767630015E+04  0.00000000000E+00 0.  1.
          1   -1    0    0  501    0  0.00000000000E+00 -0.00000000000E+00 -0.10514908990E+04  0.10514908990E+04  0.00000000000E+00 0. -1.
         23    2    1    2    0    0 -0.96806552721E+03 -0.24652968874E+03  0.60505320126E+03  0.11714649717E+04  0.91175934736E+02 0.  0.
        254    2    1    2    0    0  0.96806552721E+03  0.24652968874E+03 -0.17978109875E+03  0.13567889289E+04  0.90034837791E+03 0.  0.
        -24    2    4    4    0    0  0.47812492340E+02 -0.22587480569E+03  0.12609697097E+03  0.27526966023E+03  0.81039974623E+02 0.  0.
         24    2    4    4    0    0  0.92025303487E+03  0.47240449442E+03 -0.30587806972E+03  0.10815192686E+04  0.78044092289E+02 0.  0.
         13    1    3    3    0    0 -0.63334746294E+03 -0.20557416795E+03  0.39765977566E+03  0.77557916715E+03  0.00000000000E+00 0.  1.
        -13    1    3    3    0    0 -0.33471806427E+03 -0.40955520790E+02  0.20739342561E+03  0.39588580452E+03  0.00000000000E+00 0. -1.
          4    1    6    6  502    0  0.36742154745E+02  0.47578244408E+01 -0.18369609298E+02  0.41352936710E+02  0.00000000000E+00 0. -1.
          3    1    5    5  503    0 -0.28019220324E+01 -0.26857349786E+02  0.48949212213E+02  0.55903429062E+02  0.00000000000E+00 0. -1.
         -4    1    5    5    0  503  0.50614414373E+02 -0.19901745590E+03  0.77147758762E+02  0.21936623117E+03  0.00000000000E+00 0.  1.
         -3    1    6    6    0  502  0.88351088013E+03  0.46764666998E+03 -0.28750846042E+03  0.10401663319E+04  0.00000000000E+00 0.  1.
<mgrwt>
<rscale>  0 0.24922302E+04</rscale>
<asrwt>0</asrwt>
<pdfrwt beam="1">  1        1 0.16176783E+00 0.24922302E+04</pdfrwt>
<pdfrwt beam="2">  1       -1 0.22719431E+00 0.24922302E+04</pdfrwt>
<totfact> 0.12089994E+00</totfact>
</mgrwt>
</event>
<event>
12    1  0.2404959E-007  0.2580716E+04  0.7818608E-02  0.8374781E-01
          2   -1    0    0  501    0  0.00000000000E+00  0.00000000000E+00  0.20995188972E+04  0.20995188972E+04  0.00000000000E+00 0. -1.
         -2   -1    0    0    0  501 -0.00000000000E+00 -0.00000000000E+00 -0.79305016944E+03  0.79305016944E+03  0.00000000000E+00 0.  1.
         23    2    1    2    0    0  0.35904469815E+03 -0.10365717209E+04  0.85735420652E+03  0.13954622965E+04  0.94152841631E+02 0.  0.
        254    2    1    2    0    0 -0.35904469815E+03  0.10365717209E+04  0.44911452128E+03  0.14971067702E+04  0.91445656011E+03 0.  0.
        -24    2    4    4    0    0 -0.62012521731E+03  0.88793666201E+03  0.47376651329E+03  0.11850523159E+04  0.83111258995E+02 0.  0.
         24    2    4    4    0    0  0.26108051916E+03  0.14863505889E+03 -0.24651992002E+02  0.31205445433E+03  0.80714580708E+02 0.  0.
         11    1    3    3    0    0  0.23701752371E+03 -0.60558700083E+03  0.45855472332E+03  0.79572944924E+03  0.00000000000E+00 0.  1.
        -11    1    3    3    0    0  0.12202717444E+03 -0.43098472008E+03  0.39879948320E+03  0.59973284722E+03  0.00000000000E+00 0. -1.
          4    1    6    6  502    0  0.46954319621E+02  0.42654240457E+02 -0.35866347799E+02  0.72873090126E+02  0.00000000000E+00 0. -1.
          3    1    5    5  503    0 -0.54384328167E+03  0.79252426865E+03  0.44682627654E+03  0.10599594109E+04  0.00000000000E+00 0. -1.
         -4    1    5    5    0  503 -0.76281935647E+02  0.95412393361E+02  0.26940236744E+02  0.12509290495E+03  0.00000000000E+00 0.  1.
         -3    1    6    6    0  502  0.21412619954E+03  0.10598081844E+03  0.11214355797E+02  0.23918136420E+03  0.00000000000E+00 0.  1.
<mgrwt>
<rscale>  0 0.25807160E+04</rscale>
<asrwt>0</asrwt>
<pdfrwt beam="1">  1        2 0.32300291E+00 0.25807160E+04</pdfrwt>
<pdfrwt beam="2">  1       -2 0.12200772E+00 0.25807160E+04</pdfrwt>
<totfact> 0.26538408E+00</totfact>
</mgrwt>
</event>
<event>
12    1  0.2404959E-007  0.1430548E+04  0.7818608E-02  0.8931998E-01
          2   -1    0    0  501    0  0.00000000000E+00  0.00000000000E+00  0.32380004305E+04  0.32380004305E+04  0.00000000000E+00 0. -1.
         -2   -1    0    0    0  501 -0.00000000000E+00 -0.00000000000E+00 -0.15800395302E+03  0.15800395302E+03  0.00000000000E+00 0.  1.
         23    2    1    2    0    0  0.16900848579E+03  0.36545524985E+03  0.61219302327E+03  0.73841051958E+03  0.91369523288E+02 0.  0.
        254    2    1    2    0    0 -0.16900848579E+03 -0.36545524985E+03  0.24678034542E+04  0.26575938640E+04  0.90034984818E+03 0.  0.
        -24    2    4    4    0    0  0.34841607517E+03 -0.91731757563E+02  0.66742133146E+03  0.76269814806E+03  0.80304138005E+02 0.  0.
         24    2    4    4    0    0 -0.51742456096E+03 -0.27372349229E+03  0.18003821228E+04  0.18948957159E+04  0.81248136133E+02 0.  0.
         11    1    3    3    0    0  0.62459889734E+02  0.13072038788E+03  0.30298322830E+03  0.33583908984E+03  0.00000000000E+00 0. -1.
        -11    1    3    3    0    0  0.10654859605E+03  0.23473486197E+03  0.30920979497E+03  0.40257142975E+03  0.00000000000E+00 0.  1.
          2    1    6    6  502    0 -0.44658454686E+03 -0.23469804024E+03  0.16300646888E+04  0.17063504380E+04  0.00000000000E+00 0. -1.
          1    1    5    5  503    0  0.32300565073E+03 -0.10027100132E+03  0.58161938817E+03  0.67280609153E+03  0.00000000000E+00 0. -1.
         -2    1    5    5    0  503  0.25410424444E+02  0.85392437560E+01  0.85801943284E+02  0.89892056522E+02  0.00000000000E+00 0.  1.
         -1    1    6    6    0  502 -0.70840014095E+02 -0.39025452044E+02  0.17031743402E+03  0.18854527794E+03  0.00000000000E+00 0.  1.
<mgrwt>
<rscale>  0 0.14305480E+04</rscale>
<asrwt>0</asrwt>
<pdfrwt beam="1">  1        2 0.49815386E+00 0.14305480E+04</pdfrwt>
<pdfrwt beam="2">  1       -2 0.24308303E-01 0.14305480E+04</pdfrwt>
<totfact> 0.18163845E+01</totfact>
</mgrwt>
</event>
<event>
12    1  0.2404959E-007  0.2940611E+04  0.7818608E-02  0.8260896E-01
          2   -1    0    0  501    0  0.00000000000E+00  0.00000000000E+00  0.12063076397E+04  0.12063076397E+04  0.00000000000E+00 0. -1.
         -2   -1    0    0    0  501 -0.00000000000E+00 -0.00000000000E+00 -0.17920782442E+04  0.17920782442E+04  0.00000000000E+00 0.  1.
         23    2    1    2    0    0 -0.10839031646E+04 -0.72541406728E+03 -0.51445114116E+03  0.14049864737E+04  0.90859095669E+02 0.  0.
        254    2    1    2    0    0  0.10839031646E+04  0.72541406728E+03 -0.71319463322E+02  0.15933994102E+04  0.91255880648E+03 0.  0.
        -24    2    4    4    0    0  0.16949244450E+03  0.25010104153E+03 -0.40122653000E+03  0.50842017009E+03  0.78931117152E+02 0.  0.
         24    2    4    4    0    0  0.91441072014E+03  0.47531302575E+03  0.32990706668E+03  0.10849792401E+04  0.79194957547E+02 0.  0.
         13    1    3    3    0    0 -0.61663373351E+03 -0.39360995910E+03 -0.24296962515E+03  0.77084382332E+03  0.00000000000E+00 0. -1.
        -13    1    3    3    0    0 -0.46726943112E+03 -0.33180410818E+03 -0.27148151601E+03  0.63414265036E+03  0.00000000000E+00 0.  1.
          4    1    6    6  502    0  0.55153410338E+03  0.31850120753E+03  0.17597662822E+03  0.66075764095E+03  0.00000000000E+00 0. -1.
          1    1    5    5  503    0  0.11374795936E+03  0.11287856704E+03 -0.24833450107E+03  0.29555066161E+03  0.00000000000E+00 0. -1.
         -2    1    5    5    0  503  0.55744485145E+02  0.13722247449E+03 -0.15289202893E+03  0.21286950848E+03  0.00000000000E+00 0.  1.
         -3    1    6    6    0  502  0.36287661675E+03  0.15681181822E+03  0.15393043846E+03  0.42422159917E+03  0.00000000000E+00 0.  1.
<mgrwt>
<rscale>  0 0.29406106E+04</rscale>
<asrwt>0</asrwt>
<pdfrwt beam="1">  1        2 0.18558579E+00 0.29406106E+04</pdfrwt>
<pdfrwt beam="2">  1       -2 0.27570435E+00 0.29406106E+04</pdfrwt>
<totfact> 0.72248852E-01</totfact>
</mgrwt>
</event>
<event>
12    1  0.2404959E-007  0.1326067E+04  0.7818608E-02  0.9009145E-01
         -1   -1    0    0    0  501 -0.00000000000E+00  0.00000000000E+00  0.48182386449E+03  0.48182386449E+03  0.00000000000E+00 0.  1.
          1   -1    0    0  501    0  0.00000000000E+00 -0.00000000000E+00 -0.91239454766E+03  0.91239454766E+03  0.00000000000E+00 0. -1.
         23    2    1    2    0    0 -0.16040929748E+03  0.27536773507E+03 -0.27078986223E+03  0.42638599471E+03  0.83182538773E+02 0.  0.
        254    2    1    2    0    0  0.16040929748E+03 -0.27536773507E+03 -0.15978082094E+03  0.96783241744E+03  0.89978394367E+03 0.  0.
        -24    2    4    4    0    0  0.21201104740E+03 -0.39674156318E+03 -0.44850001049E+03  0.64022594276E+03  0.79902729546E+02 0.  0.
         24    2    4    4    0    0 -0.51601749919E+02  0.12137382811E+03  0.28871918955E+03  0.32760647469E+03  0.81073331603E+02 0.  0.
         11    1    3    3    0    0 -0.80804692561E+02  0.10340841131E+03 -0.15980275926E+03  0.20678399294E+03  0.00000000000E+00 0. -1.
        -11    1    3    3    0    0 -0.79604604920E+02  0.17195932376E+03 -0.11098710298E+03  0.21960200177E+03  0.00000000000E+00 0.  1.
          2    1    6    6  502    0 -0.30676428744E+02  0.70614256015E+00  0.78958811797E+02  0.84711486106E+02  0.00000000000E+00 0. -1.
          3    1    5    5  503    0  0.34044981697E+02 -0.78202288708E+02 -0.13224123255E+03  0.15736073947E+03  0.00000000000E+00 0. -1.
         -4    1    5    5    0  503  0.17796606570E+03 -0.31853927448E+03 -0.31625877794E+03  0.48286520329E+03  0.00000000000E+00 0.  1.
         -1    1    6    6    0  502 -0.20925321174E+02  0.12066768555E+03  0.20976037775E+03  0.24289498858E+03  0.00000000000E+00 0.  1.
<mgrwt>
<rscale>  0 0.13260671E+04</rscale>
<asrwt>0</asrwt>
<pdfrwt beam="1">  1        1 0.14036839E+00 0.13260671E+04</pdfrwt>
<pdfrwt beam="2">  1       -1 0.74126749E-01 0.13260671E+04</pdfrwt>
<totfact> 0.31947677E+01</totfact>
</mgrwt>
</event>
<event>
12    1  0.2404959E-007  0.1565708E+04  0.7818608E-02  0.8841896E-01
         -2   -1    0    0    0  501 -0.00000000000E+00  0.00000000000E+00  0.24047947526E+03  0.24047947526E+03  0.00000000000E+00 0. -1.
          2   -1    0    0  501    0  0.00000000000E+00 -0.00000000000E+00 -0.25484948198E+04  0.25484948198E+04  0.00000000000E+00 0.  1.
         23    2    1    2    0    0  0.35965724158E+03  0.86596721801E+02 -0.14213639615E+04  0.14726730138E+04  0.10787942695E+03 0.  0.
        254    2    1    2    0    0 -0.35965724158E+03 -0.86596721801E+02 -0.88665138299E+03  0.13163012812E+04  0.89980334763E+03 0.  0.
        -24    2    4    4    0    0 -0.43141892149E+03  0.30619310852E+03 -0.66534345964E+03  0.85320964785E+03  0.73540997922E+02 0.  0.
         24    2    4    4    0    0  0.71761679906E+02 -0.39278983032E+03 -0.22130792335E+03  0.46309163340E+03  0.77737214265E+02 0.  0.
         13    1    3    3    0    0  0.73874406440E+02 -0.15336591819E+02 -0.18892257227E+03  0.20343150515E+03  0.00000000000E+00 0. -1.
        -13    1    3    3    0    0  0.28578283514E+03  0.10193331362E+03 -0.12324413893E+04  0.12692415086E+04  0.00000000000E+00 0.  1.
          4    1    6    6  502    0  0.19725167610E+02 -0.19948376623E+03 -0.15081747162E+03  0.25085606426E+03  0.00000000000E+00 0. -1.
          1    1    5    5  503    0 -0.29568641668E+03  0.19503927170E+03 -0.39122792268E+03  0.52775947363E+03  0.00000000000E+00 0. -1.
         -2    1    5    5    0  503 -0.13573250481E+03  0.11115383682E+03 -0.27411553696E+03  0.32545017422E+03  0.00000000000E+00 0.  1.
         -3    1    6    6    0  502  0.52036512297E+02 -0.19330606409E+03 -0.70490451728E+02  0.21223556914E+03  0.00000000000E+00 0.  1.
<mgrwt>
<rscale>  0 0.15657084E+04</rscale>
<asrwt>0</asrwt>
<pdfrwt beam="1">  1        2 0.39207612E+00 0.15657084E+04</pdfrwt>
<pdfrwt beam="2">  1       -2 0.36996843E-01 0.15657084E+04</pdfrwt>
<totfact> 0.21650498E+01</totfact>
</mgrwt>
</event>
<event>
12    1  0.2404959E-007  0.2242031E+04  0.7818608E-02  0.8501135E-01
         -2   -1    0    0    0  501 -0.00000000000E+00  0.00000000000E+00  0.29895859430E+03  0.29895859430E+03  0.00000000000E+00 0.  1.
          2   -1    0    0  501    0  0.00000000000E+00 -0.00000000000E+00 -0.42035116973E+04  0.42035116973E+04  0.00000000000E+00 0. -1.
         23    2    1    2    0    0  0.57460890693E+03 -0.50136495179E+03 -0.27383135523E+04  0.28439143258E+04  0.89136809791E+02 0.  0.
        254    2    1    2    0    0 -0.57460890693E+03  0.50136495179E+03 -0.11662395506E+04  0.16585559657E+04  0.89952820481E+03 0.  0.
        -24    2    4    4    0    0 -0.73050447707E+03  0.49392279525E+03 -0.11890393302E+04  0.14820292641E+04  0.70708502625E+02 0.  0.
         24    2    4    4    0    0  0.15589557014E+03  0.74421565388E+01  0.22799779564E+02  0.17652670160E+03  0.79265578569E+02 0.  0.
         11    1    3    3    0    0  0.41477859812E+03 -0.35053472332E+03 -0.17956407685E+04  0.18759641914E+04  0.00000000000E+00 0.  1.
        -11    1    3    3    0    0  0.15983030880E+03 -0.15083022847E+03 -0.94267278379E+03  0.96795013442E+03  0.00000000000E+00 0. -1.
          2    1    6    6  502    0  0.11873481957E+03 -0.24234937027E+02  0.35114603164E+02  0.12616784419E+03  0.00000000000E+00 0. -1.
          3    1    5    5  503    0 -0.66465031698E+03  0.42292024853E+03 -0.10608990385E+04  0.13214114992E+04  0.00000000000E+00 0. -1.
         -4    1    5    5    0  503 -0.65854160090E+02  0.71002546720E+02 -0.12814029173E+03  0.16061776492E+03  0.00000000000E+00 0.  1.
         -1    1    6    6    0  502  0.37160750572E+02  0.31677093566E+02 -0.12314823600E+02  0.50358857415E+02  0.00000000000E+00 0.  1.
<mgrwt>
<rscale>  0 0.22420312E+04</rscale>
<asrwt>0</asrwt>
<pdfrwt beam="1">  1        2 0.64669405E+00 0.22420312E+04</pdfrwt>
<pdfrwt beam="2">  1       -2 0.45993634E-01 0.22420312E+04</pdfrwt>
<totfact> 0.95050614E-01</totfact>
</mgrwt>
</event>
<event>
12    1  0.2404959E-007  0.3196308E+04  0.7818608E-02  0.8189793E-01
          2   -1    0    0  501    0  0.00000000000E+00  0.00000000000E+00  0.14197935067E+04  0.14197935067E+04  0.00000000000E+00 0.  1.
         -2   -1    0    0    0  501 -0.00000000000E+00 -0.00000000000E+00 -0.17989205406E+04  0.17989205406E+04  0.00000000000E+00 0. -1.
         23    2    1    2    0    0  0.91954892273E+03  0.31331713481E+02 -0.13292663822E+04  0.16190092002E+04  0.87691378867E+02 0.  0.
        254    2    1    2    0    0 -0.91954892273E+03 -0.31331713481E+02  0.95013934839E+03  0.15997048470E+04  0.89985494314E+03 0.  0.
        -24    2    4    4    0    0  0.35239807446E+01  0.25189813349E+03  0.41659856721E+03  0.49362619173E+03  0.81531361242E+02 0.  0.
         24    2    4    4    0    0 -0.92307290347E+03 -0.28322984697E+03  0.53354078118E+03  0.11060786553E+04  0.80383426004E+02 0.  0.
         13    1    3    3    0    0  0.28728315204E+03  0.27357567586E+02 -0.35407720229E+03  0.45678300224E+03  0.00000000000E+00 0.  1.
        -13    1    3    3    0    0  0.63226577069E+03  0.39741458956E+01 -0.97518917995E+03  0.11622261980E+04  0.00000000000E+00 0. -1.
          2    1    6    6  502    0 -0.39448685787E+03 -0.16034943036E+03  0.24990862431E+03  0.49374704187E+03  0.00000000000E+00 0. -1.
          1    1    5    5  503    0  0.18521285717E+02  0.80482207986E+01  0.38253239221E+02  0.43256469961E+02  0.00000000000E+00 0. -1.
         -2    1    5    5    0  503 -0.14997304972E+02  0.24384991270E+03  0.37834532799E+03  0.45036972177E+03  0.00000000000E+00 0.  1.
         -1    1    6    6    0  502 -0.52858604560E+03 -0.12288041662E+03  0.28363215687E+03  0.61233161343E+03  0.00000000000E+00 0.  1.
<mgrwt>
<rscale>  0 0.31963077E+04</rscale>
<asrwt>0</asrwt>
<pdfrwt beam="1">  1        2 0.21842977E+00 0.31963077E+04</pdfrwt>
<pdfrwt beam="2">  1       -2 0.27675701E+00 0.31963077E+04</pdfrwt>
<totfact> 0.52338113E-01</totfact>
</mgrwt>
</event>
<event>
12    1  0.2404959E-007  0.1758278E+04  0.7818608E-02  0.8728807E-01
          1   -1    0    0  501    0  0.00000000000E+00  0.00000000000E+00  0.17691685447E+04  0.17691685447E+04  0.00000000000E+00 0. -1.
         -1   -1    0    0    0  501 -0.00000000000E+00 -0.00000000000E+00 -0.43686386059E+03  0.43686386059E+03  0.00000000000E+00 0.  1.
         23    2    1    2    0    0 -0.18492647320E+03  0.31034112793E+03  0.11401585615E+04  0.11994818679E+04  0.91026313375E+02 0.  0.
        254    2    1    2    0    0  0.18492647320E+03 -0.31034112793E+03  0.19214612255E+03  0.10065505374E+04  0.91962733525E+03 0.  0.
        -24    2    4    4    0    0  0.54945216723E+03 -0.16115560871E+03  0.17608163326E+03  0.60429606253E+03  0.79373643787E+02 0.  0.
         24    2    4    4    0    0 -0.36452569403E+03 -0.14918551922E+03  0.16064489296E+02  0.40225447486E+03  0.80095530317E+02 0.  0.
         11    1    3    3    0    0 -0.15016359803E+03  0.26300650564E+03  0.10417638206E+04  0.10848932602E+04  0.00000000000E+00 0. -1.
        -11    1    3    3    0    0 -0.34762875169E+02  0.47334622288E+02  0.98394740966E+02  0.11458860767E+03  0.00000000000E+00 0.  1.
          2    1    6    6  502    0 -0.24948855843E+03 -0.62018658752E+02  0.20104815974E+02  0.25786635772E+03  0.00000000000E+00 0. -1.
          1    1    5    5  503    0  0.31677580231E+03 -0.12687238300E+03  0.81742396085E+02  0.35089219116E+03  0.00000000000E+00 0. -1.
         -4    1    5    5    0  503  0.23267636492E+03 -0.34283225713E+02  0.94339237174E+02  0.25340387137E+03  0.00000000000E+00 0.  1.
         -1    1    6    6    0  502 -0.11503713560E+03 -0.87166860466E+02 -0.40403266780E+01  0.14438811714E+03  0.00000000000E+00 0.  1.
<mgrwt>
<rscale>  0 0.17582785E+04</rscale>
<asrwt>0</asrwt>
<pdfrwt beam="1">  1        1 0.27217977E+00 0.17582785E+04</pdfrwt>
<pdfrwt beam="2">  1       -1 0.67209826E-01 0.17582785E+04</pdfrwt>
<totfact> 0.90787701E+00</totfact>
</mgrwt>
</event>
<event>
12    1  0.2404959E-007  0.1391589E+04  0.7818608E-02  0.8959929E-01
          2   -1    0    0  501    0  0.00000000000E+00  0.00000000000E+00  0.18835203185E+04  0.18835203185E+04  0.00000000000E+00 0.  1.
         -2   -1    0    0    0  501 -0.00000000000E+00 -0.00000000000E+00 -0.25703478878E+03  0.25703478878E+03  0.00000000000E+00 0. -1.
         23    2    1    2    0    0 -0.25865035500E+03  0.23237456001E+03  0.19339307089E+03  0.41184673543E+03  0.10639037239E+03 0.  0.
        254    2    1    2    0    0  0.25865035500E+03 -0.23237456001E+03  0.14330924588E+04  0.17287083718E+04  0.90209794205E+03 0.  0.
        -24    2    4    4    0    0  0.33170741702E+02 -0.30918892826E+03  0.52415459519E+02  0.32537133876E+03  0.80131368542E+02 0.  0.
         24    2    4    4    0    0  0.22547961329E+03  0.76814368245E+02  0.13806769993E+04  0.14033370331E+04  0.79651420928E+02 0.  0.
         13    1    3    3    0    0 -0.18665131235E+03  0.19131442991E+03  0.96095947227E+02  0.28403231254E+03  0.00000000000E+00 0. -1.
        -13    1    3    3    0    0 -0.71999042642E+02  0.41060130103E+02  0.97297123662E+02  0.12781442289E+03  0.00000000000E+00 0.  1.
          2    1    6    6  502    0  0.20357875427E+03  0.56183934664E+02  0.10333927788E+04  0.10547519040E+04  0.00000000000E+00 0. -1.
          3    1    5    5  503    0  0.24588325993E+02 -0.27932540511E+03  0.70882067661E+02  0.28922575133E+03  0.00000000000E+00 0. -1.
         -4    1    5    5    0  503  0.85824157096E+01 -0.29863523148E+02 -0.18466608142E+02  0.36145587427E+02  0.00000000000E+00 0.  1.
         -1    1    6    6    0  502  0.21900859027E+02  0.20630433581E+02  0.34728422051E+03  0.34858512911E+03  0.00000000000E+00 0.  1.
<mgrwt>
<rscale>  0 0.13915894E+04</rscale>
<asrwt>0</asrwt>
<pdfrwt beam="1">  1        2 0.28977235E+00 0.13915894E+04</pdfrwt>
<pdfrwt beam="2">  1       -2 0.39543815E-01 0.13915894E+04</pdfrwt>
<totfact> 0.45694537E+01</totfact>
</mgrwt>
</event>
<event>
12    1  0.2404959E-007  0.1526259E+04  0.7818608E-02  0.8867176E-01
         -1   -1    0    0    0  501 -0.00000000000E+00  0.00000000000E+00  0.56149839261E+03  0.56149839261E+03  0.00000000000E+00 0.  1.
          1   -1    0    0  501    0  0.00000000000E+00 -0.00000000000E+00 -0.10371653139E+04  0.10371653139E+04  0.00000000000E+00 0. -1.
         23    2    1    2    0    0 -0.34076827336E+03  0.22122482148E+03  0.13687483781E+03  0.43781341656E+03  0.88783042993E+02 0.  0.
        254    2    1    2    0    0  0.34076827336E+03 -0.22122482148E+03 -0.61254175915E+03  0.11608502900E+04  0.89850016768E+03 0.  0.
        -24    2    4    4    0    0  0.39416762408E+03 -0.38188853164E+03 -0.74712414377E+03  0.93044068206E+03  0.79488427854E+02 0.  0.
         24    2    4    4    0    0 -0.53399350714E+02  0.16066371016E+03  0.13458238462E+03  0.23040960794E+03  0.79447157023E+02 0.  0.
         11    1    3    3    0    0 -0.17926050102E+03  0.13532541901E+03  0.31776213185E+02  0.22684140711E+03  0.00000000000E+00 0. -1.
        -11    1    3    3    0    0 -0.16150777235E+03  0.85899402471E+02  0.10509862462E+03  0.21097200945E+03  0.00000000000E+00 0.  1.
          2    1    6    6  502    0 -0.41722347853E+02  0.34192332778E+02  0.68645921872E+02  0.87304825301E+02  0.00000000000E+00 0. -1.
          1    1    5    5  503    0  0.38784224078E+03 -0.36180846664E+03 -0.73416844479E+03  0.90572085964E+03  0.00000000000E+00 0. -1.
         -2    1    5    5    0  503  0.63253832944E+01 -0.20080065008E+02 -0.12955698983E+02  0.24719822424E+02  0.00000000000E+00 0.  1.
         -1    1    6    6    0  502 -0.11677002861E+02  0.12647137738E+03  0.65936462752E+02  0.14310478264E+03  0.00000000000E+00 0.  1.
<mgrwt>
<rscale>  0 0.15262590E+04</rscale>
<asrwt>0</asrwt>
<pdfrwt beam="1">  1        1 0.15956390E+00 0.15262590E+04</pdfrwt>
<pdfrwt beam="2">  1       -1 0.86384368E-01 0.15262590E+04</pdfrwt>
<totfact> 0.18067485E+01</totfact>
</mgrwt>
</event>
<event>
12    1  0.2404959E-007  0.2121891E+04  0.7818608E-02  0.8551661E-01
         -2   -1    0    0    0  501 -0.00000000000E+00  0.00000000000E+00  0.40374913474E+03  0.40374913474E+03  0.00000000000E+00 0.  1.
          2   -1    0    0  501    0  0.00000000000E+00 -0.00000000000E+00 -0.27878825489E+04  0.27878825489E+04  0.00000000000E+00 0. -1.
         23    2    1    2    0    0 -0.14986129546E+03  0.78779626046E+03 -0.48653741584E+03  0.94348505225E+03  0.10180388463E+03 0.  0.
        254    2    1    2    0    0  0.14986129546E+03 -0.78779626046E+03 -0.18975959983E+04  0.22481466314E+04  0.90011740763E+03 0.  0.
        -24    2    4    4    0    0  0.12579198312E+03  0.17056318768E+03 -0.23107095374E+03  0.32380134317E+03  0.80858519439E+02 0.  0.
         24    2    4    4    0    0  0.24069312338E+02 -0.95835944815E+03 -0.16665250446E+04  0.19243452882E+04  0.82261172111E+02 0.  0.
         11    1    3    3    0    0 -0.42363291458E+02  0.42089874339E+03 -0.29611356457E+03  0.51636580422E+03  0.00000000000E+00 0. -1.
        -11    1    3    3    0    0 -0.10749800400E+03  0.36689751708E+03 -0.19042385127E+03  0.42711924803E+03  0.00000000000E+00 0.  1.
          4    1    6    6  502    0 -0.21669029280E+02 -0.65852162811E+03 -0.11417311411E+04  0.13182072220E+04  0.00000000000E+00 0. -1.
          3    1    5    5  503    0  0.12138016001E+03  0.14009754249E+03 -0.22649754681E+03  0.29268003582E+03  0.00000000000E+00 0. -1.
         -4    1    5    5    0  503  0.44118231127E+01  0.30465645198E+02 -0.45734069310E+01  0.31121307354E+02  0.00000000000E+00 0.  1.
         -3    1    6    6    0  502  0.45738341618E+02 -0.29983782004E+03 -0.52479390348E+03  0.60613806624E+03  0.00000000000E+00 0.  1.
<mgrwt>
<rscale>  0 0.21218908E+04</rscale>
<asrwt>0</asrwt>
<pdfrwt beam="1">  1        2 0.42890499E+00 0.21218908E+04</pdfrwt>
<pdfrwt beam="2">  1       -2 0.62115254E-01 0.21218908E+04</pdfrwt>
<totfact> 0.52102921E+00</totfact>
</mgrwt>
</event>
<event>
12    1  0.2404959E-007  0.1576254E+04  0.7818608E-02  0.8835270E-01
         -2   -1    0    0    0  501 -0.00000000000E+00  0.00000000000E+00  0.64885582911E+03  0.64885582911E+03  0.00000000000E+00 0.  1.
          2   -1    0    0  501    0  0.00000000000E+00 -0.00000000000E+00 -0.95729151582E+03  0.95729151582E+03  0.00000000000E+00 0. -1.
         23    2    1    2    0    0  0.39132660184E+03 -0.32750418249E+03  0.21396688119E+02  0.51924405705E+03  0.93600607182E+02 0.  0.
        254    2    1    2    0    0 -0.39132660184E+03  0.32750418249E+03 -0.32983237483E+03  0.10869032879E+04  0.90120689238E+03 0.  0.
        -24    2    4    4    0    0 -0.52957019598E+02  0.36980696794E+03 -0.55280545575E+03  0.67190779234E+03  0.79401322677E+02 0.  0.
         24    2    4    4    0    0 -0.33836958224E+03 -0.42302785454E+02  0.22297308092E+03  0.41499549554E+03  0.78871836937E+02 0.  0.
         13    1    3    3    0    0  0.17551117743E+03 -0.19884345930E+03 -0.13552748303E+02  0.26556839363E+03  0.00000000000E+00 0. -1.
        -13    1    3    3    0    0  0.21581542441E+03 -0.12866072318E+03  0.34949436423E+02  0.25367566341E+03  0.00000000000E+00 0.  1.
          4    1    6    6  502    0 -0.13448770291E+03 -0.43847104579E+02  0.12508257480E+03  0.18882574329E+03  0.00000000000E+00 0. -1.
          1    1    5    5  503    0 -0.68404947961E+02  0.23010531592E+03 -0.37504478676E+03  0.44529348231E+03  0.00000000000E+00 0. -1.
         -2    1    5    5    0  503  0.15447928362E+02  0.13970165202E+03 -0.17776066899E+03  0.22661431003E+03  0.00000000000E+00 0.  1.
         -3    1    6    6    0  502 -0.20388187933E+03  0.15443191257E+01  0.97890506125E+02  0.22616975225E+03  0.00000000000E+00 0.  1.
<mgrwt>
<rscale>  0 0.15762540E+04</rscale>
<asrwt>0</asrwt>
<pdfrwt beam="1">  1        2 0.14727562E+00 0.15762540E+04</pdfrwt>
<pdfrwt beam="2">  1       -2 0.99823974E-01 0.15762540E+04</pdfrwt>
<totfact> 0.21400754E+01</totfact>
</mgrwt>
</event>
<event>
12    1  0.2404959E-007  0.1147019E+04  0.7818608E-02  0.9160538E-01
          2   -1    0    0  501    0  0.00000000000E+00  0.00000000000E+00  0.53602151417E+03  0.53602151417E+03  0.00000000000E+00 0. -1.
         -2   -1    0    0    0  501 -0.00000000000E+00 -0.00000000000E+00 -0.61361973390E+03  0.61361973390E+03  0.00000000000E+00 0.  1.
         23    2    1    2    0    0 -0.61092318571E+02  0.11024066209E+03 -0.14944677757E+03  0.21513874511E+03  0.89805708924E+02 0.  0.
        254    2    1    2    0    0  0.61092318571E+02 -0.11024066209E+03  0.71848557835E+02  0.93450250295E+03  0.92317248540E+03 0.  0.
        -24    2    4    4    0    0  0.12095558538E+02 -0.51149588543E+03  0.17197284228E+02  0.51809019219E+03  0.79670303834E+02 0.  0.
         24    2    4    4    0    0  0.48996760033E+02  0.40125522334E+03  0.54651273607E+02  0.41641231076E+03  0.83701936046E+02 0.  0.
         13    1    3    3    0    0 -0.55805969977E+02  0.71440614980E+02 -0.15080671723E+03  0.17595662453E+03  0.00000000000E+00 0.  1.
        -13    1    3    3    0    0 -0.52863485942E+01  0.38800047114E+02  0.13599396615E+01  0.39182120583E+02  0.00000000000E+00 0. -1.
          4    1    6    6  502    0  0.67389537286E+02  0.36907194986E+03  0.55941200301E+02  0.37932159416E+03  0.00000000000E+00 0. -1.
          1    1    5    5  503    0 -0.42491629081E+01 -0.35264138989E+03  0.46536998666E+02  0.35572418739E+03  0.00000000000E+00 0. -1.
         -2    1    5    5    0  503  0.16344721446E+02 -0.15885449554E+03 -0.29339714438E+02  0.16236600480E+03  0.00000000000E+00 0.  1.
         -3    1    6    6    0  502 -0.18392777252E+02  0.32183273477E+02 -0.12899266939E+01  0.37090716596E+02  0.00000000000E+00 0.  1.
<mgrwt>
<rscale>  0 0.11470194E+04</rscale>
<asrwt>0</asrwt>
<pdfrwt beam="1">  1        2 0.82464848E-01 0.11470194E+04</pdfrwt>
<pdfrwt beam="2">  1       -2 0.94403036E-01 0.11470194E+04</pdfrwt>
<totfact> 0.53167487E+01</totfact>
</mgrwt>
</event>
<event>
12    1  0.2404959E-007  0.2063816E+04  0.7818608E-02  0.8577352E-01
          2   -1    0    0  501    0  0.00000000000E+00  0.00000000000E+00  0.44635946943E+03  0.44635946943E+03  0.00000000000E+00 0. -1.
         -2   -1    0    0    0  501 -0.00000000000E+00 -0.00000000000E+00 -0.23855983107E+04  0.23855983107E+04  0.00000000000E+00 0.  1.
         23    2    1    2    0    0  0.16712670793E+03  0.44630837622E+03  0.15184993875E+03  0.50571718690E+03  0.74625505330E+02 0.  0.
        254    2    1    2    0    0 -0.16712670793E+03 -0.44630837622E+03 -0.20910887800E+04  0.23262405933E+04  0.90089983266E+03 0.  0.
        -24    2    4    4    0    0  0.24183261486E+03  0.47065969496E+02 -0.11878406352E+04  0.12158015616E+04  0.80683601057E+02 0.  0.
         24    2    4    4    0    0 -0.40895932279E+03 -0.49337434571E+03 -0.90324814482E+03  0.11104390316E+04  0.80942319721E+02 0.  0.
         13    1    3    3    0    0  0.54993610250E+02  0.19364829078E+03  0.98813213816E+02  0.22424988052E+03  0.00000000000E+00 0. -1.
        -13    1    3    3    0    0  0.11213309768E+03  0.25266008544E+03  0.53036724933E+02  0.28146730638E+03  0.00000000000E+00 0.  1.
          2    1    6    6  502    0 -0.20606247057E+03 -0.29338265432E+03 -0.55151427843E+03  0.65780173529E+03  0.00000000000E+00 0. -1.
          1    1    5    5  503    0 -0.39161329088E+00  0.26259450156E+01  0.46619362716E-01  0.26553948029E+01  0.00000000000E+00 0. -1.
         -2    1    5    5    0  503  0.24222422815E+03  0.44440024480E+02 -0.11878872546E+04  0.12131461668E+04  0.00000000000E+00 0.  1.
         -1    1    6    6    0  502 -0.20289685223E+03 -0.19999169139E+03 -0.35173386639E+03  0.45263729633E+03  0.00000000000E+00 0.  1.
<mgrwt>
<rscale>  0 0.20638163E+04</rscale>
<asrwt>0</asrwt>
<pdfrwt beam="1">  1        2 0.68670686E-01 0.20638163E+04</pdfrwt>
<pdfrwt beam="2">  1       -2 0.36701513E+00 0.20638163E+04</pdfrwt>
<totfact> 0.78896529E-01</totfact>
</mgrwt>
</event>
<event>
12    1  0.2404959E-007  0.2079353E+04  0.7818608E-02  0.8570394E-01
          1   -1    0    0  501    0  0.00000000000E+00  0.00000000000E+00  0.86068145961E+03  0.86068145961E+03  0.00000000000E+00 0.  1.
         -1   -1    0    0    0  501 -0.00000000000E+00 -0.00000000000E+00 -0.12558965882E+04  0.12558965882E+04  0.00000000000E+00 0. -1.
         23    2    1    2    0    0  0.15355472574E+03 -0.78938675171E+03 -0.41312549866E+03  0.90872443966E+03  0.91634775198E+02 0.  0.
        254    2    1    2    0    0 -0.15355472574E+03  0.78938675171E+03  0.17910370108E+02  0.12078536081E+04  0.90104331731E+03 0.  0.
        -24    2    4    4    0    0 -0.17974296317E+03  0.97781248720E+03 -0.23684391569E+02  0.99768335941E+03  0.79914593860E+02 0.  0.
         24    2    4    4    0    0  0.26188237430E+02 -0.18842573549E+03  0.41594761677E+02  0.21017024869E+03  0.79065337942E+02 0.  0.
         13    1    3    3    0    0  0.13353403631E+03 -0.51681290272E+03 -0.30521269781E+03  0.61488348992E+03  0.00000000000E+00 0. -1.
        -13    1    3    3    0    0  0.20020689430E+02 -0.27257384899E+03 -0.10791280085E+03  0.29384094974E+03  0.00000000000E+00 0.  1.
          2    1    6    6  502    0 -0.26672060319E+02 -0.88123235567E+02  0.10930728136E+02  0.92717766723E+02  0.00000000000E+00 0. -1.
          3    1    5    5  503    0 -0.14948589149E+03  0.86165315785E+03  0.38414828094E+01  0.87453241974E+03  0.00000000000E+00 0. -1.
         -4    1    5    5    0  503 -0.30257071687E+02  0.11615932935E+03 -0.27525874378E+02  0.12315093967E+03  0.00000000000E+00 0.  1.
         -1    1    6    6    0  502  0.52860297749E+02 -0.10030249992E+03  0.30664033540E+02  0.11745248197E+03  0.00000000000E+00 0.  1.
<mgrwt>
<rscale>  0 0.20793527E+04</rscale>
<asrwt>0</asrwt>
<pdfrwt beam="1">  1        1 0.13241253E+00 0.20793527E+04</pdfrwt>
<pdfrwt beam="2">  1       -1 0.19321486E+00 0.20793527E+04</pdfrwt>
<totfact> 0.30319242E+00</totfact>
</mgrwt>
</event>
<event>
12    1  0.2404959E-007  0.2721289E+04  0.7818608E-02  0.8328130E-01
          1   -1    0    0  501    0  0.00000000000E+00  0.00000000000E+00  0.19919352170E+04  0.19919352170E+04  0.00000000000E+00 0. -1.
         -1   -1    0    0    0  501 -0.00000000000E+00 -0.00000000000E+00 -0.92942470550E+03  0.92942470550E+03  0.00000000000E+00 0.  1.
         23    2    1    2    0    0  0.84647719763E+03 -0.83208391480E+03  0.22351544701E+03  0.12099124638E+04  0.71005123500E+02 0.  0.
        254    2    1    2    0    0 -0.84647719763E+03  0.83208391480E+03  0.83899506443E+03  0.17114474587E+04  0.90346687726E+03 0.  0.
        -24    2    4    4    0    0 -0.83347870404E+03  0.28620288338E+03  0.73483919572E+03  0.11501980671E+04  0.79800435062E+02 0.  0.
         24    2    4    4    0    0 -0.12998493595E+02  0.54588103142E+03  0.10415586871E+03  0.56124939159E+03  0.77442709612E+02 0.  0.
         11    1    3    3    0    0  0.74586547964E+03 -0.76268672579E+03  0.20504039043E+03  0.10863001045E+04  0.00000000000E+00 0.  1.
        -11    1    3    3    0    0  0.10061171799E+03 -0.69397189010E+02  0.18475056583E+02  0.12361235924E+03  0.00000000000E+00 0. -1.
          4    1    6    6  502    0  0.29301724731E+02  0.30759169640E+03  0.46522752025E+02  0.31246697301E+03  0.00000000000E+00 0. -1.
          3    1    5    5  503    0 -0.37507467079E+03  0.16549043193E+03  0.36614956875E+03  0.54966680673E+03  0.00000000000E+00 0. -1.
         -4    1    5    5    0  503 -0.45840403325E+03  0.12071245145E+03  0.36868962697E+03  0.60053126036E+03  0.00000000000E+00 0.  1.
         -3    1    6    6    0  502 -0.42300218326E+02  0.23828933502E+03  0.57633116690E+02  0.24878241858E+03  0.00000000000E+00 0.  1.
<mgrwt>
<rscale>  0 0.27212893E+04</rscale>
<asrwt>0</asrwt>
<pdfrwt beam="1">  1        1 0.30645157E+00 0.27212893E+04</pdfrwt>
<pdfrwt beam="2">  1       -1 0.14298842E+00 0.27212893E+04</pdfrwt>
<totfact> 0.10427558E+00</totfact>
</mgrwt>
</event>
<event>
12    1  0.4507844E-007  0.2346773E+04  0.7818608E-02  0.8459704E-01
         -1   -1    0    0    0  501 -0.00000000000E+00  0.00000000000E+00  0.10012781184E+04  0.10012781184E+04  0.00000000000E+00 0.  1.
          1   -1    0    0  501    0  0.00000000000E+00 -0.00000000000E+00 -0.13750789173E+04  0.13750789173E+04  0.00000000000E+00 0. -1.
         23    2    1    2    0    0  0.51045788928E+03  0.79331134091E+03  0.17473699279E+03  0.96243074088E+03  0.76352956742E+02 0.  0.
        254    2    1    2    0    0 -0.51045788928E+03 -0.79331134091E+03 -0.54853779168E+03  0.14139262948E+04  0.89910161713E+03 0.  0.
        -24    2    4    4    0    0 -0.58516455515E+03 -0.66324057259E+03 -0.53226573152E+02  0.89011976573E+03  0.84702511840E+02 0.  0.
         24    2    4    4    0    0  0.74706665869E+02 -0.13007076832E+03 -0.49531121853E+03  0.52380652909E+03  0.80873889596E+02 0.  0.
         11    1    3    3    0    0  0.28339650310E+03  0.39965700916E+03  0.12228604134E+03  0.50496849292E+03  0.00000000000E+00 0. -1.
        -11    1    3    3    0    0  0.22706138618E+03  0.39365433175E+03  0.52450951454E+02  0.45746224796E+03  0.00000000000E+00 0.  1.
          2    1    6    6  502    0 -0.15884784543E+02 -0.24862216208E+02 -0.59468586042E+02  0.66385005089E+02  0.00000000000E+00 0. -1.
          3    1    5    5  503    0 -0.87294268271E+02 -0.85589704870E+02  0.20523664244E+02  0.12396413855E+03  0.00000000000E+00 0. -1.
         -4    1    5    5    0  503 -0.49787028687E+03 -0.57765086772E+03 -0.73750237396E+02  0.76615562717E+03  0.00000000000E+00 0.  1.
         -1    1    6    6    0  502  0.90591450412E+02 -0.10520855211E+03 -0.43584263249E+03  0.45742152400E+03  0.00000000000E+00 0.  1.
<mgrwt>
<rscale>  0 0.23467735E+04</rscale>
<asrwt>0</asrwt>
<pdfrwt beam="1">  1        1 0.21155060E+00 0.23467735E+04</pdfrwt>
<pdfrwt beam="2">  1       -1 0.15404279E+00 0.23467735E+04</pdfrwt>
<totfact> 0.23377532E+00</totfact>
</mgrwt>
</event>
<event>
12    1  0.2404959E-007  0.1314995E+04  0.7818608E-02  0.9017758E-01
         -2   -1    0    0    0  501 -0.00000000000E+00  0.00000000000E+00  0.16953439115E+03  0.16953439115E+03  0.00000000000E+00 0.  1.
          2   -1    0    0  501    0  0.00000000000E+00 -0.00000000000E+00 -0.25499408797E+04  0.25499408797E+04  0.00000000000E+00 0. -1.
         23    2    1    2    0    0  0.33264497015E+03  0.23762167177E+02 -0.78603057101E+03  0.85877354145E+03  0.91818408719E+02 0.  0.
        254    2    1    2    0    0 -0.33264497015E+03 -0.23762167177E+02 -0.15943759175E+04  0.18607017294E+04  0.89942150441E+03 0.  0.
        -24    2    4    4    0    0 -0.39282983141E+03 -0.28093612667E+03 -0.14850029315E+04  0.15639344630E+04  0.86121509260E+02 0.  0.
         24    2    4    4    0    0  0.60184861259E+02  0.25717395949E+03 -0.10937298601E+03  0.29676726634E+03  0.79672437763E+02 0.  0.
         11    1    3    3    0    0  0.14603041669E+03  0.48522536777E+02 -0.29147469126E+03  0.32960099335E+03  0.00000000000E+00 0. -1.
        -11    1    3    3    0    0  0.18661455346E+03 -0.24760369601E+02 -0.49455587975E+03  0.52917254810E+03  0.00000000000E+00 0.  1.
          4    1    6    6  502    0  0.19594521989E+02  0.17821257890E+03 -0.39007328137E+02  0.18348089879E+03  0.00000000000E+00 0. -1.
          3    1    5    5  503    0 -0.34774025931E+03 -0.22211115227E+03 -0.11802714812E+04  0.12503189279E+04  0.00000000000E+00 0. -1.
         -4    1    5    5    0  503 -0.45089572093E+02 -0.58824974393E+02 -0.30473145028E+03  0.31361553519E+03  0.00000000000E+00 0.  1.
         -3    1    6    6    0  502  0.40590339270E+02  0.78961380590E+02 -0.70365657871E+02  0.11328636756E+03  0.00000000000E+00 0.  1.
<mgrwt>
<rscale>  0 0.13149946E+04</rscale>
<asrwt>0</asrwt>
<pdfrwt beam="1">  1        2 0.39229861E+00 0.13149946E+04</pdfrwt>
<pdfrwt beam="2">  1       -2 0.26082213E-01 0.13149946E+04</pdfrwt>
<totfact> 0.42554438E+01</totfact>
</mgrwt>
</event>
<event>
12    1  0.2404959E-007  0.3024664E+04  0.7818608E-02  0.8236723E-01
         -2   -1    0    0    0  501 -0.00000000000E+00  0.00000000000E+00  0.19510018512E+04  0.19510018512E+04  0.00000000000E+00 0.  1.
          2   -1    0    0  501    0  0.00000000000E+00 -0.00000000000E+00 -0.11722944445E+04  0.11722944445E+04  0.00000000000E+00 0. -1.
         23    2    1    2    0    0  0.11468485385E+04  0.74065461604E+03  0.53175086046E+03  0.14693039338E+04  0.11074403646E+03 0.  0.
        254    2    1    2    0    0 -0.11468485385E+04 -0.74065461604E+03  0.24695654620E+03  0.16539923620E+04  0.90048451804E+03 0.  0.
        -24    2    4    4    0    0 -0.69529162132E+03 -0.89551738504E+03  0.27220865280E+03  0.11686916476E+04  0.79754566176E+02 0.  0.
         24    2    4    4    0    0 -0.45155691720E+03  0.15486276901E+03 -0.25252106600E+02  0.48530071442E+03  0.83624086456E+02 0.  0.
         13    1    3    3    0    0  0.95187025452E+03  0.58226566226E+03  0.39785250955E+03  0.11846420988E+04  0.00000000000E+00 0. -1.
        -13    1    3    3    0    0  0.19497828400E+03  0.15838895378E+03  0.13389835091E+03  0.28466183497E+03  0.00000000000E+00 0.  1.
          2    1    6    6  502    0 -0.31798394031E+03  0.12703244697E+03 -0.51756613887E+02  0.34630878701E+03  0.00000000000E+00 0. -1.
          3    1    5    5  503    0 -0.59404772259E+03 -0.74514570804E+03  0.20099640247E+03  0.97392729540E+03  0.00000000000E+00 0. -1.
         -4    1    5    5    0  503 -0.10124389874E+03 -0.15037167701E+03  0.71212250327E+02  0.19476435217E+03  0.00000000000E+00 0.  1.
         -1    1    6    6    0  502 -0.13357297688E+03  0.27830322041E+02  0.26504507288E+02  0.13899192741E+03  0.00000000000E+00 0.  1.
<mgrwt>
<rscale>  0 0.30246644E+04</rscale>
<asrwt>0</asrwt>
<pdfrwt beam="1">  1        2 0.18035299E+00 0.30246644E+04</pdfrwt>
<pdfrwt beam="2">  1       -2 0.30015413E+00 0.30246644E+04</pdfrwt>
<totfact> 0.53318617E-01</totfact>
</mgrwt>
</event>
<event>
12    1  0.2404959E-007  0.1606717E+04  0.7818608E-02  0.8816432E-01
          2   -1    0    0  501    0  0.00000000000E+00  0.00000000000E+00  0.81412224858E+03  0.81412224858E+03  0.00000000000E+00 0. -1.
         -2   -1    0    0    0  501 -0.00000000000E+00 -0.00000000000E+00 -0.79273738144E+03  0.79273738144E+03  0.00000000000E+00 0.  1.
         23    2    1    2    0    0 -0.45009825664E+03  0.21544816303E+03  0.22979333558E+03  0.55674777025E+03  0.90314733097E+02 0.  0.
        254    2    1    2    0    0  0.45009825664E+03 -0.21544816303E+03 -0.20840846845E+03  0.10501118598E+04  0.90016358332E+03 0.  0.
        -24    2    4    4    0    0 -0.14054767888E+03 -0.28054139657E+03  0.14400909617E+03  0.35461752693E+03  0.80980524785E+02 0.  0.
         24    2    4    4    0    0  0.59064593552E+03  0.65093233544E+02 -0.35241756462E+03  0.69549433284E+03  0.80090429949E+02 0.  0.
         11    1    3    3    0    0 -0.14848073913E+03  0.60554475437E+02  0.12022698813E+03  0.20041931808E+03  0.00000000000E+00 0. -1.
        -11    1    3    3    0    0 -0.30161751751E+03  0.15489368759E+03  0.10956634746E+03  0.35632845216E+03  0.00000000000E+00 0.  1.
          4    1    6    6  502    0  0.55951459944E+03  0.69803839863E+02 -0.31251786531E+03  0.64466780530E+03  0.00000000000E+00 0. -1.
          3    1    5    5  503    0 -0.14482660170E+03 -0.28383487256E+03  0.14199216085E+03  0.34885348384E+03  0.00000000000E+00 0. -1.
         -4    1    5    5    0  503  0.42789228229E+01  0.32934759911E+01  0.20169353203E+01  0.57640430875E+01  0.00000000000E+00 0.  1.
         -3    1    6    6    0  502  0.31131336079E+02 -0.47106063190E+01 -0.39899699305E+02  0.50826527548E+02  0.00000000000E+00 0.  1.
<mgrwt>
<rscale>  0 0.16067173E+04</rscale>
<asrwt>0</asrwt>
<pdfrwt beam="1">  1        2 0.12524958E+00 0.16067173E+04</pdfrwt>
<pdfrwt beam="2">  1       -2 0.12195960E+00 0.16067173E+04</pdfrwt>
<totfact> 0.16446147E+01</totfact>
</mgrwt>
</event>
<event>
12    1  0.2404959E-007  0.1887492E+04  0.7818608E-02  0.8661107E-01
          2   -1    0    0  501    0  0.00000000000E+00  0.00000000000E+00  0.15003008666E+04  0.15003008666E+04  0.00000000000E+00 0.  1.
         -2   -1    0    0    0  501 -0.00000000000E+00 -0.00000000000E+00 -0.59365216923E+03  0.59365216923E+03  0.00000000000E+00 0. -1.
         23    2    1    2    0    0 -0.18958955197E+03  0.68528986762E+03  0.51752701808E+03  0.88421136724E+03  0.91810275219E+02 0.  0.
        254    2    1    2    0    0  0.18958955197E+03 -0.68528986762E+03  0.38912167924E+03  0.12097416685E+04  0.89804945436E+03 0.  0.
        -24    2    4    4    0    0  0.35381757238E+02 -0.27490193733E+03 -0.28299818477E+03  0.40402988040E+03  0.79556443986E+02 0.  0.
         24    2    4    4    0    0  0.15420779473E+03 -0.41038793029E+03  0.67211986401E+03  0.80571178814E+03  0.72305440127E+02 0.  0.
         13    1    3    3    0    0 -0.11679826262E+03  0.55980157956E+03  0.41431549863E+03  0.70617064158E+03  0.00000000000E+00 0. -1.
        -13    1    3    3    0    0 -0.72791289351E+02  0.12548828806E+03  0.10321151945E+03  0.17804072566E+03  0.00000000000E+00 0.  1.
          4    1    6    6  502    0  0.12998216100E+03 -0.28521413106E+03  0.52075459621E+03  0.60780573558E+03  0.00000000000E+00 0. -1.
          1    1    5    5  503    0  0.12805302636E+02 -0.18373214041E+03 -0.13348710648E+03  0.22746490453E+03  0.00000000000E+00 0. -1.
         -2    1    5    5    0  503  0.22576454602E+02 -0.91169796916E+02 -0.14951107829E+03  0.17656497587E+03  0.00000000000E+00 0.  1.
         -3    1    6    6    0  502  0.24225633732E+02 -0.12517379923E+03  0.15136526780E+03  0.19790605256E+03  0.00000000000E+00 0.  1.
<mgrwt>
<rscale>  0 0.18874924E+04</rscale>
<asrwt>0</asrwt>
<pdfrwt beam="1">  1        2 0.23081552E+00 0.18874924E+04</pdfrwt>
<pdfrwt beam="2">  1       -2 0.91331104E-01 0.18874924E+04</pdfrwt>
<totfact> 0.12152474E+01</totfact>
</mgrwt>
</event>
<event>
12    1  0.2404959E-007  0.1501972E+04  0.7818608E-02  0.8883142E-01
          2   -1    0    0  501    0  0.00000000000E+00  0.00000000000E+00  0.33606062452E+04  0.33606062452E+04  0.00000000000E+00 0. -1.
         -2   -1    0    0    0  501 -0.00000000000E+00 -0.00000000000E+00 -0.16782098407E+03  0.16782098407E+03  0.00000000000E+00 0.  1.
         23    2    1    2    0    0 -0.35954953108E+03  0.73813006119E+02  0.17401970796E+04  0.17808508215E+04  0.91758092985E+02 0.  0.
        254    2    1    2    0    0  0.35954953108E+03 -0.73813006119E+02  0.14525881816E+04  0.17475764078E+04  0.89960360744E+03 0.  0.
        -24    2    4    4    0    0  0.38808001521E+01 -0.38468594746E+03  0.10525520548E+04  0.11234425174E+04  0.79113355377E+02 0.  0.
         24    2    4    4    0    0  0.35566873093E+03  0.31087294134E+03  0.40003612682E+03  0.62413389042E+03  0.79824674044E+02 0.  0.
         13    1    3    3    0    0 -0.34504329819E+03  0.89506354307E+02  0.16611330149E+04  0.16989494278E+04  0.00000000000E+00 0. -1.
        -13    1    3    3    0    0 -0.14506232890E+02 -0.15693348188E+02  0.79064064631E+02  0.81901393675E+02  0.00000000000E+00 0.  1.
          2    1    6    6  502    0  0.73411868515E+02  0.71713992552E+02  0.47419382696E+02  0.11305218716E+03  0.00000000000E+00 0. -1.
          1    1    5    5  503    0 -0.17583105268E+02 -0.12999709740E+03  0.45475721045E+03  0.47329962115E+03  0.00000000000E+00 0. -1.
         -2    1    5    5    0  503  0.21463905420E+02 -0.25468885007E+03  0.59779484433E+03  0.65014289621E+03  0.00000000000E+00 0.  1.
         -1    1    6    6    0  502  0.28225686241E+03  0.23915894879E+03  0.35261674413E+03  0.51108170326E+03  0.00000000000E+00 0.  1.
<mgrwt>
<rscale>  0 0.15019724E+04</rscale>
<asrwt>0</asrwt>
<pdfrwt beam="1">  1        2 0.51701630E+00 0.15019724E+04</pdfrwt>
<pdfrwt beam="2">  1       -2 0.25818615E-01 0.15019724E+04</pdfrwt>
<totfact> 0.13413866E+01</totfact>
</mgrwt>
</event>
<event>
12    1  0.2404959E-007  0.1098035E+04  0.7818608E-02  0.9207109E-01
         -1   -1    0    0    0  501 -0.00000000000E+00  0.00000000000E+00  0.23554878450E+04  0.23554878450E+04  0.00000000000E+00 0.  1.
          1   -1    0    0  501    0  0.00000000000E+00 -0.00000000000E+00 -0.12796502741E+03  0.12796502741E+03  0.00000000000E+00 0. -1.
         23    2    1    2    0    0 -0.61322718288E+02  0.14277437086E+03  0.47399011544E+03  0.50627355658E+03  0.86609975191E+02 0.  0.
        254    2    1    2    0    0  0.61322718288E+02 -0.14277437086E+03  0.17535327022E+04  0.19771793159E+04  0.90012005460E+03 0.  0.
        -24    2    4    4    0    0  0.14385995795E+03 -0.46698656036E+03  0.13949440038E+04  0.14803828910E+04  0.83021655946E+02 0.  0.
         24    2    4    4    0    0 -0.82537239665E+02  0.32421218949E+03  0.35858869842E+03  0.49679642484E+03  0.79340363913E+02 0.  0.
         11    1    3    3    0    0 -0.17167012499E+02  0.15227019982E+02  0.13979531375E+02  0.26869978659E+02  0.00000000000E+00 0. -1.
        -11    1    3    3    0    0 -0.44155705789E+02  0.12754735088E+03  0.46001058407E+03  0.47940357792E+03  0.00000000000E+00 0.  1.
          4    1    6    6  502    0 -0.23090251995E+02  0.21959611706E+03  0.20157087613E+03  0.29897563858E+03  0.00000000000E+00 0. -1.
          3    1    5    5  503    0  0.10010670442E+03 -0.29716181217E+03  0.10058407158E+04  0.10535853266E+04  0.00000000000E+00 0. -1.
         -2    1    5    5    0  503  0.43753253536E+02 -0.16982474819E+03  0.38910328799E+03  0.42679756445E+03  0.00000000000E+00 0.  1.
         -1    1    6    6    0  502 -0.59446987670E+02  0.10461607243E+03  0.15701782230E+03  0.19782078625E+03  0.00000000000E+00 0.  1.
<mgrwt>
<rscale>  0 0.10980347E+04</rscale>
<asrwt>0</asrwt>
<pdfrwt beam="1">  1        1 0.19686929E-01 0.10980347E+04</pdfrwt>
<pdfrwt beam="2">  1       -1 0.36238271E+00 0.10980347E+04</pdfrwt>
<totfact> 0.34890219E+00</totfact>
</mgrwt>
</event>
<event>
12    1  0.2404959E-007  0.2344457E+04  0.7818608E-02  0.8460596E-01
         -2   -1    0    0    0  501 -0.00000000000E+00  0.00000000000E+00  0.12303125279E+04  0.12303125279E+04  0.00000000000E+00 0.  1.
          2   -1    0    0  501    0  0.00000000000E+00 -0.00000000000E+00 -0.11168864252E+04  0.11168864252E+04  0.00000000000E+00 0. -1.
         23    2    1    2    0    0  0.62382577872E+03  0.39166965951E+03  0.72459839640E+03  0.10373884981E+04  0.92565304128E+02 0.  0.
        254    2    1    2    0    0 -0.62382577872E+03 -0.39166965951E+03 -0.61117229367E+03  0.13098104550E+04  0.89415218558E+03 0.  0.
        -24    2    4    4    0    0 -0.16644260066E+03 -0.34979545373E+03 -0.72896502431E+03  0.82915824880E+03  0.77803573962E+02 0.  0.
         24    2    4    4    0    0 -0.45738317806E+03 -0.41874205775E+02  0.11779273065E+03  0.48065220615E+03  0.78731157748E+02 0.  0.
         13    1    3    3    0    0  0.36510158815E+03  0.27376349890E+03  0.41173025093E+03  0.61462787322E+03  0.00000000000E+00 0.  1.
        -13    1    3    3    0    0  0.25872419057E+03  0.11790616060E+03  0.31286814547E+03  0.42276062487E+03  0.00000000000E+00 0. -1.
          2    1    6    6  502    0 -0.14911920838E+03 -0.17713674400E+02  0.11446473505E+01  0.15017197736E+03  0.00000000000E+00 0. -1.
          1    1    5    5  503    0 -0.65109010997E+02 -0.21280329375E+03 -0.45536377292E+03  0.50683388880E+03  0.00000000000E+00 0. -1.
         -2    1    5    5    0  503 -0.10133358966E+03 -0.13699215998E+03 -0.27360125139E+03  0.32232436000E+03  0.00000000000E+00 0.  1.
         -1    1    6    6    0  502 -0.30826396968E+03 -0.24160531375E+02  0.11664808329E+03  0.33048022879E+03  0.00000000000E+00 0.  1.
<mgrwt>
<rscale>  0 0.23444567E+04</rscale>
<asrwt>0</asrwt>
<pdfrwt beam="1">  1        2 0.17182868E+00 0.23444567E+04</pdfrwt>
<pdfrwt beam="2">  1       -2 0.18927885E+00 0.23444567E+04</pdfrwt>
<totfact> 0.30113717E+00</totfact>
</mgrwt>
</event>
<event>
12    1  0.2404959E-007  0.4591085E+04  0.7818608E-02  0.7894882E-01
         -1   -1    0    0    0  501 -0.00000000000E+00  0.00000000000E+00  0.30287285488E+04  0.30287285488E+04  0.00000000000E+00 0.  1.
          1   -1    0    0  501    0  0.00000000000E+00 -0.00000000000E+00 -0.17398440134E+04  0.17398440134E+04  0.00000000000E+00 0. -1.
         23    2    1    2    0    0 -0.20454130783E+04 -0.38471271653E+03 -0.14048780042E+03  0.20879992655E+04  0.91025137854E+02 0.  0.
        254    2    1    2    0    0  0.20454130783E+04  0.38471271653E+03  0.14293723359E+04  0.26805732967E+04  0.90036069953E+03 0.  0.
        -24    2    4    4    0    0  0.48116664825E+03  0.36738378484E+03  0.85102608250E+02  0.61640820668E+03  0.78895085889E+02 0.  0.
         24    2    4    4    0    0  0.15642464300E+04  0.17328931693E+02  0.13442697276E+04  0.20641650900E+04  0.80927328247E+02 0.  0.
         11    1    3    3    0    0 -0.18962267897E+04 -0.35261236151E+03 -0.15357933924E+03  0.19348380110E+04  0.00000000000E+00 0. -1.
        -11    1    3    3    0    0 -0.14918628858E+03 -0.32100355026E+02  0.13091538813E+02  0.15316125451E+03  0.00000000000E+00 0.  1.
          4    1    6    6  502    0  0.10830578604E+04 -0.15307744244E+02  0.89619068100E+03  0.14058472153E+04  0.00000000000E+00 0. -1.
          1    1    5    5  503    0  0.19422774278E+03  0.19623711053E+03  0.28929563940E+02  0.27761545217E+03  0.00000000000E+00 0. -1.
         -2    1    5    5    0  503  0.28693890547E+03  0.17114667431E+03  0.56173044311E+02  0.33879275451E+03  0.00000000000E+00 0.  1.
         -3    1    6    6    0  502  0.48118856967E+03  0.32636675936E+02  0.44807904661E+03  0.65831787474E+03  0.00000000000E+00 0.  1.
<mgrwt>
<rscale>  0 0.45910849E+04</rscale>
<asrwt>0</asrwt>
<pdfrwt beam="1">  1        1 0.26766831E+00 0.45910849E+04</pdfrwt>
<pdfrwt beam="2">  1       -1 0.46595824E+00 0.45910849E+04</pdfrwt>
<totfact> 0.84123954E-03</totfact>
</mgrwt>
</event>
<event>
12    1  0.2404959E-007  0.1520293E+04  0.7818608E-02  0.8871069E-01
          1   -1    0    0  501    0  0.00000000000E+00  0.00000000000E+00  0.24827412686E+04  0.24827412686E+04  0.00000000000E+00 0. -1.
         -1   -1    0    0    0  501 -0.00000000000E+00 -0.00000000000E+00 -0.23273574785E+03  0.23273574785E+03  0.00000000000E+00 0.  1.
         23    2    1    2    0    0 -0.37024147903E+03 -0.19014448101E+03  0.11882706555E+04  0.12624197181E+04  0.92101669237E+02 0.  0.
        254    2    1    2    0    0  0.37024147903E+03  0.19014448101E+03  0.10617348653E+04  0.14530572984E+04  0.90047815731E+03 0.  0.
        -24    2    4    4    0    0 -0.22761877515E+03 -0.16447022938E+03  0.29891398845E+03  0.41786425598E+03  0.80001254860E+02 0.  0.
         24    2    4    4    0    0  0.59786025418E+03  0.35461471039E+03  0.76282087686E+03  0.10351930424E+04  0.80873163428E+02 0.  0.
         13    1    3    3    0    0 -0.72472902832E+02 -0.55536027220E+02  0.37493445859E+03  0.38589172083E+03  0.00000000000E+00 0. -1.
        -13    1    3    3    0    0 -0.29776857620E+03 -0.13460845379E+03  0.81333619690E+03  0.87652799726E+03  0.00000000000E+00 0.  1.
          4    1    6    6  502    0  0.55714248778E+03  0.30354582068E+03  0.68903303101E+03  0.93665059374E+03  0.00000000000E+00 0. -1.
          3    1    5    5  503    0 -0.17621765406E+03 -0.89269385406E+02  0.17385705579E+03  0.26315007243E+03  0.00000000000E+00 0. -1.
         -2    1    5    5    0  503 -0.51401121091E+02 -0.75200843978E+02  0.12505693266E+03  0.15471418355E+03  0.00000000000E+00 0.  1.
         -3    1    6    6    0  502  0.40717766403E+02  0.51068889715E+02  0.73787845848E+02  0.98542448683E+02  0.00000000000E+00 0.  1.
<mgrwt>
<rscale>  0 0.15202929E+04</rscale>
<asrwt>0</asrwt>
<pdfrwt beam="1">  1        1 0.38196018E+00 0.15202929E+04</pdfrwt>
<pdfrwt beam="2">  1       -1 0.35805501E-01 0.15202929E+04</pdfrwt>
<totfact> 0.10042095E+01</totfact>
</mgrwt>
</event>
<event>
12    1  0.2404959E-007  0.2752015E+04  0.7818608E-02  0.8318323E-01
         -1   -1    0    0    0  501 -0.00000000000E+00  0.00000000000E+00  0.10404502600E+04  0.10404502600E+04  0.00000000000E+00 0.  1.
          1   -1    0    0  501    0  0.00000000000E+00 -0.00000000000E+00 -0.18197858516E+04  0.18197858516E+04  0.00000000000E+00 0. -1.
         23    2    1    2    0    0 -0.87880693150E+03  0.78480846317E+03  0.71411330601E+01  0.11818820063E+04  0.92564217199E+02 0.  0.
        254    2    1    2    0    0  0.87880693150E+03 -0.78480846317E+03 -0.78647672464E+03  0.16783541052E+04  0.90005606350E+03 0.  0.
        -24    2    4    4    0    0  0.86262199786E+03 -0.59366685512E+03 -0.94806910162E+03  0.14148884798E+04  0.80730060383E+02 0.  0.
         24    2    4    4    0    0  0.16184933644E+02 -0.19114160806E+03  0.16159237698E+03  0.26346562548E+03  0.80653413470E+02 0.  0.
         13    1    3    3    0    0 -0.60441234907E+03  0.48078773458E+03  0.26678242001E+01  0.77232004423E+03  0.00000000000E+00 0. -1.
        -13    1    3    3    0    0 -0.27439458243E+03  0.30402072859E+03  0.44733088600E+01  0.40956196207E+03  0.00000000000E+00 0.  1.
          2    1    6    6  502    0  0.23965249847E+02 -0.11827637731E+02  0.34030563481E+02  0.43270145197E+02  0.00000000000E+00 0. -1.
          1    1    5    5  503    0  0.44843229875E+03 -0.34562026724E+03 -0.47623843240E+03  0.73982966971E+03  0.00000000000E+00 0. -1.
         -2    1    5    5    0  503  0.41418969910E+03 -0.24804658787E+03 -0.47183066922E+03  0.67505881004E+03  0.00000000000E+00 0.  1.
         -1    1    6    6    0  502 -0.77803162024E+01 -0.17931397033E+03  0.12756181350E+03  0.22019548028E+03  0.00000000000E+00 0.  1.
<mgrwt>
<rscale>  0 0.27520150E+04</rscale>
<asrwt>0</asrwt>
<pdfrwt beam="1">  1        1 0.27996705E+00 0.27520150E+04</pdfrwt>
<pdfrwt beam="2">  1       -1 0.16006927E+00 0.27520150E+04</pdfrwt>
<totfact> 0.10021679E+00</totfact>
</mgrwt>
</event>
<event>
12    1  0.2404959E-007  0.2139336E+04  0.7818608E-02  0.8544111E-01
         -1   -1    0    0    0  501 -0.00000000000E+00  0.00000000000E+00  0.15344603136E+04  0.15344603136E+04  0.00000000000E+00 0.  1.
          1   -1    0    0  501    0  0.00000000000E+00 -0.00000000000E+00 -0.74566280920E+03  0.74566280920E+03  0.00000000000E+00 0. -1.
         23    2    1    2    0    0  0.45690791593E+03 -0.73047643217E+03  0.14858902054E+03  0.87883532260E+03  0.88950354867E+02 0.  0.
        254    2    1    2    0    0 -0.45690791593E+03  0.73047643217E+03  0.64020848388E+03  0.14012878002E+04  0.90076630411E+03 0.  0.
        -24    2    4    4    0    0 -0.57115773526E+02  0.50994349698E+03  0.76195298502E+03  0.92206411829E+03  0.79531787052E+02 0.  0.
         24    2    4    4    0    0 -0.39979214241E+03  0.22053293519E+03 -0.12174450114E+03  0.47922368193E+03  0.79781458580E+02 0.  0.
         11    1    3    3    0    0  0.40747422995E+03 -0.59881004992E+03  0.10689151236E+03  0.73214378327E+03  0.00000000000E+00 0.  1.
        -11    1    3    3    0    0  0.49433685980E+02 -0.13166638224E+03  0.41697508184E+02  0.14669153933E+03  0.00000000000E+00 0. -1.
          2    1    6    6  502    0 -0.15431123882E+03  0.12923079018E+03 -0.61656635324E+02  0.21050913575E+03  0.00000000000E+00 0. -1.
          3    1    5    5  503    0 -0.10804539060E+02  0.22037639987E+03  0.39374493286E+03  0.45135082567E+03  0.00000000000E+00 0. -1.
         -4    1    5    5    0  503 -0.46311234466E+02  0.28956709711E+03  0.36820805217E+03  0.47071329262E+03  0.00000000000E+00 0.  1.
         -1    1    6    6    0  502 -0.24548090359E+03  0.91302145013E+02 -0.60087865817E+02  0.26871454618E+03  0.00000000000E+00 0.  1.
<mgrwt>
<rscale>  0 0.21393363E+04</rscale>
<asrwt>0</asrwt>
<pdfrwt beam="1">  1        1 0.11471736E+00 0.21393363E+04</pdfrwt>
<pdfrwt beam="2">  1       -1 0.23607082E+00 0.21393363E+04</pdfrwt>
<totfact> 0.19491517E+00</totfact>
</mgrwt>
</event>
<event>
12    1  0.2404959E-007  0.1715207E+04  0.7818608E-02  0.8752738E-01
         -2   -1    0    0    0  501 -0.00000000000E+00  0.00000000000E+00  0.46647877300E+03  0.46647877300E+03  0.00000000000E+00 0.  1.
          2   -1    0    0  501    0  0.00000000000E+00 -0.00000000000E+00 -0.15766714405E+04  0.15766714405E+04  0.00000000000E+00 0. -1.
         23    2    1    2    0    0  0.55447682188E+03 -0.63815684878E+02 -0.89834676270E+02  0.57266723123E+03  0.91435775436E+02 0.  0.
        254    2    1    2    0    0 -0.55447682188E+03  0.63815684878E+02 -0.10203579913E+04  0.14704829823E+04  0.89981819458E+03 0.  0.
        -24    2    4    4    0    0 -0.74240066609E+03 -0.43748534327E+02 -0.49495967642E+03  0.89664350057E+03  0.76888247308E+02 0.  0.
         24    2    4    4    0    0  0.18792384421E+03  0.10756421920E+03 -0.52539831485E+03  0.57383948174E+03  0.79767970289E+02 0.  0.
         13    1    3    3    0    0  0.24597578114E+03 -0.52016475959E+02 -0.10135573863E+01  0.25141763259E+03  0.00000000000E+00 0.  1.
        -13    1    3    3    0    0  0.30850104073E+03 -0.11799208919E+02 -0.88821118884E+02  0.32124959864E+03  0.00000000000E+00 0. -1.
          4    1    6    6  502    0  0.90193572959E+02  0.96986115523E+02 -0.30443978717E+03  0.33200116147E+03  0.00000000000E+00 0. -1.
          3    1    5    5  503    0 -0.58679439811E+03 -0.54909234342E+02 -0.36191981851E+03  0.69161307442E+03  0.00000000000E+00 0. -1.
         -4    1    5    5    0  503 -0.15560626798E+03  0.11160700015E+02 -0.13303985790E+03  0.20503042616E+03  0.00000000000E+00 0.  1.
         -3    1    6    6    0  502  0.97730271255E+02  0.10578103682E+02 -0.22095852768E+03  0.24183832027E+03  0.00000000000E+00 0.  1.
<mgrwt>
<rscale>  0 0.17152070E+04</rscale>
<asrwt>0</asrwt>
<pdfrwt beam="1">  1        2 0.24256484E+00 0.17152070E+04</pdfrwt>
<pdfrwt beam="2">  1       -2 0.71765965E-01 0.17152070E+04</pdfrwt>
<totfact> 0.19223932E+01</totfact>
</mgrwt>
</event>
<event>
12    1  0.2404959E-007  0.3380090E+04  0.7818608E-02  0.8142810E-01
         -1   -1    0    0    0  501 -0.00000000000E+00  0.00000000000E+00  0.12366925371E+04  0.12366925371E+04  0.00000000000E+00 0.  1.
          1   -1    0    0  501    0  0.00000000000E+00 -0.00000000000E+00 -0.23095895470E+04  0.23095895470E+04  0.00000000000E+00 0. -1.
         23    2    1    2    0    0 -0.45587030126E+03  0.14462215379E+04 -0.91947528858E+03  0.17756270368E+04  0.89677751722E+02 0.  0.
        254    2    1    2    0    0  0.45587030126E+03 -0.14462215379E+04 -0.15342172125E+03  0.17706550473E+04  0.90128053546E+03 0.  0.
        -24    2    4    4    0    0 -0.10139273518E+03 -0.67362906194E+03  0.25388286769E+03  0.73149162089E+03  0.81036294913E+02 0.  0.
         24    2    4    4    0    0  0.55726303644E+03 -0.77259247601E+03 -0.40730458894E+03  0.10391634264E+04  0.80761208865E+02 0.  0.
         13    1    3    3    0    0 -0.29430309055E+03  0.10413030889E+04 -0.68376988669E+03  0.12800264411E+04  0.00000000000E+00 0.  1.
        -13    1    3    3    0    0 -0.16156721071E+03  0.40491844904E+03 -0.23570540189E+03  0.49560059567E+03  0.00000000000E+00 0. -1.
          2    1    6    6  502    0  0.44981610237E+03 -0.66794295315E+03 -0.32822844742E+03  0.86960693898E+03  0.00000000000E+00 0. -1.
          1    1    5    5  503    0 -0.81801148155E+02 -0.47114177963E+03  0.21533880338E+03  0.52443951471E+03  0.00000000000E+00 0. -1.
         -2    1    5    5    0  503 -0.19591587027E+02 -0.20248728231E+03  0.38544064306E+02  0.20705210618E+03  0.00000000000E+00 0.  1.
         -1    1    6    6    0  502  0.10744693407E+03 -0.10464952285E+03 -0.79076141513E+02  0.16955648743E+03  0.00000000000E+00 0.  1.
<mgrwt>
<rscale>  0 0.33800900E+04</rscale>
<asrwt>0</asrwt>
<pdfrwt beam="1">  1        1 0.35532147E+00 0.33800900E+04</pdfrwt>
<pdfrwt beam="2">  1       -1 0.19026039E+00 0.33800900E+04</pdfrwt>
<totfact> 0.26579617E-01</totfact>
</mgrwt>
</event>
<event>
12    1  0.2404959E-007  0.1687889E+04  0.7818608E-02  0.8768302E-01
         -2   -1    0    0    0  501 -0.00000000000E+00  0.00000000000E+00  0.30838498666E+03  0.30838498666E+03  0.00000000000E+00 0.  1.
          2   -1    0    0  501    0  0.00000000000E+00 -0.00000000000E+00 -0.23095892235E+04  0.23095892235E+04  0.00000000000E+00 0. -1.
         23    2    1    2    0    0 -0.29564737550E+03 -0.34876782399E+03 -0.11760111747E+03  0.48059476061E+03  0.89971858981E+02 0.  0.
        254    2    1    2    0    0  0.29564737550E+03  0.34876782399E+03 -0.18836031194E+04  0.21373794496E+04  0.90076846879E+03 0.  0.
        -24    2    4    4    0    0 -0.24445335120E+03  0.37397919966E+03 -0.99975400560E+03  0.10979950064E+04  0.80418155677E+02 0.  0.
         24    2    4    4    0    0  0.54010072671E+03 -0.25211375679E+02 -0.88384911377E+03  0.10393844431E+04  0.82379343365E+02 0.  0.
         13    1    3    3    0    0 -0.15267483393E+03 -0.15934654198E+03 -0.12485471525E+02  0.22103577167E+03  0.00000000000E+00 0.  1.
        -13    1    3    3    0    0 -0.14297254157E+03 -0.18942128200E+03 -0.10511564595E+03  0.25955898894E+03  0.00000000000E+00 0. -1.
          4    1    6    6  502    0  0.41761128681E+03 -0.51540528742E+02 -0.70484561672E+03  0.82089156190E+03  0.00000000000E+00 0. -1.
          3    1    5    5  503    0 -0.15711691987E+03  0.29067774490E+03 -0.67489500847E+03  0.75144031722E+03  0.00000000000E+00 0. -1.
         -4    1    5    5    0  503 -0.87336431334E+02  0.83301454766E+02 -0.32485899714E+03  0.34655468923E+03  0.00000000000E+00 0.  1.
         -3    1    6    6    0  502  0.12248943989E+03  0.26329153062E+02 -0.17900349705E+03  0.21849288122E+03  0.00000000000E+00 0.  1.
<mgrwt>
<rscale>  0 0.16878894E+04</rscale>
<asrwt>0</asrwt>
<pdfrwt beam="1">  1        2 0.35532142E+00 0.16878894E+04</pdfrwt>
<pdfrwt beam="2">  1       -2 0.47443843E-01 0.16878894E+04</pdfrwt>
<totfact> 0.17969611E+01</totfact>
</mgrwt>
</event>
<event>
12    1  0.2404959E-007  0.1730279E+04  0.7818608E-02  0.8744281E-01
          2   -1    0    0  501    0  0.00000000000E+00  0.00000000000E+00  0.20496365139E+04  0.20496365139E+04  0.00000000000E+00 0. -1.
         -2   -1    0    0    0  501 -0.00000000000E+00 -0.00000000000E+00 -0.36517008539E+03  0.36517008539E+03  0.00000000000E+00 0.  1.
         23    2    1    2    0    0 -0.31284695542E+03  0.48046566439E+03  0.97148716225E+03  0.11318386777E+04  0.92471691601E+02 0.  0.
        254    2    1    2    0    0  0.31284695542E+03 -0.48046566439E+03  0.71297926628E+03  0.12829679216E+04  0.89941468831E+03 0.  0.
        -24    2    4    4    0    0  0.32558859255E+03 -0.72747338931E+03  0.48160209707E+03  0.93465990055E+03  0.80144157811E+02 0.  0.
         24    2    4    4    0    0 -0.12741637127E+02  0.24700772493E+03  0.23137716921E+03  0.34830802106E+03  0.81289098960E+02 0.  0.
         11    1    3    3    0    0 -0.30531080007E+03  0.48391488597E+03  0.95291938054E+03  0.11115051270E+04  0.00000000000E+00 0. -1.
        -11    1    3    3    0    0 -0.75361553492E+01 -0.34492215846E+01  0.18567781717E+02  0.20333550720E+02  0.00000000000E+00 0.  1.
          4    1    6    6  502    0 -0.48200115417E+01  0.21836894874E+03  0.15928713542E+03  0.27033427788E+03  0.00000000000E+00 0. -1.
          1    1    5    5  503    0  0.17731311925E+03 -0.35646985148E+03  0.19762623362E+03  0.44448489906E+03  0.00000000000E+00 0. -1.
         -2    1    5    5    0  503  0.14827547330E+03 -0.37100353783E+03  0.28397586345E+03  0.49017500149E+03  0.00000000000E+00 0.  1.
         -3    1    6    6    0  502 -0.79216255850E+01  0.28638776187E+02  0.72090033791E+02  0.77973743179E+02  0.00000000000E+00 0.  1.
<mgrwt>
<rscale>  0 0.17302785E+04</rscale>
<asrwt>0</asrwt>
<pdfrwt beam="1">  1        2 0.31532869E+00 0.17302785E+04</pdfrwt>
<pdfrwt beam="2">  1       -2 0.56180014E-01 0.17302785E+04</pdfrwt>
<totfact> 0.17703008E+01</totfact>
</mgrwt>
</event>
<event>
12    1  0.2404959E-007  0.1271101E+04  0.7818608E-02  0.9052802E-01
          1   -1    0    0  501    0  0.00000000000E+00  0.00000000000E+00  0.13846466835E+04  0.13846466835E+04  0.00000000000E+00 0. -1.
         -1   -1    0    0    0  501 -0.00000000000E+00 -0.00000000000E+00 -0.29171653844E+03  0.29171653844E+03  0.00000000000E+00 0.  1.
         23    2    1    2    0    0  0.29172616240E+03  0.67214395802E+02  0.38822163360E+03  0.49832977278E+03  0.89412509262E+02 0.  0.
        254    2    1    2    0    0 -0.29172616240E+03 -0.67214395802E+02  0.70470851147E+03  0.11780334492E+04  0.89528028706E+03 0.  0.
        -24    2    4    4    0    0  0.30113732877E+03 -0.10111148432E+03  0.36247693504E+03  0.48794654434E+03  0.76125414010E+02 0.  0.
         24    2    4    4    0    0 -0.59286349117E+03  0.33897088516E+02  0.34223157643E+03  0.69008690483E+03  0.80382538803E+02 0.  0.
         13    1    3    3    0    0  0.98958758079E+02  0.51184191353E+02  0.19706874132E+03  0.22638185892E+03  0.00000000000E+00 0. -1.
        -13    1    3    3    0    0  0.19276740432E+03  0.16030204449E+02  0.19115289228E+03  0.27194791386E+03  0.00000000000E+00 0.  1.
          2    1    6    6  502    0 -0.58562777269E+03  0.22947536365E+02  0.33596171282E+03  0.67554181961E+03  0.00000000000E+00 0. -1.
          3    1    5    5  503    0  0.11150499784E+03 -0.84462410018E+01  0.16200934910E+03  0.19685459793E+03  0.00000000000E+00 0. -1.
         -4    1    5    5    0  503  0.18963233093E+03 -0.92665243316E+02  0.20046758595E+03  0.29109194641E+03  0.00000000000E+00 0.  1.
         -1    1    6    6    0  502 -0.72357184778E+01  0.10949552151E+02  0.62698636098E+01  0.14545085214E+02  0.00000000000E+00 0.  1.
<mgrwt>
<rscale>  0 0.12711008E+04</rscale>
<asrwt>0</asrwt>
<pdfrwt beam="1">  1        1 0.21302256E+00 0.12711008E+04</pdfrwt>
<pdfrwt beam="2">  1       -1 0.44879468E-01 0.12711008E+04</pdfrwt>
<totfact> 0.38162503E+01</totfact>
</mgrwt>
</event>
<event>
12    1  0.2404959E-007  0.1386187E+04  0.7818608E-02  0.8963878E-01
          2   -1    0    0  501    0  0.00000000000E+00  0.00000000000E+00  0.63732282885E+03  0.63732282885E+03  0.00000000000E+00 0. -1.
         -2   -1    0    0    0  501 -0.00000000000E+00 -0.00000000000E+00 -0.75374494060E+03  0.75374494060E+03  0.00000000000E+00 0.  1.
         23    2    1    2    0    0  0.18568570252E+03 -0.33201932596E+03 -0.13247071856E+03  0.41360665598E+03  0.93840085563E+02 0.  0.
        254    2    1    2    0    0 -0.18568570252E+03  0.33201932596E+03  0.16048606820E+02  0.97746111347E+03  0.90025366294E+03 0.  0.
        -24    2    4    4    0    0  0.15435927631E+03 -0.16833946734E+03  0.22700783092E+03  0.33196078666E+03  0.80625344229E+02 0.  0.
         24    2    4    4    0    0 -0.34004497883E+03  0.50035879330E+03 -0.21095922410E+03  0.64550032682E+03  0.78596234171E+02 0.  0.
         11    1    3    3    0    0  0.11874993123E+03 -0.12050630072E+03 -0.44401950699E+02  0.17491382995E+03  0.00000000000E+00 0.  1.
        -11    1    3    3    0    0  0.66935771290E+02 -0.21151302524E+03 -0.88068767862E+02  0.23869282603E+03  0.00000000000E+00 0. -1.
          4    1    6    6  502    0 -0.26953279554E+02  0.22824323311E+02  0.35941512873E+01  0.35501365281E+02  0.00000000000E+00 0. -1.
          3    1    5    5  503    0  0.14083850448E+03 -0.11473338539E+03  0.14206599993E+03  0.23061219049E+03  0.00000000000E+00 0. -1.
         -4    1    5    5    0  503  0.13520771828E+02 -0.53606081946E+02  0.84941830990E+02  0.10134859616E+03  0.00000000000E+00 0.  1.
         -3    1    6    6    0  502 -0.31309169927E+03  0.47753446999E+03 -0.21455337539E+03  0.60999896154E+03  0.00000000000E+00 0.  1.
<mgrwt>
<rscale>  0 0.13861874E+04</rscale>
<asrwt>0</asrwt>
<pdfrwt beam="1">  1        2 0.98049667E-01 0.13861874E+04</pdfrwt>
<pdfrwt beam="2">  1       -2 0.11596076E+00 0.13861874E+04</pdfrwt>
<totfact> 0.25930885E+01</totfact>
</mgrwt>
</event>
<event>
12    1  0.2787813E-007  0.2579546E+04  0.7818608E-02  0.8375182E-01
          1   -1    0    0  501    0  0.00000000000E+00  0.00000000000E+00  0.14027241932E+04  0.14027241932E+04  0.00000000000E+00 0. -1.
         -1   -1    0    0    0  501 -0.00000000000E+00 -0.00000000000E+00 -0.11859174014E+04  0.11859174014E+04  0.00000000000E+00 0.  1.
         23    2    1    2    0    0 -0.91055165392E+03  0.13916308471E+03  0.75383270147E+03  0.11935198617E+04  0.88063840155E+02 0.  0.
        254    2    1    2    0    0  0.91055165392E+03 -0.13916308471E+03 -0.53702590970E+03  0.13951217329E+04  0.89972059181E+03 0.  0.
        -24    2    4    4    0    0  0.18016540339E+03  0.14752609116E+03 -0.55384314884E+03  0.60622885528E+03  0.80917682310E+02 0.  0.
         24    2    4    4    0    0  0.73038625054E+03 -0.28668917587E+03  0.16817239144E+02  0.78889287762E+03  0.80089913841E+02 0.  0.
         13    1    3    3    0    0 -0.65160960248E+03  0.13920813771E+03  0.54938295189E+03  0.86359458514E+03  0.00000000000E+00 0.  1.
        -13    1    3    3    0    0 -0.25894205144E+03 -0.45053004430E-01  0.20444974958E+03  0.32992527659E+03  0.00000000000E+00 0. -1.
          2    1    6    6  502    0  0.91724047989E+02 -0.92413200278E+01 -0.37618100342E+01  0.92265129871E+02  0.00000000000E+00 0. -1.
          1    1    5    5  503    0 -0.39137949253E+01 -0.55832374535E+01 -0.20581011832E+02  0.21681060380E+02  0.00000000000E+00 0. -1.
         -2    1    5    5    0  503  0.18407919831E+03  0.15310932861E+03 -0.53326213701E+03  0.58454779490E+03  0.00000000000E+00 0.  1.
         -1    1    6    6    0  502  0.63866220255E+03 -0.27744785584E+03  0.20579049178E+02  0.69662774775E+03  0.00000000000E+00 0.  1.
<mgrwt>
<rscale>  0 0.25795465E+04</rscale>
<asrwt>0</asrwt>
<pdfrwt beam="1">  1        1 0.21580372E+00 0.25795465E+04</pdfrwt>
<pdfrwt beam="2">  1       -1 0.18244883E+00 0.25795465E+04</pdfrwt>
<totfact> 0.13489301E+00</totfact>
</mgrwt>
</event>
<event>
12    1  0.3286151E-007  0.2470975E+04  0.7818608E-02  0.8413399E-01
          1   -1    0    0  501    0  0.00000000000E+00  0.00000000000E+00  0.15138381164E+04  0.15138381164E+04  0.00000000000E+00 0. -1.
         -1   -1    0    0    0  501 -0.00000000000E+00 -0.00000000000E+00 -0.10083177631E+04  0.10083177631E+04  0.00000000000E+00 0.  1.
         23    2    1    2    0    0  0.86196945871E+03  0.53447360249E+03 -0.12584948369E+03  0.10260962169E+04  0.91553122986E+02 0.  0.
        254    2    1    2    0    0 -0.86196945871E+03 -0.53447360249E+03  0.63136983700E+03  0.14960596626E+04  0.90050722564E+03 0.  0.
        -24    2    4    4    0    0  0.93033635121E+02 -0.14054063097E+03 -0.11729493519E+03  0.21769439126E+03  0.72289832939E+02 0.  0.
         24    2    4    4    0    0 -0.95500309383E+03 -0.39393297151E+03  0.74866477220E+03  0.12783652713E+04  0.80651909642E+02 0.  0.
         13    1    3    3    0    0  0.65131114029E+03  0.35794202706E+03 -0.80522371266E+02  0.74753765689E+03  0.00000000000E+00 0. -1.
        -13    1    3    3    0    0  0.21065831842E+03  0.17653157543E+03 -0.45327112425E+02  0.27855856003E+03  0.00000000000E+00 0.  1.
          2    1    6    6  502    0 -0.18829866858E+03 -0.44623406937E+02  0.14873403383E+03  0.24406853516E+03  0.00000000000E+00 0. -1.
          1    1    5    5  503    0 -0.79324621449E+01 -0.11837817964E+02  0.31020608234E+01  0.14583575391E+02  0.00000000000E+00 0. -1.
         -2    1    5    5    0  503  0.10096609727E+03 -0.12870281301E+03 -0.12039699602E+03  0.20311081587E+03  0.00000000000E+00 0.  1.
         -1    1    6    6    0  502 -0.76670442525E+03 -0.34930956458E+03  0.59993073836E+03  0.10342967362E+04  0.00000000000E+00 0.  1.
<mgrwt>
<rscale>  0 0.24709754E+04</rscale>
<asrwt>0</asrwt>
<pdfrwt beam="1">  1        1 0.23289817E+00 0.24709754E+04</pdfrwt>
<pdfrwt beam="2">  1       -1 0.15512581E+00 0.24709754E+04</pdfrwt>
<totfact> 0.18147149E+00</totfact>
</mgrwt>
</event>
<event>
12    1  0.2404959E-007  0.2108114E+04  0.7818608E-02  0.8557677E-01
          2   -1    0    0  501    0  0.00000000000E+00  0.00000000000E+00  0.36397289388E+04  0.36397289388E+04  0.00000000000E+00 0. -1.
         -2   -1    0    0    0  501 -0.00000000000E+00 -0.00000000000E+00 -0.30525249619E+03  0.30525249619E+03  0.00000000000E+00 0.  1.
         23    2    1    2    0    0 -0.33428114564E+03  0.71730428116E+03  0.19915126416E+04  0.21449362883E+04  0.91431740040E+02 0.  0.
        254    2    1    2    0    0  0.33428114564E+03 -0.71730428116E+03  0.13429638010E+04  0.18000451467E+04  0.90018967070E+03 0.  0.
        -24    2    4    4    0    0  0.11120006646E+03 -0.24835843775E+03  0.12305535423E+04  0.12628134622E+04  0.79927788786E+02 0.  0.
         24    2    4    4    0    0  0.22308107918E+03 -0.46894584341E+03  0.11241025870E+03  0.53723168450E+03  0.79413126336E+02 0.  0.
         11    1    3    3    0    0 -0.32122146309E+03  0.63627592750E+03  0.17382901233E+04  0.18787450165E+04  0.00000000000E+00 0.  1.
        -11    1    3    3    0    0 -0.13059682550E+02  0.81028353657E+02  0.25322251824E+03  0.26619127174E+03  0.00000000000E+00 0. -1.
          4    1    6    6  502    0  0.21984482681E+03 -0.40121341616E+03  0.99899189133E+02  0.46827748310E+03  0.00000000000E+00 0. -1.
          1    1    5    5  503    0  0.64651930285E+01 -0.10660978713E+03  0.50345648053E+03  0.51466093034E+03  0.00000000000E+00 0. -1.
         -2    1    5    5    0  503  0.10473487343E+03 -0.14174865062E+03  0.72709706180E+03  0.74815253187E+03  0.00000000000E+00 0.  1.
         -3    1    6    6    0  502  0.32362523678E+01 -0.67732427247E+02  0.12511069570E+02  0.68954201409E+02  0.00000000000E+00 0.  1.
<mgrwt>
<rscale>  0 0.21081142E+04</rscale>
<asrwt>0</asrwt>
<pdfrwt beam="1">  1        2 0.55995827E+00 0.21081142E+04</pdfrwt>
<pdfrwt beam="2">  1       -2 0.46961925E-01 0.21081142E+04</pdfrwt>
<totfact> 0.25718837E+00</totfact>
</mgrwt>
</event>
<event>
12    1  0.2404959E-007  0.2378778E+04  0.7818608E-02  0.8447492E-01
          2   -1    0    0  501    0  0.00000000000E+00  0.00000000000E+00  0.30791309812E+04  0.30791309812E+04  0.00000000000E+00 0. -1.
         -2   -1    0    0    0  501 -0.00000000000E+00 -0.00000000000E+00 -0.45943038095E+03  0.45943038095E+03  0.00000000000E+00 0.  1.
         23    2    1    2    0    0 -0.68756265828E+02  0.99502989854E+03  0.83010920418E+03  0.13008763160E+04  0.91574971936E+02 0.  0.
        254    2    1    2    0    0  0.68756265828E+02 -0.99502989854E+03  0.17895913961E+04  0.22376850462E+04  0.89988059098E+03 0.  0.
        -24    2    4    4    0    0 -0.16638343778E+03  0.48518898732E+02  0.62843433805E+03  0.65687271608E+03  0.80712551661E+02 0.  0.
         24    2    4    4    0    0  0.23513970361E+03 -0.10435487973E+04  0.11611570580E+04  0.15808123301E+04  0.79982105221E+02 0.  0.
         11    1    3    3    0    0 -0.47246809063E+02  0.89231109301E+03  0.77231582483E+03  0.11810686182E+04  0.00000000000E+00 0. -1.
        -11    1    3    3    0    0 -0.21509456765E+02  0.10271880553E+03  0.57793379351E+02  0.11980769774E+03  0.00000000000E+00 0.  1.
          4    1    6    6  502    0  0.11250770161E+03 -0.33491319775E+03  0.39780597283E+03  0.53204738977E+03  0.00000000000E+00 0. -1.
          1    1    5    5  503    0 -0.57480364329E+02 -0.11071835134E+02  0.12018931901E+03  0.13368638757E+03  0.00000000000E+00 0. -1.
         -2    1    5    5    0  503 -0.10890307345E+03  0.59590733866E+02  0.50824501904E+03  0.52318632851E+03  0.00000000000E+00 0.  1.
         -3    1    6    6    0  502  0.12263200200E+03 -0.70863559953E+03  0.76335108520E+03  0.10487649403E+04  0.00000000000E+00 0.  1.
<mgrwt>
<rscale>  0 0.23787781E+04</rscale>
<asrwt>0</asrwt>
<pdfrwt beam="1">  1        2 0.47371245E+00 0.23787781E+04</pdfrwt>
<pdfrwt beam="2">  1       -2 0.70681599E-01 0.23787781E+04</pdfrwt>
<totfact> 0.25456636E+00</totfact>
</mgrwt>
</event>
<event>
12    1  0.2404959E-007  0.2306522E+04  0.7818608E-02  0.8475354E-01
          2   -1    0    0  501    0  0.00000000000E+00  0.00000000000E+00  0.10287073863E+04  0.10287073863E+04  0.00000000000E+00 0. -1.
         -2   -1    0    0    0  501 -0.00000000000E+00 -0.00000000000E+00 -0.12928947915E+04  0.12928947915E+04  0.00000000000E+00 0.  1.
         23    2    1    2    0    0 -0.89926565209E+03  0.35955484484E+03 -0.22049605173E+03  0.99748302121E+03  0.91626793501E+02 0.  0.
        254    2    1    2    0    0  0.89926565209E+03 -0.35955484484E+03 -0.43691353428E+02  0.13241191566E+04  0.90190033104E+03 0.  0.
        -24    2    4    4    0    0  0.38218136946E+02 -0.35264569523E+03  0.21350751910E+03  0.42166492552E+03  0.79976473721E+02 0.  0.
         24    2    4    4    0    0  0.86104751515E+03 -0.69091496163E+01 -0.25719887253E+03  0.90245423112E+03  0.82594306926E+02 0.  0.
         13    1    3    3    0    0 -0.33702793403E+03  0.18219933587E+03 -0.78732711409E+02  0.39113075327E+03  0.00000000000E+00 0. -1.
        -13    1    3    3    0    0 -0.56223771806E+03  0.17735550898E+03 -0.14176334032E+03  0.60635226794E+03  0.00000000000E+00 0.  1.
          4    1    6    6  502    0  0.84873294315E+03 -0.26412164998E+00 -0.26099373416E+03  0.88795574654E+03  0.00000000000E+00 0. -1.
          3    1    5    5  503    0  0.55480208355E+02 -0.31818792975E+03  0.20383549206E+03  0.38192999355E+03  0.00000000000E+00 0. -1.
         -4    1    5    5    0  503 -0.17262071410E+02 -0.34457765482E+02  0.96720270472E+01  0.39734931968E+02  0.00000000000E+00 0.  1.
         -3    1    6    6    0  502  0.12314571998E+02 -0.66450279663E+01  0.37948616260E+01  0.14498484574E+02  0.00000000000E+00 0.  1.
<mgrwt>
<rscale>  0 0.23065216E+04</rscale>
<asrwt>0</asrwt>
<pdfrwt beam="1">  1        2 0.15826267E+00 0.23065216E+04</pdfrwt>
<pdfrwt beam="2">  1       -2 0.19890689E+00 0.23065216E+04</pdfrwt>
<totfact> 0.29579720E+00</totfact>
</mgrwt>
</event>
<event>
12    1  0.2404959E-007  0.3165190E+04  0.7818608E-02  0.8198071E-01
         -1   -1    0    0    0  501 -0.00000000000E+00  0.00000000000E+00  0.15466790416E+04  0.15466790416E+04  0.00000000000E+00 0.  1.
          1   -1    0    0  501    0  0.00000000000E+00 -0.00000000000E+00 -0.16193445682E+04  0.16193445682E+04  0.00000000000E+00 0. -1.
         23    2    1    2    0    0 -0.40672891475E+03  0.13274516536E+04 -0.46412074234E+03  0.14666496896E+04  0.89983029843E+02 0.  0.
        254    2    1    2    0    0  0.40672891475E+03 -0.13274516536E+04  0.39145521569E+03  0.16993739202E+04  0.89837532912E+03 0.  0.
        -24    2    4    4    0    0 -0.47119665902E+02  0.10973971631E+03  0.16937364833E+02  0.14436563029E+03  0.79318929832E+02 0.  0.
         24    2    4    4    0    0  0.45384858065E+03 -0.14371913699E+04  0.37451785086E+03  0.15550082899E+04  0.79306955098E+02 0.  0.
         11    1    3    3    0    0 -0.13126381918E+02  0.99637075662E+02 -0.51161464206E+02  0.11277120274E+03  0.00000000000E+00 0.  1.
        -11    1    3    3    0    0 -0.39360253283E+03  0.12278145779E+04 -0.41295927814E+03  0.13538784868E+04  0.00000000000E+00 0. -1.
          4    1    6    6  502    0  0.31227703013E+03 -0.96903167668E+03  0.21504247416E+03  0.10405684022E+04  0.00000000000E+00 0. -1.
          1    1    5    5  503    0 -0.42383654510E+02  0.24092311026E+02  0.30521423634E+02  0.57518439834E+02  0.00000000000E+00 0. -1.
         -2    1    5    5    0  503 -0.47360113917E+01  0.85647405286E+02 -0.13584058801E+02  0.86847190453E+02  0.00000000000E+00 0.  1.
         -3    1    6    6    0  502  0.14157155052E+03 -0.46815969324E+03  0.15947537670E+03  0.51443988771E+03  0.00000000000E+00 0.  1.
<mgrwt>
<rscale>  0 0.31651896E+04</rscale>
<asrwt>0</asrwt>
<pdfrwt beam="1">  1        1 0.24912993E+00 0.31651896E+04</pdfrwt>
<pdfrwt beam="2">  1       -1 0.23795062E+00 0.31651896E+04</pdfrwt>
<totfact> 0.37981864E-01</totfact>
</mgrwt>
</event>
<event>
12    1  0.2404959E-007  0.1873174E+04  0.7818608E-02  0.8668326E-01
          2   -1    0    0  501    0  0.00000000000E+00  0.00000000000E+00  0.27411244471E+04  0.27411244471E+04  0.00000000000E+00 0. -1.
         -2   -1    0    0    0  501 -0.00000000000E+00 -0.00000000000E+00 -0.32001307320E+03  0.32001307320E+03  0.00000000000E+00 0.  1.
         23    2    1    2    0    0 -0.46580976964E+03  0.45135166626E+03  0.43460793214E+03  0.78591047905E+03  0.89856320155E+02 0.  0.
        254    2    1    2    0    0  0.46580976964E+03 -0.45135166626E+03  0.19865034418E+04  0.22752270413E+04  0.89986948886E+03 0.  0.
        -24    2    4    4    0    0  0.38437974350E+03 -0.27289157182E+03  0.27728794899E+03  0.55293512604E+03  0.81431257965E+02 0.  0.
         24    2    4    4    0    0  0.81430026145E+02 -0.17846009445E+03  0.17092154928E+04  0.17222919153E+04  0.79956150351E+02 0.  0.
         11    1    3    3    0    0 -0.44635027708E+03  0.40328254473E+03  0.38540492872E+03  0.71442448153E+03  0.00000000000E+00 0.  1.
        -11    1    3    3    0    0 -0.19459492565E+02  0.48069121530E+02  0.49203003420E+02  0.71485997518E+02  0.00000000000E+00 0. -1.
          4    1    6    6  502    0  0.16863681726E+02 -0.12990988315E+03  0.10747095395E+04  0.10826641011E+04  0.00000000000E+00 0. -1.
          1    1    5    5  503    0  0.32113058546E+03 -0.18810616784E+03  0.22557397894E+03  0.43519237502E+03  0.00000000000E+00 0. -1.
         -2    1    5    5    0  503  0.63249158033E+02 -0.84785403979E+02  0.51713970049E+02  0.11774275102E+03  0.00000000000E+00 0.  1.
         -3    1    6    6    0  502  0.64566344419E+02 -0.48550211298E+02  0.63450595328E+03  0.63962781412E+03  0.00000000000E+00 0.  1.
<mgrwt>
<rscale>  0 0.18731745E+04</rscale>
<asrwt>0</asrwt>
<pdfrwt beam="1">  1        2 0.42171144E+00 0.18731745E+04</pdfrwt>
<pdfrwt beam="2">  1       -2 0.49232782E-01 0.18731745E+04</pdfrwt>
<totfact> 0.92153158E+00</totfact>
</mgrwt>
</event>
<event>
12    1  0.2404959E-007  0.2434927E+04  0.7818608E-02  0.8426542E-01
          1   -1    0    0  501    0  0.00000000000E+00  0.00000000000E+00  0.29706383411E+04  0.29706383411E+04  0.00000000000E+00 0. -1.
         -1   -1    0    0    0  501 -0.00000000000E+00 -0.00000000000E+00 -0.49895576967E+03  0.49895576967E+03  0.00000000000E+00 0.  1.
         23    2    1    2    0    0 -0.92257998534E+03 -0.48996903381E+03  0.12028752233E+04  0.15955719757E+04  0.87850118788E+02 0.  0.
        254    2    1    2    0    0  0.92257998534E+03  0.48996903381E+03  0.12688073482E+04  0.18740221351E+04  0.90047953484E+03 0.  0.
        -24    2    4    4    0    0  0.69654967849E+03  0.74937727436E+03  0.95436552074E+03  0.14013583326E+04  0.79018195690E+02 0.  0.
         24    2    4    4    0    0  0.22603030685E+03 -0.25940824055E+03  0.31444182744E+03  0.47266380251E+03  0.78454269960E+02 0.  0.
         11    1    3    3    0    0 -0.41203634731E+03 -0.19789300243E+03  0.58650993023E+03  0.74359228760E+03  0.00000000000E+00 0. -1.
        -11    1    3    3    0    0 -0.51054363803E+03 -0.29207603138E+03  0.61636529304E+03  0.85197968808E+03  0.00000000000E+00 0.  1.
          4    1    6    6  502    0  0.19343104187E+03 -0.16927260166E+03  0.23065219343E+03  0.34535375481E+03  0.00000000000E+00 0. -1.
          3    1    5    5  503    0  0.22337496722E+03  0.29600880129E+03  0.34268476411E+03  0.50492616686E+03  0.00000000000E+00 0. -1.
         -2    1    5    5    0  503  0.47317471126E+03  0.45336847307E+03  0.61168075663E+03  0.89643216574E+03  0.00000000000E+00 0.  1.
         -3    1    6    6    0  502  0.32599264986E+02 -0.90135638892E+02  0.83789634010E+02  0.12731004769E+03  0.00000000000E+00 0.  1.
<mgrwt>
<rscale>  0 0.24349268E+04</rscale>
<asrwt>0</asrwt>
<pdfrwt beam="1">  1        1 0.45702127E+00 0.24349268E+04</pdfrwt>
<pdfrwt beam="2">  1       -1 0.76762428E-01 0.24349268E+04</pdfrwt>
<totfact> 0.95535891E-01</totfact>
</mgrwt>
</event>
<event>
12    1  0.2404959E-007  0.1692788E+04  0.7818608E-02  0.8765489E-01
         -2   -1    0    0    0  501 -0.00000000000E+00  0.00000000000E+00  0.61332627443E+03  0.61332627443E+03  0.00000000000E+00 0.  1.
          2   -1    0    0  501    0  0.00000000000E+00 -0.00000000000E+00 -0.11680282652E+04  0.11680282652E+04  0.00000000000E+00 0. -1.
         23    2    1    2    0    0  0.37201636445E+03 -0.35907177671E+03 -0.52765698638E+03  0.74418387968E+03  0.89772129600E+02 0.  0.
        254    2    1    2    0    0 -0.37201636445E+03  0.35907177671E+03 -0.27045004414E+02  0.10371706600E+04  0.89870063393E+03 0.  0.
        -24    2    4    4    0    0  0.99292415543E+02  0.32718139084E+03 -0.31908478652E+03  0.47592493896E+03  0.88220180468E+02 0.  0.
         24    2    4    4    0    0 -0.47130877999E+03  0.31890385876E+02  0.29203978211E+03  0.56124572102E+03  0.80997297646E+02 0.  0.
         13    1    3    3    0    0  0.30408386964E+01 -0.25678639668E+02 -0.40425918083E+02  0.47988478701E+02  0.00000000000E+00 0. -1.
        -13    1    3    3    0    0  0.36897552575E+03 -0.33339313704E+03 -0.48723106830E+03  0.69619540098E+03  0.00000000000E+00 0.  1.
          2    1    6    6  502    0 -0.35083769583E+03  0.43070549284E+01  0.17958704287E+03  0.39415370796E+03  0.00000000000E+00 0. -1.
          3    1    5    5  503    0  0.40256667227E+02  0.31141993348E+02 -0.38817517859E+02  0.64009551621E+02  0.00000000000E+00 0. -1.
         -4    1    5    5    0  503  0.59035748315E+02  0.29603939749E+03 -0.28026726866E+03  0.41191538734E+03  0.00000000000E+00 0.  1.
         -3    1    6    6    0  502 -0.12047108416E+03  0.27583330948E+02  0.11245273924E+03  0.16709201306E+03  0.00000000000E+00 0.  1.
<mgrwt>
<rscale>  0 0.16927876E+04</rscale>
<asrwt>0</asrwt>
<pdfrwt beam="1">  1        2 0.17969666E+00 0.16927876E+04</pdfrwt>
<pdfrwt beam="2">  1       -2 0.94357889E-01 0.16927876E+04</pdfrwt>
<totfact> 0.17851755E+01</totfact>
</mgrwt>
</event>
<event>
12    1  0.2404959E-007  0.1547608E+04  0.7818608E-02  0.8853397E-01
         -2   -1    0    0    0  501 -0.00000000000E+00  0.00000000000E+00  0.22275486321E+03  0.22275486321E+03  0.00000000000E+00 0.  1.
          2   -1    0    0  501    0  0.00000000000E+00 -0.00000000000E+00 -0.26880326270E+04  0.26880326270E+04  0.00000000000E+00 0. -1.
         23    2    1    2    0    0  0.50795752614E+03 -0.35923295747E+01 -0.81948655795E+03  0.96835998462E+03  0.90161454970E+02 0.  0.
        254    2    1    2    0    0 -0.50795752614E+03  0.35923295747E+01 -0.16457912058E+04  0.19424275055E+04  0.89797670795E+03 0.  0.
        -24    2    4    4    0    0 -0.51335249060E+03 -0.37020318369E+03 -0.88498900296E+03  0.10909753136E+04  0.80252243834E+02 0.  0.
         24    2    4    4    0    0  0.53949644528E+01  0.37379551326E+03 -0.76080220283E+03  0.85145219197E+03  0.79991574579E+02 0.  0.
         13    1    3    3    0    0  0.21916917531E+03  0.75641463834E+01 -0.43727503493E+03  0.48918483204E+03  0.00000000000E+00 0. -1.
        -13    1    3    3    0    0  0.28878835083E+03 -0.11156475958E+02 -0.38221152302E+03  0.47917515259E+03  0.00000000000E+00 0.  1.
          4    1    6    6  502    0 -0.27082034495E+02  0.12091447572E+03 -0.19773072770E+03  0.23334778274E+03  0.00000000000E+00 0. -1.
          1    1    5    5  503    0 -0.25462620303E+02 -0.23354075560E+01 -0.23063444998E+02  0.34434309291E+02  0.00000000000E+00 0. -1.
         -2    1    5    5    0  503 -0.48788987029E+03 -0.36786777613E+03 -0.86192555796E+03  0.10565410043E+04  0.00000000000E+00 0.  1.
         -3    1    6    6    0  502  0.32476998948E+02  0.25288103754E+03 -0.56307147513E+03  0.61810440923E+03  0.00000000000E+00 0.  1.
<mgrwt>
<rscale>  0 0.15476076E+04</rscale>
<asrwt>0</asrwt>
<pdfrwt beam="1">  1        2 0.41354346E+00 0.15476076E+04</pdfrwt>
<pdfrwt beam="2">  1       -2 0.34269981E-01 0.15476076E+04</pdfrwt>
<totfact> 0.20807237E+01</totfact>
</mgrwt>
</event>
<event>
12    1  0.2404959E-007  0.1319158E+04  0.7818608E-02  0.9014509E-01
          1   -1    0    0  501    0  0.00000000000E+00  0.00000000000E+00  0.21696915701E+04  0.21696915701E+04  0.00000000000E+00 0. -1.
         -1   -1    0    0    0  501 -0.00000000000E+00 -0.00000000000E+00 -0.20050971457E+03  0.20050971457E+03  0.00000000000E+00 0.  1.
         23    2    1    2    0    0  0.42398296404E+02 -0.21833610704E+03  0.98288027947E+03  0.10128105871E+04  0.10130829359E+03 0.  0.
        254    2    1    2    0    0 -0.42398296404E+02  0.21833610704E+03  0.98630157609E+03  0.13573906976E+04  0.90567678333E+03 0.  0.
        -24    2    4    4    0    0 -0.90125416459E+01  0.54720109790E+03  0.41107933389E+03  0.68920395657E+03  0.80657346555E+02 0.  0.
         24    2    4    4    0    0 -0.33385754758E+02 -0.32886499086E+03  0.57522224220E+03  0.66818674106E+03  0.79536797646E+02 0.  0.
         11    1    3    3    0    0  0.33510236143E+02 -0.15952550651E+02  0.23793612684E+03  0.24081324767E+03  0.00000000000E+00 0. -1.
        -11    1    3    3    0    0  0.88880602612E+01 -0.20238355638E+03  0.74494415263E+03  0.77199733941E+03  0.00000000000E+00 0.  1.
          2    1    6    6  502    0 -0.57501752824E+02 -0.26026667511E+03  0.46923523767E+03  0.53965442833E+03  0.00000000000E+00 0. -1.
          3    1    5    5  503    0  0.11499526126E+02  0.49921811771E+03  0.35551905229E+03  0.61298023189E+03  0.00000000000E+00 0. -1.
         -4    1    5    5    0  503 -0.20512067772E+02  0.47982980186E+02  0.55560281606E+02  0.76223724679E+02  0.00000000000E+00 0.  1.
         -1    1    6    6    0  502  0.24115998066E+02 -0.68598315754E+02  0.10598700453E+03  0.12853231273E+03  0.00000000000E+00 0.  1.
<mgrwt>
<rscale>  0 0.13191577E+04</rscale>
<asrwt>0</asrwt>
<pdfrwt beam="1">  1        1 0.33379869E+00 0.13191577E+04</pdfrwt>
<pdfrwt beam="2">  1       -1 0.30847650E-01 0.13191577E+04</pdfrwt>
<totfact> 0.21822880E+01</totfact>
</mgrwt>
</event>
<event>
12    1  0.2404959E-007  0.1955003E+04  0.7818608E-02  0.8627952E-01
          2   -1    0    0  501    0  0.00000000000E+00  0.00000000000E+00  0.51689260574E+03  0.51689260574E+03  0.00000000000E+00 0. -1.
         -2   -1    0    0    0  501 -0.00000000000E+00 -0.00000000000E+00 -0.18485634815E+04  0.18485634815E+04  0.00000000000E+00 0.  1.
         23    2    1    2    0    0 -0.69089383330E+03  0.22672233768E+03 -0.23185303099E+03  0.76773211574E+03  0.83183329219E+02 0.  0.
        254    2    1    2    0    0  0.69089383330E+03 -0.22672233768E+03 -0.10998178447E+04  0.15977239715E+04  0.90243298372E+03 0.  0.
        -24    2    4    4    0    0  0.75224464669E+03 -0.18322433516E+03 -0.12121754868E+04  0.14404983350E+04  0.78885214385E+02 0.  0.
         24    2    4    4    0    0 -0.61350813386E+02 -0.43498002513E+02  0.11235764200E+03  0.15722563645E+03  0.80247507849E+02 0.  0.
         13    1    3    3    0    0 -0.14503742111E+03  0.82498964892E+02 -0.64122417591E+02  0.17875574723E+03  0.00000000000E+00 0. -1.
        -13    1    3    3    0    0 -0.54585641219E+03  0.14422337279E+03 -0.16773061340E+03  0.58897636850E+03  0.00000000000E+00 0.  1.
          4    1    6    6  502    0 -0.65528439639E+02 -0.25511110372E+02  0.11847591453E+03  0.13777276755E+03  0.00000000000E+00 0. -1.
          1    1    5    5  503    0  0.68512161072E+03 -0.14484740292E+03 -0.10730411759E+04  0.12813234396E+04  0.00000000000E+00 0. -1.
         -2    1    5    5    0  503  0.67123035966E+02 -0.38376932245E+02 -0.13913431087E+03  0.15917489547E+03  0.00000000000E+00 0.  1.
         -3    1    6    6    0  502  0.41776262533E+01 -0.17986892141E+02 -0.61182725258E+01  0.19452868907E+02  0.00000000000E+00 0.  1.
<mgrwt>
<rscale>  0 0.19550026E+04</rscale>
<asrwt>0</asrwt>
<pdfrwt beam="1">  1        2 0.79521940E-01 0.19550026E+04</pdfrwt>
<pdfrwt beam="2">  1       -2 0.28439438E+00 0.19550026E+04</pdfrwt>
<totfact> 0.21882403E+00</totfact>
</mgrwt>
</event>
<event>
12    1  0.2404959E-007  0.3781383E+04  0.7818608E-02  0.8050162E-01
          2   -1    0    0  501    0  0.00000000000E+00  0.00000000000E+00  0.20563779640E+04  0.20563779640E+04  0.00000000000E+00 0.  1.
         -2   -1    0    0    0  501 -0.00000000000E+00 -0.00000000000E+00 -0.17383547131E+04  0.17383547131E+04  0.00000000000E+00 0. -1.
         23    2    1    2    0    0 -0.34646867554E+03  0.56755720373E+03  0.18099071639E+04  0.19303254630E+04  0.90723363345E+02 0.  0.
        254    2    1    2    0    0  0.34646867554E+03 -0.56755720373E+03 -0.14918839130E+04  0.18644072140E+04  0.89896325130E+03 0.  0.
        -24    2    4    4    0    0  0.23357450528E+03 -0.10751370479E+02 -0.11913094902E+04  0.12166321054E+04  0.79389777657E+02 0.  0.
         24    2    4    4    0    0  0.11289417026E+03 -0.55680583325E+03 -0.30057442280E+03  0.64777510868E+03  0.80559159411E+02 0.  0.
         13    1    3    3    0    0 -0.19373133536E+03  0.25098793600E+03  0.77453037766E+03  0.83691342458E+03  0.00000000000E+00 0.  1.
        -13    1    3    3    0    0 -0.15273734018E+03  0.31656926773E+03  0.10353767862E+04  0.10934120384E+04  0.00000000000E+00 0. -1.
          2    1    6    6  502    0  0.10607622415E+02 -0.68497946054E+02 -0.68792160743E+02  0.97656805429E+02  0.00000000000E+00 0. -1.
          1    1    5    5  503    0  0.11896436680E+03  0.32629366373E+02 -0.54214271577E+03  0.55599992840E+03  0.00000000000E+00 0. -1.
         -2    1    5    5    0  503  0.11461013848E+03 -0.43380736852E+02 -0.64916677446E+03  0.66063217696E+03  0.00000000000E+00 0.  1.
         -1    1    6    6    0  502  0.10228654785E+03 -0.48830788720E+03 -0.23178226205E+03  0.55011830325E+03  0.00000000000E+00 0.  1.
<mgrwt>
<rscale>  0 0.37813830E+04</rscale>
<asrwt>0</asrwt>
<pdfrwt beam="1">  1        2 0.31636584E+00 0.37813830E+04</pdfrwt>
<pdfrwt beam="2">  1       -2 0.26743919E+00 0.37813830E+04</pdfrwt>
<totfact> 0.25078190E-01</totfact>
</mgrwt>
</event>
<event>
12    1  0.2404959E-007  0.1397337E+04  0.7818608E-02  0.8955748E-01
          2   -1    0    0  501    0  0.00000000000E+00  0.00000000000E+00  0.31381763816E+04  0.31381763816E+04  0.00000000000E+00 0. -1.
         -2   -1    0    0    0  501 -0.00000000000E+00 -0.00000000000E+00 -0.15554827618E+03  0.15554827618E+03  0.00000000000E+00 0.  1.
         23    2    1    2    0    0  0.17832102194E+03 -0.33837188819E+03  0.11710900938E+04  0.12352941553E+04  0.90585433263E+02 0.  0.
        254    2    1    2    0    0 -0.17832102194E+03  0.33837188819E+03  0.18115380116E+04  0.20584305025E+04  0.89954001826E+03 0.  0.
        -24    2    4    4    0    0 -0.32329847199E+03  0.15920391839E+03  0.18287951528E+03  0.41157780374E+03  0.77997319196E+02 0.  0.
         24    2    4    4    0    0  0.14497745005E+03  0.17916796980E+03  0.16286584963E+04  0.16468526987E+04  0.80471679906E+02 0.  0.
         11    1    3    3    0    0  0.75626332034E+02 -0.12828530059E+03  0.59952369286E+03  0.61774195158E+03  0.00000000000E+00 0. -1.
        -11    1    3    3    0    0  0.10269468990E+03 -0.21008658760E+03  0.57156640099E+03  0.61755220376E+03  0.00000000000E+00 0.  1.
          4    1    6    6  502    0  0.12419751198E+03  0.16745844041E+03  0.15658299010E+04  0.15796488945E+04  0.00000000000E+00 0. -1.
          1    1    5    5  503    0 -0.19529400783E+03  0.10000023338E+03  0.68076567956E+02  0.22972639220E+03  0.00000000000E+00 0. -1.
         -2    1    5    5    0  503 -0.12800446416E+03  0.59203685013E+02  0.11480294733E+03  0.18185141154E+03  0.00000000000E+00 0.  1.
         -3    1    6    6    0  502  0.20779938068E+02  0.11709529386E+02  0.62828595350E+02  0.67203804195E+02  0.00000000000E+00 0.  1.
<mgrwt>
<rscale>  0 0.13973374E+04</rscale>
<asrwt>0</asrwt>
<pdfrwt beam="1">  1        2 0.48279632E+00 0.13973374E+04</pdfrwt>
<pdfrwt beam="2">  1       -2 0.23930506E-01 0.13973374E+04</pdfrwt>
<totfact> 0.21740398E+01</totfact>
</mgrwt>
</event>
<event>
12    1  0.2404959E-007  0.1380916E+04  0.7818608E-02  0.8967749E-01
          1   -1    0    0  501    0  0.00000000000E+00  0.00000000000E+00  0.12208328346E+04  0.12208328346E+04  0.00000000000E+00 0.  1.
         -1   -1    0    0    0  501 -0.00000000000E+00 -0.00000000000E+00 -0.39049764639E+03  0.39049764639E+03  0.00000000000E+00 0. -1.
         23    2    1    2    0    0  0.24367716835E+03  0.44827706805E+02 -0.10928187866E+03  0.28589123796E+03  0.91668889293E+02 0.  0.
        254    2    1    2    0    0 -0.24367716835E+03 -0.44827706805E+02  0.93961706691E+03  0.13254392431E+04  0.90139939482E+03 0.  0.
        -24    2    4    4    0    0 -0.45712337737E+03 -0.16439164399E+03  0.94811046319E+03  0.10682726684E+04  0.79414412619E+02 0.  0.
         24    2    4    4    0    0  0.21344620901E+03  0.11956393719E+03 -0.84933962880E+01  0.25716657465E+03  0.78788895909E+02 0.  0.
         11    1    3    3    0    0  0.23773498887E+02 -0.17104871791E+02 -0.35049652776E+02  0.45675311143E+02  0.00000000000E+00 0. -1.
        -11    1    3    3    0    0  0.21990366947E+03  0.61932578595E+02 -0.74232225884E+02  0.24021592682E+03  0.00000000000E+00 0.  1.
          2    1    6    6  502    0  0.45014668793E+02  0.25336454937E+02  0.30897066430E+02  0.60190406788E+02  0.00000000000E+00 0. -1.
          1    1    5    5  503    0 -0.20352940632E+03 -0.42276914624E+02  0.34640515438E+03  0.40399020747E+03  0.00000000000E+00 0. -1.
         -2    1    5    5    0  503 -0.25359397104E+03 -0.12211472937E+03  0.60170530881E+03  0.66428246095E+03  0.00000000000E+00 0.  1.
         -1    1    6    6    0  502  0.16843154022E+03  0.94227482248E+02 -0.39390462718E+02  0.19697616786E+03  0.00000000000E+00 0.  1.
<mgrwt>
<rscale>  0 0.13809161E+04</rscale>
<asrwt>0</asrwt>
<pdfrwt beam="1">  1        1 0.18782043E+00 0.13809161E+04</pdfrwt>
<pdfrwt beam="2">  1       -1 0.60076561E-01 0.13809161E+04</pdfrwt>
<totfact> 0.28304608E+01</totfact>
</mgrwt>
</event>
<event>
12    1  0.2404959E-007  0.1930865E+04  0.7818608E-02  0.8639643E-01
         -2   -1    0    0    0  501 -0.00000000000E+00  0.00000000000E+00  0.13756016458E+04  0.13756016458E+04  0.00000000000E+00 0.  1.
          2   -1    0    0  501    0  0.00000000000E+00 -0.00000000000E+00 -0.67756559911E+03  0.67756559911E+03  0.00000000000E+00 0. -1.
         23    2    1    2    0    0  0.17655247782E+03  0.69722101071E+03  0.38871212907E+02  0.72605961513E+03  0.91453148293E+02 0.  0.
        254    2    1    2    0    0 -0.17655247782E+03 -0.69722101071E+03  0.65916483377E+03  0.13271076298E+04  0.89968242605E+03 0.  0.
        -24    2    4    4    0    0 -0.44912693292E+03 -0.45431106106E+03  0.70013664792E+03  0.95103567612E+03  0.78511078308E+02 0.  0.
         24    2    4    4    0    0  0.27257445510E+03 -0.24290994965E+03 -0.40971814149E+02  0.37607195366E+03  0.80307830003E+02 0.  0.
         13    1    3    3    0    0  0.10421779001E+03  0.46171741319E+03 -0.16227812037E+02  0.47361129556E+03  0.00000000000E+00 0. -1.
        -13    1    3    3    0    0  0.72334687807E+02  0.23550359752E+03  0.55099024945E+02  0.25244831957E+03  0.00000000000E+00 0.  1.
          4    1    6    6  502    0  0.61678293922E+02 -0.54031685782E+02 -0.43765580651E+02  0.92946549475E+02  0.00000000000E+00 0. -1.
          3    1    5    5  503    0 -0.18745600829E+03 -0.20824317339E+03  0.36159732920E+03  0.45744683056E+03  0.00000000000E+00 0. -1.
         -4    1    5    5    0  503 -0.26167092463E+03 -0.24606788767E+03  0.33853931872E+03  0.49358884556E+03  0.00000000000E+00 0.  1.
         -3    1    6    6    0  502  0.21089616118E+03 -0.18887826387E+03  0.27937665016E+01  0.28312540418E+03  0.00000000000E+00 0.  1.
<mgrwt>
<rscale>  0 0.19308655E+04</rscale>
<asrwt>0</asrwt>
<pdfrwt beam="1">  1        2 0.10424086E+00 0.19308655E+04</pdfrwt>
<pdfrwt beam="2">  1       -2 0.21163102E+00 0.19308655E+04</pdfrwt>
<totfact> 0.44552867E+00</totfact>
</mgrwt>
</event>
<event>
12    1  0.2404959E-007  0.1737135E+04  0.7818608E-02  0.8740464E-01
          1   -1    0    0  501    0  0.00000000000E+00  0.00000000000E+00  0.72949891691E+03  0.72949891691E+03  0.00000000000E+00 0. -1.
         -1   -1    0    0    0  501 -0.00000000000E+00 -0.00000000000E+00 -0.10341479882E+04  0.10341479882E+04  0.00000000000E+00 0.  1.
         23    2    1    2    0    0 -0.44896728566E+03 -0.44372691533E+03 -0.29692859442E+02  0.63543232166E+03  0.66538489038E+02 0.  0.
        254    2    1    2    0    0  0.44896728566E+03  0.44372691533E+03 -0.27495621186E+03  0.11282145835E+04  0.89375725391E+03 0.  0.
        -24    2    4    4    0    0  0.66470601373E+03  0.50510116390E+03 -0.12991972181E+03  0.84924199901E+03  0.85857837829E+02 0.  0.
         24    2    4    4    0    0 -0.21573872806E+03 -0.61374248569E+02 -0.14503649005E+03  0.27897258445E+03  0.80499206554E+02 0.  0.
         11    1    3    3    0    0 -0.25951034178E+03 -0.23305599044E+03 -0.44993610314E+02  0.35168897785E+03  0.00000000000E+00 0.  1.
        -11    1    3    3    0    0 -0.18945694388E+03 -0.21067092490E+03  0.15300750872E+02  0.28374334381E+03  0.00000000000E+00 0. -1.
          4    1    6    6  502    0 -0.22226085982E+03 -0.58709296527E+02 -0.13463054668E+03  0.26640580963E+03  0.00000000000E+00 0. -1.
          1    1    5    5  503    0  0.63746376834E+03  0.48236651755E+03 -0.14169034489E+03  0.81185815697E+03  0.00000000000E+00 0. -1.
         -2    1    5    5    0  503  0.27242245382E+02  0.22734646353E+02  0.11770623082E+02  0.37383842044E+02  0.00000000000E+00 0.  1.
         -3    1    6    6    0  502  0.65221317555E+01 -0.26649520419E+01 -0.10405943362E+02  0.12566774816E+02  0.00000000000E+00 0.  1.
<mgrwt>
<rscale>  0 0.17371354E+04</rscale>
<asrwt>0</asrwt>
<pdfrwt beam="1">  1        1 0.11223060E+00 0.17371354E+04</pdfrwt>
<pdfrwt beam="2">  1       -1 0.15909969E+00 0.17371354E+04</pdfrwt>
<totfact> 0.72018705E+00</totfact>
</mgrwt>
</event>
<event>
12    1  0.2404959E-007  0.1267698E+04  0.7818608E-02  0.9055581E-01
         -3   -1    0    0    0  501 -0.00000000000E+00  0.00000000000E+00  0.11536990734E+04  0.11536990734E+04  0.00000000000E+00 0.  1.
          3   -1    0    0  501    0  0.00000000000E+00 -0.00000000000E+00 -0.34824020071E+03  0.34824020071E+03  0.00000000000E+00 0. -1.
         23    2    1    2    0    0  0.87055032421E+02 -0.14142565617E+03  0.50180199990E+03  0.53596716796E+03  0.88745496380E+02 0.  0.
        254    2    1    2    0    0 -0.87055032421E+02  0.14142565617E+03  0.30365687275E+03  0.96597210611E+03  0.90183968560E+03 0.  0.
        -24    2    4    4    0    0 -0.30300120535E+03  0.14574179195E+03 -0.20907656032E+03  0.40375088124E+03  0.79065578219E+02 0.  0.
         24    2    4    4    0    0  0.21594617293E+03 -0.43161357849E+01  0.51273343307E+03  0.56222122488E+03  0.80905832211E+02 0.  0.
         11    1    3    3    0    0  0.91901723747E+02 -0.12524351341E+03  0.49304816663E+03  0.51694134977E+03  0.00000000000E+00 0.  1.
        -11    1    3    3    0    0 -0.48466913257E+01 -0.16182142752E+02  0.87538332744E+01  0.19025818192E+02  0.00000000000E+00 0. -1.
          4    1    6    6  502    0  0.45125101210E+02 -0.34531870197E+02  0.14026450175E+03  0.15133689329E+03  0.00000000000E+00 0. -1.
          1    1    5    5  503    0 -0.14077935200E+03  0.89425700319E+02 -0.62924556251E+02  0.17825622460E+03  0.00000000000E+00 0. -1.
         -2    1    5    5    0  503 -0.16222185335E+03  0.56316091631E+02 -0.14615200406E+03  0.22549465664E+03  0.00000000000E+00 0.  1.
         -3    1    6    6    0  502  0.17082107172E+03  0.30215734412E+02  0.37246893132E+03  0.41088433159E+03  0.00000000000E+00 0.  1.
<mgrwt>
<rscale>  0 0.12676978E+04</rscale>
<asrwt>0</asrwt>
<pdfrwt beam="1">  1        3 0.53575416E-01 0.12676978E+04</pdfrwt>
<pdfrwt beam="2">  1       -3 0.17749216E+00 0.12676978E+04</pdfrwt>
<totfact> 0.18212849E+00</totfact>
</mgrwt>
</event>
<event>
12    1  0.2404959E-007  0.1244631E+04  0.7818608E-02  0.9074664E-01
         -2   -1    0    0    0  501 -0.00000000000E+00  0.00000000000E+00  0.28307225302E+03  0.28307225302E+03  0.00000000000E+00 0.  1.
          2   -1    0    0  501    0  0.00000000000E+00 -0.00000000000E+00 -0.13681188267E+04  0.13681188267E+04  0.00000000000E+00 0. -1.
         23    2    1    2    0    0  0.50424721709E+02  0.26670622301E+03 -0.38062636006E+03  0.47611076101E+03  0.90167448810E+02 0.  0.
        254    2    1    2    0    0 -0.50424721709E+02 -0.26670622301E+03 -0.70442021362E+03  0.11750803187E+04  0.90051710484E+03 0.  0.
        -24    2    4    4    0    0 -0.35378976108E+03  0.16423836851E+03 -0.22062907787E+03  0.45526566958E+03  0.80300704593E+02 0.  0.
         24    2    4    4    0    0  0.30336503937E+03 -0.43094459152E+03 -0.48379113575E+03  0.71981464914E+03  0.79596972350E+02 0.  0.
         13    1    3    3    0    0  0.34394410208E+02  0.14613267522E+03 -0.28217516439E+03  0.31962565232E+03  0.00000000000E+00 0. -1.
        -13    1    3    3    0    0  0.16030311501E+02  0.12057354779E+03 -0.98451195667E+02  0.15648510869E+03  0.00000000000E+00 0.  1.
          2    1    6    6  502    0  0.10145791726E+03 -0.84871544250E+02 -0.11586922225E+03  0.17584812955E+03  0.00000000000E+00 0. -1.
          1    1    5    5  503    0 -0.49178630510E+02  0.32614329491E+02 -0.67940147730E+02  0.89989420826E+02  0.00000000000E+00 0. -1.
         -2    1    5    5    0  503 -0.30461113057E+03  0.13162403902E+03 -0.15268893014E+03  0.36527624875E+03  0.00000000000E+00 0.  1.
         -1    1    6    6    0  502  0.20190712210E+03 -0.34607304727E+03 -0.36792191349E+03  0.54396651959E+03  0.00000000000E+00 0.  1.
<mgrwt>
<rscale>  0 0.12446308E+04</rscale>
<asrwt>0</asrwt>
<pdfrwt beam="1">  1        2 0.21047982E+00 0.12446308E+04</pdfrwt>
<pdfrwt beam="2">  1       -2 0.43549577E-01 0.12446308E+04</pdfrwt>
<totfact> 0.74213645E+01</totfact>
</mgrwt>
</event>
<event>
12    1  0.2404959E-007  0.1903693E+04  0.7818608E-02  0.8653020E-01
          1   -1    0    0  501    0  0.00000000000E+00  0.00000000000E+00  0.84992110858E+03  0.84992110858E+03  0.00000000000E+00 0. -1.
         -1   -1    0    0    0  501 -0.00000000000E+00 -0.00000000000E+00 -0.10659952169E+04  0.10659952169E+04  0.00000000000E+00 0.  1.
         23    2    1    2    0    0  0.29451023073E+02 -0.72096179783E+03  0.63645285628E+02  0.72923077477E+03  0.84104243714E+02 0.  0.
        254    2    1    2    0    0 -0.29451023073E+02  0.72096179783E+03 -0.27971939399E+03  0.11866855507E+04  0.89962568899E+03 0.  0.
        -24    2    4    4    0    0 -0.22455780858E+03  0.86187642830E+03 -0.26619866709E+03  0.93302341227E+03  0.80086018936E+02 0.  0.
         24    2    4    4    0    0  0.19510678551E+03 -0.14091463048E+03 -0.13520726895E+02  0.25366213847E+03  0.78981514331E+02 0.  0.
         13    1    3    3    0    0  0.87171067131E+01 -0.63723717187E+03  0.34665825161E+02  0.63823892125E+03  0.00000000000E+00 0.  1.
        -13    1    3    3    0    0  0.20733916360E+02 -0.83724625956E+02  0.28979460467E+02  0.90991853526E+02  0.00000000000E+00 0. -1.
          4    1    6    6  502    0  0.13932847792E+03 -0.12215198315E+03  0.19272402645E+02  0.18629266559E+03  0.00000000000E+00 0. -1.
          1    1    5    5  503    0 -0.21773219739E+03  0.85239780216E+03 -0.25305086681E+03  0.91543654292E+03  0.00000000000E+00 0. -1.
         -2    1    5    5    0  503 -0.68256111859E+01  0.94786261401E+01 -0.13147800277E+02  0.17586869355E+02  0.00000000000E+00 0.  1.
         -1    1    6    6    0  502  0.55778307585E+02 -0.18762647320E+02 -0.32793129540E+02  0.67369472883E+02  0.00000000000E+00 0.  1.
<mgrwt>
<rscale>  0 0.19036931E+04</rscale>
<asrwt>0</asrwt>
<pdfrwt beam="1">  1        1 0.13075709E+00 0.19036931E+04</pdfrwt>
<pdfrwt beam="2">  1       -1 0.16399926E+00 0.19036931E+04</pdfrwt>
<totfact> 0.51081779E+00</totfact>
</mgrwt>
</event>
<event>
12    1  0.2404959E-007  0.2014627E+04  0.7818608E-02  0.8599812E-01
          3   -1    0    0  501    0  0.00000000000E+00  0.00000000000E+00  0.31407688536E+03  0.31407688536E+03  0.00000000000E+00 0. -1.
         -3   -1    0    0    0  501 -0.00000000000E+00 -0.00000000000E+00 -0.32306759259E+04  0.32306759259E+04  0.00000000000E+00 0.  1.
         23    2    1    2    0    0  0.65594467018E+03  0.11129374048E+03 -0.19620172121E+04  0.20730562287E+04  0.73490679114E+02 0.  0.
        254    2    1    2    0    0 -0.65594467018E+03 -0.11129374048E+03 -0.95458182845E+03  0.14716965825E+04  0.90111855868E+03 0.  0.
        -24    2    4    4    0    0 -0.51895620298E+03  0.13422672838E+03 -0.77723869234E+02  0.54738126097E+03  0.79075216015E+02 0.  0.
         24    2    4    4    0    0 -0.13698846720E+03 -0.24552046886E+03 -0.87685795922E+03  0.92431532156E+03  0.80204689661E+02 0.  0.
         11    1    3    3    0    0  0.42644920803E+03  0.36626540954E+02 -0.12600459460E+04  0.13307577603E+04  0.00000000000E+00 0. -1.
        -11    1    3    3    0    0  0.22949546215E+03  0.74667199525E+02 -0.70197126607E+03  0.74229846842E+03  0.00000000000E+00 0.  1.
          4    1    6    6  502    0  0.96315444367E+01 -0.31415649790E+02 -0.95869824525E+02  0.10134462469E+03  0.00000000000E+00 0. -1.
          3    1    5    5  503    0 -0.19899428158E+03  0.15565451663E+02 -0.44571301199E+02  0.20451799011E+03  0.00000000000E+00 0. -1.
         -4    1    5    5    0  503 -0.31996192140E+03  0.11866127672E+03 -0.33152568035E+02  0.34286327086E+03  0.00000000000E+00 0.  1.
         -3    1    6    6    0  502 -0.14662001164E+03 -0.21410481907E+03 -0.78098813469E+03  0.82297069686E+03  0.00000000000E+00 0.  1.
<mgrwt>
<rscale>  0 0.20146271E+04</rscale>
<asrwt>0</asrwt>
<pdfrwt beam="1">  1        3 0.48319521E-01 0.20146271E+04</pdfrwt>
<pdfrwt beam="2">  1       -3 0.49702706E+00 0.20146271E+04</pdfrwt>
<totfact> 0.32636702E-02</totfact>
</mgrwt>
</event>
<event>
12    1  0.2404959E-007  0.2462875E+04  0.7818608E-02  0.8416332E-01
         -1   -1    0    0    0  501 -0.00000000000E+00  0.00000000000E+00  0.59161494209E+03  0.59161494209E+03  0.00000000000E+00 0.  1.
          1   -1    0    0  501    0  0.00000000000E+00 -0.00000000000E+00 -0.25632190189E+04  0.25632190189E+04  0.00000000000E+00 0. -1.
         23    2    1    2    0    0  0.10472680174E+04  0.14253469397E+03 -0.10188215265E+04  0.14708456704E+04  0.91122137125E+02 0.  0.
        254    2    1    2    0    0 -0.10472680174E+04 -0.14253469397E+03 -0.95278255032E+03  0.16839882906E+04  0.90051959197E+03 0.  0.
        -24    2    4    4    0    0 -0.63266429662E+03 -0.50711094035E+03 -0.68874490638E+03  0.10667778781E+04  0.78866197705E+02 0.  0.
         24    2    4    4    0    0 -0.41460372080E+03  0.36457624638E+03 -0.26403764394E+03  0.61721041252E+03  0.80129465141E+02 0.  0.
         11    1    3    3    0    0  0.21104777982E+03  0.10761793977E+02 -0.24937950543E+03  0.32687477618E+03  0.00000000000E+00 0. -1.
        -11    1    3    3    0    0  0.83622023760E+03  0.13177289999E+03 -0.76944202106E+03  0.11439708942E+04  0.00000000000E+00 0.  1.
          4    1    6    6  502    0 -0.24088135758E+02  0.16826943483E+01 -0.17754389565E+02  0.29971454643E+02  0.00000000000E+00 0. -1.
          1    1    5    5  503    0 -0.85664145662E+02 -0.10516769056E+03 -0.12372719607E+03  0.18359468412E+03  0.00000000000E+00 0. -1.
         -2    1    5    5    0  503 -0.54700015096E+03 -0.40194324979E+03 -0.56501771032E+03  0.88318319401E+03  0.00000000000E+00 0.  1.
         -3    1    6    6    0  502 -0.39051558504E+03  0.36289355203E+03 -0.24628325437E+03  0.58723895788E+03  0.00000000000E+00 0.  1.
<mgrwt>
<rscale>  0 0.24628753E+04</rscale>
<asrwt>0</asrwt>
<pdfrwt beam="1">  1        1 0.39434139E+00 0.24628753E+04</pdfrwt>
<pdfrwt beam="2">  1       -1 0.91017683E-01 0.24628753E+04</pdfrwt>
<totfact> 0.12852132E+00</totfact>
</mgrwt>
</event>
<event>
12    1  0.2404959E-007  0.1226579E+04  0.7818608E-02  0.9089905E-01
          1   -1    0    0  501    0  0.00000000000E+00  0.00000000000E+00  0.20675056937E+04  0.20675056937E+04  0.00000000000E+00 0. -1.
         -1   -1    0    0    0  501 -0.00000000000E+00 -0.00000000000E+00 -0.18192161932E+03  0.18192161932E+03  0.00000000000E+00 0.  1.
         23    2    1    2    0    0 -0.23690136467E+03 -0.10718548773E+03  0.28997831189E+03  0.39911714537E+03  0.87155544858E+02 0.  0.
        254    2    1    2    0    0  0.23690136467E+03  0.10718548773E+03  0.15956057625E+04  0.18503101677E+04  0.90004387772E+03 0.  0.
        -24    2    4    4    0    0  0.48346650246E+03  0.30292287181E+03  0.75988159015E+03  0.95343867741E+03  0.78250592832E+02 0.  0.
         24    2    4    4    0    0 -0.24656513779E+03 -0.19573738408E+03  0.83572417236E+03  0.89687149024E+03  0.82680632842E+02 0.  0.
         11    1    3    3    0    0 -0.76331179222E+02 -0.79031714247E+02  0.97666111989E+02  0.14700724543E+03  0.00000000000E+00 0.  1.
        -11    1    3    3    0    0 -0.16057018545E+03 -0.28153773478E+02  0.19231219990E+03  0.25210989994E+03  0.00000000000E+00 0. -1.
          2    1    6    6  502    0 -0.30820919071E+02 -0.38739435323E+01  0.14399250262E+03  0.14730504846E+03  0.00000000000E+00 0. -1.
          3    1    5    5  503    0  0.16608776347E+03  0.14241123402E+03  0.25727950340E+03  0.33772599489E+03  0.00000000000E+00 0. -1.
         -4    1    5    5    0  503  0.31737873898E+03  0.16051163779E+03  0.50260208675E+03  0.61571268253E+03  0.00000000000E+00 0.  1.
         -1    1    6    6    0  502 -0.21574421871E+03 -0.19186344055E+03  0.69173166974E+03  0.74956644179E+03  0.00000000000E+00 0.  1.
<mgrwt>
<rscale>  0 0.12265790E+04</rscale>
<asrwt>0</asrwt>
<pdfrwt beam="1">  1        1 0.31807778E+00 0.12265790E+04</pdfrwt>
<pdfrwt beam="2">  1       -1 0.27987943E-01 0.12265790E+04</pdfrwt>
<totfact> 0.30585157E+01</totfact>
</mgrwt>
</event>
<event>
12    1  0.2404959E-007  0.1570288E+04  0.7818608E-02  0.8839012E-01
          1   -1    0    0  501    0  0.00000000000E+00  0.00000000000E+00  0.23047224779E+04  0.23047224779E+04  0.00000000000E+00 0. -1.
         -1   -1    0    0    0  501 -0.00000000000E+00 -0.00000000000E+00 -0.26747304409E+03  0.26747304409E+03  0.00000000000E+00 0.  1.
         23    2    1    2    0    0 -0.62453130220E+02 -0.51585456661E+03  0.60964729812E+03  0.80625658592E+03  0.91506977174E+02 0.  0.
        254    2    1    2    0    0  0.62453130220E+02  0.51585456661E+03  0.14276021357E+04  0.17659389361E+04  0.90027003768E+03 0.  0.
        -24    2    4    4    0    0  0.91448659193E+01  0.21804072220E+03 -0.64527626688E+02  0.24127776681E+03  0.80160844811E+02 0.  0.
         24    2    4    4    0    0  0.53308264301E+02  0.29781384441E+03  0.14921297624E+04  0.15246611693E+04  0.81274819809E+02 0.  0.
         11    1    3    3    0    0  0.10597154768E+02 -0.29034138731E+03  0.34019237533E+03  0.44737151575E+03  0.00000000000E+00 0.  1.
        -11    1    3    3    0    0 -0.73050284988E+02 -0.22551317929E+03  0.26945492279E+03  0.35888507016E+03  0.00000000000E+00 0. -1.
          4    1    6    6  502    0  0.29707380658E+02  0.25944489770E+03  0.13657885729E+04  0.13905296147E+04  0.00000000000E+00 0. -1.
          1    1    5    5  503    0  0.36351918774E+02  0.66339505979E+02 -0.38823466598E+02  0.85027369775E+02  0.00000000000E+00 0. -1.
         -2    1    5    5    0  503 -0.27207052855E+02  0.15170121622E+03 -0.25704160089E+02  0.15625039703E+03  0.00000000000E+00 0.  1.
         -3    1    6    6    0  502  0.23600883643E+02  0.38368946710E+02  0.12634118947E+03  0.13413155459E+03  0.00000000000E+00 0.  1.
<mgrwt>
<rscale>  0 0.15702880E+04</rscale>
<asrwt>0</asrwt>
<pdfrwt beam="1">  1        1 0.35457267E+00 0.15702880E+04</pdfrwt>
<pdfrwt beam="2">  1       -1 0.41149701E-01 0.15702880E+04</pdfrwt>
<totfact> 0.10287704E+01</totfact>
</mgrwt>
</event>
<event>
12    1  0.2404959E-007  0.2334584E+04  0.7818608E-02  0.8464409E-01
          1   -1    0    0  501    0  0.00000000000E+00  0.00000000000E+00  0.23158542596E+04  0.23158542596E+04  0.00000000000E+00 0. -1.
         -1   -1    0    0    0  501 -0.00000000000E+00 -0.00000000000E+00 -0.58836610363E+03  0.58836610363E+03  0.00000000000E+00 0.  1.
         23    2    1    2    0    0  0.56207269720E+03  0.77974489882E+03  0.10087260176E+04  0.13963270174E+04  0.90956785442E+02 0.  0.
        254    2    1    2    0    0 -0.56207269720E+03 -0.77974489882E+03  0.71876213840E+03  0.15078933458E+04  0.91279543525E+03 0.  0.
        -24    2    4    4    0    0 -0.36734306403E+03 -0.67226224975E+03  0.20254450076E+02  0.77046163732E+03  0.79520014466E+02 0.  0.
         24    2    4    4    0    0 -0.19472963317E+03 -0.10748264907E+03  0.69850768832E+03  0.73743170851E+03  0.80127299839E+02 0.  0.
         11    1    3    3    0    0  0.27071026064E+02  0.81379382229E+02  0.90489257396E+02  0.12467457643E+03  0.00000000000E+00 0.  1.
        -11    1    3    3    0    0  0.53500167114E+03  0.69836551659E+03  0.91823676017E+03  0.12716524410E+04  0.00000000000E+00 0. -1.
          4    1    6    6  502    0 -0.20604956119E+02 -0.48282017205E+02  0.15263633625E+03  0.16141117851E+03  0.00000000000E+00 0. -1.
          3    1    5    5  503    0 -0.17063643324E+03 -0.31412158900E+03 -0.30217617060E+02  0.35875098523E+03  0.00000000000E+00 0. -1.
         -4    1    5    5    0  503 -0.19670663080E+03 -0.35814066075E+03  0.50472067136E+02  0.41171065209E+03  0.00000000000E+00 0.  1.
         -3    1    6    6    0  502 -0.17412467705E+03 -0.59200631862E+02  0.54587135207E+03  0.57602053000E+03  0.00000000000E+00 0.  1.
<mgrwt>
<rscale>  0 0.23345836E+04</rscale>
<asrwt>0</asrwt>
<pdfrwt beam="1">  1        1 0.35628527E+00 0.23345836E+04</pdfrwt>
<pdfrwt beam="2">  1       -1 0.90517863E-01 0.23345836E+04</pdfrwt>
<totfact> 0.19506033E+00</totfact>
</mgrwt>
</event>
<event>
12    1  0.2404959E-007  0.3022765E+04  0.7818608E-02  0.8237260E-01
          2   -1    0    0  501    0  0.00000000000E+00  0.00000000000E+00  0.18318300812E+04  0.18318300812E+04  0.00000000000E+00 0. -1.
         -2   -1    0    0    0  501 -0.00000000000E+00 -0.00000000000E+00 -0.12469916265E+04  0.12469916265E+04  0.00000000000E+00 0.  1.
         23    2    1    2    0    0  0.10720489024E+03 -0.11047310177E+04  0.10954080487E+04  0.15620737941E+04  0.90731665927E+02 0.  0.
        254    2    1    2    0    0 -0.10720489024E+03  0.11047310177E+04 -0.51056959401E+03  0.15167479136E+04  0.89884337522E+03 0.  0.
        -24    2    4    4    0    0  0.89107791063E+01  0.11598324755E+04 -0.21137176709E+03  0.11815729805E+04  0.78395862018E+02 0.  0.
         24    2    4    4    0    0 -0.11611566934E+03 -0.55101457789E+02 -0.29919782692E+03  0.33517493310E+03  0.79396957305E+02 0.  0.
         13    1    3    3    0    0  0.35967949877E+02 -0.57234451254E+03  0.50809899321E+03  0.76618308605E+03  0.00000000000E+00 0.  1.
        -13    1    3    3    0    0  0.71236940362E+02 -0.53238650515E+03  0.58730905547E+03  0.79589070805E+03  0.00000000000E+00 0. -1.
          4    1    6    6  502    0 -0.54903707603E+02  0.51052861292E+01 -0.18012144310E+03  0.18837254396E+03  0.00000000000E+00 0. -1.
          1    1    5    5  503    0  0.14505514306E+01  0.28921034046E+03 -0.87436934994E+02  0.30214225578E+03  0.00000000000E+00 0. -1.
         -2    1    5    5    0  503  0.74602276756E+01  0.87062213502E+03 -0.12393483209E+03  0.87943072472E+03  0.00000000000E+00 0.  1.
         -3    1    6    6    0  502 -0.61211961742E+02 -0.60206743918E+02 -0.11907638382E+03  0.14680238914E+03  0.00000000000E+00 0.  1.
<mgrwt>
<rscale>  0 0.30227648E+04</rscale>
<asrwt>0</asrwt>
<pdfrwt beam="1">  1        2 0.28182001E+00 0.30227648E+04</pdfrwt>
<pdfrwt beam="2">  1       -2 0.19184486E+00 0.30227648E+04</pdfrwt>
<totfact> 0.10665330E+00</totfact>
</mgrwt>
</event>
<event>
12    1  0.2404959E-007  0.1838828E+04  0.7818608E-02  0.8685920E-01
          2   -1    0    0  501    0  0.00000000000E+00  0.00000000000E+00  0.11975392439E+04  0.11975392439E+04  0.00000000000E+00 0. -1.
         -2   -1    0    0    0  501 -0.00000000000E+00 -0.00000000000E+00 -0.70588227945E+03  0.70588227945E+03  0.00000000000E+00 0.  1.
         23    2    1    2    0    0 -0.21807081544E+03 -0.65948824435E+03  0.17290696469E+03  0.72182621206E+03  0.93041050081E+02 0.  0.
        254    2    1    2    0    0  0.21807081544E+03  0.65948824435E+03  0.31874999982E+03  0.11815953113E+04  0.90115830596E+03 0.  0.
        -24    2    4    4    0    0 -0.24243090085E+03 -0.52771117234E+02  0.18247763159E+03  0.31877023458E+03  0.82212188399E+02 0.  0.
         24    2    4    4    0    0  0.46050171629E+03  0.71225936159E+03  0.13627236823E+03  0.86282507675E+03  0.80757203186E+02 0.  0.
         13    1    3    3    0    0 -0.59700552667E+02 -0.11379293626E+03  0.62869526300E+02  0.14305791019E+03  0.00000000000E+00 0. -1.
        -13    1    3    3    0    0 -0.15837026277E+03 -0.54569530809E+03  0.11003743839E+03  0.57876830187E+03  0.00000000000E+00 0.  1.
          4    1    6    6  502    0  0.40766766327E+02  0.41440142854E+02 -0.73185962823E+01  0.58589901246E+02  0.00000000000E+00 0. -1.
          1    1    5    5  503    0 -0.49771316027E+01  0.11515748849E+02  0.21138267248E+02  0.24580696751E+02  0.00000000000E+00 0. -1.
         -2    1    5    5    0  503 -0.23745376925E+03 -0.64286866083E+02  0.16133936434E+03  0.29418953783E+03  0.00000000000E+00 0.  1.
         -3    1    6    6    0  502  0.41973494996E+03  0.67081921873E+03  0.14359096451E+03  0.80423517551E+03  0.00000000000E+00 0.  1.
<mgrwt>
<rscale>  0 0.18388276E+04</rscale>
<asrwt>0</asrwt>
<pdfrwt beam="1">  1        2 0.18423681E+00 0.18388276E+04</pdfrwt>
<pdfrwt beam="2">  1       -2 0.10859727E+00 0.18388276E+04</pdfrwt>
<totfact> 0.12124881E+01</totfact>
</mgrwt>
</event>
<event>
12    1  0.2404959E-007  0.3717811E+04  0.7818608E-02  0.8064026E-01
          2   -1    0    0  501    0  0.00000000000E+00  0.00000000000E+00  0.29509056653E+04  0.29509056653E+04  0.00000000000E+00 0. -1.
         -2   -1    0    0    0  501 -0.00000000000E+00 -0.00000000000E+00 -0.11710066476E+04  0.11710066476E+04  0.00000000000E+00 0.  1.
         23    2    1    2    0    0  0.38335355560E+03  0.11823349234E+04  0.22018662630E+04  0.25301764877E+04  0.93285576839E+02 0.  0.
        254    2    1    2    0    0 -0.38335355560E+03 -0.11823349234E+04 -0.42196724536E+03  0.15917358252E+04  0.90038367454E+03 0.  0.
        -24    2    4    4    0    0 -0.16783486027E+03 -0.12576104218E+04 -0.25185827685E+03  0.12959868115E+04  0.79979437686E+02 0.  0.
         24    2    4    4    0    0 -0.21551869533E+03  0.75275498492E+02 -0.17010896851E+03  0.29574901368E+03  0.80098122426E+02 0.  0.
         11    1    3    3    0    0  0.38582561612E+03  0.11308790315E+04  0.21140979971E+04  0.24284067063E+04  0.00000000000E+00 0. -1.
        -11    1    3    3    0    0 -0.24720605244E+01  0.51455891829E+02  0.87768265959E+02  0.10176978135E+03  0.00000000000E+00 0.  1.
          4    1    6    6  502    0 -0.43725455366E+02 -0.16382498659E+02 -0.40802780708E+02  0.62009423661E+02  0.00000000000E+00 0. -1.
          1    1    5    5  503    0  0.33966646805E+01 -0.22180901052E+02  0.39499838778E+01  0.22784470041E+02  0.00000000000E+00 0. -1.
         -4    1    5    5    0  503 -0.17123152495E+03 -0.12354295208E+04 -0.25580826073E+03  0.12732023414E+04  0.00000000000E+00 0.  1.
         -3    1    6    6    0  502 -0.17179323996E+03  0.91657997151E+02 -0.12930618781E+03  0.23373959002E+03  0.00000000000E+00 0.  1.
<mgrwt>
<rscale>  0 0.37178113E+04</rscale>
<asrwt>0</asrwt>
<pdfrwt beam="1">  1        2 0.45398548E+00 0.37178113E+04</pdfrwt>
<pdfrwt beam="2">  1       -2 0.18015487E+00 0.37178113E+04</pdfrwt>
<totfact> 0.27266381E-01</totfact>
</mgrwt>
</event>
<event>
12    1  0.2404959E-007  0.1512850E+04  0.7818608E-02  0.8875953E-01
          1   -1    0    0  501    0  0.00000000000E+00  0.00000000000E+00  0.15468986479E+04  0.15468986479E+04  0.00000000000E+00 0. -1.
         -1   -1    0    0    0  501 -0.00000000000E+00 -0.00000000000E+00 -0.36988753735E+03  0.36988753735E+03  0.00000000000E+00 0.  1.
         23    2    1    2    0    0  0.41086672385E+03  0.15281398141E+03  0.63815488329E+03  0.77967898712E+03  0.92163388663E+02 0.  0.
        254    2    1    2    0    0 -0.41086672385E+03 -0.15281398141E+03  0.53885622730E+03  0.11371071982E+04  0.90026838707E+03 0.  0.
        -24    2    4    4    0    0 -0.35301189719E+03 -0.99177354044E+02  0.78286139995E+03  0.86853634583E+03  0.83844292468E+02 0.  0.
         24    2    4    4    0    0 -0.57854826661E+02 -0.53636627367E+02 -0.24400517265E+03  0.26857085234E+03  0.79797930310E+02 0.  0.
         13    1    3    3    0    0  0.54096066229E+02  0.10282833170E+02  0.14104403922E+03  0.15141182926E+03  0.00000000000E+00 0. -1.
        -13    1    3    3    0    0  0.35677065762E+03  0.14253114824E+03  0.49711084406E+03  0.62826715786E+03  0.00000000000E+00 0.  1.
          2    1    6    6  502    0 -0.38478526416E+02 -0.14533309215E+02 -0.20790306047E+03  0.21193276440E+03  0.00000000000E+00 0. -1.
          1    1    5    5  503    0 -0.17920501713E+03 -0.93657697279E+02  0.41419316730E+03  0.46091450646E+03  0.00000000000E+00 0. -1.
         -2    1    5    5    0  503 -0.17380688006E+03 -0.55196567646E+01  0.36866823265E+03  0.40762183938E+03  0.00000000000E+00 0.  1.
         -1    1    6    6    0  502 -0.19376300245E+02 -0.39103318152E+02 -0.36102112180E+02  0.56638087940E+02  0.00000000000E+00 0.  1.
<mgrwt>
<rscale>  0 0.15128497E+04</rscale>
<asrwt>0</asrwt>
<pdfrwt beam="1">  1        1 0.23798440E+00 0.15128497E+04</pdfrwt>
<pdfrwt beam="2">  1       -1 0.56905776E-01 0.15128497E+04</pdfrwt>
<totfact> 0.18338640E+01</totfact>
</mgrwt>
</event>
<event>
12    1  0.2461589E-007  0.2121928E+04  0.7818608E-02  0.8551645E-01
         -2   -1    0    0    0  501 -0.00000000000E+00  0.00000000000E+00  0.61744899092E+03  0.61744899092E+03  0.00000000000E+00 0.  1.
          2   -1    0    0  501    0  0.00000000000E+00 -0.00000000000E+00 -0.18230573751E+04  0.18230573751E+04  0.00000000000E+00 0. -1.
         23    2    1    2    0    0 -0.59188163070E+03  0.60057640420E+03 -0.26003922533E+03  0.88711326380E+03  0.91288893452E+02 0.  0.
        254    2    1    2    0    0  0.59188163070E+03 -0.60057640420E+03 -0.94556915885E+03  0.15533931022E+04  0.89883992670E+03 0.  0.
        -24    2    4    4    0    0  0.64123437228E+03 -0.41254376667E+03 -0.21962672510E+03  0.79750430495E+03  0.80020862347E+02 0.  0.
         24    2    4    4    0    0 -0.49352741582E+02 -0.18803263752E+03 -0.72594243375E+03  0.75588879728E+03  0.81138713661E+02 0.  0.
         13    1    3    3    0    0 -0.10424365066E+03  0.15760220901E+03 -0.69180067557E+02  0.20122394672E+03  0.00000000000E+00 0. -1.
        -13    1    3    3    0    0 -0.48763798004E+03  0.44297419519E+03 -0.19085915777E+03  0.68588931708E+03  0.00000000000E+00 0.  1.
          2    1    6    6  502    0 -0.44861631522E+02 -0.11621164469E+03 -0.31579541468E+03  0.33947673894E+03  0.00000000000E+00 0. -1.
          3    1    5    5  503    0  0.31328893052E+03 -0.17476714915E+03 -0.13750262336E+03  0.38418808134E+03  0.00000000000E+00 0. -1.
         -4    1    5    5    0  503  0.32794544176E+03 -0.23777661752E+03 -0.82124101739E+02  0.41331622361E+03  0.00000000000E+00 0.  1.
         -1    1    6    6    0  502 -0.44911100603E+01 -0.71820992829E+02 -0.41014701907E+03  0.41641205834E+03  0.00000000000E+00 0.  1.
<mgrwt>
<rscale>  0 0.21219283E+04</rscale>
<asrwt>0</asrwt>
<pdfrwt beam="1">  1        2 0.28047037E+00 0.21219283E+04</pdfrwt>
<pdfrwt beam="2">  1       -2 0.94992152E-01 0.21219283E+04</pdfrwt>
<totfact> 0.71843184E+00</totfact>
</mgrwt>
</event>
<event>
12    1  0.2404959E-007  0.2385131E+04  0.7818608E-02  0.8445091E-01
          2   -1    0    0  501    0  0.00000000000E+00  0.00000000000E+00  0.24291754799E+04  0.24291754799E+04  0.00000000000E+00 0. -1.
         -2   -1    0    0    0  501 -0.00000000000E+00 -0.00000000000E+00 -0.58547134037E+03  0.58547134037E+03  0.00000000000E+00 0.  1.
         23    2    1    2    0    0  0.29796911168E+03  0.97505266502E+03  0.70550320154E+03  0.12431924557E+04  0.90991337141E+02 0.  0.
        254    2    1    2    0    0 -0.29796911168E+03 -0.97505266502E+03  0.11382009380E+04  0.17714543646E+04  0.89612270337E+03 0.  0.
        -24    2    4    4    0    0 -0.34370039007E+03 -0.36332743923E+02  0.56682116773E+03  0.66867259318E+03  0.79917296471E+02 0.  0.
         24    2    4    4    0    0  0.45731278386E+02 -0.93871992109E+03  0.57137977025E+03  0.11027817714E+04  0.79789431560E+02 0.  0.
         13    1    3    3    0    0  0.17918349147E+03  0.72321967054E+03  0.52086111687E+03  0.90909279974E+03  0.00000000000E+00 0.  1.
        -13    1    3    3    0    0  0.11878562022E+03  0.25183299448E+03  0.18464208467E+03  0.33409965596E+03  0.00000000000E+00 0. -1.
          2    1    6    6  502    0  0.32511333495E+02 -0.78288776172E+03  0.50920631035E+03  0.93448451071E+03  0.00000000000E+00 0. -1.
          3    1    5    5  503    0 -0.25978779909E+03 -0.79139618456E+01  0.36323815429E+03  0.44664783452E+03  0.00000000000E+00 0. -1.
         -4    1    5    5    0  503 -0.83912590979E+02 -0.28418782077E+02  0.20358301344E+03  0.22202475867E+03  0.00000000000E+00 0.  1.
         -1    1    6    6    0  502  0.13219944892E+02 -0.15583215938E+03  0.62173459901E+02  0.16829726069E+03  0.00000000000E+00 0.  1.
<mgrwt>
<rscale>  0 0.23851311E+04</rscale>
<asrwt>0</asrwt>
<pdfrwt beam="1">  1        2 0.37371930E+00 0.23851311E+04</pdfrwt>
<pdfrwt beam="2">  1       -2 0.90072515E-01 0.23851311E+04</pdfrwt>
<totfact> 0.36321725E+00</totfact>
</mgrwt>
</event>
<event>
12    1  0.2404959E-007  0.1679432E+04  0.7818608E-02  0.8773183E-01
         -1   -1    0    0    0  501 -0.00000000000E+00  0.00000000000E+00  0.75500486825E+03  0.75500486825E+03  0.00000000000E+00 0.  1.
          1   -1    0    0  501    0  0.00000000000E+00 -0.00000000000E+00 -0.93393155110E+03  0.93393155110E+03  0.00000000000E+00 0. -1.
         23    2    1    2    0    0  0.32183429253E+03  0.84323285673E+02  0.42977176467E+03  0.55057481773E+03  0.87983702202E+02 0.  0.
        254    2    1    2    0    0 -0.32183429253E+03 -0.84323285673E+02 -0.60869844753E+03  0.11383616016E+04  0.90258828248E+03 0.  0.
        -24    2    4    4    0    0  0.27436718828E+03  0.11795945615E+03 -0.30603193694E+03  0.43539402456E+03  0.81979405331E+02 0.  0.
         24    2    4    4    0    0 -0.59620148082E+03 -0.20228274182E+03 -0.30266651059E+03  0.70296757706E+03  0.78624960402E+02 0.  0.
         11    1    3    3    0    0  0.26119755208E+03  0.44635898820E+02  0.28801857015E+03  0.39137095118E+03  0.00000000000E+00 0. -1.
        -11    1    3    3    0    0  0.60636740458E+02  0.39687386853E+02  0.14175319452E+03  0.15920386655E+03  0.00000000000E+00 0.  1.
          4    1    6    6  502    0 -0.27269931429E+03 -0.54467135553E+02 -0.14940485160E+03  0.31567925898E+03  0.00000000000E+00 0. -1.
          3    1    5    5  503    0  0.15070642119E+03  0.20717900415E+02 -0.15935005980E+03  0.22030455815E+03  0.00000000000E+00 0. -1.
         -4    1    5    5    0  503  0.12366076709E+03  0.97241555730E+02 -0.14668187714E+03  0.21508946641E+03  0.00000000000E+00 0.  1.
         -3    1    6    6    0  502 -0.32350216653E+03 -0.14781560627E+03 -0.15326165899E+03  0.38728831808E+03  0.00000000000E+00 0.  1.
<mgrwt>
<rscale>  0 0.16794319E+04</rscale>
<asrwt>0</asrwt>
<pdfrwt beam="1">  1        1 0.14368178E+00 0.16794319E+04</pdfrwt>
<pdfrwt beam="2">  1       -1 0.11615459E+00 0.16794319E+04</pdfrwt>
<totfact> 0.10909503E+01</totfact>
</mgrwt>
</event>
<event>
12    1  0.2674335E-007  0.3772192E+04  0.7818608E-02  0.8052149E-01
         -2   -1    0    0    0  501 -0.00000000000E+00  0.00000000000E+00  0.16312920641E+04  0.16312920641E+04  0.00000000000E+00 0. -1.
          2   -1    0    0  501    0  0.00000000000E+00 -0.00000000000E+00 -0.21806995358E+04  0.21806995358E+04  0.00000000000E+00 0.  1.
         23    2    1    2    0    0  0.10062547712E+04  0.14478736202E+04 -0.48526623063E+03  0.18310021331E+04  0.90547293191E+02 0.  0.
        254    2    1    2    0    0 -0.10062547712E+04 -0.14478736202E+04 -0.64141241049E+02  0.19809894668E+04  0.90073219346E+03 0.  0.
        -24    2    4    4    0    0  0.69990589692E+02 -0.32863697429E+03  0.20752678767E+03  0.40288395645E+03  0.79669136092E+02 0.  0.
         24    2    4    4    0    0 -0.10762453609E+04 -0.11192366459E+04 -0.27166802872E+03  0.15781055104E+04  0.74958240085E+02 0.  0.
         11    1    3    3    0    0  0.41636503884E+03  0.64446819560E+03 -0.17310043048E+03  0.78655124419E+03  0.00000000000E+00 0. -1.
        -11    1    3    3    0    0  0.58988973231E+03  0.80340542457E+03 -0.31216580015E+03  0.10444508889E+04  0.00000000000E+00 0.  1.
          4    1    6    6  502    0 -0.24460192995E+03 -0.21123111182E+03 -0.50919047502E+02  0.32717187553E+03  0.00000000000E+00 0. -1.
          3    1    5    5  503    0 -0.13245392210E+01 -0.29505566611E+02 -0.37672441759E+01  0.29774569583E+02  0.00000000000E+00 0. -1.
         -4    1    5    5    0  503  0.71315128914E+02 -0.29913140768E+03  0.21129403185E+03  0.37310938686E+03  0.00000000000E+00 0.  1.
         -3    1    6    6    0  502 -0.83164343090E+03 -0.90800553406E+03 -0.22074898122E+03  0.12509336348E+04  0.00000000000E+00 0.  1.
<mgrwt>
<rscale>  0 0.37721919E+04</rscale>
<asrwt>0</asrwt>
<pdfrwt beam="1">  1        2 0.33549224E+00 0.37721919E+04</pdfrwt>
<pdfrwt beam="2">  1       -2 0.25096801E+00 0.37721919E+04</pdfrwt>
<totfact> 0.26972127E-01</totfact>
</mgrwt>
</event>
<event>
12    1  0.2404959E-007  0.3271150E+04  0.7818608E-02  0.8170275E-01
          1   -1    0    0  501    0  0.00000000000E+00  0.00000000000E+00  0.23605530604E+04  0.23605530604E+04  0.00000000000E+00 0. -1.
         -1   -1    0    0    0  501 -0.00000000000E+00 -0.00000000000E+00 -0.11332537359E+04  0.11332537359E+04  0.00000000000E+00 0.  1.
         23    2    1    2    0    0  0.26142765541E+03  0.57788221413E+03  0.20315537761E+04  0.21302991933E+04  0.93121615264E+02 0.  0.
        254    2    1    2    0    0 -0.26142765541E+03 -0.57788221413E+03 -0.80425445161E+03  0.13635076031E+04  0.90001971556E+03 0.  0.
        -24    2    4    4    0    0 -0.28980376639E+03 -0.77480037355E+03 -0.79384064285E+03  0.11487278998E+04  0.71351101829E+02 0.  0.
         24    2    4    4    0    0  0.28376110980E+02  0.19691815942E+03 -0.10413808767E+02  0.21477970330E+03  0.80249039575E+02 0.  0.
         11    1    3    3    0    0  0.63479964176E+02  0.23402644498E+03  0.84985098501E+03  0.88376737863E+03  0.00000000000E+00 0. -1.
        -11    1    3    3    0    0  0.19794769123E+03  0.34385576915E+03  0.11817027911E+04  0.12465318147E+04  0.00000000000E+00 0.  1.
          2    1    6    6  502    0 -0.13069512825E+02  0.15510010428E+03 -0.77431539423E+01  0.15584226303E+03  0.00000000000E+00 0. -1.
          1    1    5    5  503    0 -0.99862623891E+02 -0.32391275849E+03 -0.28531195502E+03  0.44305183719E+03  0.00000000000E+00 0. -1.
         -2    1    5    5    0  503 -0.18994114250E+03 -0.45088761506E+03 -0.50852868782E+03  0.70567606263E+03  0.00000000000E+00 0.  1.
         -1    1    6    6    0  502  0.41445623805E+02  0.41818055135E+02 -0.26706548249E+01  0.58937440265E+02  0.00000000000E+00 0.  1.
<mgrwt>
<rscale>  0 0.32711500E+04</rscale>
<asrwt>0</asrwt>
<pdfrwt beam="1">  1        1 0.36316201E+00 0.32711500E+04</pdfrwt>
<pdfrwt beam="2">  1       -1 0.17434673E+00 0.32711500E+04</pdfrwt>
<totfact> 0.32158582E-01</totfact>
</mgrwt>
</event>
<event>
12    1  0.2404959E-007  0.1962231E+04  0.7818608E-02  0.8624485E-01
          2   -1    0    0  501    0  0.00000000000E+00  0.00000000000E+00  0.28794481350E+04  0.28794481350E+04  0.00000000000E+00 0.  1.
         -2   -1    0    0    0  501 -0.00000000000E+00 -0.00000000000E+00 -0.33429599540E+03  0.33429599540E+03  0.00000000000E+00 0. -1.
         23    2    1    2    0    0 -0.37485898164E+02 -0.74370152309E+03  0.13187597274E+04  0.15173559961E+04  0.93513915763E+02 0.  0.
        254    2    1    2    0    0  0.37485898164E+02  0.74370152309E+03  0.12263924122E+04  0.16963881342E+04  0.90509513605E+03 0.  0.
        -24    2    4    4    0    0 -0.28689244070E+03  0.51707788345E+01  0.60840451475E+03  0.67733879612E+03  0.79358564002E+02 0.  0.
         24    2    4    4    0    0  0.32437833887E+03  0.73853074426E+03  0.61798789744E+03  0.10190493381E+04  0.76834531253E+02 0.  0.
         11    1    3    3    0    0 -0.63523587733E+02 -0.39940311489E+03  0.67659814013E+03  0.78825321922E+03  0.00000000000E+00 0. -1.
        -11    1    3    3    0    0  0.26037689569E+02 -0.34429840820E+03  0.64216158726E+03  0.72910277693E+03  0.00000000000E+00 0.  1.
          2    1    6    6  502    0  0.13479063582E+03  0.28279477800E+03  0.28601849102E+03  0.42420275715E+03  0.00000000000E+00 0. -1.
          1    1    5    5  503    0 -0.41119478967E+02 -0.16065277485E+02  0.48986338473E+02  0.65943658135E+02  0.00000000000E+00 0. -1.
         -2    1    5    5    0  503 -0.24577296174E+03  0.21236056319E+02  0.55941817627E+03  0.61139513799E+03  0.00000000000E+00 0.  1.
         -1    1    6    6    0  502  0.18958770305E+03  0.45573596625E+03  0.33196940642E+03  0.59484658096E+03  0.00000000000E+00 0.  1.
<mgrwt>
<rscale>  0 0.19622314E+04</rscale>
<asrwt>0</asrwt>
<pdfrwt beam="1">  1        2 0.44299201E+00 0.19622314E+04</pdfrwt>
<pdfrwt beam="2">  1       -2 0.51430155E-01 0.19622314E+04</pdfrwt>
<totfact> 0.68987654E+00</totfact>
</mgrwt>
</event>
<event>
12    1  0.2404959E-007  0.1504474E+04  0.7818608E-02  0.8881483E-01
          1   -1    0    0  501    0  0.00000000000E+00  0.00000000000E+00  0.73929343621E+03  0.73929343621E+03  0.00000000000E+00 0. -1.
         -1   -1    0    0    0  501 -0.00000000000E+00 -0.00000000000E+00 -0.76540703968E+03  0.76540703968E+03  0.00000000000E+00 0.  1.
         23    2    1    2    0    0  0.47434593806E+02  0.27742146989E+03 -0.39054920455E+03  0.49000885431E+03  0.91472856549E+02 0.  0.
        254    2    1    2    0    0 -0.47434593806E+02 -0.27742146989E+03  0.36443560107E+03  0.10146916216E+04  0.90419747121E+03 0.  0.
        -24    2    4    4    0    0 -0.10166038620E+03  0.31761478167E+03  0.11371772114E+03  0.36112738862E+03  0.79166198946E+02 0.  0.
         24    2    4    4    0    0  0.54225792396E+02 -0.59503625156E+03  0.25071787994E+03  0.65356423296E+03  0.85312215164E+02 0.  0.
         13    1    3    3    0    0  0.59765288626E+02  0.22828693506E+03 -0.36122762936E+03  0.43147678345E+03  0.00000000000E+00 0.  1.
        -13    1    3    3    0    0 -0.12330694820E+02  0.49134534832E+02 -0.29321575187E+02  0.58532070862E+02  0.00000000000E+00 0. -1.
          4    1    6    6  502    0  0.68307953765E+02 -0.30064390778E+03  0.11453322961E+03  0.32889298642E+03  0.00000000000E+00 0. -1.
          1    1    5    5  503    0 -0.24675673674E+02  0.22235157228E+02 -0.50329444139E+01  0.33594964171E+02  0.00000000000E+00 0. -1.
         -2    1    5    5    0  503 -0.76984712528E+02  0.29537962444E+03  0.11875066555E+03  0.32753242445E+03  0.00000000000E+00 0.  1.
         -3    1    6    6    0  502 -0.14082161369E+02 -0.29439234378E+03  0.13618465033E+03  0.32467124654E+03  0.00000000000E+00 0.  1.
<mgrwt>
<rscale>  0 0.15044739E+04</rscale>
<asrwt>0</asrwt>
<pdfrwt beam="1">  1        1 0.11373745E+00 0.15044739E+04</pdfrwt>
<pdfrwt beam="2">  1       -1 0.11775493E+00 0.15044739E+04</pdfrwt>
<totfact> 0.15707672E+01</totfact>
</mgrwt>
</event>
<event>
12    1  0.2404959E-007  0.1360964E+04  0.7818608E-02  0.8982570E-01
          2   -1    0    0  501    0  0.00000000000E+00  0.00000000000E+00  0.10093606622E+04  0.10093606622E+04  0.00000000000E+00 0.  1.
         -2   -1    0    0    0  501 -0.00000000000E+00 -0.00000000000E+00 -0.45876135210E+03  0.45876135210E+03  0.00000000000E+00 0. -1.
         23    2    1    2    0    0 -0.23925205604E+03  0.23557130702E+03  0.33216422754E+03  0.48101651792E+03  0.91150586633E+02 0.  0.
        254    2    1    2    0    0  0.23925205604E+03 -0.23557130702E+03  0.21843508256E+03  0.98710549639E+03  0.90217957675E+03 0.  0.
        -24    2    4    4    0    0  0.46365039746E+03 -0.28732050606E+03 -0.12645562937E+03  0.56526806557E+03  0.77538348523E+02 0.  0.
         24    2    4    4    0    0 -0.22439834142E+03  0.51749199042E+02  0.34489071193E+03  0.42183743081E+03  0.77230949912E+02 0.  0.
         13    1    3    3    0    0 -0.15024708396E+03  0.16638591608E+03  0.16077269729E+03  0.27587373833E+03  0.00000000000E+00 0. -1.
        -13    1    3    3    0    0 -0.89004972083E+02  0.69185390939E+02  0.17139153025E+03  0.20514277959E+03  0.00000000000E+00 0.  1.
          4    1    6    6  502    0 -0.10195977241E+03  0.43668052684E+02  0.22204463988E+03  0.24820659966E+03  0.00000000000E+00 0. -1.
          3    1    5    5  503    0  0.34402771577E+03 -0.24440799202E+03 -0.77425998794E+02  0.42905142008E+03  0.00000000000E+00 0. -1.
         -4    1    5    5    0  503  0.11962268169E+03 -0.42912514039E+02 -0.49029630577E+02  0.13621664550E+03  0.00000000000E+00 0.  1.
         -3    1    6    6    0  502 -0.12243856902E+03  0.80811463580E+01  0.12284607205E+03  0.17363083115E+03  0.00000000000E+00 0.  1.
<mgrwt>
<rscale>  0 0.13609639E+04</rscale>
<asrwt>0</asrwt>
<pdfrwt beam="1">  1        2 0.15528625E+00 0.13609639E+04</pdfrwt>
<pdfrwt beam="2">  1       -2 0.70578670E-01 0.13609639E+04</pdfrwt>
<totfact> 0.44277724E+01</totfact>
</mgrwt>
</event>
<event>
12    1  0.2404959E-007  0.2529045E+04  0.7818608E-02  0.8392710E-01
         -2   -1    0    0    0  501 -0.00000000000E+00  0.00000000000E+00  0.80984100329E+03  0.80984100329E+03  0.00000000000E+00 0. -1.
          2   -1    0    0  501    0  0.00000000000E+00 -0.00000000000E+00 -0.19744833448E+04  0.19744833448E+04  0.00000000000E+00 0.  1.
         23    2    1    2    0    0  0.72665398350E+03 -0.60530069390E+03  0.11631045497E+03  0.95557872302E+03  0.72025219101E+02 0.  0.
        254    2    1    2    0    0 -0.72665398350E+03  0.60530069390E+03 -0.12809527964E+04  0.18287456250E+04  0.89947515396E+03 0.  0.
        -24    2    4    4    0    0 -0.84889605594E+03  0.38588693605E+03 -0.63705039461E+03  0.11325698918E+04  0.85721137199E+02 0.  0.
         24    2    4    4    0    0  0.12224207244E+03  0.21941375785E+03 -0.64390240184E+03  0.69617573323E+03  0.83455539238E+02 0.  0.
         13    1    3    3    0    0  0.36041122311E+02 -0.52752671067E+02  0.38410230354E+01  0.64004376883E+02  0.00000000000E+00 0. -1.
        -13    1    3    3    0    0  0.69061286118E+03 -0.55254802283E+03  0.11246943193E+03  0.89157434614E+03  0.00000000000E+00 0.  1.
          4    1    6    6  502    0  0.74981599072E+02  0.72479944553E+02 -0.18985799929E+03  0.21661404031E+03  0.00000000000E+00 0. -1.
          1    1    5    5  503    0 -0.83611606311E+03  0.37393020174E+03 -0.63591003576E+03  0.11150315871E+04  0.00000000000E+00 0. -1.
         -2    1    5    5    0  503 -0.12779992825E+02  0.11956734311E+02 -0.11403588506E+01  0.17538304658E+02  0.00000000000E+00 0.  1.
         -3    1    6    6    0  502  0.47260473368E+02  0.14693381330E+03 -0.45404440255E+03  0.47956169292E+03  0.00000000000E+00 0.  1.
<mgrwt>
<rscale>  0 0.25290453E+04</rscale>
<asrwt>0</asrwt>
<pdfrwt beam="1">  1        2 0.30376667E+00 0.25290453E+04</pdfrwt>
<pdfrwt beam="2">  1       -2 0.12459092E+00 0.25290453E+04</pdfrwt>
<totfact> 0.29694642E+00</totfact>
</mgrwt>
</event>
<event>
12    1  0.2404959E-007  0.3480617E+04  0.7818608E-02  0.8118399E-01
          1   -1    0    0  501    0  0.00000000000E+00  0.00000000000E+00  0.13197472806E+04  0.13197472806E+04  0.00000000000E+00 0. -1.
         -1   -1    0    0    0  501 -0.00000000000E+00 -0.00000000000E+00 -0.22948895404E+04  0.22948895404E+04  0.00000000000E+00 0.  1.
         23    2    1    2    0    0 -0.12311538613E+04  0.30714449242E+03 -0.15048394994E+04  0.19705869179E+04  0.92700121314E+02 0.  0.
        254    2    1    2    0    0  0.12311538613E+04 -0.30714449242E+03  0.52969723960E+03  0.16440499031E+04  0.90124544323E+03 0.  0.
        -24    2    4    4    0    0  0.35233857979E+03  0.31282792452E+03  0.15278670076E+03  0.50179223711E+03  0.80298743009E+02 0.  0.
         24    2    4    4    0    0  0.87881528147E+03 -0.61997241695E+03  0.37691053884E+03  0.11422576660E+04  0.77517253022E+02 0.  0.
         11    1    3    3    0    0 -0.10468705358E+04  0.26277809531E+03 -0.12259953721E+04  0.16334181640E+04  0.00000000000E+00 0. -1.
        -11    1    3    3    0    0 -0.18428332548E+03  0.44366397115E+02 -0.27884412726E+03  0.33716875382E+03  0.00000000000E+00 0.  1.
          2    1    6    6  502    0  0.71611378073E+03 -0.47993967711E+03  0.27697009985E+03  0.90546865038E+03  0.00000000000E+00 0. -1.
          3    1    5    5  503    0  0.11721850954E+02  0.39215486517E+02  0.16451218462E+02  0.44112342507E+02  0.00000000000E+00 0. -1.
         -4    1    5    5    0  503  0.34061672883E+03  0.27361243801E+03  0.13633548230E+03  0.45767989461E+03  0.00000000000E+00 0.  1.
         -1    1    6    6    0  502  0.16270150075E+03 -0.14003273983E+03  0.99940438994E+02  0.23678901562E+03  0.00000000000E+00 0.  1.
<mgrwt>
<rscale>  0 0.34806173E+04</rscale>
<asrwt>0</asrwt>
<pdfrwt beam="1">  1        1 0.20303805E+00 0.34806173E+04</pdfrwt>
<pdfrwt beam="2">  1       -1 0.35305992E+00 0.34806173E+04</pdfrwt>
<totfact> 0.10604976E-01</totfact>
</mgrwt>
</event>
<event>
12    1  0.2404959E-007  0.1949160E+04  0.7818608E-02  0.8630766E-01
         -3   -1    0    0    0  501 -0.00000000000E+00  0.00000000000E+00  0.20495758454E+04  0.20495758454E+04  0.00000000000E+00 0. -1.
          3   -1    0    0  501    0  0.00000000000E+00 -0.00000000000E+00 -0.46341590156E+03  0.46341590156E+03  0.00000000000E+00 0.  1.
         23    2    1    2    0    0  0.26777530353E+03 -0.67756819022E+03  0.33027649563E+03  0.80521584405E+03  0.92128857407E+02 0.  0.
        254    2    1    2    0    0 -0.26777530353E+03  0.67756819022E+03  0.12558834482E+04  0.17077759029E+04  0.89914016341E+03 0.  0.
        -24    2    4    4    0    0 -0.27925379153E+03 -0.12508762165E+03  0.18766498673E+03  0.36946042965E+03  0.87482962128E+02 0.  0.
         24    2    4    4    0    0  0.11478487999E+02  0.80265581186E+03  0.10682184615E+04  0.13383154732E+04  0.74896705464E+02 0.  0.
         13    1    3    3    0    0  0.13592213344E+03 -0.29294948680E+03  0.10067222856E+03  0.33827374385E+03  0.00000000000E+00 0. -1.
        -13    1    3    3    0    0  0.13185317009E+03 -0.38461870341E+03  0.22960426707E+03  0.46694210019E+03  0.00000000000E+00 0.  1.
          2    1    6    6  502    0  0.41784367303E+02  0.53807456208E+03  0.70051546397E+03  0.88430316237E+03  0.00000000000E+00 0. -1.
          3    1    5    5  503    0 -0.13093882440E+03 -0.11727935422E+02  0.82367638396E+02  0.15513525731E+03  0.00000000000E+00 0. -1.
         -4    1    5    5    0  503 -0.14831496712E+03 -0.11335968622E+03  0.10529734833E+03  0.21432517234E+03  0.00000000000E+00 0.  1.
         -1    1    6    6    0  502 -0.30305879304E+02  0.26458124978E+03  0.36770299748E+03  0.45401231086E+03  0.00000000000E+00 0.  1.
<mgrwt>
<rscale>  0 0.19491599E+04</rscale>
<asrwt>0</asrwt>
<pdfrwt beam="1">  1        3 0.71294755E-01 0.19491599E+04</pdfrwt>
<pdfrwt beam="2">  1       -3 0.31531936E+00 0.19491599E+04</pdfrwt>
<totfact> 0.14294444E-01</totfact>
</mgrwt>
</event>
<event>
12    1  0.2404959E-007  0.1690904E+04  0.7818608E-02  0.8766569E-01
         -2   -1    0    0    0  501 -0.00000000000E+00  0.00000000000E+00  0.57892213354E+03  0.57892213354E+03  0.00000000000E+00 0.  1.
          2   -1    0    0  501    0  0.00000000000E+00 -0.00000000000E+00 -0.12346893838E+04  0.12346893838E+04  0.00000000000E+00 0. -1.
         23    2    1    2    0    0  0.44376486940E+03  0.40398868642E+03 -0.19905650058E+03  0.63952640069E+03  0.96106236472E+02 0.  0.
        254    2    1    2    0    0 -0.44376486940E+03 -0.40398868642E+03 -0.45671074970E+03  0.11740851167E+04  0.89986500889E+03 0.  0.
        -24    2    4    4    0    0  0.20428921834E+03  0.48575897206E+02  0.52231570948E+02  0.23061233524E+03  0.79750922517E+02 0.  0.
         24    2    4    4    0    0 -0.64805408774E+03 -0.45256458363E+03 -0.50894232064E+03  0.94347278142E+03  0.79560043669E+02 0.  0.
         11    1    3    3    0    0  0.32714554156E+03  0.32469836607E+03 -0.11390967257E+03  0.47479326848E+03  0.00000000000E+00 0. -1.
        -11    1    3    3    0    0  0.11661932784E+03  0.79290320357E+02 -0.85146828016E+02  0.16473313222E+03  0.00000000000E+00 0.  1.
          4    1    6    6  502    0 -0.39944734109E+03 -0.23982421796E+03 -0.27214504513E+03  0.53957090305E+03  0.00000000000E+00 0. -1.
          3    1    5    5  503    0  0.17835710254E+03  0.21856965582E+02  0.65244777097E+02  0.19116972540E+03  0.00000000000E+00 0. -1.
         -4    1    5    5    0  503  0.25932115804E+02  0.26718931623E+02 -0.13013206148E+02  0.39442609845E+02  0.00000000000E+00 0.  1.
         -3    1    6    6    0  502 -0.24860674665E+03 -0.21274036567E+03 -0.23679727551E+03  0.40390187838E+03  0.00000000000E+00 0.  1.
<mgrwt>
<rscale>  0 0.16909039E+04</rscale>
<asrwt>0</asrwt>
<pdfrwt beam="1">  1        2 0.18995221E+00 0.16909039E+04</pdfrwt>
<pdfrwt beam="2">  1       -2 0.89064945E-01 0.16909039E+04</pdfrwt>
<totfact> 0.18620687E+01</totfact>
</mgrwt>
</event>
<event>
12    1  0.2404959E-007  0.2033682E+04  0.7818608E-02  0.8591033E-01
         -2   -1    0    0    0  501 -0.00000000000E+00  0.00000000000E+00  0.16929584755E+04  0.16929584755E+04  0.00000000000E+00 0.  1.
          2   -1    0    0  501    0  0.00000000000E+00 -0.00000000000E+00 -0.61074485671E+03  0.61074485671E+03  0.00000000000E+00 0. -1.
         23    2    1    2    0    0 -0.27887560438E+03 -0.74321514290E+03  0.23248318207E+03  0.83218318030E+03  0.91323952342E+02 0.  0.
        254    2    1    2    0    0  0.27887560438E+03  0.74321514290E+03  0.84973043675E+03  0.14715201519E+04  0.90177014313E+03 0.  0.
        -24    2    4    4    0    0  0.55687873655E+03  0.57748595470E+03  0.37098480134E+03  0.88778470782E+03  0.83234665347E+02 0.  0.
         24    2    4    4    0    0 -0.27800313217E+03  0.16572918821E+03  0.47874563542E+03  0.58373544412E+03  0.82448650520E+02 0.  0.
         13    1    3    3    0    0 -0.40735955194E+02 -0.18344293719E+03  0.25615307556E+02  0.18964934282E+03  0.00000000000E+00 0. -1.
        -13    1    3    3    0    0 -0.23813964919E+03 -0.55977220572E+03  0.20686787451E+03  0.64253383749E+03  0.00000000000E+00 0.  1.
          2    1    6    6  502    0 -0.10484400497E+03  0.44754448914E+02  0.23504998624E+03  0.26123499403E+03  0.00000000000E+00 0. -1.
          3    1    5    5  503    0  0.39853421564E+03  0.45943142760E+03  0.26234167879E+03  0.66236690296E+03  0.00000000000E+00 0. -1.
         -4    1    5    5    0  503  0.15834452091E+03  0.11805452709E+03  0.10864312255E+03  0.22541780486E+03  0.00000000000E+00 0.  1.
         -1    1    6    6    0  502 -0.17315912720E+03  0.12097473929E+03  0.24369564918E+03  0.32250045009E+03  0.00000000000E+00 0.  1.
<mgrwt>
<rscale>  0 0.20336821E+04</rscale>
<asrwt>0</asrwt>
<pdfrwt beam="1">  1        2 0.93960748E-01 0.20336821E+04</pdfrwt>
<pdfrwt beam="2">  1       -2 0.26045515E+00 0.20336821E+04</pdfrwt>
<totfact> 0.24930620E+00</totfact>
</mgrwt>
</event>
<event>
12    1  0.2404959E-007  0.3187565E+04  0.7818608E-02  0.8192109E-01
         -2   -1    0    0    0  501 -0.00000000000E+00  0.00000000000E+00  0.15955523811E+04  0.15955523811E+04  0.00000000000E+00 0.  1.
          2   -1    0    0  501    0  0.00000000000E+00 -0.00000000000E+00 -0.15920150104E+04  0.15920150104E+04  0.00000000000E+00 0. -1.
         23    2    1    2    0    0 -0.12995825286E+04 -0.52851001832E+03 -0.42005764079E+03  0.14673499546E+04  0.91814376091E+02 0.  0.
        254    2    1    2    0    0  0.12995825286E+04  0.52851001832E+03  0.42359501147E+03  0.17202174369E+04  0.90082057509E+03 0.  0.
        -24    2    4    4    0    0  0.13045785488E+04  0.24903280455E+03  0.49696974142E+03  0.14202812123E+04  0.79229226036E+02 0.  0.
         24    2    4    4    0    0 -0.49960202276E+01  0.27947721377E+03 -0.73374729952E+02  0.29993622466E+03  0.80283339709E+02 0.  0.
         13    1    3    3    0    0 -0.93173084230E+03 -0.40912124540E+03 -0.33546084774E+03  0.10714646687E+04  0.00000000000E+00 0. -1.
        -13    1    3    3    0    0 -0.36785168627E+03 -0.11938877292E+03 -0.84596793055E+02  0.39588528589E+03  0.00000000000E+00 0.  1.
          4    1    6    6  502    0 -0.37548582523E+02  0.20872401682E+03 -0.63823749568E+02  0.22147027397E+03  0.00000000000E+00 0. -1.
          1    1    5    5  503    0  0.36354774459E+03  0.95336226880E+02  0.16735640708E+03  0.41141721615E+03  0.00000000000E+00 0. -1.
         -2    1    5    5    0  503  0.94103080421E+03  0.15369657767E+03  0.32961333434E+03  0.10088639961E+04  0.00000000000E+00 0.  1.
         -3    1    6    6    0  502  0.32552562296E+02  0.70753196956E+02 -0.95509803845E+01  0.78465950690E+02  0.00000000000E+00 0.  1.
<mgrwt>
<rscale>  0 0.31875654E+04</rscale>
<asrwt>0</asrwt>
<pdfrwt beam="1">  1        2 0.24492539E+00 0.31875654E+04</pdfrwt>
<pdfrwt beam="2">  1       -2 0.24546960E+00 0.31875654E+04</pdfrwt>
<totfact> 0.65087524E-01</totfact>
</mgrwt>
</event>
<event>
12    1  0.2404959E-007  0.2281511E+04  0.7818608E-02  0.8485247E-01
          2   -1    0    0  501    0  0.00000000000E+00  0.00000000000E+00  0.10226588603E+04  0.10226588603E+04  0.00000000000E+00 0. -1.
         -2   -1    0    0    0  501 -0.00000000000E+00 -0.00000000000E+00 -0.12724903729E+04  0.12724903729E+04  0.00000000000E+00 0.  1.
         23    2    1    2    0    0  0.73035713004E+03  0.48333892799E+03  0.29147599612E+03  0.92763788935E+03  0.92280771158E+02 0.  0.
        254    2    1    2    0    0 -0.73035713004E+03 -0.48333892799E+03 -0.54130750871E+03  0.13675113439E+04  0.90001966640E+03 0.  0.
        -24    2    4    4    0    0 -0.72919226796E+03 -0.39394194540E+03 -0.75409032861E+03  0.11232689499E+04  0.78544828592E+02 0.  0.
         24    2    4    4    0    0 -0.11648620856E+01 -0.89396982593E+02  0.21278281990E+03  0.24424239398E+03  0.79903949671E+02 0.  0.
         11    1    3    3    0    0  0.20786860937E+03  0.14928936985E+03  0.12880917303E+03  0.28651086850E+03  0.00000000000E+00 0. -1.
        -11    1    3    3    0    0  0.52248852067E+03  0.33404955815E+03  0.16266682309E+03  0.64112702085E+03  0.00000000000E+00 0.  1.
          2    1    6    6  502    0  0.12113593329E+02 -0.10130426391E+03  0.17864894138E+03  0.20572976762E+03  0.00000000000E+00 0. -1.
          1    1    5    5  503    0 -0.60002048749E+03 -0.35663645015E+03 -0.63708351117E+03  0.94503414922E+03  0.00000000000E+00 0. -1.
         -2    1    5    5    0  503 -0.12917178046E+03 -0.37305495254E+02 -0.11700681743E+03  0.17823480067E+03  0.00000000000E+00 0.  1.
         -1    1    6    6    0  502 -0.13278455414E+02  0.11907281313E+02  0.34133878521E+02  0.38512626363E+02  0.00000000000E+00 0.  1.
<mgrwt>
<rscale>  0 0.22815114E+04</rscale>
<asrwt>0</asrwt>
<pdfrwt beam="1">  1        2 0.15733213E+00 0.22815114E+04</pdfrwt>
<pdfrwt beam="2">  1       -2 0.19576775E+00 0.22815114E+04</pdfrwt>
<totfact> 0.31368029E+00</totfact>
</mgrwt>
</event>
<event>
12    1  0.2404959E-007  0.1229179E+04  0.7818608E-02  0.9087693E-01
         -2   -1    0    0    0  501 -0.00000000000E+00  0.00000000000E+00  0.34336574624E+03  0.34336574624E+03  0.00000000000E+00 0.  1.
          2   -1    0    0  501    0  0.00000000000E+00 -0.00000000000E+00 -0.11000524263E+04  0.11000524263E+04  0.00000000000E+00 0. -1.
         23    2    1    2    0    0 -0.76830902794E+02  0.10814064841E+03  0.10629499654E+03  0.19232734844E+03  0.89965522336E+02 0.  0.
        254    2    1    2    0    0  0.76830902794E+02 -0.10814064841E+03 -0.86298167660E+03  0.12510908241E+04  0.89604324032E+03 0.  0.
        -24    2    4    4    0    0  0.33159941398E+03 -0.15257065483E+03 -0.30526806893E+02  0.37571994974E+03  0.83651770031E+02 0.  0.
         24    2    4    4    0    0 -0.25476851118E+03  0.44430006427E+02 -0.83245486971E+03  0.87537087435E+03  0.80075200870E+02 0.  0.
         11    1    3    3    0    0 -0.59335658762E+02  0.85598927450E+02  0.26338644545E+02  0.10743193649E+03  0.00000000000E+00 0.  1.
        -11    1    3    3    0    0 -0.17495244032E+02  0.22541720956E+02  0.79956351990E+02  0.84895411955E+02  0.00000000000E+00 0. -1.
          2    1    6    6  502    0 -0.17389379291E+03  0.17166399850E+02 -0.43356971806E+03  0.46745741722E+03  0.00000000000E+00 0. -1.
          3    1    5    5  503    0  0.11620392155E+03 -0.56262223518E+02 -0.51157648417E+02  0.13887366262E+03  0.00000000000E+00 0. -1.
         -4    1    5    5    0  503  0.21539549243E+03 -0.96308431315E+02  0.20630841524E+02  0.23684628712E+03  0.00000000000E+00 0.  1.
         -3    1    6    6    0  502 -0.80874718272E+02  0.27263606577E+02 -0.39888515165E+03  0.40791345713E+03  0.00000000000E+00 0.  1.
<mgrwt>
<rscale>  0 0.12291791E+04</rscale>
<asrwt>0</asrwt>
<pdfrwt beam="1">  1        2 0.16923884E+00 0.12291791E+04</pdfrwt>
<pdfrwt beam="2">  1       -2 0.52825498E-01 0.12291791E+04</pdfrwt>
<totfact> 0.72511544E+01</totfact>
</mgrwt>
</event>
<event>
12    1  0.2404959E-007  0.2797366E+04  0.7818608E-02  0.8304087E-01
          1   -1    0    0  501    0  0.00000000000E+00  0.00000000000E+00  0.85752428979E+03  0.85752428979E+03  0.00000000000E+00 0. -1.
         -1   -1    0    0    0  501 -0.00000000000E+00 -0.00000000000E+00 -0.22813508893E+04  0.22813508893E+04  0.00000000000E+00 0.  1.
         23    2    1    2    0    0  0.59600644649E+03  0.10659654553E+04 -0.32656585321E+03  0.12670789728E+04  0.85661139516E+02 0.  0.
        254    2    1    2    0    0 -0.59600644649E+03 -0.10659654553E+04 -0.10972607463E+04  0.18717962063E+04  0.89896265572E+03 0.  0.
        -24    2    4    4    0    0 -0.33069023759E+03 -0.61085527422E+03 -0.55245766356E+02  0.70125327311E+03  0.78764580031E+02 0.  0.
         24    2    4    4    0    0 -0.26531620890E+03 -0.45511018104E+03 -0.10420149800E+04  0.11705429332E+04  0.82810460320E+02 0.  0.
         11    1    3    3    0    0  0.41915377886E+03  0.79746359188E+03 -0.27111890518E+03  0.94082066913E+03  0.00000000000E+00 0. -1.
        -11    1    3    3    0    0  0.17685266762E+03  0.26850186338E+03 -0.55446948025E+02  0.32625830370E+03  0.00000000000E+00 0.  1.
          2    1    6    6  502    0 -0.21578264915E+01  0.29500312400E+01 -0.17185162555E+02  0.17569539309E+02  0.00000000000E+00 0. -1.
          1    1    5    5  503    0 -0.99254410480E+02 -0.25718739359E+03 -0.60939504330E+01  0.27574250607E+03  0.00000000000E+00 0. -1.
         -2    1    5    5    0  503 -0.23143582711E+03 -0.35366788063E+03 -0.49151815923E+02  0.42551076704E+03  0.00000000000E+00 0.  1.
         -1    1    6    6    0  502 -0.26315838241E+03 -0.45806021228E+03 -0.10248298174E+04  0.11529733939E+04  0.00000000000E+00 0.  1.
<mgrwt>
<rscale>  0 0.27973658E+04</rscale>
<asrwt>0</asrwt>
<pdfrwt beam="1">  1        1 0.13192682E+00 0.27973658E+04</pdfrwt>
<pdfrwt beam="2">  1       -1 0.35097706E+00 0.27973658E+04</pdfrwt>
<totfact> 0.26158768E-01</totfact>
</mgrwt>
</event>
<event>
12    1  0.2404959E-007  0.1894861E+04  0.7818608E-02  0.8657419E-01
         -2   -1    0    0    0  501 -0.00000000000E+00  0.00000000000E+00  0.33147467894E+03  0.33147467894E+03  0.00000000000E+00 0.  1.
          2   -1    0    0  501    0  0.00000000000E+00 -0.00000000000E+00 -0.27079736895E+04  0.27079736895E+04  0.00000000000E+00 0. -1.
         23    2    1    2    0    0 -0.39277937960E+03 -0.59993467360E+03 -0.73633822193E+03  0.10327973066E+04  0.10138562932E+03 0.  0.
        254    2    1    2    0    0  0.39277937960E+03  0.59993467360E+03 -0.16401607886E+04  0.20066510618E+04  0.90682071975E+03 0.  0.
        -24    2    4    4    0    0  0.62736167940E+03  0.61998885109E+03 -0.14247981798E+04  0.16776915433E+04  0.81426095507E+02 0.  0.
         24    2    4    4    0    0 -0.23458229980E+03 -0.20054177497E+02 -0.21536260884E+03  0.32895951855E+03  0.80014287117E+02 0.  0.
         11    1    3    3    0    0 -0.14092023291E+03 -0.19224180101E+03 -0.31260800817E+03  0.39311472737E+03  0.00000000000E+00 0. -1.
        -11    1    3    3    0    0 -0.25185914669E+03 -0.40769287259E+03 -0.42373021376E+03  0.63968257923E+03  0.00000000000E+00 0.  1.
          2    1    6    6  502    0 -0.14274968982E+03 -0.50979243096E+02 -0.12517724112E+03  0.19658509319E+03  0.00000000000E+00 0. -1.
          3    1    5    5  503    0  0.14791814577E+03  0.17398891183E+03 -0.42664853671E+03  0.48392240407E+03  0.00000000000E+00 0. -1.
         -4    1    5    5    0  503  0.47944353362E+03  0.44599993926E+03 -0.99814964308E+03  0.11937691392E+04  0.00000000000E+00 0.  1.
         -1    1    6    6    0  502 -0.91832609981E+02  0.30925065600E+02 -0.90185367720E+02  0.13237442536E+03  0.00000000000E+00 0.  1.
<mgrwt>
<rscale>  0 0.18948612E+04</rscale>
<asrwt>0</asrwt>
<pdfrwt beam="1">  1        2 0.41661136E+00 0.18948612E+04</pdfrwt>
<pdfrwt beam="2">  1       -2 0.50996102E-01 0.18948612E+04</pdfrwt>
<totfact> 0.89588038E+00</totfact>
</mgrwt>
</event>
<event>
12    1  0.2404959E-007  0.4227748E+04  0.7818608E-02  0.7960115E-01
         -1   -1    0    0    0  501 -0.00000000000E+00  0.00000000000E+00  0.11562581614E+04  0.11562581614E+04  0.00000000000E+00 0.  1.
          1   -1    0    0  501    0  0.00000000000E+00 -0.00000000000E+00 -0.38645895714E+04  0.38645895714E+04  0.00000000000E+00 0. -1.
         23    2    1    2    0    0 -0.24550101587E+03  0.19694405965E+04 -0.17211084057E+04  0.26286179646E+04  0.91930667226E+02 0.  0.
        254    2    1    2    0    0  0.24550101587E+03 -0.19694405965E+04 -0.98722300434E+03  0.23922297682E+04  0.89954821538E+03 0.  0.
        -24    2    4    4    0    0  0.25693219613E+03 -0.17397409075E+03 -0.37548035106E+03  0.49371655009E+03  0.80556813110E+02 0.  0.
         24    2    4    4    0    0 -0.11431180262E+02 -0.17954665057E+04 -0.61174265328E+03  0.18985132181E+04  0.79326669581E+02 0.  0.
         13    1    3    3    0    0 -0.10577626854E+03  0.12093987595E+04 -0.10463747469E+04  0.16027270789E+04  0.00000000000E+00 0.  1.
        -13    1    3    3    0    0 -0.13972474733E+03  0.76004183698E+03 -0.67473365885E+03  0.10258908857E+04  0.00000000000E+00 0. -1.
          2    1    6    6  502    0 -0.62777750185E+01 -0.29810248651E+03 -0.13283746989E+03  0.32642042878E+03  0.00000000000E+00 0. -1.
          3    1    5    5  503    0  0.11299033907E+02 -0.31425551107E+02 -0.64078960691E+02  0.72258886186E+02  0.00000000000E+00 0. -1.
         -4    1    5    5    0  503  0.24563316222E+03 -0.14254853965E+03 -0.31140139037E+03  0.42145766390E+03  0.00000000000E+00 0.  1.
         -1    1    6    6    0  502 -0.51534052437E+01 -0.14973640192E+04 -0.47890518339E+03  0.15720927893E+04  0.00000000000E+00 0.  1.
<mgrwt>
<rscale>  0 0.42277480E+04</rscale>
<asrwt>0</asrwt>
<pdfrwt beam="1">  1        1 0.59455224E+00 0.42277480E+04</pdfrwt>
<pdfrwt beam="2">  1       -1 0.17788587E+00 0.42277480E+04</pdfrwt>
<totfact> 0.20755132E-02</totfact>
</mgrwt>
</event>
<event>
12    1  0.2404959E-007  0.1473698E+04  0.7818608E-02  0.8902134E-01
         -2   -1    0    0    0  501 -0.00000000000E+00  0.00000000000E+00  0.41904189680E+03  0.41904189680E+03  0.00000000000E+00 0.  1.
          2   -1    0    0  501    0  0.00000000000E+00 -0.00000000000E+00 -0.12956855488E+04  0.12956855488E+04  0.00000000000E+00 0. -1.
         23    2    1    2    0    0  0.30574895298E+03  0.32456224695E+03 -0.38771684771E+03  0.59800042065E+03  0.91962354848E+02 0.  0.
        254    2    1    2    0    0 -0.30574895298E+03 -0.32456224695E+03 -0.48892680427E+03  0.11167270249E+04  0.89955919978E+03 0.  0.
        -24    2    4    4    0    0 -0.13319605117E+01  0.87650422755E+02 -0.57715042692E+03  0.58914891119E+03  0.79432068744E+02 0.  0.
         24    2    4    4    0    0 -0.30441699247E+03 -0.41221266970E+03  0.88223622641E+02  0.52757811375E+03  0.89253953125E+02 0.  0.
         13    1    3    3    0    0  0.91671887038E+02  0.12634480386E+03 -0.18839364155E+03  0.24466080298E+03  0.00000000000E+00 0. -1.
        -13    1    3    3    0    0  0.21407706594E+03  0.19821744308E+03 -0.19932320616E+03  0.35333961768E+03  0.00000000000E+00 0.  1.
          4    1    6    6  502    0 -0.13557693262E+03 -0.17292383685E+03  0.82352344036E+02  0.23466074784E+03  0.00000000000E+00 0. -1.
          3    1    5    5  503    0 -0.24515229513E+01  0.73163741834E+02 -0.56630705459E+03  0.57101893415E+03  0.00000000000E+00 0. -1.
         -4    1    5    5    0  503  0.11195624396E+01  0.14486680921E+02 -0.10843372330E+02  0.18129977045E+02  0.00000000000E+00 0.  1.
         -3    1    6    6    0  502 -0.16884005984E+03 -0.23928883285E+03  0.58712786051E+01  0.29291736590E+03  0.00000000000E+00 0.  1.
<mgrwt>
<rscale>  0 0.14736981E+04</rscale>
<asrwt>0</asrwt>
<pdfrwt beam="1">  1        2 0.19933623E+00 0.14736981E+04</pdfrwt>
<pdfrwt beam="2">  1       -2 0.64467985E-01 0.14736981E+04</pdfrwt>
<totfact> 0.35768183E+01</totfact>
</mgrwt>
</event>
<event>
12    1  0.2404959E-007  0.1484138E+04  0.7818608E-02  0.8895070E-01
          2   -1    0    0  501    0  0.00000000000E+00  0.00000000000E+00  0.93681720175E+03  0.93681720175E+03  0.00000000000E+00 0. -1.
         -2   -1    0    0    0  501 -0.00000000000E+00 -0.00000000000E+00 -0.58780551289E+03  0.58780551289E+03  0.00000000000E+00 0.  1.
         23    2    1    2    0    0 -0.26040498173E+03 -0.37378764162E+03  0.29982764367E+02  0.46565961929E+03  0.91716734230E+02 0.  0.
        254    2    1    2    0    0  0.26040498173E+03  0.37378764162E+03  0.31902892450E+03  0.10589630953E+04  0.90116337426E+03 0.  0.
        -24    2    4    4    0    0 -0.82852511303E+02  0.53764819054E+03 -0.97084887198E+01  0.54977066157E+03  0.78888593318E+02 0.  0.
         24    2    4    4    0    0  0.34325749303E+03 -0.16386054892E+03  0.32873741322E+03  0.50919243378E+03  0.80824883248E+02 0.  0.
         13    1    3    3    0    0  0.11991975568E+01 -0.83085781852E+00  0.95313206221E+01  0.96423271203E+01  0.00000000000E+00 0. -1.
        -13    1    3    3    0    0 -0.26160417928E+03 -0.37295678380E+03  0.20451443745E+02  0.45601729217E+03  0.00000000000E+00 0.  1.
          2    1    6    6  502    0  0.69186195816E+02 -0.70266172566E+02  0.96413948999E+02  0.13791198012E+03  0.00000000000E+00 0. -1.
          1    1    5    5  503    0 -0.39736871700E+02  0.39497664000E+03 -0.35333294081E+02  0.39853984341E+03  0.00000000000E+00 0. -1.
         -2    1    5    5    0  503 -0.43115639603E+02  0.14267155054E+03  0.25624805361E+02  0.15123081816E+03  0.00000000000E+00 0.  1.
         -1    1    6    6    0  502  0.27407129722E+03 -0.93594376353E+02  0.23232346422E+03  0.37128045366E+03  0.00000000000E+00 0.  1.
<mgrwt>
<rscale>  0 0.14841379E+04</rscale>
<asrwt>0</asrwt>
<pdfrwt beam="1">  1        2 0.14412572E+00 0.14841379E+04</pdfrwt>
<pdfrwt beam="2">  1       -2 0.90431618E-01 0.14841379E+04</pdfrwt>
<totfact> 0.28014236E+01</totfact>
</mgrwt>
</event>
<event>
12    1  0.2404959E-007  0.2331590E+04  0.7818608E-02  0.8465569E-01
          2   -1    0    0  501    0  0.00000000000E+00  0.00000000000E+00  0.29344039174E+04  0.29344039174E+04  0.00000000000E+00 0. -1.
         -2   -1    0    0    0  501 -0.00000000000E+00 -0.00000000000E+00 -0.46315305766E+03  0.46315305766E+03  0.00000000000E+00 0.  1.
         23    2    1    2    0    0  0.45177869223E+03  0.55048191340E+03  0.20548409239E+04  0.21767983911E+04  0.94581653790E+02 0.  0.
        254    2    1    2    0    0 -0.45177869223E+03 -0.55048191340E+03  0.41640993581E+03  0.12207585839E+04  0.89984440981E+03 0.  0.
        -24    2    4    4    0    0 -0.51758300058E+03 -0.56132151860E+03  0.62335198418E+03  0.98868109465E+03  0.77127174268E+02 0.  0.
         24    2    4    4    0    0  0.65804308348E+02  0.10839605203E+02 -0.20694204838E+03  0.23207748927E+03  0.81161848206E+02 0.  0.
         11    1    3    3    0    0  0.35476722078E+03  0.38701146798E+03  0.15962200857E+04  0.16803440776E+04  0.00000000000E+00 0. -1.
        -11    1    3    3    0    0  0.97011471457E+02  0.16347044541E+03  0.45862083824E+03  0.49645431349E+03  0.00000000000E+00 0.  1.
          4    1    6    6  502    0  0.63893516822E+02 -0.16353274576E+02 -0.18703457499E+03  0.19832232179E+03  0.00000000000E+00 0. -1.
          1    1    5    5  503    0 -0.81160117258E+02 -0.53012323059E+02  0.67053461768E+02  0.11787042786E+03  0.00000000000E+00 0. -1.
         -2    1    5    5    0  503 -0.43642288332E+03 -0.50830919554E+03  0.55629852241E+03  0.87081066679E+03  0.00000000000E+00 0.  1.
         -3    1    6    6    0  502  0.19107915260E+01  0.27192879779E+02 -0.19907473387E+02  0.33755167480E+02  0.00000000000E+00 0.  1.
<mgrwt>
<rscale>  0 0.23315901E+04</rscale>
<asrwt>0</asrwt>
<pdfrwt beam="1">  1        2 0.45144674E+00 0.23315901E+04</pdfrwt>
<pdfrwt beam="2">  1       -2 0.71254318E-01 0.23315901E+04</pdfrwt>
<totfact> 0.30948406E+00</totfact>
</mgrwt>
</event>
<event>
12    1  0.2404959E-007  0.1753497E+04  0.7818608E-02  0.8731428E-01
         -2   -1    0    0    0  501 -0.00000000000E+00  0.00000000000E+00  0.32729065929E+03  0.32729065929E+03  0.00000000000E+00 0.  1.
          2   -1    0    0  501    0  0.00000000000E+00 -0.00000000000E+00 -0.23486393854E+04  0.23486393854E+04  0.00000000000E+00 0. -1.
         23    2    1    2    0    0 -0.14847891778E+03 -0.39127247901E+03 -0.14933399717E+04  0.15535739048E+04  0.91583102938E+02 0.  0.
        254    2    1    2    0    0  0.14847891778E+03  0.39127247901E+03 -0.52800875443E+03  0.11223561399E+04  0.89763573802E+03 0.  0.
        -24    2    4    4    0    0  0.11477507133E+03  0.36105654366E+03 -0.77097369652E+03  0.86270668643E+03  0.79543958699E+02 0.  0.
         24    2    4    4    0    0  0.33703846449E+02  0.30215935345E+02  0.24296494209E+03  0.25964945348E+03  0.79604796296E+02 0.  0.
         11    1    3    3    0    0 -0.32964015817E+02 -0.36296597201E+02 -0.27467085893E+03  0.27901281342E+03  0.00000000000E+00 0. -1.
        -11    1    3    3    0    0 -0.11551490197E+03 -0.35497588180E+03 -0.12186691127E+04  0.12745610914E+04  0.00000000000E+00 0.  1.
          4    1    6    6  502    0  0.41541079566E+02  0.25568605503E+02  0.64084876935E+02  0.80537484010E+02  0.00000000000E+00 0. -1.
          1    1    5    5  503    0  0.34627845515E+02  0.19642624215E+03 -0.46754919170E+03  0.50831545614E+03  0.00000000000E+00 0. -1.
         -2    1    5    5    0  503  0.80147225820E+02  0.16463030151E+03 -0.30342450481E+03  0.35439123029E+03  0.00000000000E+00 0.  1.
         -3    1    6    6    0  502 -0.78372331177E+01  0.46473298423E+01  0.17888006515E+03  0.17911196947E+03  0.00000000000E+00 0.  1.
<mgrwt>
<rscale>  0 0.17534968E+04</rscale>
<asrwt>0</asrwt>
<pdfrwt beam="1">  1        2 0.36132913E+00 0.17534968E+04</pdfrwt>
<pdfrwt beam="2">  1       -2 0.50352410E-01 0.17534968E+04</pdfrwt>
<totfact> 0.15047625E+01</totfact>
</mgrwt>
</event>
<event>
12    1  0.2404959E-007  0.1927024E+04  0.7818608E-02  0.8641521E-01
          1   -1    0    0  501    0  0.00000000000E+00  0.00000000000E+00  0.16009488856E+04  0.16009488856E+04  0.00000000000E+00 0. -1.
         -1   -1    0    0    0  501 -0.00000000000E+00 -0.00000000000E+00 -0.57987793036E+03  0.57987793036E+03  0.00000000000E+00 0.  1.
         23    2    1    2    0    0 -0.56215786564E+03 -0.49268734665E+03  0.34918289158E+03  0.83160795680E+03  0.10431114317E+03 0.  0.
        254    2    1    2    0    0  0.56215786564E+03  0.49268734665E+03  0.67188806365E+03  0.13492188591E+04  0.90010870029E+03 0.  0.
        -24    2    4    4    0    0  0.65527440095E+03  0.44944353150E+03  0.15154007585E+03  0.81282664500E+03  0.79616152142E+02 0.  0.
         24    2    4    4    0    0 -0.93116535314E+02  0.43243815150E+02  0.52034798780E+03  0.53639221414E+03  0.80086592413E+02 0.  0.
         13    1    3    3    0    0 -0.35379597182E+03 -0.25303522848E+03  0.23309507590E+03  0.49348934227E+03  0.00000000000E+00 0. -1.
        -13    1    3    3    0    0 -0.20836189382E+03 -0.23965211817E+03  0.11608781568E+03  0.33811861453E+03  0.00000000000E+00 0.  1.
          4    1    6    6  502    0 -0.10778045955E+03  0.40990265375E+02  0.45558597734E+03  0.46995256364E+03  0.00000000000E+00 0. -1.
          3    1    5    5  503    0  0.55361754263E+03  0.39319646396E+03  0.15534923990E+03  0.69658397133E+03  0.00000000000E+00 0. -1.
         -4    1    5    5    0  503  0.10165685833E+03  0.56247067543E+02 -0.38091640480E+01  0.11624267367E+03  0.00000000000E+00 0.  1.
         -3    1    6    6    0  502  0.14663924237E+02  0.22535497742E+01  0.64762010452E+02  0.66439650499E+02  0.00000000000E+00 0.  1.
<mgrwt>
<rscale>  0 0.19270235E+04</rscale>
<asrwt>0</asrwt>
<pdfrwt beam="1">  1        1 0.24629983E+00 0.19270235E+04</pdfrwt>
<pdfrwt beam="2">  1       -1 0.89211990E-01 0.19270235E+04</pdfrwt>
<totfact> 0.64052053E+00</totfact>
</mgrwt>
</event>
<event>
12    1  0.2404959E-007  0.1196114E+04  0.7818608E-02  0.9116264E-01
          1   -1    0    0  501    0  0.00000000000E+00  0.00000000000E+00  0.77310379253E+03  0.77310379253E+03  0.00000000000E+00 0. -1.
         -1   -1    0    0    0  501 -0.00000000000E+00 -0.00000000000E+00 -0.46264473637E+03  0.46264473637E+03  0.00000000000E+00 0.  1.
         23    2    1    2    0    0  0.86903272585E+02  0.16459993087E+03 -0.10131897566E+03  0.22933645102E+03  0.87660463783E+02 0.  0.
        254    2    1    2    0    0 -0.86903272585E+02 -0.16459993087E+03  0.41177803182E+03  0.10064120779E+04  0.89925458408E+03 0.  0.
        -24    2    4    4    0    0 -0.41949723194E+03 -0.63959279910E+02 -0.35928775434E+02  0.43331066872E+03  0.79990884662E+02 0.  0.
         24    2    4    4    0    0  0.33259395935E+03 -0.10064065096E+03  0.44770680725E+03  0.57310140917E+03  0.85185430153E+02 0.  0.
         13    1    3    3    0    0  0.94089860352E+02  0.89241060877E+02 -0.70480468533E+02  0.14759527503E+03  0.00000000000E+00 0. -1.
        -13    1    3    3    0    0 -0.71865877670E+01  0.75358869993E+02 -0.30838507125E+02  0.81741175989E+02  0.00000000000E+00 0.  1.
          4    1    6    6  502    0  0.30425246400E+03 -0.86577337235E+02  0.35674194692E+03  0.47679137352E+03  0.00000000000E+00 0. -1.
          3    1    5    5  503    0 -0.39309686625E+03 -0.48638386733E+02 -0.50831893074E+02  0.39934286055E+03  0.00000000000E+00 0. -1.
         -4    1    5    5    0  503 -0.26400365688E+02 -0.15320893176E+02  0.14903117640E+02  0.33967808165E+02  0.00000000000E+00 0.  1.
         -3    1    6    6    0  502  0.28341495356E+02 -0.14063313726E+02  0.90964860330E+02  0.96310035649E+02  0.00000000000E+00 0.  1.
<mgrwt>
<rscale>  0 0.11961144E+04</rscale>
<asrwt>0</asrwt>
<pdfrwt beam="1">  1        1 0.11893904E+00 0.11961144E+04</pdfrwt>
<pdfrwt beam="2">  1       -1 0.71176113E-01 0.11961144E+04</pdfrwt>
<totfact> 0.46100501E+01</totfact>
</mgrwt>
</event>
<event>
12    1  0.2404959E-007  0.2669210E+04  0.7818608E-02  0.8345065E-01
         -2   -1    0    0    0  501 -0.00000000000E+00  0.00000000000E+00  0.15774886019E+04  0.15774886019E+04  0.00000000000E+00 0.  1.
          2   -1    0    0  501    0  0.00000000000E+00 -0.00000000000E+00 -0.11291177803E+04  0.11291177803E+04  0.00000000000E+00 0. -1.
         23    2    1    2    0    0  0.10248611922E+04 -0.38438309639E+02 -0.39485150166E+03  0.11028126558E+04  0.92033029891E+02 0.  0.
        254    2    1    2    0    0 -0.10248611922E+04  0.38438309639E+02  0.84322232331E+03  0.16037937263E+04  0.89961795402E+03 0.  0.
        -24    2    4    4    0    0 -0.15077583872E+03  0.38275612308E+03  0.21623424762E+03  0.47155218909E+03  0.79803595796E+02 0.  0.
         24    2    4    4    0    0 -0.87408535347E+03 -0.34431781344E+03  0.62698807569E+03  0.11322415372E+04  0.79226824937E+02 0.  0.
         11    1    3    3    0    0  0.99056264007E+03 -0.47523719901E+02 -0.36601277606E+03  0.10570894948E+04  0.00000000000E+00 0. -1.
        -11    1    3    3    0    0  0.34298552123E+02  0.90854102615E+01 -0.28838725595E+02  0.45723160994E+02  0.00000000000E+00 0.  1.
          2    1    6    6  502    0 -0.59521612733E+03 -0.26707300377E+03  0.40960485163E+03  0.77031575478E+03  0.00000000000E+00 0. -1.
          3    1    5    5  503    0 -0.14139043215E+03  0.36993316019E+03  0.22274945682E+03  0.45437772593E+03  0.00000000000E+00 0. -1.
         -4    1    5    5    0  503 -0.93854065734E+01  0.12822962890E+02 -0.65152092080E+01  0.17174463161E+02  0.00000000000E+00 0.  1.
         -1    1    6    6    0  502 -0.27886922614E+03 -0.77244809668E+02  0.21738322407E+03  0.36192578247E+03  0.00000000000E+00 0.  1.
<mgrwt>
<rscale>  0 0.26692099E+04</rscale>
<asrwt>0</asrwt>
<pdfrwt beam="1">  1        2 0.17371043E+00 0.26692099E+04</pdfrwt>
<pdfrwt beam="2">  1       -2 0.24269055E+00 0.26692099E+04</pdfrwt>
<totfact> 0.13107640E+00</totfact>
</mgrwt>
</event>
<event>
12    1  0.2404959E-007  0.2371738E+04  0.7818608E-02  0.8450161E-01
          2   -1    0    0  501    0  0.00000000000E+00  0.00000000000E+00  0.22196665287E+04  0.22196665287E+04  0.00000000000E+00 0. -1.
         -2   -1    0    0    0  501 -0.00000000000E+00 -0.00000000000E+00 -0.63355690001E+03  0.63355690001E+03  0.00000000000E+00 0.  1.
         23    2    1    2    0    0  0.84732056216E+03  0.27680252904E+03  0.12591228516E+04  0.15453590711E+04  0.90402035869E+02 0.  0.
        254    2    1    2    0    0 -0.84732056216E+03 -0.27680252904E+03  0.32698677709E+03  0.13078643576E+04  0.89945375108E+03 0.  0.
        -24    2    4    4    0    0  0.70919605048E+02 -0.28711158151E+03 -0.53035502986E+02  0.31072218017E+03  0.79201376620E+02 0.  0.
         24    2    4    4    0    0 -0.91824016721E+03  0.10309052472E+02  0.38002228007E+03  0.99714217742E+03  0.81266889921E+02 0.  0.
         11    1    3    3    0    0  0.41954686290E+03  0.14347358614E+03  0.70354584546E+03  0.83161349000E+03  0.00000000000E+00 0. -1.
        -11    1    3    3    0    0  0.42777369926E+03  0.13332894289E+03  0.55557700609E+03  0.71374558107E+03  0.00000000000E+00 0.  1.
          4    1    6    6  502    0 -0.33131186369E+03 -0.17175705543E+02  0.17309387933E+03  0.37419787138E+03  0.00000000000E+00 0. -1.
          3    1    5    5  503    0  0.30654343138E+02 -0.16775545730E+03 -0.68570492098E+02  0.18380286884E+03  0.00000000000E+00 0. -1.
         -4    1    5    5    0  503  0.40265261911E+02 -0.11935612421E+03  0.15534989112E+02  0.12691931134E+03  0.00000000000E+00 0.  1.
         -3    1    6    6    0  502 -0.58692830352E+03  0.27484758015E+02  0.20692840074E+03  0.62294430604E+03  0.00000000000E+00 0.  1.
<mgrwt>
<rscale>  0 0.23717378E+04</rscale>
<asrwt>0</asrwt>
<pdfrwt beam="1">  1        2 0.34148715E+00 0.23717378E+04</pdfrwt>
<pdfrwt beam="2">  1       -2 0.97470293E-01 0.23717378E+04</pdfrwt>
<totfact> 0.39808031E+00</totfact>
</mgrwt>
</event>
<event>
12    1  0.2404959E-007  0.2100491E+04  0.7818608E-02  0.8561027E-01
          2   -1    0    0  501    0  0.00000000000E+00  0.00000000000E+00  0.12928261500E+04  0.12928261500E+04  0.00000000000E+00 0. -1.
         -2   -1    0    0    0  501 -0.00000000000E+00 -0.00000000000E+00 -0.85318207419E+03  0.85318207419E+03  0.00000000000E+00 0.  1.
         23    2    1    2    0    0  0.80086024748E+03 -0.28720270329E+03  0.24257254801E+03  0.89202050289E+03  0.11400266557E+03 0.  0.
        254    2    1    2    0    0 -0.80086024748E+03  0.28720270329E+03  0.19707152778E+03  0.12539877213E+04  0.89988081948E+03 0.  0.
        -24    2    4    4    0    0 -0.96185689787E+03  0.88803332722E+02  0.13611884956E+03  0.97955377475E+03  0.89120887198E+02 0.  0.
         24    2    4    4    0    0  0.16099665039E+03  0.19839937057E+03  0.60952678212E+02  0.27443394652E+03  0.79476602476E+02 0.  0.
         11    1    3    3    0    0  0.52728073377E+03 -0.23938969975E+03  0.18927145112E+03  0.60922580605E+03  0.00000000000E+00 0. -1.
        -11    1    3    3    0    0  0.27357951371E+03 -0.47813003543E+02  0.53301096884E+02  0.28279469683E+03  0.00000000000E+00 0.  1.
          2    1    6    6  502    0  0.11639273752E+03  0.16729700558E+03  0.16992398561E+02  0.20450989960E+03  0.00000000000E+00 0. -1.
          3    1    5    5  503    0 -0.47335877973E+03  0.13347693745E+01  0.52007620052E+02  0.47620910166E+03  0.00000000000E+00 0. -1.
         -4    1    5    5    0  503 -0.48849811814E+03  0.87468563347E+02  0.84111229512E+02  0.50334467309E+03  0.00000000000E+00 0.  1.
         -1    1    6    6    0  502  0.44603912871E+02  0.31102364991E+02  0.43960279650E+02  0.69924046925E+02  0.00000000000E+00 0.  1.
<mgrwt>
<rscale>  0 0.21004915E+04</rscale>
<asrwt>0</asrwt>
<pdfrwt beam="1">  1        2 0.19889633E+00 0.21004915E+04</pdfrwt>
<pdfrwt beam="2">  1       -2 0.13125878E+00 0.21004915E+04</pdfrwt>
<totfact> 0.65200068E+00</totfact>
</mgrwt>
</event>
<event>
12    1  0.2404959E-007  0.2005988E+04  0.7818608E-02  0.8603826E-01
          1   -1    0    0  501    0  0.00000000000E+00  0.00000000000E+00  0.10002674812E+04  0.10002674812E+04  0.00000000000E+00 0. -1.
         -1   -1    0    0    0  501 -0.00000000000E+00 -0.00000000000E+00 -0.10057282437E+04  0.10057282437E+04  0.00000000000E+00 0.  1.
         23    2    1    2    0    0  0.13839876351E+03 -0.67386641630E+03  0.40137344152E+03  0.80265431030E+03  0.99514509157E+02 0.  0.
        254    2    1    2    0    0 -0.13839876351E+03  0.67386641630E+03 -0.40683420398E+03  0.12033414146E+04  0.89959231094E+03 0.  0.
        -24    2    4    4    0    0  0.23124994991E+03  0.14940248254E+02  0.12529408254E+03  0.27552727717E+03  0.80727461187E+02 0.  0.
         24    2    4    4    0    0 -0.36964871342E+03  0.65892616804E+03 -0.53212828652E+03  0.92781413747E+03  0.82793080064E+02 0.  0.
         11    1    3    3    0    0  0.51989225491E+02 -0.25751722291E+03  0.21010577682E+03  0.33639625015E+03  0.00000000000E+00 0. -1.
        -11    1    3    3    0    0  0.86409538017E+02 -0.41634919339E+03  0.19126766470E+03  0.46625806015E+03  0.00000000000E+00 0.  1.
          2    1    6    6  502    0 -0.30978137719E+03  0.50375603305E+03 -0.38418777870E+03  0.70521974716E+03  0.00000000000E+00 0. -1.
          3    1    5    5  503    0  0.16624536348E+03  0.38783604437E+02  0.11424736351E+03  0.20541214404E+03  0.00000000000E+00 0. -1.
         -4    1    5    5    0  503  0.65004586437E+02 -0.23843356183E+02  0.11046719034E+02  0.70115133126E+02  0.00000000000E+00 0.  1.
         -1    1    6    6    0  502 -0.59867336236E+02  0.15517013499E+03 -0.14794050782E+03  0.22259439031E+03  0.00000000000E+00 0.  1.
<mgrwt>
<rscale>  0 0.20059883E+04</rscale>
<asrwt>0</asrwt>
<pdfrwt beam="1">  1        1 0.15388731E+00 0.20059883E+04</pdfrwt>
<pdfrwt beam="2">  1       -1 0.15472742E+00 0.20059883E+04</pdfrwt>
<totfact> 0.44968177E+00</totfact>
</mgrwt>
</event>
<event>
12    1  0.2404959E-007  0.1854264E+04  0.7818608E-02  0.8677963E-01
          2   -1    0    0  501    0  0.00000000000E+00  0.00000000000E+00  0.62253854186E+03  0.62253854186E+03  0.00000000000E+00 0. -1.
         -2   -1    0    0    0  501 -0.00000000000E+00 -0.00000000000E+00 -0.13807553577E+04  0.13807553577E+04  0.00000000000E+00 0.  1.
         23    2    1    2    0    0  0.37670313130E+03 -0.40632164292E+03  0.17889431287E+03  0.58933195047E+03  0.91139706084E+02 0.  0.
        254    2    1    2    0    0 -0.37670313130E+03  0.40632164292E+03 -0.93711112869E+03  0.14139619491E+04  0.90227966800E+03 0.  0.
        -24    2    4    4    0    0  0.28591171852E+03  0.13873979797E+03 -0.39761376339E+03  0.51509509322E+03  0.78943067396E+02 0.  0.
         24    2    4    4    0    0 -0.66261484983E+03  0.26758184496E+03 -0.53949736530E+03  0.89886685586E+03  0.79029959099E+02 0.  0.
         13    1    3    3    0    0  0.18976506930E+03 -0.26861452519E+03  0.93133956681E+02  0.34181643985E+03  0.00000000000E+00 0. -1.
        -13    1    3    3    0    0  0.18693806201E+03 -0.13770711774E+03  0.85760356191E+02  0.24751551062E+03  0.00000000000E+00 0.  1.
          4    1    6    6  502    0 -0.50227958720E+03  0.16540947816E+03 -0.40000155003E+03  0.66305830755E+03  0.00000000000E+00 0. -1.
          3    1    5    5  503    0  0.24013279189E+03  0.14559512651E+03 -0.33284342182E+03  0.43548414673E+03  0.00000000000E+00 0. -1.
         -4    1    5    5    0  503  0.45778926629E+02 -0.68553285471E+01 -0.64770341574E+02  0.79610946486E+02  0.00000000000E+00 0.  1.
         -3    1    6    6    0  502 -0.16033526262E+03  0.10217236679E+03 -0.13949581527E+03  0.23580854830E+03  0.00000000000E+00 0.  1.
<mgrwt>
<rscale>  0 0.18542637E+04</rscale>
<asrwt>0</asrwt>
<pdfrwt beam="1">  1        2 0.95775161E-01 0.18542637E+04</pdfrwt>
<pdfrwt beam="2">  1       -2 0.21242390E+00 0.18542637E+04</pdfrwt>
<totfact> 0.49203843E+00</totfact>
</mgrwt>
</event>
<event>
12    1  0.2404959E-007  0.2166545E+04  0.7818608E-02  0.8532483E-01
          2   -1    0    0  501    0  0.00000000000E+00  0.00000000000E+00  0.22122650082E+04  0.22122650082E+04  0.00000000000E+00 0. -1.
         -2   -1    0    0    0  501 -0.00000000000E+00 -0.00000000000E+00 -0.53044253218E+03  0.53044253218E+03  0.00000000000E+00 0.  1.
         23    2    1    2    0    0 -0.85161415019E+03  0.12055191776E+03  0.10069512916E+04  0.13272672772E+04  0.88927474313E+02 0.  0.
        254    2    1    2    0    0  0.85161415019E+03 -0.12055191776E+03  0.67487118439E+03  0.14154402632E+04  0.89902202278E+03 0.  0.
        -24    2    4    4    0    0  0.46980169392E+03 -0.21208889285E+03  0.83467229541E+03  0.98425904695E+03  0.79954366330E+02 0.  0.
         24    2    4    4    0    0  0.38181245628E+03  0.91536975095E+02 -0.15980111102E+03  0.43118121624E+03  0.78873801557E+02 0.  0.
         11    1    3    3    0    0 -0.76843561872E+03  0.13028109039E+03  0.88427587883E+03  0.11787324940E+04  0.00000000000E+00 0.  1.
        -11    1    3    3    0    0 -0.83178531473E+02 -0.97291726387E+01  0.12267541276E+03  0.14853478311E+03  0.00000000000E+00 0. -1.
          4    1    6    6  502    0  0.31840583589E+03  0.48055651819E+02 -0.14374687646E+03  0.35263974038E+03  0.00000000000E+00 0. -1.
          1    1    5    5  503    0  0.32254530501E+03 -0.11706583803E+03  0.60262787235E+03  0.69346970861E+03  0.00000000000E+00 0. -1.
         -2    1    5    5    0  503  0.14725638890E+03 -0.95023054820E+02  0.23204442306E+03  0.29078933834E+03  0.00000000000E+00 0.  1.
         -3    1    6    6    0  502  0.63406620385E+02  0.43481323277E+02 -0.16054234566E+02  0.78541475858E+02  0.00000000000E+00 0.  1.
<mgrwt>
<rscale>  0 0.21665451E+04</rscale>
<asrwt>0</asrwt>
<pdfrwt beam="1">  1        2 0.34034846E+00 0.21665451E+04</pdfrwt>
<pdfrwt beam="2">  1       -2 0.81606545E-01 0.21665451E+04</pdfrwt>
<totfact> 0.61560077E+00</totfact>
</mgrwt>
</event>
<event>
12    1  0.2404959E-007  0.1840095E+04  0.7818608E-02  0.8685263E-01
          1   -1    0    0  501    0  0.00000000000E+00  0.00000000000E+00  0.14856154496E+04  0.14856154496E+04  0.00000000000E+00 0. -1.
         -1   -1    0    0    0  501 -0.00000000000E+00 -0.00000000000E+00 -0.56978924298E+03  0.56978924298E+03  0.00000000000E+00 0.  1.
         23    2    1    2    0    0 -0.57473880004E+03 -0.17100442776E+03 -0.46101822228E+02  0.60845045306E+03  0.92300450870E+02 0.  0.
        254    2    1    2    0    0  0.57473880004E+03  0.17100442776E+03  0.96192802887E+03  0.14469542395E+04  0.89933521894E+03 0.  0.
        -24    2    4    4    0    0  0.46894882701E+03  0.40440034036E+03  0.99537527959E+03  0.11752546191E+04  0.83659039498E+02 0.  0.
         24    2    4    4    0    0  0.10578997304E+03 -0.23339591260E+03 -0.33447250721E+02  0.27169962044E+03  0.83885605156E+02 0.  0.
         13    1    3    3    0    0 -0.23179929980E+03 -0.47884559343E+02  0.22203618998E+02  0.23773272199E+03  0.00000000000E+00 0.  1.
        -13    1    3    3    0    0 -0.34293950024E+03 -0.12311986842E+03 -0.68305441225E+02  0.37071773107E+03  0.00000000000E+00 0. -1.
          2    1    6    6  502    0  0.86851285483E+02 -0.11960094373E+03  0.10664390291E+02  0.14819332222E+03  0.00000000000E+00 0. -1.
          1    1    5    5  503    0  0.33819491339E+03  0.33767669378E+03  0.77238285154E+03  0.90828223495E+03  0.00000000000E+00 0. -1.
         -2    1    5    5    0  503  0.13075391362E+03  0.66723646575E+02  0.22299242804E+03  0.26697238416E+03  0.00000000000E+00 0.  1.
         -1    1    6    6    0  502  0.18938687554E+02 -0.11379496886E+03 -0.44111641012E+02  0.12350629821E+03  0.00000000000E+00 0.  1.
<mgrwt>
<rscale>  0 0.18400953E+04</rscale>
<asrwt>0</asrwt>
<pdfrwt beam="1">  1        1 0.22855622E+00 0.18400953E+04</pdfrwt>
<pdfrwt beam="2">  1       -1 0.87659884E-01 0.18400953E+04</pdfrwt>
<totfact> 0.80574681E+00</totfact>
</mgrwt>
</event>
<event>
12    1  0.2404959E-007  0.2220153E+04  0.7818608E-02  0.8510086E-01
          1   -1    0    0  501    0  0.00000000000E+00  0.00000000000E+00  0.93731356096E+03  0.93731356096E+03  0.00000000000E+00 0. -1.
         -1   -1    0    0    0  501 -0.00000000000E+00 -0.00000000000E+00 -0.13146827193E+04  0.13146827193E+04  0.00000000000E+00 0.  1.
         23    2    1    2    0    0  0.51367219786E+03 -0.13938900024E+03 -0.92679207433E+03  0.10709240112E+04  0.68163542059E+02 0.  0.
        254    2    1    2    0    0 -0.51367219786E+03  0.13938900024E+03  0.54942291604E+03  0.11810722690E+04  0.89987651582E+03 0.  0.
        -24    2    4    4    0    0 -0.33863580854E+03 -0.35208777073E+03  0.38886147215E+03  0.62934594346E+03  0.78886392433E+02 0.  0.
         24    2    4    4    0    0 -0.17503638932E+03  0.49147677097E+03  0.16056144389E+03  0.55172632555E+03  0.80217249102E+02 0.  0.
         13    1    3    3    0    0  0.44019935929E+03 -0.13413842291E+03 -0.75791142898E+03  0.88667825427E+03  0.00000000000E+00 0. -1.
        -13    1    3    3    0    0  0.73472838574E+02 -0.52505773370E+01 -0.16888064536E+03  0.18424575693E+03  0.00000000000E+00 0.  1.
          4    1    6    6  502    0 -0.12774679179E+02  0.11710493405E+03  0.56465945042E+02  0.13063368997E+03  0.00000000000E+00 0. -1.
          1    1    5    5  503    0  0.33682341041E+01 -0.12136595268E+02  0.10887660401E+02  0.16648816616E+02  0.00000000000E+00 0. -1.
         -2    1    5    5    0  503 -0.34200404265E+03 -0.33995117546E+03  0.37797381175E+03  0.61269712685E+03  0.00000000000E+00 0.  1.
         -3    1    6    6    0  502 -0.16226171014E+03  0.37437183692E+03  0.10409549885E+03  0.42109263558E+03  0.00000000000E+00 0.  1.
<mgrwt>
<rscale>  0 0.22201531E+04</rscale>
<asrwt>0</asrwt>
<pdfrwt beam="1">  1        1 0.14420209E+00 0.22201531E+04</pdfrwt>
<pdfrwt beam="2">  1       -1 0.20225888E+00 0.22201531E+04</pdfrwt>
<totfact> 0.22423297E+00</totfact>
</mgrwt>
</event>
<event>
12    1  0.2404959E-007  0.2263370E+04  0.7818608E-02  0.8492505E-01
         -2   -1    0    0    0  501 -0.00000000000E+00  0.00000000000E+00  0.55087181193E+03  0.55087181193E+03  0.00000000000E+00 0.  1.
          2   -1    0    0  501    0  0.00000000000E+00 -0.00000000000E+00 -0.23248802879E+04  0.23248802879E+04  0.00000000000E+00 0. -1.
         23    2    1    2    0    0  0.23562757127E+03  0.83054655583E+03 -0.12527937499E+04  0.15241504455E+04  0.90633696912E+02 0.  0.
        254    2    1    2    0    0 -0.23562757127E+03 -0.83054655583E+03 -0.52121472606E+03  0.13516016543E+04  0.89990794392E+03 0.  0.
        -24    2    4    4    0    0  0.27551628643E+02  0.12748871211E+03  0.95338799165E+02  0.17977827439E+03  0.78856054688E+02 0.  0.
         24    2    4    4    0    0 -0.26317919991E+03 -0.95803526794E+03 -0.61655352522E+03  0.11718233799E+04  0.77051400810E+02 0.  0.
         11    1    3    3    0    0  0.72707270202E+02  0.37959983361E+03 -0.61205670558E+03  0.72387553603E+03  0.00000000000E+00 0. -1.
        -11    1    3    3    0    0  0.16292030106E+03  0.45094672222E+03 -0.64073704435E+03  0.80027490951E+03  0.00000000000E+00 0.  1.
          2    1    6    6  502    0 -0.51778167924E+02 -0.17106598291E+03 -0.77613013086E+02  0.19485463552E+03  0.00000000000E+00 0. -1.
          3    1    5    5  503    0  0.36265679218E+02  0.19891076313E+02  0.11032783793E+02  0.42808605726E+02  0.00000000000E+00 0. -1.
         -4    1    5    5    0  503 -0.87140505749E+01  0.10759763580E+03  0.84306015372E+02  0.13696966867E+03  0.00000000000E+00 0.  1.
         -1    1    6    6    0  502 -0.21140103198E+03 -0.78696928503E+03 -0.53894051214E+03  0.97696874440E+03  0.00000000000E+00 0.  1.
<mgrwt>
<rscale>  0 0.22633701E+04</rscale>
<asrwt>0</asrwt>
<pdfrwt beam="1">  1        2 0.35767389E+00 0.22633701E+04</pdfrwt>
<pdfrwt beam="2">  1       -2 0.84749509E-01 0.22633701E+04</pdfrwt>
<totfact> 0.48400397E+00</totfact>
</mgrwt>
</event>
<event>
12    1  0.2404959E-007  0.1212339E+04  0.7818608E-02  0.9102125E-01
         -2   -1    0    0    0  501 -0.00000000000E+00  0.00000000000E+00  0.71738617548E+03  0.71738617548E+03  0.00000000000E+00 0. -1.
          2   -1    0    0  501    0  0.00000000000E+00 -0.00000000000E+00 -0.51219442060E+03  0.51219442060E+03  0.00000000000E+00 0.  1.
         23    2    1    2    0    0 -0.21949585157E+03 -0.10247459385E+03 -0.45864182402E+02  0.26439359466E+03  0.95503813695E+02 0.  0.
        254    2    1    2    0    0  0.21949585157E+03  0.10247459385E+03  0.25105593728E+03  0.96518700141E+03  0.89993188232E+03 0.  0.
        -24    2    4    4    0    0 -0.10783751140E+03  0.35862886481E+02  0.51474401546E+03  0.53301395540E+03  0.78913875238E+02 0.  0.
         24    2    4    4    0    0  0.32733336297E+03  0.66611707368E+02 -0.26368807819E+03  0.43217304601E+03  0.75218940759E+02 0.  0.
         11    1    3    3    0    0 -0.16199678734E+03 -0.11833731418E+03 -0.38749138159E+02  0.20432370089E+03  0.00000000000E+00 0.  1.
        -11    1    3    3    0    0 -0.57499064233E+02  0.15862720331E+02 -0.71150442423E+01  0.60069893778E+02  0.00000000000E+00 0. -1.
          4    1    6    6  502    0  0.21032166502E+03  0.29948045972E+02 -0.20863792974E+03  0.29776143800E+03  0.00000000000E+00 0. -1.
          3    1    5    5  503    0 -0.11397700492E+02  0.91576899743E+01  0.24284900993E+03  0.24328874303E+03  0.00000000000E+00 0. -1.
         -4    1    5    5    0  503 -0.96439810905E+02  0.26705196507E+02  0.27189500553E+03  0.28972521237E+03  0.00000000000E+00 0.  1.
         -3    1    6    6    0  502  0.11701169795E+03  0.36663661397E+02 -0.55050148451E+02  0.13441160801E+03  0.00000000000E+00 0.  1.
<mgrwt>
<rscale>  0 0.12123386E+04</rscale>
<asrwt>0</asrwt>
<pdfrwt beam="1">  1        2 0.78799141E-01 0.12123386E+04</pdfrwt>
<pdfrwt beam="2">  1       -2 0.11036710E+00 0.12123386E+04</pdfrwt>
<totfact> 0.38471089E+01</totfact>
</mgrwt>
</event>
<event>
12    1  0.2404959E-007  0.2529727E+04  0.7818608E-02  0.8392471E-01
          2   -1    0    0  501    0  0.00000000000E+00  0.00000000000E+00  0.10822792767E+04  0.10822792767E+04  0.00000000000E+00 0. -1.
         -2   -1    0    0    0  501 -0.00000000000E+00 -0.00000000000E+00 -0.14782507696E+04  0.14782507696E+04  0.00000000000E+00 0.  1.
         23    2    1    2    0    0 -0.86440420438E+03  0.23596364984E+03  0.47832658364E+03  0.10184749112E+04  0.74975673422E+02 0.  0.
        254    2    1    2    0    0  0.86440420438E+03 -0.23596364984E+03 -0.87429807653E+03  0.15420551351E+04  0.90036850261E+03 0.  0.
        -24    2    4    4    0    0  0.75938037069E+03 -0.53184196841E+03 -0.74999302901E+03  0.11950914474E+04  0.78991121669E+02 0.  0.
         24    2    4    4    0    0  0.10502383370E+03  0.29587831857E+03 -0.12430504752E+03  0.34696368772E+03  0.79737511318E+02 0.  0.
         11    1    3    3    0    0 -0.50302006749E+03  0.13910146900E+03  0.32016755069E+03  0.61227907648E+03  0.00000000000E+00 0. -1.
        -11    1    3    3    0    0 -0.36138413689E+03  0.96862180842E+02  0.15815903295E+03  0.40619583476E+03  0.00000000000E+00 0.  1.
          2    1    6    6  502    0 -0.12028185945E+02  0.41378144988E+02 -0.89287433129E+01  0.44006256338E+02  0.00000000000E+00 0. -1.
          1    1    5    5  503    0  0.58398917149E+03 -0.39372983419E+03 -0.52794796241E+03  0.88022473594E+03  0.00000000000E+00 0. -1.
         -2    1    5    5    0  503  0.17539119920E+03 -0.13811213423E+03 -0.22204506660E+03  0.31486671145E+03  0.00000000000E+00 0.  1.
         -1    1    6    6    0  502  0.11705201964E+03  0.25450017359E+03 -0.11537630421E+03  0.30295743138E+03  0.00000000000E+00 0.  1.
<mgrwt>
<rscale>  0 0.25297274E+04</rscale>
<asrwt>0</asrwt>
<pdfrwt beam="1">  1        2 0.16650450E+00 0.25297274E+04</pdfrwt>
<pdfrwt beam="2">  1       -2 0.22742320E+00 0.25297274E+04</pdfrwt>
<totfact> 0.17639004E+00</totfact>
</mgrwt>
</event>
<event>
12    1  0.2404959E-007  0.3356541E+04  0.7818608E-02  0.8148656E-01
         -1   -1    0    0    0  501 -0.00000000000E+00  0.00000000000E+00  0.99944843337E+03  0.99944843337E+03  0.00000000000E+00 0.  1.
          1   -1    0    0  501    0  0.00000000000E+00 -0.00000000000E+00 -0.28181460821E+04  0.28181460821E+04  0.00000000000E+00 0. -1.
         23    2    1    2    0    0  0.14007561733E+04 -0.64352071736E+03 -0.61181022249E+03  0.16610841200E+04  0.93015776767E+02 0.  0.
        254    2    1    2    0    0 -0.14007561733E+04  0.64352071736E+03 -0.12068874263E+04  0.21565103955E+04  0.90428040747E+03 0.  0.
        -24    2    4    4    0    0 -0.12140113282E+04  0.59586635129E+03 -0.54085128138E+03  0.14586233181E+04  0.78623545662E+02 0.  0.
         24    2    4    4    0    0 -0.18674484511E+03  0.47654366070E+02 -0.66603614491E+03  0.69788707738E+03  0.79357738546E+02 0.  0.
         11    1    3    3    0    0  0.38663025235E+03 -0.15504060566E+03 -0.12707300879E+03  0.43550900220E+03  0.00000000000E+00 0.  1.
        -11    1    3    3    0    0  0.10141259210E+04 -0.48848011170E+03 -0.48473721370E+03  0.12255751178E+04  0.00000000000E+00 0. -1.
          4    1    6    6  502    0 -0.16632170958E+03  0.24199090634E+02 -0.61965205463E+03  0.64204141289E+03  0.00000000000E+00 0. -1.
          3    1    5    5  503    0 -0.72805435737E+03  0.37902225708E+03 -0.36363498133E+03  0.89774797036E+03  0.00000000000E+00 0. -1.
         -4    1    5    5    0  503 -0.48595697083E+03  0.21684409421E+03 -0.17721630005E+03  0.56087534773E+03  0.00000000000E+00 0.  1.
         -3    1    6    6    0  502 -0.20423135534E+02  0.23455275437E+02 -0.46384090282E+02  0.55845664489E+02  0.00000000000E+00 0.  1.
<mgrwt>
<rscale>  0 0.33565409E+04</rscale>
<asrwt>0</asrwt>
<pdfrwt beam="1">  1        1 0.43356093E+00 0.33565409E+04</pdfrwt>
<pdfrwt beam="2">  1       -1 0.15376130E+00 0.33565409E+04</pdfrwt>
<totfact> 0.21774690E-01</totfact>
</mgrwt>
</event>
<event>
12    1  0.2404959E-007  0.2058660E+04  0.7818608E-02  0.8579676E-01
          1   -1    0    0  501    0  0.00000000000E+00  0.00000000000E+00  0.14317837522E+04  0.14317837522E+04  0.00000000000E+00 0. -1.
         -1   -1    0    0    0  501 -0.00000000000E+00 -0.00000000000E+00 -0.74000029578E+03  0.74000029578E+03  0.00000000000E+00 0.  1.
         23    2    1    2    0    0 -0.15751751278E+03 -0.45884749523E+03  0.99060749799E+03  0.11068427398E+04  0.91895836424E+02 0.  0.
        254    2    1    2    0    0  0.15751751278E+03  0.45884749523E+03 -0.29882404160E+03  0.10649413082E+04  0.89969516580E+03 0.  0.
        -24    2    4    4    0    0 -0.22101502915E+03  0.56238296504E+03 -0.98469047127E+02  0.61755288704E+03  0.80951668102E+02 0.  0.
         24    2    4    4    0    0  0.37853254194E+03 -0.10353546981E+03 -0.20035499447E+03  0.44738842116E+03  0.77509978488E+02 0.  0.
         11    1    3    3    0    0 -0.96861854019E+02 -0.15274232548E+03  0.33289073977E+03  0.37885179342E+03  0.00000000000E+00 0.  1.
        -11    1    3    3    0    0 -0.60655658765E+02 -0.30610516975E+03  0.65771675823E+03  0.72799094633E+03  0.00000000000E+00 0. -1.
          4    1    6    6  502    0  0.28297763422E+02  0.10309029815E+02 -0.26606451164E+02  0.40186350344E+02  0.00000000000E+00 0. -1.
          3    1    5    5  503    0 -0.12497017100E+02  0.85973167804E+02 -0.34952093646E+02  0.93644059443E+02  0.00000000000E+00 0. -1.
         -4    1    5    5    0  503 -0.20851801205E+03  0.47640979724E+03 -0.63516953481E+02  0.52390882760E+03  0.00000000000E+00 0.  1.
         -3    1    6    6    0  502  0.35023477852E+03 -0.11384449962E+03 -0.17374854331E+03  0.40720207082E+03  0.00000000000E+00 0.  1.
<mgrwt>
<rscale>  0 0.20586601E+04</rscale>
<asrwt>0</asrwt>
<pdfrwt beam="1">  1        1 0.22027442E+00 0.20586601E+04</pdfrwt>
<pdfrwt beam="2">  1       -1 0.11384620E+00 0.20586601E+04</pdfrwt>
<totfact> 0.47369771E+00</totfact>
</mgrwt>
</event>
<event>
12    1  0.2404959E-007  0.1450595E+04  0.7818608E-02  0.8917988E-01
          1   -1    0    0  501    0  0.00000000000E+00  0.00000000000E+00  0.73067416288E+03  0.73067416288E+03  0.00000000000E+00 0. -1.
         -1   -1    0    0    0  501 -0.00000000000E+00 -0.00000000000E+00 -0.71996005404E+03  0.71996005404E+03  0.00000000000E+00 0.  1.
         23    2    1    2    0    0  0.23074529896E+03 -0.36949204422E+03 -0.42665256385E+02  0.44663905323E+03  0.88872695651E+02 0.  0.
        254    2    1    2    0    0 -0.23074529896E+03  0.36949204422E+03  0.53379365221E+02  0.10039951637E+04  0.90298901895E+03 0.  0.
        -24    2    4    4    0    0 -0.29595440694E+03  0.59304400438E+03 -0.15046011602E+03  0.68423113894E+03  0.79017737643E+02 0.  0.
         24    2    4    4    0    0  0.65209107979E+02 -0.22355196016E+03  0.20383948124E+03  0.31976402475E+03  0.80441225494E+02 0.  0.
         11    1    3    3    0    0  0.20088901895E+03 -0.24629508521E+03 -0.30143476912E+02  0.31925897972E+03  0.00000000000E+00 0. -1.
        -11    1    3    3    0    0  0.29856280010E+02 -0.12319695901E+03 -0.12521779473E+02  0.12738007350E+03  0.00000000000E+00 0.  1.
          4    1    6    6  502    0  0.10903701643E+02 -0.16587870843E+03  0.15067990849E+03  0.22436370349E+03  0.00000000000E+00 0. -1.
          3    1    5    5  503    0 -0.44381085340E+02  0.13360851091E+03 -0.58306950710E+02  0.15238312054E+03  0.00000000000E+00 0. -1.
         -4    1    5    5    0  503 -0.25157332160E+03  0.45943549347E+03 -0.92153165306E+02  0.53184801840E+03  0.00000000000E+00 0.  1.
         -3    1    6    6    0  502  0.54305406336E+02 -0.57673251727E+02  0.53159572746E+02  0.95400321260E+02  0.00000000000E+00 0.  1.
<mgrwt>
<rscale>  0 0.14505947E+04</rscale>
<asrwt>0</asrwt>
<pdfrwt beam="1">  1        1 0.11241141E+00 0.14505947E+04</pdfrwt>
<pdfrwt beam="2">  1       -1 0.11076309E+00 0.14505947E+04</pdfrwt>
<totfact> 0.18605964E+01</totfact>
</mgrwt>
</event>
<event>
12    1  0.2404959E-007  0.5636348E+04  0.7818608E-02  0.7737201E-01
          2   -1    0    0  501    0  0.00000000000E+00  0.00000000000E+00  0.39321726697E+04  0.39321726697E+04  0.00000000000E+00 0. -1.
         -2   -1    0    0    0  501 -0.00000000000E+00 -0.00000000000E+00 -0.20197752564E+04  0.20197752564E+04  0.00000000000E+00 0.  1.
         23    2    1    2    0    0 -0.28265933510E+03 -0.14322918796E+04 -0.15232597512E+04  0.21120454841E+04  0.95181560561E+02 0.  0.
        254    2    1    2    0    0  0.28265933510E+03  0.14322918796E+04  0.34356571645E+04  0.38399024419E+04  0.89986348040E+03 0.  0.
        -24    2    4    4    0    0  0.42102395054E+03  0.51205761647E+03  0.79155468894E+03  0.10357173407E+04  0.81776615350E+02 0.  0.
         24    2    4    4    0    0 -0.13836461544E+03  0.92023426313E+03  0.26441024755E+04  0.28041851012E+04  0.78742076097E+02 0.  0.
         11    1    3    3    0    0 -0.14946265669E+03 -0.84104124635E+03 -0.82703449551E+03  0.11889808748E+04  0.00000000000E+00 0. -1.
        -11    1    3    3    0    0 -0.13319667841E+03 -0.59125063324E+03 -0.69622525566E+03  0.92306460937E+03  0.00000000000E+00 0.  1.
          2    1    6    6  502    0  0.12070285438E+01  0.16462398956E+03  0.42166133716E+03  0.45265969349E+03  0.00000000000E+00 0. -1.
          1    1    5    5  503    0  0.12628449185E+03  0.20128037839E+03  0.24460922453E+03  0.34102087375E+03  0.00000000000E+00 0. -1.
         -2    1    5    5    0  503  0.29473945868E+03  0.31077723808E+03  0.54694546440E+03  0.69469646699E+03  0.00000000000E+00 0.  1.
         -1    1    6    6    0  502 -0.13957164398E+03  0.75561027356E+03  0.22224411384E+04  0.23515254077E+04  0.00000000000E+00 0.  1.
<mgrwt>
<rscale>  0 0.56363481E+04</rscale>
<asrwt>0</asrwt>
<pdfrwt beam="1">  1        2 0.60494964E+00 0.56363481E+04</pdfrwt>
<pdfrwt beam="2">  1       -2 0.31073465E+00 0.56363481E+04</pdfrwt>
<totfact> 0.72968571E-03</totfact>
</mgrwt>
</event>
<event>
12    1  0.2404959E-007  0.6209437E+04  0.7818608E-02  0.7664963E-01
         -1   -1    0    0    0  501 -0.00000000000E+00  0.00000000000E+00  0.26017702964E+04  0.26017702964E+04  0.00000000000E+00 0.  1.
          1   -1    0    0  501    0  0.00000000000E+00 -0.00000000000E+00 -0.37048921387E+04  0.37048921387E+04  0.00000000000E+00 0. -1.
         23    2    1    2    0    0  0.99381727210E+03  0.23687215338E+04  0.11086551171E+04  0.27992787584E+04  0.91273891604E+02 0.  0.
        254    2    1    2    0    0 -0.99381727210E+03 -0.23687215338E+04 -0.22117769594E+04  0.35073836767E+04  0.90070442541E+03 0.  0.
        -24    2    4    4    0    0  0.49016248385E+02 -0.97566972809E+03 -0.78687454252E+03  0.12569250023E+04  0.79717657664E+02 0.  0.
         24    2    4    4    0    0 -0.10428335205E+04 -0.13930518058E+04 -0.14249024169E+04  0.22504586743E+04  0.78244886105E+02 0.  0.
         13    1    3    3    0    0  0.16297532407E+03  0.42617107416E+03  0.23178882543E+03  0.51177026125E+03  0.00000000000E+00 0. -1.
        -13    1    3    3    0    0  0.83084194803E+03  0.19425504597E+04  0.87686629169E+03  0.22875084971E+04  0.00000000000E+00 0.  1.
          2    1    6    6  502    0 -0.71207587844E+02 -0.12574455980E+03 -0.10394721906E+03  0.17800909874E+03  0.00000000000E+00 0. -1.
          1    1    5    5  503    0  0.31518051526E+02 -0.13768242574E+03 -0.96802990579E+02  0.17123275655E+03  0.00000000000E+00 0. -1.
         -2    1    5    5    0  503  0.17498196859E+02 -0.83798730235E+03 -0.69007155194E+03  0.10856922458E+04  0.00000000000E+00 0.  1.
         -1    1    6    6    0  502 -0.97162593264E+03 -0.12673072460E+04 -0.13209551978E+04  0.20724495756E+04  0.00000000000E+00 0.  1.
<mgrwt>
<rscale>  0 0.62094374E+04</rscale>
<asrwt>0</asrwt>
<pdfrwt beam="1">  1        1 0.56998341E+00 0.62094374E+04</pdfrwt>
<pdfrwt beam="2">  1       -1 0.40027235E+00 0.62094374E+04</pdfrwt>
<totfact> 0.79983287E-04</totfact>
</mgrwt>
</event>
<event>
12    1  0.2404959E-007  0.2803812E+04  0.7818608E-02  0.8302086E-01
          2   -1    0    0  501    0  0.00000000000E+00  0.00000000000E+00  0.10220471703E+04  0.10220471703E+04  0.00000000000E+00 0. -1.
         -2   -1    0    0    0  501 -0.00000000000E+00 -0.00000000000E+00 -0.19229448459E+04  0.19229448459E+04  0.00000000000E+00 0.  1.
         23    2    1    2    0    0  0.12496023698E+03  0.84547174910E+03  0.56290137049E+03  0.10274470100E+04  0.91388544474E+02 0.  0.
        254    2    1    2    0    0 -0.12496023698E+03 -0.84547174910E+03 -0.14637990462E+04  0.19175450062E+04  0.89656771298E+03 0.  0.
        -24    2    4    4    0    0 -0.37563927496E+03 -0.44891968471E+03 -0.12755506377E+04  0.14058568067E+04  0.82281123929E+02 0.  0.
         24    2    4    4    0    0  0.25067903798E+03 -0.39655206439E+03 -0.18824840844E+03  0.51168819951E+03  0.79333664888E+02 0.  0.
         11    1    3    3    0    0  0.54674414521E+02  0.60382150627E+03  0.36906642954E+03  0.70978851248E+03  0.00000000000E+00 0.  1.
        -11    1    3    3    0    0  0.70285822462E+02  0.24165024283E+03  0.19383494095E+03  0.31765849749E+03  0.00000000000E+00 0. -1.
          4    1    6    6  502    0  0.15545989703E+03 -0.30688674201E+03 -0.12144476810E+03  0.36482335960E+03  0.00000000000E+00 0. -1.
          1    1    5    5  503    0 -0.37352477169E+03 -0.45153629368E+03 -0.12736447187E+04  0.14019902457E+04  0.00000000000E+00 0. -1.
         -2    1    5    5    0  503 -0.21145032700E+01  0.26166089645E+01 -0.19059189834E+01  0.38665609685E+01  0.00000000000E+00 0.  1.
         -3    1    6    6    0  502  0.95219140953E+02 -0.89665322372E+02 -0.66803640341E+02  0.14686483991E+03  0.00000000000E+00 0.  1.
<mgrwt>
<rscale>  0 0.28038119E+04</rscale>
<asrwt>0</asrwt>
<pdfrwt beam="1">  1        2 0.15723803E+00 0.28038119E+04</pdfrwt>
<pdfrwt beam="2">  1       -2 0.29583767E+00 0.28038119E+04</pdfrwt>
<totfact> 0.71484190E-01</totfact>
</mgrwt>
</event>
<event>
12    1  0.2404959E-007  0.3391106E+04  0.7818608E-02  0.8140093E-01
          2   -1    0    0  501    0  0.00000000000E+00  0.00000000000E+00  0.19652542168E+04  0.19652542168E+04  0.00000000000E+00 0. -1.
         -2   -1    0    0    0  501 -0.00000000000E+00 -0.00000000000E+00 -0.14628644259E+04  0.14628644259E+04  0.00000000000E+00 0.  1.
         23    2    1    2    0    0 -0.19379841917E+03  0.59322420396E+03  0.16950389207E+04  0.18085742548E+04  0.91165283744E+02 0.  0.
        254    2    1    2    0    0  0.19379841917E+03 -0.59322420396E+03 -0.11926491298E+04  0.16195443880E+04  0.90057720070E+03 0.  0.
        -24    2    4    4    0    0  0.51331620627E+03 -0.26684459185E+03 -0.42289211537E+03  0.72099125566E+03  0.79316364503E+02 0.  0.
         24    2    4    4    0    0 -0.31951778711E+03 -0.32637961212E+03 -0.76975701440E+03  0.89855313231E+03  0.79098690723E+02 0.  0.
         13    1    3    3    0    0 -0.31527390937E+02  0.22354902159E+03  0.66272408802E+03  0.70012238807E+03  0.00000000000E+00 0. -1.
        -13    1    3    3    0    0 -0.16227102823E+03  0.36967518238E+03  0.10323148327E+04  0.11084518667E+04  0.00000000000E+00 0.  1.
          2    1    6    6  502    0 -0.25407171733E+03 -0.27764917073E+03 -0.68036913764E+03  0.77752405944E+03  0.00000000000E+00 0. -1.
          3    1    5    5  503    0  0.48662208038E+03 -0.25845786516E+03 -0.42007958155E+03  0.69286966452E+03  0.00000000000E+00 0. -1.
         -4    1    5    5    0  503  0.26694125891E+02 -0.83867266851E+01 -0.28125338137E+01  0.28121591136E+02  0.00000000000E+00 0.  1.
         -1    1    6    6    0  502 -0.65446069779E+02 -0.48730441384E+02 -0.89387876761E+02  0.12102907287E+03  0.00000000000E+00 0.  1.
<mgrwt>
<rscale>  0 0.33911063E+04</rscale>
<asrwt>0</asrwt>
<pdfrwt beam="1">  1        2 0.30234681E+00 0.33911063E+04</pdfrwt>
<pdfrwt beam="2">  1       -2 0.22505606E+00 0.33911063E+04</pdfrwt>
<totfact> 0.53182707E-01</totfact>
</mgrwt>
</event>
<event>
12    1  0.2404959E-007  0.1831690E+04  0.7818608E-02  0.8689627E-01
         -1   -1    0    0    0  501 -0.00000000000E+00  0.00000000000E+00  0.98279560368E+03  0.98279560368E+03  0.00000000000E+00 0.  1.
          1   -1    0    0  501    0  0.00000000000E+00 -0.00000000000E+00 -0.85345486442E+03  0.85345486442E+03  0.00000000000E+00 0. -1.
         23    2    1    2    0    0  0.39952991369E+03 -0.51787400586E+03 -0.17577552478E+03  0.68297445196E+03  0.87974024833E+02 0.  0.
        254    2    1    2    0    0 -0.39952991369E+03  0.51787400586E+03  0.30511626403E+03  0.11532760161E+04  0.89951764682E+03 0.  0.
        -24    2    4    4    0    0  0.21682079218E+03 -0.83689971447E+02  0.94851559388E+02  0.26314152441E+03  0.78939067045E+02 0.  0.
         24    2    4    4    0    0 -0.61635070587E+03  0.60156397730E+03  0.21026470465E+03  0.89013449173E+03  0.79754347352E+02 0.  0.
         13    1    3    3    0    0  0.11792540674E+03 -0.21959151551E+03 -0.79401023523E+02  0.26159387946E+03  0.00000000000E+00 0.  1.
        -13    1    3    3    0    0  0.28160450695E+03 -0.29828249035E+03 -0.96374501252E+02  0.42138057250E+03  0.00000000000E+00 0. -1.
          2    1    6    6  502    0 -0.57085295071E+03  0.56480959266E+03  0.21536588683E+03  0.83142373824E+03  0.00000000000E+00 0. -1.
          1    1    5    5  503    0  0.17334766704E+03 -0.90443476308E+02  0.98617706894E+02  0.21898604565E+03  0.00000000000E+00 0. -1.
         -2    1    5    5    0  503  0.43473125145E+02  0.67535048608E+01 -0.37661475062E+01  0.44155478763E+02  0.00000000000E+00 0.  1.
         -1    1    6    6    0  502 -0.45497755158E+02  0.36754384643E+02 -0.51011821883E+01  0.58710753484E+02  0.00000000000E+00 0.  1.
<mgrwt>
<rscale>  0 0.18316896E+04</rscale>
<asrwt>0</asrwt>
<pdfrwt beam="1">  1        1 0.13130075E+00 0.18316896E+04</pdfrwt>
<pdfrwt beam="2">  1       -1 0.15119932E+00 0.18316896E+04</pdfrwt>
<totfact> 0.63931440E+00</totfact>
</mgrwt>
</event>
<event>
12    1  0.2404959E-007  0.1802286E+04  0.7818608E-02  0.8705085E-01
         -2   -1    0    0    0  501 -0.00000000000E+00  0.00000000000E+00  0.86555327048E+03  0.86555327048E+03  0.00000000000E+00 0.  1.
          2   -1    0    0  501    0  0.00000000000E+00 -0.00000000000E+00 -0.93819598780E+03  0.93819598780E+03  0.00000000000E+00 0. -1.
         23    2    1    2    0    0 -0.65570207850E+03  0.10396274302E+03  0.56853565942E+02  0.67302159525E+03  0.94722077816E+02 0.  0.
        254    2    1    2    0    0  0.65570207850E+03 -0.10396274302E+03 -0.12949628326E+03  0.11307276630E+04  0.90610280481E+03 0.  0.
        -24    2    4    4    0    0  0.32461271987E+03 -0.49370649765E+03  0.41046801546E+01  0.59620778145E+03  0.79544619773E+02 0.  0.
         24    2    4    4    0    0  0.33108935863E+03  0.38974375463E+03 -0.13360096342E+03  0.53451988159E+03  0.79636227393E+02 0.  0.
         13    1    3    3    0    0 -0.15736516482E+03  0.12332558386E+02  0.52377506521E+02  0.16631082432E+03  0.00000000000E+00 0.  1.
        -13    1    3    3    0    0 -0.49833691368E+03  0.91630184629E+02  0.44760594210E+01  0.50671077093E+03  0.00000000000E+00 0. -1.
          4    1    6    6  502    0  0.19521313045E+03  0.26689134897E+03 -0.11631447370E+03  0.35052562709E+03  0.00000000000E+00 0. -1.
          3    1    5    5  503    0  0.15978255383E+03 -0.17257812774E+03 -0.19469209219E+01  0.23519665216E+03  0.00000000000E+00 0. -1.
         -4    1    5    5    0  503  0.16483016604E+03 -0.32112836991E+03  0.60516010765E+01  0.36101112929E+03  0.00000000000E+00 0.  1.
         -3    1    6    6    0  502  0.13587622818E+03  0.12285240567E+03 -0.17286489718E+02  0.18399425450E+03  0.00000000000E+00 0.  1.
<mgrwt>
<rscale>  0 0.18022859E+04</rscale>
<asrwt>0</asrwt>
<pdfrwt beam="1">  1        2 0.14433784E+00 0.18022859E+04</pdfrwt>
<pdfrwt beam="2">  1       -2 0.13316204E+00 0.18022859E+04</pdfrwt>
<totfact> 0.10659389E+01</totfact>
</mgrwt>
</event>
<event>
12    1  0.2404959E-007  0.1236668E+04  0.7818608E-02  0.9081353E-01
          2   -1    0    0  501    0  0.00000000000E+00  0.00000000000E+00  0.31535787687E+03  0.31535787687E+03  0.00000000000E+00 0.  1.
         -2   -1    0    0    0  501 -0.00000000000E+00 -0.00000000000E+00 -0.12123912095E+04  0.12123912095E+04  0.00000000000E+00 0. -1.
         23    2    1    2    0    0  0.47675817266E+02 -0.23917698604E+02  0.12382641562E+03  0.16234894836E+03  0.90438708369E+02 0.  0.
        254    2    1    2    0    0 -0.47675817266E+02  0.23917698604E+02 -0.10208597483E+04  0.13654001380E+04  0.90516179297E+03 0.  0.
        -24    2    4    4    0    0  0.27476974330E+03 -0.26617346376E+02  0.31045134559E+01  0.28721539664E+03  0.79222162940E+02 0.  0.
         24    2    4    4    0    0 -0.32244556057E+03  0.50535044980E+02 -0.10239642617E+04  0.10781847414E+04  0.86340008027E+02 0.  0.
         11    1    3    3    0    0  0.15115330942E+02  0.23744022397E+02  0.28293287702E+01  0.28288812812E+02  0.00000000000E+00 0. -1.
        -11    1    3    3    0    0  0.32560486324E+02 -0.47661721000E+02  0.12099708685E+03  0.13406013555E+03  0.00000000000E+00 0.  1.
          4    1    6    6  502    0 -0.16353584148E+03  0.60984487928E+02 -0.61567007342E+03  0.63993180771E+03  0.00000000000E+00 0. -1.
          3    1    5    5  503    0  0.21408121282E+03 -0.42159441323E+02  0.27636634171E+02  0.21993628105E+03  0.00000000000E+00 0. -1.
         -4    1    5    5    0  503  0.60688530480E+02  0.15542094946E+02 -0.24532120715E+02  0.67279115585E+02  0.00000000000E+00 0.  1.
         -3    1    6    6    0  502 -0.15890971909E+03 -0.10449442948E+02 -0.40829418832E+03  0.43825293370E+03  0.00000000000E+00 0.  1.
<mgrwt>
<rscale>  0 0.12366683E+04</rscale>
<asrwt>0</asrwt>
<pdfrwt beam="1">  1        2 0.48516596E-01 0.12366683E+04</pdfrwt>
<pdfrwt beam="2">  1       -2 0.18652172E+00 0.12366683E+04</pdfrwt>
<totfact> 0.16706020E+01</totfact>
</mgrwt>
</event>
<event>
12    1  0.2404959E-007  0.1231969E+04  0.7818608E-02  0.9085325E-01
         -2   -1    0    0    0  501 -0.00000000000E+00  0.00000000000E+00  0.19223191732E+03  0.19223191732E+03  0.00000000000E+00 0. -1.
          2   -1    0    0  501    0  0.00000000000E+00 -0.00000000000E+00 -0.19738508610E+04  0.19738508610E+04  0.00000000000E+00 0.  1.
         23    2    1    2    0    0  0.13787793229E+03 -0.20839586105E+03 -0.20985359661E+03  0.33788645383E+03  0.87690162240E+02 0.  0.
        254    2    1    2    0    0 -0.13787793229E+03  0.20839586105E+03 -0.15717653471E+04  0.18281963245E+04  0.89967568353E+03 0.  0.
        -24    2    4    4    0    0 -0.16606685036E+03  0.23521126404E+03 -0.16690648677E+04  0.16956220321E+04  0.80336825735E+02 0.  0.
         24    2    4    4    0    0  0.28188918072E+02 -0.26815402985E+02  0.97299520640E+02  0.13257429241E+03  0.81210007702E+02 0.  0.
         11    1    3    3    0    0  0.34947788698E+02 -0.12953601016E+03 -0.12125110254E+03  0.18083903265E+03  0.00000000000E+00 0.  1.
        -11    1    3    3    0    0  0.10293014359E+03 -0.78859850892E+02 -0.88602494070E+02  0.15704742118E+03  0.00000000000E+00 0. -1.
          2    1    6    6  502    0  0.55592119856E+02 -0.18382954995E+02  0.79826041189E+02  0.98998048851E+02  0.00000000000E+00 0. -1.
          1    1    5    5  503    0 -0.15842161720E+03  0.23540410792E+03 -0.15134450181E+04  0.15398143802E+04  0.00000000000E+00 0. -1.
         -2    1    5    5    0  503 -0.76452331655E+01 -0.19284387840E+00 -0.15561984962E+03  0.15580765185E+03  0.00000000000E+00 0.  1.
         -1    1    6    6    0  502 -0.27403201784E+02 -0.84324479896E+01  0.17473479451E+02  0.33576243555E+02  0.00000000000E+00 0.  1.
<mgrwt>
<rscale>  0 0.12319694E+04</rscale>
<asrwt>0</asrwt>
<pdfrwt beam="1">  1        2 0.30366937E+00 0.12319694E+04</pdfrwt>
<pdfrwt beam="2">  1       -2 0.29574141E-01 0.12319694E+04</pdfrwt>
<totfact> 0.71720477E+01</totfact>
</mgrwt>
</event>
<event>
12    1  0.2404959E-007  0.1719745E+04  0.7818608E-02  0.8750183E-01
          2   -1    0    0  501    0  0.00000000000E+00  0.00000000000E+00  0.72346605793E+03  0.72346605793E+03  0.00000000000E+00 0. -1.
         -2   -1    0    0    0  501 -0.00000000000E+00 -0.00000000000E+00 -0.10219977477E+04  0.10219977477E+04  0.00000000000E+00 0.  1.
         23    2    1    2    0    0 -0.58552837231E+03 -0.18862393438E+02  0.99937480952E+02  0.60169868839E+03  0.94098601657E+02 0.  0.
        254    2    1    2    0    0  0.58552837231E+03  0.18862393438E+02 -0.39846917075E+03  0.11437651173E+04  0.89789849025E+03 0.  0.
        -24    2    4    4    0    0 -0.11069097307E+03  0.28910559408E+03 -0.91412282022E+02  0.33251730460E+03  0.79856223972E+02 0.  0.
         24    2    4    4    0    0  0.69621934539E+03 -0.27024320064E+03 -0.30705688873E+03  0.81124781267E+03  0.78014846455E+02 0.  0.
         13    1    3    3    0    0 -0.16408895834E+03 -0.35729343018E+01  0.71495780917E+02  0.17902401738E+03  0.00000000000E+00 0. -1.
        -13    1    3    3    0    0 -0.42143941397E+03 -0.15289459136E+02  0.28441700035E+02  0.42267467100E+03  0.00000000000E+00 0.  1.
          4    1    6    6  502    0  0.29448107109E+03 -0.13902105384E+03 -0.10020400036E+03  0.34071512489E+03  0.00000000000E+00 0. -1.
          3    1    5    5  503    0 -0.99903888538E+01  0.58008072358E+02 -0.49631522868E+02  0.76993716564E+02  0.00000000000E+00 0. -1.
         -4    1    5    5    0  503 -0.10070058422E+03  0.23109752172E+03 -0.41780759154E+02  0.25552358804E+03  0.00000000000E+00 0.  1.
         -3    1    6    6    0  502  0.40173827430E+03 -0.13122214681E+03 -0.20685288837E+03  0.47053268778E+03  0.00000000000E+00 0.  1.
<mgrwt>
<rscale>  0 0.17197450E+04</rscale>
<asrwt>0</asrwt>
<pdfrwt beam="1">  1        2 0.11130247E+00 0.17197450E+04</pdfrwt>
<pdfrwt beam="2">  1       -2 0.15723042E+00 0.17197450E+04</pdfrwt>
<totfact> 0.98527447E+00</totfact>
</mgrwt>
</event>
<event>
12    1  0.2404959E-007  0.1691628E+04  0.7818608E-02  0.8766154E-01
         -2   -1    0    0    0  501 -0.00000000000E+00  0.00000000000E+00  0.38845066874E+03  0.38845066874E+03  0.00000000000E+00 0.  1.
          2   -1    0    0  501    0  0.00000000000E+00 -0.00000000000E+00 -0.18416784456E+04  0.18416784456E+04  0.00000000000E+00 0. -1.
         23    2    1    2    0    0 -0.58667042129E+03 -0.92098734239E+02 -0.37778118928E+03  0.70964271506E+03  0.90607924582E+02 0.  0.
        254    2    1    2    0    0  0.58667042129E+03  0.92098734239E+02 -0.10754465875E+04  0.15204863992E+04  0.89589573476E+03 0.  0.
        -24    2    4    4    0    0  0.73216889651E+03 -0.15649668986E+03 -0.61726068756E+03  0.97353539613E+03  0.78726769075E+02 0.  0.
         24    2    4    4    0    0 -0.14549847521E+03  0.24859542410E+03 -0.45818589998E+03  0.54695100310E+03  0.79066994951E+02 0.  0.
         11    1    3    3    0    0 -0.36503925591E+03 -0.16796516332E+02 -0.25223661797E+03  0.44402600461E+03  0.00000000000E+00 0.  1.
        -11    1    3    3    0    0 -0.22163116538E+03 -0.75302217907E+02 -0.12554457131E+03  0.26561671046E+03  0.00000000000E+00 0. -1.
          4    1    6    6  502    0 -0.55735469385E+02  0.17160111105E+03 -0.27926715648E+03  0.33248086945E+03  0.00000000000E+00 0. -1.
          3    1    5    5  503    0  0.25536259606E+03 -0.92975370277E+02 -0.22846034041E+03  0.35503324082E+03  0.00000000000E+00 0. -1.
         -4    1    5    5    0  503  0.47680630045E+03 -0.63521319580E+02 -0.38880034715E+03  0.61850215532E+03  0.00000000000E+00 0.  1.
         -3    1    6    6    0  502 -0.89763005827E+02  0.76994313049E+02 -0.17891874349E+03  0.21447013366E+03  0.00000000000E+00 0.  1.
<mgrwt>
<rscale>  0 0.16916279E+04</rscale>
<asrwt>0</asrwt>
<pdfrwt beam="1">  1        2 0.28333515E+00 0.16916279E+04</pdfrwt>
<pdfrwt beam="2">  1       -2 0.59761641E-01 0.16916279E+04</pdfrwt>
<totfact> 0.20344708E+01</totfact>
</mgrwt>
</event>
<event>
12    1  0.2404959E-007  0.2695925E+04  0.7818608E-02  0.8336328E-01
         -1   -1    0    0    0  501 -0.00000000000E+00  0.00000000000E+00  0.84189101342E+03  0.84189101342E+03  0.00000000000E+00 0.  1.
          1   -1    0    0  501    0  0.00000000000E+00 -0.00000000000E+00 -0.21582406327E+04  0.21582406327E+04  0.00000000000E+00 0. -1.
         23    2    1    2    0    0 -0.15369158593E+03 -0.11416615115E+04 -0.22924629856E+03  0.11782377358E+04  0.93156782536E+02 0.  0.
        254    2    1    2    0    0  0.15369158593E+03  0.11416615115E+04 -0.10871033207E+04  0.18218939104E+04  0.90027311426E+03 0.  0.
        -24    2    4    4    0    0  0.42673409823E+03  0.28867480394E+03 -0.19917718205E+03  0.55808809032E+03  0.79722228262E+02 0.  0.
         24    2    4    4    0    0 -0.27304251231E+03  0.85298670756E+03 -0.88792613868E+03  0.12638058200E+04  0.81570743725E+02 0.  0.
         13    1    3    3    0    0  0.48029652875E+01 -0.24500050034E+03 -0.55330462465E+02  0.25121658727E+03  0.00000000000E+00 0. -1.
        -13    1    3    3    0    0 -0.15849455122E+03 -0.89666101117E+03 -0.17391583610E+03  0.92702114850E+03  0.00000000000E+00 0.  1.
          4    1    6    6  502    0 -0.27101851708E+03  0.84733971609E+03 -0.86772102843E+03  0.12427290188E+04  0.00000000000E+00 0. -1.
          3    1    5    5  503    0  0.25098575700E+03  0.14637781910E+03 -0.74877887145E+02  0.30004502016E+03  0.00000000000E+00 0. -1.
         -4    1    5    5    0  503  0.17574834124E+03  0.14229698484E+03 -0.12429929490E+03  0.25804307016E+03  0.00000000000E+00 0.  1.
         -3    1    6    6    0  502 -0.20239952244E+01  0.56469914689E+01 -0.20205110243E+02  0.21076801210E+02  0.00000000000E+00 0.  1.
<mgrwt>
<rscale>  0 0.26959254E+04</rscale>
<asrwt>0</asrwt>
<pdfrwt beam="1">  1        1 0.33203701E+00 0.26959254E+04</pdfrwt>
<pdfrwt beam="2">  1       -1 0.12952170E+00 0.26959254E+04</pdfrwt>
<totfact> 0.10398067E+00</totfact>
</mgrwt>
</event>
<event>
12    1  0.2404959E-007  0.1696608E+04  0.7818608E-02  0.8763301E-01
          1   -1    0    0  501    0  0.00000000000E+00  0.00000000000E+00  0.27338550554E+04  0.27338550554E+04  0.00000000000E+00 0. -1.
         -1   -1    0    0    0  501 -0.00000000000E+00 -0.00000000000E+00 -0.26322538244E+03  0.26322538244E+03  0.00000000000E+00 0.  1.
         23    2    1    2    0    0 -0.21850079378E+03  0.48598601426E+03  0.13936999569E+04  0.14948844543E+04  0.91405463451E+02 0.  0.
        254    2    1    2    0    0  0.21850079378E+03 -0.48598601426E+03  0.10769297160E+04  0.15021959836E+04  0.90160421296E+03 0.  0.
        -24    2    4    4    0    0  0.54873348393E+03 -0.16308362459E+03  0.57028444151E+03  0.81210700746E+03  0.81171068290E+02 0.  0.
         24    2    4    4    0    0 -0.33023269016E+03 -0.32290238966E+03  0.50664527451E+03  0.69008897610E+03  0.78827519633E+02 0.  0.
         13    1    3    3    0    0 -0.24833684006E+02  0.13786954200E+03  0.42418646920E+03  0.44672013960E+03  0.00000000000E+00 0. -1.
        -13    1    3    3    0    0 -0.19366710977E+03  0.34811647225E+03  0.96951348771E+03  0.10481643147E+04  0.00000000000E+00 0.  1.
          4    1    6    6  502    0 -0.83719323884E+02 -0.42776488959E+02  0.12411584506E+03  0.15570323116E+03  0.00000000000E+00 0. -1.
          1    1    5    5  503    0  0.29056283280E+03 -0.12053754546E+03  0.27792555950E+03  0.41976026050E+03  0.00000000000E+00 0. -1.
         -2    1    5    5    0  503  0.25817065113E+03 -0.42546079131E+02  0.29235888201E+03  0.39234674695E+03  0.00000000000E+00 0.  1.
         -3    1    6    6    0  502 -0.24651336627E+03 -0.28012590071E+03  0.38252942945E+03  0.53438574494E+03  0.00000000000E+00 0.  1.
<mgrwt>
<rscale>  0 0.16966084E+04</rscale>
<asrwt>0</asrwt>
<pdfrwt beam="1">  1        1 0.42059307E+00 0.16966084E+04</pdfrwt>
<pdfrwt beam="2">  1       -1 0.40496215E-01 0.16966084E+04</pdfrwt>
<totfact> 0.52775225E+00</totfact>
</mgrwt>
</event>
<event>
12    1  0.2404959E-007  0.2197966E+04  0.7818608E-02  0.8519275E-01
         -4   -1    0    0    0  501 -0.00000000000E+00  0.00000000000E+00  0.67828832056E+03  0.67828832056E+03  0.00000000000E+00 0.  1.
          4   -1    0    0  501    0  0.00000000000E+00 -0.00000000000E+00 -0.17806055623E+04  0.17806055623E+04  0.00000000000E+00 0. -1.
         23    2    1    2    0    0  0.21117637493E+03 -0.83817627728E+03 -0.78874524086E+03  0.11737218364E+04  0.91482026179E+02 0.  0.
        254    2    1    2    0    0 -0.21117637493E+03  0.83817627728E+03 -0.31357200092E+03  0.12851720465E+04  0.89788911131E+03 0.  0.
        -24    2    4    4    0    0 -0.52127016702E+03  0.61088333697E+03 -0.41904062516E+02  0.80808855355E+03  0.79687649709E+02 0.  0.
         24    2    4    4    0    0  0.31009379209E+03  0.22729294032E+03 -0.27166793840E+03  0.47708349295E+03  0.77362457839E+02 0.  0.
         13    1    3    3    0    0  0.86487882480E+02 -0.46795381097E+03 -0.38724446479E+03  0.61353011216E+03  0.00000000000E+00 0.  1.
        -13    1    3    3    0    0  0.12468849245E+03 -0.37022246631E+03 -0.40150077606E+03  0.56019172423E+03  0.00000000000E+00 0. -1.
          2    1    6    6  502    0  0.28116298516E+03  0.22847928143E+03 -0.24234855501E+03  0.43587639117E+03  0.00000000000E+00 0. -1.
          3    1    5    5  503    0 -0.41664442832E+03  0.43639876416E+03 -0.39109790480E+02  0.60462057253E+03  0.00000000000E+00 0. -1.
         -4    1    5    5    0  503 -0.10462573870E+03  0.17448457281E+03 -0.27942720362E+01  0.20346798102E+03  0.00000000000E+00 0.  1.
         -1    1    6    6    0  502  0.28930806926E+02 -0.11863411080E+01 -0.29319383397E+02  0.41207101783E+02  0.00000000000E+00 0.  1.
<mgrwt>
<rscale>  0 0.21979663E+04</rscale>
<asrwt>0</asrwt>
<pdfrwt beam="1">  1        4 0.27393932E+00 0.21979663E+04</pdfrwt>
<pdfrwt beam="2">  1       -4 0.10435205E+00 0.21979663E+04</pdfrwt>
<totfact> 0.61112150E-02</totfact>
</mgrwt>
</event>
<event>
12    1  0.2404959E-007  0.2174678E+04  0.7818608E-02  0.8529042E-01
          1   -1    0    0  501    0  0.00000000000E+00  0.00000000000E+00  0.12559937093E+04  0.12559937093E+04  0.00000000000E+00 0. -1.
         -1   -1    0    0    0  501 -0.00000000000E+00 -0.00000000000E+00 -0.94133102052E+03  0.94133102052E+03  0.00000000000E+00 0.  1.
         23    2    1    2    0    0  0.61878589434E+03 -0.59522582147E+03  0.39659274793E+03  0.95054566612E+03  0.95191880369E+02 0.  0.
        254    2    1    2    0    0 -0.61878589434E+03  0.59522582147E+03 -0.81930059177E+02  0.12467790637E+04  0.90030869007E+03 0.  0.
        -24    2    4    4    0    0 -0.23027832370E+03  0.21195696853E+03 -0.47077629405E+03  0.57210261609E+03  0.87847717260E+02 0.  0.
         24    2    4    4    0    0 -0.38850757064E+03  0.38326885294E+03  0.38884623487E+03  0.67467644758E+03  0.78445958850E+02 0.  0.
         11    1    3    3    0    0  0.43912787162E+03 -0.44361880038E+03  0.33076363376E+03  0.70642445392E+03  0.00000000000E+00 0. -1.
        -11    1    3    3    0    0  0.17965802272E+03 -0.15160702109E+03  0.65829114177E+02  0.24412121220E+03  0.00000000000E+00 0.  1.
          2    1    6    6  502    0 -0.38354705292E+03  0.35645214699E+03  0.36323846375E+03  0.63726655054E+03  0.00000000000E+00 0. -1.
          3    1    5    5  503    0 -0.13334904911E+03  0.15727049315E+03 -0.36126069331E+03  0.41596305779E+03  0.00000000000E+00 0. -1.
         -4    1    5    5    0  503 -0.96929274589E+02  0.54686475374E+02 -0.10951560073E+03  0.15613955830E+03  0.00000000000E+00 0.  1.
         -1    1    6    6    0  502 -0.49605177253E+01  0.26816705952E+02  0.25607771121E+02  0.37409897033E+02  0.00000000000E+00 0.  1.
<mgrwt>
<rscale>  0 0.21746778E+04</rscale>
<asrwt>0</asrwt>
<pdfrwt beam="1">  1        1 0.19322980E+00 0.21746778E+04</pdfrwt>
<pdfrwt beam="2">  1       -1 0.14482016E+00 0.21746778E+04</pdfrwt>
<totfact> 0.34081854E+00</totfact>
</mgrwt>
</event>
<event>
12    1  0.2404959E-007  0.1954873E+04  0.7818608E-02  0.8628015E-01
          2   -1    0    0  501    0  0.00000000000E+00  0.00000000000E+00  0.14267772875E+04  0.14267772875E+04  0.00000000000E+00 0. -1.
         -2   -1    0    0    0  501 -0.00000000000E+00 -0.00000000000E+00 -0.66960812500E+03  0.66960812500E+03  0.00000000000E+00 0.  1.
         23    2    1    2    0    0  0.18973234234E+02 -0.72670230966E+03  0.36629397053E+02  0.73339821618E+03  0.89861005371E+02 0.  0.
        254    2    1    2    0    0 -0.18973234234E+02  0.72670230966E+03  0.72053976540E+03  0.13629871963E+04  0.90005572784E+03 0.  0.
        -24    2    4    4    0    0 -0.33876559462E+03  0.74705050596E+03  0.46770132454E+03  0.94778779049E+03  0.81918131455E+02 0.  0.
         24    2    4    4    0    0  0.31979236039E+03 -0.20348196305E+02  0.25283844086E+03  0.41519940579E+03  0.76039900969E+02 0.  0.
         11    1    3    3    0    0  0.48184105159E+01 -0.41051843902E+03 -0.23572949201E+02  0.41122291983E+03  0.00000000000E+00 0.  1.
        -11    1    3    3    0    0  0.14154823718E+02 -0.31618387063E+03  0.60202346255E+02  0.32217529635E+03  0.00000000000E+00 0. -1.
          4    1    6    6  502    0  0.40827939668E+02  0.18905723031E+02  0.18066757246E+02  0.48484582480E+02  0.00000000000E+00 0. -1.
          3    1    5    5  503    0 -0.13207158924E+02  0.86811921819E+02  0.40895471812E+02  0.96866807687E+02  0.00000000000E+00 0. -1.
         -4    1    5    5    0  503 -0.32555843570E+03  0.66023858414E+03  0.42680585273E+03  0.85092098280E+03  0.00000000000E+00 0.  1.
         -3    1    6    6    0  502  0.27896442072E+03 -0.39253919336E+02  0.23477168362E+03  0.36671482331E+03  0.00000000000E+00 0.  1.
<mgrwt>
<rscale>  0 0.19548725E+04</rscale>
<asrwt>0</asrwt>
<pdfrwt beam="1">  1        2 0.21950420E+00 0.19548725E+04</pdfrwt>
<pdfrwt beam="2">  1       -2 0.10301663E+00 0.19548725E+04</pdfrwt>
<totfact> 0.10024373E+01</totfact>
</mgrwt>
</event>
<event>
12    1  0.2404959E-007  0.3837210E+04  0.7818608E-02  0.8038216E-01
         -1   -1    0    0    0  501 -0.00000000000E+00  0.00000000000E+00  0.10960135391E+04  0.10960135391E+04  0.00000000000E+00 0.  1.
          1   -1    0    0  501    0  0.00000000000E+00 -0.00000000000E+00 -0.33585770455E+04  0.33585770455E+04  0.00000000000E+00 0. -1.
         23    2    1    2    0    0  0.80240632809E+03  0.16117475952E+04 -0.13022111370E+04  0.22239293500E+04  0.92312958460E+02 0.  0.
        254    2    1    2    0    0 -0.80240632809E+03 -0.16117475952E+04 -0.96035236945E+03  0.22306612346E+04  0.90110301528E+03 0.  0.
        -24    2    4    4    0    0 -0.59605436059E+03 -0.29095728731E+03 -0.23879398239E+03  0.70954818005E+03  0.80617057580E+02 0.  0.
         24    2    4    4    0    0 -0.20635196750E+03 -0.13207903079E+04 -0.72155838706E+03  0.15211130546E+04  0.77911789369E+02 0.  0.
         11    1    3    3    0    0  0.38409042757E+03  0.83069642056E+03 -0.70834521200E+03  0.11572963920E+04  0.00000000000E+00 0. -1.
        -11    1    3    3    0    0  0.41831590051E+03  0.78105117465E+03 -0.59386592503E+03  0.10666329579E+04  0.00000000000E+00 0.  1.
          2    1    6    6  502    0 -0.15279041406E+03 -0.10128221019E+04 -0.58919060122E+03  0.11816509998E+04  0.00000000000E+00 0. -1.
          1    1    5    5  503    0 -0.58308641470E+03 -0.29580144328E+03 -0.23757722073E+03  0.69565163456E+03  0.00000000000E+00 0. -1.
         -2    1    5    5    0  503 -0.12967945889E+02  0.48441559725E+01 -0.12167616586E+01  0.13896545491E+02  0.00000000000E+00 0.  1.
         -1    1    6    6    0  502 -0.53561553435E+02 -0.30796820598E+03 -0.13236778584E+03  0.33946205477E+03  0.00000000000E+00 0.  1.
<mgrwt>
<rscale>  0 0.38372104E+04</rscale>
<asrwt>0</asrwt>
<pdfrwt beam="1">  1        1 0.51670416E+00 0.38372104E+04</pdfrwt>
<pdfrwt beam="2">  1       -1 0.16861747E+00 0.38372104E+04</pdfrwt>
<totfact> 0.64271983E-02</totfact>
</mgrwt>
</event>
<event>
12    1  0.2404959E-007  0.5015354E+04  0.7818608E-02  0.7826143E-01
         -2   -1    0    0    0  501 -0.00000000000E+00  0.00000000000E+00  0.13304649090E+04  0.13304649090E+04  0.00000000000E+00 0.  1.
          2   -1    0    0  501    0  0.00000000000E+00 -0.00000000000E+00 -0.47265015368E+04  0.47265015368E+04  0.00000000000E+00 0. -1.
         23    2    1    2    0    0  0.79398714917E+03 -0.18786249893E+04 -0.56474979641E+02  0.20418852288E+04  0.80364300509E+02 0.  0.
        254    2    1    2    0    0 -0.79398714917E+03  0.18786249893E+04 -0.33395616481E+04  0.40150812171E+04  0.89919838456E+03 0.  0.
        -24    2    4    4    0    0 -0.45284400243E+02  0.37529420169E+03 -0.15976835342E+03  0.41815677167E+03  0.80204390215E+02 0.  0.
         24    2    4    4    0    0 -0.74870274893E+03  0.15033307876E+04 -0.31797932947E+04  0.35969244454E+04  0.78872085275E+02 0.  0.
         13    1    3    3    0    0  0.28404733953E+03 -0.73566300420E+03  0.84855631836E+01  0.78864120589E+03  0.00000000000E+00 0.  1.
        -13    1    3    3    0    0  0.50993980964E+03 -0.11429619851E+04 -0.64960542824E+02  0.12532440229E+04  0.00000000000E+00 0. -1.
          2    1    6    6  502    0 -0.71059515927E+03  0.14293771889E+04 -0.29824358528E+04  0.33827486227E+04  0.00000000000E+00 0. -1.
          1    1    5    5  503    0 -0.44614355955E+02  0.37266450183E+03 -0.14375306123E+03  0.40191319249E+03  0.00000000000E+00 0. -1.
         -2    1    5    5    0  503 -0.67004428816E+00  0.26296998610E+01 -0.16015292191E+02  0.16243579183E+02  0.00000000000E+00 0.  1.
         -1    1    6    6    0  502 -0.38107589655E+02  0.73953598683E+02 -0.19735744188E+03  0.21417582267E+03  0.00000000000E+00 0.  1.
<mgrwt>
<rscale>  0 0.50153542E+04</rscale>
<asrwt>0</asrwt>
<pdfrwt beam="1">  1        2 0.72715408E+00 0.50153542E+04</pdfrwt>
<pdfrwt beam="2">  1       -2 0.20468691E+00 0.50153542E+04</pdfrwt>
<totfact> 0.63907277E-03</totfact>
</mgrwt>
</event>
<event>
12    1  0.2404959E-007  0.1246832E+04  0.7818608E-02  0.9072824E-01
         -1   -1    0    0    0  501 -0.00000000000E+00  0.00000000000E+00  0.11009884934E+04  0.11009884934E+04  0.00000000000E+00 0.  1.
          1   -1    0    0  501    0  0.00000000000E+00 -0.00000000000E+00 -0.35299886051E+03  0.35299886051E+03  0.00000000000E+00 0. -1.
         23    2    1    2    0    0  0.63896094602E+02 -0.11361526382E+03 -0.11786761249E+03  0.19795773888E+03  0.91122737172E+02 0.  0.
        254    2    1    2    0    0 -0.63896094602E+02  0.11361526382E+03  0.86585724542E+03  0.12560296151E+04  0.90050568314E+03 0.  0.
        -24    2    4    4    0    0 -0.15534015129E+03  0.31367335388E+03  0.94364029317E+03  0.10094847702E+04  0.77980529029E+02 0.  0.
         24    2    4    4    0    0  0.91444056687E+02 -0.20005809007E+03 -0.77783047750E+02  0.24654484482E+03  0.79680004302E+02 0.  0.
         13    1    3    3    0    0  0.18630191336E+02 -0.78962973707E+02 -0.18213296285E+02  0.83150221932E+02  0.00000000000E+00 0.  1.
        -13    1    3    3    0    0  0.45265903266E+02 -0.34652290108E+02 -0.99654316209E+02  0.11480751695E+03  0.00000000000E+00 0. -1.
          2    1    6    6  502    0  0.76653343800E+02 -0.20455595178E+03 -0.71395672502E+02  0.22981778560E+03  0.00000000000E+00 0. -1.
          3    1    5    5  503    0 -0.15118326978E+03  0.29212075169E+03  0.81307247763E+03  0.87708481261E+03  0.00000000000E+00 0. -1.
         -4    1    5    5    0  503 -0.41568815084E+01  0.21552602193E+02  0.13056781553E+03  0.13239995762E+03  0.00000000000E+00 0.  1.
         -1    1    6    6    0  502  0.14790712887E+02  0.44978617139E+01 -0.63873752484E+01  0.16727059223E+02  0.00000000000E+00 0.  1.
<mgrwt>
<rscale>  0 0.12468323E+04</rscale>
<asrwt>0</asrwt>
<pdfrwt beam="1">  1        1 0.54307517E-01 0.12468323E+04</pdfrwt>
<pdfrwt beam="2">  1       -1 0.16938284E+00 0.12468323E+04</pdfrwt>
<totfact> 0.17368622E+01</totfact>
</mgrwt>
</event>
<event>
12    1  0.2404959E-007  0.1570170E+04  0.7818608E-02  0.8839086E-01
         -1   -1    0    0    0  501 -0.00000000000E+00  0.00000000000E+00  0.31571594008E+03  0.31571594008E+03  0.00000000000E+00 0. -1.
          1   -1    0    0  501    0  0.00000000000E+00 -0.00000000000E+00 -0.19522560445E+04  0.19522560445E+04  0.00000000000E+00 0.  1.
         23    2    1    2    0    0  0.50366837126E+03 -0.60355353269E+02 -0.72940848309E+03  0.89315985139E+03  0.91505125857E+02 0.  0.
        254    2    1    2    0    0 -0.50366837126E+03  0.60355353269E+02 -0.90713162128E+03  0.13748121331E+04  0.89994223494E+03 0.  0.
        -24    2    4    4    0    0  0.20142885671E+03  0.21636273870E+03 -0.25158902250E+03  0.39624845643E+03  0.79557425584E+02 0.  0.
         24    2    4    4    0    0 -0.70509722797E+03 -0.15600738543E+03 -0.65554259878E+03  0.97856367672E+03  0.79689179789E+02 0.  0.
         11    1    3    3    0    0  0.16689884169E+03  0.20092380281E+02 -0.26642130208E+03  0.31502259809E+03  0.00000000000E+00 0. -1.
        -11    1    3    3    0    0  0.33676952957E+03 -0.80447733550E+02 -0.46298718101E+03  0.57813725331E+03  0.00000000000E+00 0.  1.
          4    1    6    6  502    0 -0.22279615879E+02  0.10550116208E+01 -0.58742707598E+01  0.23065155326E+02  0.00000000000E+00 0. -1.
          1    1    5    5  503    0 -0.12402269088E+01  0.13129322631E+02 -0.32796142714E+02  0.35348327435E+02  0.00000000000E+00 0. -1.
         -2    1    5    5    0  503  0.20266908362E+03  0.20323341607E+03 -0.21879287979E+03  0.36090012899E+03  0.00000000000E+00 0.  1.
         -3    1    6    6    0  502 -0.68281761209E+03 -0.15706239705E+03 -0.64966832802E+03  0.95549852139E+03  0.00000000000E+00 0.  1.
<mgrwt>
<rscale>  0 0.15701699E+04</rscale>
<asrwt>0</asrwt>
<pdfrwt beam="1">  1        1 0.30034708E+00 0.15701699E+04</pdfrwt>
<pdfrwt beam="2">  1       -1 0.48571684E-01 0.15701699E+04</pdfrwt>
<totfact> 0.13104060E+01</totfact>
</mgrwt>
</event>
<event>
12    1  0.2404959E-007  0.1886992E+04  0.7818608E-02  0.8661358E-01
         -1   -1    0    0    0  501 -0.00000000000E+00  0.00000000000E+00  0.58188077673E+03  0.58188077673E+03  0.00000000000E+00 0.  1.
          1   -1    0    0  501    0  0.00000000000E+00 -0.00000000000E+00 -0.15298404275E+04  0.15298404275E+04  0.00000000000E+00 0. -1.
         23    2    1    2    0    0  0.57007592471E+03  0.39682804231E+03 -0.60133223599E+03  0.92333940238E+03  0.92174502169E+02 0.  0.
        254    2    1    2    0    0 -0.57007592471E+03 -0.39682804231E+03 -0.34662741480E+03  0.11883818019E+04  0.89980091532E+03 0.  0.
        -24    2    4    4    0    0 -0.63662219244E+03 -0.51691632526E+03 -0.50283826158E+03  0.96583841828E+03  0.86644271018E+02 0.  0.
         24    2    4    4    0    0  0.66546267729E+02  0.12008828294E+03  0.15621084678E+03  0.22254338358E+03  0.79209390062E+02 0.  0.
         11    1    3    3    0    0  0.68916202173E+02  0.65829518393E+02 -0.12260176643E+03  0.15528735153E+03  0.00000000000E+00 0. -1.
        -11    1    3    3    0    0  0.50115972254E+03  0.33099852392E+03 -0.47873046956E+03  0.76805205085E+03  0.00000000000E+00 0.  1.
          2    1    6    6  502    0 -0.56541336638E+01  0.68662017654E+02  0.80612541624E+02  0.10604161335E+03  0.00000000000E+00 0. -1.
          1    1    5    5  503    0 -0.64293227280E+02 -0.89552292793E+02 -0.62289974143E+02  0.12662256157E+03  0.00000000000E+00 0. -1.
         -2    1    5    5    0  503 -0.57232896516E+03 -0.42736403246E+03 -0.44054828744E+03  0.83921585672E+03  0.00000000000E+00 0.  1.
         -1    1    6    6    0  502  0.72200401393E+02  0.51426265291E+02  0.75598305155E+02  0.11650177022E+03  0.00000000000E+00 0.  1.
<mgrwt>
<rscale>  0 0.18869920E+04</rscale>
<asrwt>0</asrwt>
<pdfrwt beam="1">  1        1 0.23536006E+00 0.18869920E+04</pdfrwt>
<pdfrwt beam="2">  1       -1 0.89520120E-01 0.18869920E+04</pdfrwt>
<totfact> 0.71407360E+00</totfact>
</mgrwt>
</event>
<event>
12    1  0.2404959E-007  0.2263518E+04  0.7818608E-02  0.8492446E-01
         -2   -1    0    0    0  501 -0.00000000000E+00  0.00000000000E+00  0.95026007648E+03  0.95026007648E+03  0.00000000000E+00 0.  1.
          2   -1    0    0  501    0  0.00000000000E+00 -0.00000000000E+00 -0.13479237730E+04  0.13479237730E+04  0.00000000000E+00 0. -1.
         23    2    1    2    0    0 -0.64045787290E+03  0.40161818803E+03  0.41699702402E+03  0.86806866731E+03  0.90405957780E+02 0.  0.
        254    2    1    2    0    0  0.64045787290E+03 -0.40161818803E+03 -0.81466072057E+03  0.14301151822E+04  0.90004104841E+03 0.  0.
        -24    2    4    4    0    0  0.39401992654E+03 -0.61812179006E+03 -0.26080165806E+03  0.78166418343E+03  0.75200671322E+02 0.  0.
         24    2    4    4    0    0  0.24643794637E+03  0.21650360203E+03 -0.55385906251E+03  0.64845099877E+03  0.78251936616E+02 0.  0.
         13    1    3    3    0    0 -0.31576900115E+03  0.18136396615E+03  0.15189710021E+03  0.39455757420E+03  0.00000000000E+00 0. -1.
        -13    1    3    3    0    0 -0.32468887176E+03  0.22025422188E+03  0.26509992380E+03  0.47351109311E+03  0.00000000000E+00 0.  1.
          4    1    6    6  502    0  0.12249620480E+02  0.21759603063E+02 -0.14076307479E+02  0.28664890713E+02  0.00000000000E+00 0. -1.
          1    1    5    5  503    0  0.14478112324E+03 -0.20406158873E+03 -0.12481880913E+03  0.27961123146E+03  0.00000000000E+00 0. -1.
         -2    1    5    5    0  503  0.24923880329E+03 -0.41406020133E+03 -0.13598284893E+03  0.50205295198E+03  0.00000000000E+00 0.  1.
         -3    1    6    6    0  502  0.23418832589E+03  0.19474399896E+03 -0.53978275503E+03  0.61978610806E+03  0.00000000000E+00 0.  1.
<mgrwt>
<rscale>  0 0.22635177E+04</rscale>
<asrwt>0</asrwt>
<pdfrwt beam="1">  1        2 0.20737289E+00 0.22635177E+04</pdfrwt>
<pdfrwt beam="2">  1       -2 0.14619386E+00 0.22635177E+04</pdfrwt>
<totfact> 0.45219219E+00</totfact>
</mgrwt>
</event>
<event>
12    1  0.2404959E-007  0.3286092E+04  0.7818608E-02  0.8166443E-01
          2   -1    0    0  501    0  0.00000000000E+00  0.00000000000E+00  0.16026087158E+04  0.16026087158E+04  0.00000000000E+00 0. -1.
         -2   -1    0    0    0  501 -0.00000000000E+00 -0.00000000000E+00 -0.16845040862E+04  0.16845040862E+04  0.00000000000E+00 0.  1.
         23    2    1    2    0    0 -0.13488904266E+04  0.58288716615E+03  0.34642381800E+03  0.15122434251E+04  0.87223182399E+02 0.  0.
        254    2    1    2    0    0  0.13488904266E+04 -0.58288716615E+03 -0.42831918846E+03  0.17748693770E+04  0.89857729029E+03 0.  0.
        -24    2    4    4    0    0 -0.62843100829E+02 -0.23674938124E+03  0.21715867718E-01  0.25747177657E+03  0.79323328349E+02 0.  0.
         24    2    4    4    0    0  0.14117335274E+04 -0.34613778491E+03 -0.42834090432E+03  0.15173976004E+04  0.78845600543E+02 0.  0.
         11    1    3    3    0    0 -0.12246744475E+04  0.51378607807E+03  0.29042025167E+03  0.13594659094E+04  0.00000000000E+00 0. -1.
        -11    1    3    3    0    0 -0.12421597915E+03  0.69101088081E+02  0.56003566335E+02  0.15277751566E+03  0.00000000000E+00 0.  1.
          2    1    6    6  502    0  0.93405713244E+03 -0.25442903824E+03 -0.25596896508E+03  0.10013575651E+04  0.00000000000E+00 0. -1.
          1    1    5    5  503    0 -0.24353915631E+02 -0.63575719329E+02 -0.35150237722E+02  0.76619348122E+02  0.00000000000E+00 0. -1.
         -2    1    5    5    0  503 -0.38489185198E+02 -0.17317366191E+03  0.35171953590E+02  0.18085242845E+03  0.00000000000E+00 0.  1.
         -1    1    6    6    0  502  0.47767639500E+03 -0.91708746672E+02 -0.17237193924E+03  0.51604003526E+03  0.00000000000E+00 0.  1.
<mgrwt>
<rscale>  0 0.32860925E+04</rscale>
<asrwt>0</asrwt>
<pdfrwt beam="1">  1        2 0.24655519E+00 0.32860925E+04</pdfrwt>
<pdfrwt beam="2">  1       -2 0.25915447E+00 0.32860925E+04</pdfrwt>
<totfact> 0.52473156E-01</totfact>
</mgrwt>
</event>
<event>
12    1  0.3911225E-007  0.1795682E+04  0.7818608E-02  0.8708599E-01
         -1   -1    0    0    0  501 -0.00000000000E+00  0.00000000000E+00  0.39732782799E+03  0.39732782799E+03  0.00000000000E+00 0.  1.
          1   -1    0    0  501    0  0.00000000000E+00 -0.00000000000E+00 -0.20288505618E+04  0.20288505618E+04  0.00000000000E+00 0. -1.
         23    2    1    2    0    0  0.63754070818E+03 -0.18995361103E+03 -0.51518905602E+03  0.84635273049E+03  0.91392844568E+02 0.  0.
        254    2    1    2    0    0 -0.63754070818E+03  0.18995361103E+03 -0.11163336778E+04  0.15798256593E+04  0.89839173230E+03 0.  0.
        -24    2    4    4    0    0 -0.66506164350E+03 -0.26100894153E+02 -0.30488982403E+03  0.73628126519E+03  0.78511466315E+02 0.  0.
         24    2    4    4    0    0  0.27520935314E+02  0.21605450518E+03 -0.81144385377E+03  0.84354439412E+03  0.75425896931E+02 0.  0.
         13    1    3    3    0    0  0.41947995880E+03 -0.16888378574E+03 -0.33709358950E+03  0.56401884454E+03  0.00000000000E+00 0.  1.
        -13    1    3    3    0    0  0.21806074939E+03 -0.21069825286E+02 -0.17809546652E+03  0.28233388595E+03  0.00000000000E+00 0. -1.
          2    1    6    6  502    0  0.78541023773E+01  0.25640453811E+02 -0.36407037559E+02  0.45217166869E+02  0.00000000000E+00 0. -1.
          3    1    5    5  503    0 -0.23257369175E+03 -0.88774829685E+00 -0.14724460056E+03  0.27526765627E+03  0.00000000000E+00 0. -1.
         -4    1    5    5    0  503 -0.43248795175E+03 -0.25213145856E+02 -0.15764522347E+03  0.46101360892E+03  0.00000000000E+00 0.  1.
         -1    1    6    6    0  502  0.19666832937E+02  0.19041405137E+03 -0.77503681621E+03  0.79832722725E+03  0.00000000000E+00 0.  1.
<mgrwt>
<rscale>  0 0.17956824E+04</rscale>
<asrwt>0</asrwt>
<pdfrwt beam="1">  1        1 0.31213085E+00 0.17956824E+04</pdfrwt>
<pdfrwt beam="2">  1       -1 0.61127360E-01 0.17956824E+04</pdfrwt>
<totfact> 0.72995651E+00</totfact>
</mgrwt>
</event>
<event>
12    1  0.2404959E-007  0.1300832E+04  0.7818608E-02  0.9028906E-01
          2   -1    0    0  501    0  0.00000000000E+00  0.00000000000E+00  0.22280692561E+04  0.22280692561E+04  0.00000000000E+00 0. -1.
         -2   -1    0    0    0  501 -0.00000000000E+00 -0.00000000000E+00 -0.18986882514E+03  0.18986882514E+03  0.00000000000E+00 0.  1.
         23    2    1    2    0    0 -0.11950890396E+03 -0.12969647389E+03  0.16935991508E+02  0.19844617646E+03  0.89389617286E+02 0.  0.
        254    2    1    2    0    0  0.11950890396E+03  0.12969647389E+03  0.20212644394E+04  0.22194919048E+04  0.89973931098E+03 0.  0.
        -24    2    4    4    0    0 -0.48163011944E+02  0.22088827403E+03  0.60618248142E+02  0.24793617465E+03  0.81770834449E+02 0.  0.
         24    2    4    4    0    0  0.16767191591E+03 -0.91191800141E+02  0.19606461913E+04  0.19715557301E+04  0.80428189871E+02 0.  0.
         11    1    3    3    0    0 -0.29886625237E+02  0.47146393412E+01 -0.14998629601E+02  0.33769765799E+02  0.00000000000E+00 0. -1.
        -11    1    3    3    0    0 -0.89622278723E+02 -0.13441111323E+03  0.31934621109E+02  0.16467641066E+03  0.00000000000E+00 0.  1.
          4    1    6    6  502    0  0.11987646477E+03 -0.72223184084E+02  0.17083234641E+04  0.17140465609E+04  0.00000000000E+00 0. -1.
          1    1    5    5  503    0 -0.30200324584E+02  0.18007800398E+03  0.79960046660E+02  0.19933327917E+03  0.00000000000E+00 0. -1.
         -2    1    5    5    0  503 -0.17962687360E+02  0.40810270050E+02 -0.19341798518E+02  0.48602895476E+02  0.00000000000E+00 0.  1.
         -3    1    6    6    0  502  0.47795451138E+02 -0.18968616057E+02  0.25232272722E+03  0.25750916919E+03  0.00000000000E+00 0.  1.
<mgrwt>
<rscale>  0 0.13008319E+04</rscale>
<asrwt>0</asrwt>
<pdfrwt beam="1">  1        2 0.34277987E+00 0.13008319E+04</pdfrwt>
<pdfrwt beam="2">  1       -2 0.29210590E-01 0.13008319E+04</pdfrwt>
<totfact> 0.52715577E+01</totfact>
</mgrwt>
</event>
<event>
12    1  0.2404959E-007  0.1322025E+04  0.7818608E-02  0.9012279E-01
         -2   -1    0    0    0  501 -0.00000000000E+00  0.00000000000E+00  0.27692369604E+03  0.27692369604E+03  0.00000000000E+00 0. -1.
          2   -1    0    0  501    0  0.00000000000E+00 -0.00000000000E+00 -0.15778259987E+04  0.15778259987E+04  0.00000000000E+00 0.  1.
         23    2    1    2    0    0 -0.10350396031E+03 -0.19862577805E+03  0.17335629852E+02  0.24290755186E+03  0.92402841836E+02 0.  0.
        254    2    1    2    0    0  0.10350396031E+03  0.19862577805E+03 -0.13182379325E+04  0.16118421429E+04  0.90006587391E+03 0.  0.
        -24    2    4    4    0    0 -0.18636648029E+03 -0.28784801948E+03 -0.57050050115E+03  0.67045074988E+03  0.80277262633E+02 0.  0.
         24    2    4    4    0    0  0.28987044060E+03  0.48647379754E+03 -0.74773743136E+03  0.94139139301E+03  0.80155227878E+02 0.  0.
         11    1    3    3    0    0 -0.68950251264E+02 -0.10487681756E+03  0.53787451056E+02  0.13655172610E+03  0.00000000000E+00 0. -1.
        -11    1    3    3    0    0 -0.34553709046E+02 -0.93748960494E+02 -0.36451821204E+02  0.10635582575E+03  0.00000000000E+00 0.  1.
          2    1    6    6  502    0  0.17433247923E+03  0.29437682604E+03 -0.38568650786E+03  0.51556145256E+03  0.00000000000E+00 0. -1.
          1    1    5    5  503    0 -0.66241302442E+02 -0.17198185047E+03 -0.32436151389E+03  0.37306307608E+03  0.00000000000E+00 0. -1.
         -2    1    5    5    0  503 -0.12012517785E+03 -0.11586616902E+03 -0.24613898726E+03  0.29738767380E+03  0.00000000000E+00 0.  1.
         -1    1    6    6    0  502  0.11553796138E+03  0.19209697150E+03 -0.36205092350E+03  0.42582994045E+03  0.00000000000E+00 0.  1.
<mgrwt>
<rscale>  0 0.13220248E+04</rscale>
<asrwt>0</asrwt>
<pdfrwt beam="1">  1        2 0.24274246E+00 0.13220248E+04</pdfrwt>
<pdfrwt beam="2">  1       -2 0.42603646E-01 0.13220248E+04</pdfrwt>
<totfact> 0.58639718E+01</totfact>
</mgrwt>
</event>
<event>
12    1  0.2404959E-007  0.1995481E+04  0.7818608E-02  0.8608737E-01
         -2   -1    0    0    0  501 -0.00000000000E+00  0.00000000000E+00  0.32803209434E+03  0.32803209434E+03  0.00000000000E+00 0.  1.
          2   -1    0    0  501    0  0.00000000000E+00 -0.00000000000E+00 -0.30347203375E+04  0.30347203375E+04  0.00000000000E+00 0. -1.
         23    2    1    2    0    0  0.31826469003E+02  0.78578608767E+03 -0.12384977928E+04  0.14696258299E+04  0.86316843283E+02 0.  0.
        254    2    1    2    0    0 -0.31826469003E+02 -0.78578608767E+03 -0.14681904503E+04  0.18931266019E+04  0.89992912652E+03 0.  0.
        -24    2    4    4    0    0 -0.29768126613E+03 -0.79397728891E+03 -0.13388279751E+04  0.15868065365E+04  0.80501961626E+02 0.  0.
         24    2    4    4    0    0  0.26585479712E+03  0.81912012406E+01 -0.12936247525E+03  0.30632006545E+03  0.79696069932E+02 0.  0.
         11    1    3    3    0    0  0.40207282240E+01  0.41165715360E+03 -0.57111075210E+03  0.70402078772E+03  0.00000000000E+00 0.  1.
        -11    1    3    3    0    0  0.27805740779E+02  0.37412893407E+03 -0.66738704074E+03  0.76560504222E+03  0.00000000000E+00 0. -1.
          2    1    6    6  502    0  0.36585236343E+02 -0.27318623534E+02 -0.21635164309E+02  0.50525904690E+02  0.00000000000E+00 0. -1.
          1    1    5    5  503    0 -0.15028033491E+02 -0.14290925662E+02 -0.19510442739E+02  0.28473315977E+02  0.00000000000E+00 0. -1.
         -2    1    5    5    0  503 -0.28265323264E+03 -0.77968636325E+03 -0.13193175323E+04  0.15583332205E+04  0.00000000000E+00 0.  1.
         -1    1    6    6    0  502  0.22926956078E+03  0.35509824774E+02 -0.10772731094E+03  0.25579416076E+03  0.00000000000E+00 0.  1.
<mgrwt>
<rscale>  0 0.19954806E+04</rscale>
<asrwt>0</asrwt>
<pdfrwt beam="1">  1        2 0.46688005E+00 0.19954806E+04</pdfrwt>
<pdfrwt beam="2">  1       -2 0.50466476E-01 0.19954806E+04</pdfrwt>
<totfact> 0.57286116E+00</totfact>
</mgrwt>
</event>
<event>
12    1  0.2404959E-007  0.3642951E+04  0.7818608E-02  0.8080723E-01
         -2   -1    0    0    0  501 -0.00000000000E+00  0.00000000000E+00  0.17490127238E+04  0.17490127238E+04  0.00000000000E+00 0.  1.
          2   -1    0    0  501    0  0.00000000000E+00 -0.00000000000E+00 -0.18969406362E+04  0.18969406362E+04  0.00000000000E+00 0. -1.
         23    2    1    2    0    0 -0.59459040128E+03  0.14122378304E+04 -0.82616385158E+03  0.17432198227E+04  0.91187750988E+02 0.  0.
        254    2    1    2    0    0  0.59459040128E+03 -0.14122378304E+04  0.67823593914E+03  0.19027335373E+04  0.90135314391E+03 0.  0.
        -24    2    4    4    0    0  0.26207444569E+03 -0.66690001720E+02  0.39530288137E+03  0.48582860285E+03  0.81452390479E+02 0.  0.
         24    2    4    4    0    0  0.33251595559E+03 -0.13455478286E+04  0.28293305777E+03  0.14169049345E+04  0.80639061311E+02 0.  0.
         13    1    3    3    0    0 -0.44950273279E+03  0.10053562353E+04 -0.63063510698E+03  0.12690526013E+04  0.00000000000E+00 0. -1.
        -13    1    3    3    0    0 -0.14508766848E+03  0.40688159504E+03 -0.19552874460E+03  0.47416722144E+03  0.00000000000E+00 0.  1.
          2    1    6    6  502    0  0.31956715577E+03 -0.13172948684E+04  0.26546468168E+03  0.13812532116E+04  0.00000000000E+00 0. -1.
          1    1    5    5  503    0  0.13349771382E+03 -0.22736084463E+02  0.26484751631E+03  0.29746054533E+03  0.00000000000E+00 0. -1.
         -2    1    5    5    0  503  0.12857673187E+03 -0.43953917256E+02  0.13045536505E+03  0.18836805752E+03  0.00000000000E+00 0.  1.
         -1    1    6    6    0  502  0.12948799812E+02 -0.28252960296E+02  0.17468376086E+02  0.35651722891E+02  0.00000000000E+00 0.  1.
<mgrwt>
<rscale>  0 0.36429512E+04</rscale>
<asrwt>0</asrwt>
<pdfrwt beam="1">  1        2 0.29183702E+00 0.36429512E+04</pdfrwt>
<pdfrwt beam="2">  1       -2 0.26907888E+00 0.36429512E+04</pdfrwt>
<totfact> 0.30400546E-01</totfact>
</mgrwt>
</event>
<event>
12    1  0.2404959E-007  0.1922445E+04  0.7818608E-02  0.8643764E-01
         -1   -1    0    0    0  501 -0.00000000000E+00  0.00000000000E+00  0.21128154108E+04  0.21128154108E+04  0.00000000000E+00 0.  1.
          1   -1    0    0  501    0  0.00000000000E+00 -0.00000000000E+00 -0.43730668754E+03  0.43730668754E+03  0.00000000000E+00 0. -1.
         23    2    1    2    0    0  0.58729233677E+02  0.73086753919E+03  0.46451116332E+03  0.87270590934E+03  0.90711083188E+02 0.  0.
        254    2    1    2    0    0 -0.58729233677E+02 -0.73086753919E+03  0.12109975600E+04  0.16774161890E+04  0.89977413736E+03 0.  0.
        -24    2    4    4    0    0  0.17872662722E+03 -0.46444497708E+03  0.10786685731E+03  0.51530762469E+03  0.79084417796E+02 0.  0.
         24    2    4    4    0    0 -0.23745586089E+03 -0.26642256211E+03  0.11031307026E+04  0.11621085643E+04  0.78947455487E+02 0.  0.
         11    1    3    3    0    0 -0.10686612758E+02  0.62374103547E+02  0.17924797157E+02  0.65772569044E+02  0.00000000000E+00 0. -1.
        -11    1    3    3    0    0  0.69415846435E+02  0.66849343564E+03  0.44658636616E+03  0.80693334030E+03  0.00000000000E+00 0.  1.
          2    1    6    6  502    0 -0.17096997346E+03 -0.16353900400E+03  0.61767631468E+03  0.66143765192E+03  0.00000000000E+00 0. -1.
          3    1    5    5  503    0  0.94712261623E+02 -0.15285494294E+03  0.56782167227E+02  0.18857163254E+03  0.00000000000E+00 0. -1.
         -4    1    5    5    0  503  0.84014365595E+02 -0.31159003414E+03  0.51084690085E+02  0.32673599215E+03  0.00000000000E+00 0.  1.
         -1    1    6    6    0  502 -0.66485887434E+02 -0.10288355811E+03  0.48545438796E+03  0.50067091242E+03  0.00000000000E+00 0.  1.
<mgrwt>
<rscale>  0 0.19224446E+04</rscale>
<asrwt>0</asrwt>
<pdfrwt beam="1">  1        1 0.67277953E-01 0.19224446E+04</pdfrwt>
<pdfrwt beam="2">  1       -1 0.32504852E+00 0.19224446E+04</pdfrwt>
<totfact> 0.11290601E+00</totfact>
</mgrwt>
</event>
<event>
12    1  0.2404959E-007  0.1346908E+04  0.7818608E-02  0.8993172E-01
          1   -1    0    0  501    0  0.00000000000E+00  0.00000000000E+00  0.12249754113E+04  0.12249754113E+04  0.00000000000E+00 0. -1.
         -1   -1    0    0    0  501 -0.00000000000E+00 -0.00000000000E+00 -0.37024440407E+03  0.37024440407E+03  0.00000000000E+00 0.  1.
         23    2    1    2    0    0 -0.12105803584E+03 -0.34371010759E+03  0.20335826976E+03  0.42713359130E+03  0.91086952087E+02 0.  0.
        254    2    1    2    0    0  0.12105803584E+03  0.34371010759E+03  0.65137273745E+03  0.11680862240E+04  0.89852506788E+03 0.  0.
        -24    2    4    4    0    0 -0.12468679374E+02  0.60918899008E+03  0.25101495081E+03  0.66387207497E+03  0.80317699157E+02 0.  0.
         24    2    4    4    0    0  0.13352671522E+03 -0.26547888249E+03  0.40035778665E+03  0.50421414907E+03  0.75080823571E+02 0.  0.
         11    1    3    3    0    0 -0.67490197102E+02 -0.15049754141E+03  0.43153369412E+02  0.17048944239E+03  0.00000000000E+00 0.  1.
        -11    1    3    3    0    0 -0.53567838742E+02 -0.19321256618E+03  0.16020490034E+03  0.25664414892E+03  0.00000000000E+00 0. -1.
          4    1    6    6  502    0 -0.56870944938E+01 -0.32726635926E+01  0.23899378866E+02  0.24783738236E+02  0.00000000000E+00 0. -1.
          3    1    5    5  503    0 -0.13358001010E+02  0.23209810156E+02  0.10364436883E+01  0.26799359954E+02  0.00000000000E+00 0. -1.
         -4    1    5    5    0  503  0.88932163535E+00  0.58597917993E+03  0.24997850712E+03  0.63707271502E+03  0.00000000000E+00 0.  1.
         -3    1    6    6    0  502  0.13921380971E+03 -0.26220621890E+03  0.37645840778E+03  0.47943041083E+03  0.00000000000E+00 0.  1.
<mgrwt>
<rscale>  0 0.13469080E+04</rscale>
<asrwt>0</asrwt>
<pdfrwt beam="1">  1        1 0.18845775E+00 0.13469080E+04</pdfrwt>
<pdfrwt beam="2">  1       -1 0.56960678E-01 0.13469080E+04</pdfrwt>
<totfact> 0.31300407E+01</totfact>
</mgrwt>
</event>
<event>
12    1  0.2404959E-007  0.1855936E+04  0.7818608E-02  0.8677106E-01
         -2   -1    0    0    0  501 -0.00000000000E+00  0.00000000000E+00  0.38595616522E+03  0.38595616522E+03  0.00000000000E+00 0.  1.
          2   -1    0    0  501    0  0.00000000000E+00 -0.00000000000E+00 -0.22311455247E+04  0.22311455247E+04  0.00000000000E+00 0. -1.
         23    2    1    2    0    0  0.62959930495E+03 -0.15662430539E+03 -0.30711872505E+03  0.72361875737E+03  0.91519052194E+02 0.  0.
        254    2    1    2    0    0 -0.62959930495E+03  0.15662430539E+03 -0.15380706344E+04  0.18934829326E+04  0.89369451244E+03 0.  0.
        -24    2    4    4    0    0 -0.25364797881E+03 -0.48028995379E+02 -0.14169432086E+04  0.14425739483E+04  0.81531946927E+02 0.  0.
         24    2    4    4    0    0 -0.37595132614E+03  0.20465330077E+03 -0.12112742588E+03  0.45090898430E+03  0.73652465554E+02 0.  0.
         13    1    3    3    0    0  0.47135708828E+03 -0.15452570212E+03 -0.24899619529E+03  0.55502684850E+03  0.00000000000E+00 0.  1.
        -13    1    3    3    0    0  0.15824221667E+03 -0.20986032764E+01 -0.58122529760E+02  0.16859190887E+03  0.00000000000E+00 0. -1.
          2    1    6    6  502    0 -0.22655408655E+03  0.84501414760E+02 -0.53807470636E+02  0.24771452748E+03  0.00000000000E+00 0. -1.
          3    1    5    5  503    0 -0.13688371939E+03  0.97063182099E+01 -0.83768162899E+03  0.84884738133E+03  0.00000000000E+00 0. -1.
         -4    1    5    5    0  503 -0.11676425941E+03 -0.57735313589E+02 -0.57926157958E+03  0.59372656694E+03  0.00000000000E+00 0.  1.
         -1    1    6    6    0  502 -0.14939723959E+03  0.12015188601E+03 -0.67319955240E+02  0.20319445682E+03  0.00000000000E+00 0.  1.
<mgrwt>
<rscale>  0 0.18559357E+04</rscale>
<asrwt>0</asrwt>
<pdfrwt beam="1">  1        2 0.34325317E+00 0.18559357E+04</pdfrwt>
<pdfrwt beam="2">  1       -2 0.59377870E-01 0.18559357E+04</pdfrwt>
<totfact> 0.12343869E+01</totfact>
</mgrwt>
</event>
<event>
12    1  0.2404959E-007  0.1455073E+04  0.7818608E-02  0.8914891E-01
          2   -1    0    0  501    0  0.00000000000E+00  0.00000000000E+00  0.14326738308E+04  0.14326738308E+04  0.00000000000E+00 0.  1.
         -2   -1    0    0    0  501 -0.00000000000E+00 -0.00000000000E+00 -0.36945561929E+03  0.36945561929E+03  0.00000000000E+00 0. -1.
         23    2    1    2    0    0  0.35397804046E+03 -0.21807880358E+03  0.14685941423E+03  0.45065076403E+03  0.93057003409E+02 0.  0.
        254    2    1    2    0    0 -0.35397804046E+03  0.21807880358E+03  0.91635879723E+03  0.13514786860E+04  0.90217646598E+03 0.  0.
        -24    2    4    4    0    0 -0.14975797853E+03  0.53864876146E+03  0.34960374267E+03  0.66419722770E+03  0.79782454440E+02 0.  0.
         24    2    4    4    0    0 -0.20422006193E+03 -0.32056995789E+03  0.56675505456E+03  0.68728145831E+03  0.81691979239E+02 0.  0.
         13    1    3    3    0    0  0.16474665479E+03 -0.48014488836E+02  0.61657006761E+02  0.18234154186E+03  0.00000000000E+00 0. -1.
        -13    1    3    3    0    0  0.18923138566E+03 -0.17006431474E+03  0.85202407466E+02  0.26830922218E+03  0.00000000000E+00 0.  1.
          4    1    6    6  502    0 -0.99281460818E+02 -0.11070119190E+03  0.16578518292E+03  0.22270224343E+03  0.00000000000E+00 0. -1.
          3    1    5    5  503    0 -0.10825834526E+03  0.42801039133E+03  0.31044712528E+03  0.53971305524E+03  0.00000000000E+00 0. -1.
         -4    1    5    5    0  503 -0.41499633274E+02  0.11063837013E+03  0.39156617397E+02  0.12448417246E+03  0.00000000000E+00 0.  1.
         -3    1    6    6    0  502 -0.10493860111E+03 -0.20986876598E+03  0.40096987164E+03  0.46457921488E+03  0.00000000000E+00 0.  1.
<mgrwt>
<rscale>  0 0.14550731E+04</rscale>
<asrwt>0</asrwt>
<pdfrwt beam="1">  1        2 0.22041136E+00 0.14550731E+04</pdfrwt>
<pdfrwt beam="2">  1       -2 0.56839327E-01 0.14550731E+04</pdfrwt>
<totfact> 0.38997602E+01</totfact>
</mgrwt>
</event>
<event>
12    1  0.2404959E-007  0.1388676E+04  0.7818608E-02  0.8962056E-01
         -2   -1    0    0    0  501 -0.00000000000E+00  0.00000000000E+00  0.44928895912E+03  0.44928895912E+03  0.00000000000E+00 0.  1.
          2   -1    0    0  501    0  0.00000000000E+00 -0.00000000000E+00 -0.10730406914E+04  0.10730406914E+04  0.00000000000E+00 0. -1.
         23    2    1    2    0    0  0.30743573629E+02  0.32306061360E+03  0.65078947221E+02  0.34430543858E+03  0.94855881664E+02 0.  0.
        254    2    1    2    0    0 -0.30743573629E+02 -0.32306061360E+03 -0.68883067950E+03  0.11780242119E+04  0.89885483340E+03 0.  0.
        -24    2    4    4    0    0 -0.44050357853E+03 -0.20548304063E+03 -0.51092943908E+03  0.70962366244E+03  0.79058003307E+02 0.  0.
         24    2    4    4    0    0  0.40976000490E+03 -0.11757757297E+03 -0.17790124042E+03  0.46840054950E+03  0.77604614210E+02 0.  0.
         13    1    3    3    0    0 -0.90990369393E+01  0.19073089176E+03  0.76355893685E+02  0.20564845743E+03  0.00000000000E+00 0.  1.
        -13    1    3    3    0    0  0.39842610568E+02  0.13232972184E+03 -0.11276946464E+02  0.13865698115E+03  0.00000000000E+00 0. -1.
          4    1    6    6  502    0  0.18952276222E+03 -0.42372007378E+02 -0.12103045707E+03  0.22882883548E+03  0.00000000000E+00 0. -1.
          1    1    5    5  503    0 -0.24817365682E+03 -0.15724480216E+03 -0.31858984776E+03  0.43337695237E+03  0.00000000000E+00 0. -1.
         -2    1    5    5    0  503 -0.19232992171E+03 -0.48238238469E+02 -0.19233959132E+03  0.27624671007E+03  0.00000000000E+00 0.  1.
         -3    1    6    6    0  502  0.22023724268E+03 -0.75205565593E+02 -0.56870783354E+02  0.23957171402E+03  0.00000000000E+00 0.  1.
<mgrwt>
<rscale>  0 0.13886761E+04</rscale>
<asrwt>0</asrwt>
<pdfrwt beam="1">  1        2 0.16508318E+00 0.13886761E+04</pdfrwt>
<pdfrwt beam="2">  1       -2 0.69121379E-01 0.13886761E+04</pdfrwt>
<totfact> 0.42154242E+01</totfact>
</mgrwt>
</event>
<event>
12    1  0.2404959E-007  0.1154630E+04  0.7818608E-02  0.9153523E-01
          2   -1    0    0  501    0  0.00000000000E+00  0.00000000000E+00  0.11037829436E+04  0.11037829436E+04  0.00000000000E+00 0. -1.
         -2   -1    0    0    0  501 -0.00000000000E+00 -0.00000000000E+00 -0.30195469671E+03  0.30195469671E+03  0.00000000000E+00 0.  1.
         23    2    1    2    0    0  0.13328224176E+03 -0.73420300520E+02 -0.18582936464E+02  0.17813018832E+03  0.90721232175E+02 0.  0.
        254    2    1    2    0    0 -0.13328224176E+03  0.73420300520E+02  0.82041118332E+03  0.12276074520E+04  0.90043925386E+03 0.  0.
        -24    2    4    4    0    0 -0.63430734733E+02 -0.21819473573E+03  0.88075565610E+03  0.91306803418E+03  0.79563235777E+02 0.  0.
         24    2    4    4    0    0 -0.69851507025E+02  0.29161503625E+03 -0.60344472781E+02  0.31453941778E+03  0.73314579320E+02 0.  0.
         11    1    3    3    0    0  0.11026362469E+02 -0.48864463724E+02  0.77317968169E+01  0.50686262107E+02  0.00000000000E+00 0. -1.
        -11    1    3    3    0    0  0.12225587929E+03 -0.24555836796E+02 -0.26314733281E+02  0.12744392621E+03  0.00000000000E+00 0.  1.
          2    1    6    6  502    0 -0.26576499420E+02  0.10154990456E+03 -0.57289901017E+02  0.11958606188E+03  0.00000000000E+00 0. -1.
          3    1    5    5  503    0 -0.59956571562E+02 -0.22494208299E+03  0.84274094671E+03  0.87430317078E+03  0.00000000000E+00 0. -1.
         -4    1    5    5    0  503 -0.34741631710E+01  0.67473472593E+01  0.38014709390E+02  0.38764863405E+02  0.00000000000E+00 0.  1.
         -1    1    6    6    0  502 -0.43275007605E+02  0.19006513169E+03 -0.30545717646E+01  0.19495335590E+03  0.00000000000E+00 0.  1.
<mgrwt>
<rscale>  0 0.11546297E+04</rscale>
<asrwt>0</asrwt>
<pdfrwt beam="1">  1        2 0.16981276E+00 0.11546297E+04</pdfrwt>
<pdfrwt beam="2">  1       -2 0.46454569E-01 0.11546297E+04</pdfrwt>
<totfact> 0.94169230E+01</totfact>
</mgrwt>
</event>
<event>
12    1  0.2404959E-007  0.1416141E+04  0.7818608E-02  0.8942217E-01
          1   -1    0    0  501    0  0.00000000000E+00  0.00000000000E+00  0.19062118167E+04  0.19062118167E+04  0.00000000000E+00 0. -1.
         -1   -1    0    0    0  501 -0.00000000000E+00 -0.00000000000E+00 -0.26301587893E+03  0.26301587893E+03  0.00000000000E+00 0.  1.
         23    2    1    2    0    0 -0.37979671905E+03 -0.15671515086E+03  0.57300108428E+03  0.71157606896E+03  0.95943071746E+02 0.  0.
        254    2    1    2    0    0  0.37979671905E+03  0.15671515086E+03  0.10701948534E+04  0.14576516266E+04  0.90034774058E+03 0.  0.
        -24    2    4    4    0    0  0.37355489008E+03  0.48604243597E+03  0.85948312019E+03  0.10586339294E+04  0.78829291312E+02 0.  0.
         24    2    4    4    0    0  0.62418289712E+01 -0.32932728510E+03  0.21071173326E+03  0.39901769722E+03  0.79500107011E+02 0.  0.
         13    1    3    3    0    0 -0.63261381502E+02 -0.57643785063E+02  0.16402286498E+03  0.18500894190E+03  0.00000000000E+00 0.  1.
        -13    1    3    3    0    0 -0.31653533755E+03 -0.99071365798E+02  0.40897821930E+03  0.52656712706E+03  0.00000000000E+00 0. -1.
          2    1    6    6  502    0  0.35692452837E+02 -0.24912376910E+03  0.13919340108E+03  0.28759590822E+03  0.00000000000E+00 0. -1.
          3    1    5    5  503    0  0.10828246714E+03  0.19981861663E+03  0.33780098376E+03  0.40713889137E+03  0.00000000000E+00 0. -1.
         -4    1    5    5    0  503  0.26527242294E+03  0.28622381934E+03  0.52168213643E+03  0.65149503805E+03  0.00000000000E+00 0.  1.
         -1    1    6    6    0  502 -0.29450623866E+02 -0.80203516007E+02  0.71518332179E+02  0.11142178900E+03  0.00000000000E+00 0.  1.
<mgrwt>
<rscale>  0 0.14161412E+04</rscale>
<asrwt>0</asrwt>
<pdfrwt beam="1">  1        1 0.29326335E+00 0.14161412E+04</pdfrwt>
<pdfrwt beam="2">  1       -1 0.40463982E-01 0.14161412E+04</pdfrwt>
<totfact> 0.20049342E+01</totfact>
</mgrwt>
</event>
<event>
12    1  0.2404959E-007  0.1564754E+04  0.7818608E-02  0.8842498E-01
         -2   -1    0    0    0  501 -0.00000000000E+00  0.00000000000E+00  0.19184345759E+03  0.19184345759E+03  0.00000000000E+00 0.  1.
          2   -1    0    0  501    0  0.00000000000E+00 -0.00000000000E+00 -0.31906938664E+04  0.31906938664E+04  0.00000000000E+00 0. -1.
         23    2    1    2    0    0 -0.45771525963E+03  0.23306865045E+03 -0.84687299475E+03  0.99526825013E+03  0.97676843555E+02 0.  0.
        254    2    1    2    0    0  0.45771525963E+03 -0.23306865045E+03 -0.21519774141E+04  0.23872690739E+04  0.89678458154E+03 0.  0.
        -24    2    4    4    0    0  0.28912745815E+03  0.30735836433E+03 -0.63878971986E+03  0.76975448049E+03  0.80036259567E+02 0.  0.
         24    2    4    4    0    0  0.16858780148E+03 -0.54042701477E+03 -0.15131876942E+04  0.16175145934E+04  0.78315112356E+02 0.  0.
         13    1    3    3    0    0 -0.27046402508E+03  0.11908990518E+03 -0.57064593744E+03  0.64262740394E+03  0.00000000000E+00 0. -1.
        -13    1    3    3    0    0 -0.18725123456E+03  0.11397874526E+03 -0.27622705731E+03  0.35264084619E+03  0.00000000000E+00 0.  1.
          4    1    6    6  502    0  0.11663586877E+03 -0.24283971518E+03 -0.70690250615E+03  0.75649600551E+03  0.00000000000E+00 0. -1.
          3    1    5    5  503    0  0.53235740980E+02  0.10163855231E+03 -0.20351896491E+03  0.23363306382E+03  0.00000000000E+00 0. -1.
         -4    1    5    5    0  503  0.23589171717E+03  0.20571981202E+03 -0.43527075495E+03  0.53612141666E+03  0.00000000000E+00 0.  1.
         -3    1    6    6    0  502  0.51951932704E+02 -0.29758729960E+03 -0.80628518806E+03  0.86101858788E+03  0.00000000000E+00 0.  1.
<mgrwt>
<rscale>  0 0.15647540E+04</rscale>
<asrwt>0</asrwt>
<pdfrwt beam="1">  1        2 0.49087597E+00 0.15647540E+04</pdfrwt>
<pdfrwt beam="2">  1       -2 0.29514379E-01 0.15647540E+04</pdfrwt>
<totfact> 0.13480935E+01</totfact>
</mgrwt>
</event>
<event>
12    1  0.2404959E-007  0.1796049E+04  0.7818608E-02  0.8708404E-01
         -1   -1    0    0    0  501 -0.00000000000E+00  0.00000000000E+00  0.57742287823E+03  0.57742287823E+03  0.00000000000E+00 0.  1.
          1   -1    0    0  501    0  0.00000000000E+00 -0.00000000000E+00 -0.13966326398E+04  0.13966326398E+04  0.00000000000E+00 0. -1.
         23    2    1    2    0    0  0.53034135680E+03  0.71343711181E+02  0.12597147299E+03  0.55692763287E+03  0.89149853517E+02 0.  0.
        254    2    1    2    0    0 -0.53034135680E+03 -0.71343711181E+02 -0.94518123460E+03  0.14171278852E+04  0.91023732998E+03 0.  0.
        -24    2    4    4    0    0  0.90858824696E+02  0.29232130845E+03 -0.40335269680E+03  0.51248683463E+03  0.79008127812E+02 0.  0.
         24    2    4    4    0    0 -0.62120018150E+03 -0.36366501963E+03 -0.54182853781E+03  0.90464105056E+03  0.81580352913E+02 0.  0.
         13    1    3    3    0    0  0.45704073840E+03  0.67683423118E+02  0.76239929197E+02  0.46827322059E+03  0.00000000000E+00 0. -1.
        -13    1    3    3    0    0  0.73300618405E+02  0.36602880629E+01  0.49731543798E+02  0.88654412275E+02  0.00000000000E+00 0.  1.
          4    1    6    6  502    0 -0.53963887176E+03 -0.32656091787E+03 -0.50397962466E+03  0.80737079900E+03  0.00000000000E+00 0. -1.
          3    1    5    5  503    0  0.80397313710E+02  0.28748023504E+03 -0.36017897742E+03  0.46780071544E+03  0.00000000000E+00 0. -1.
         -4    1    5    5    0  503  0.10461510986E+02  0.48410734110E+01 -0.43173719375E+02  0.44686119193E+02  0.00000000000E+00 0.  1.
         -3    1    6    6    0  502 -0.81561309736E+02 -0.37104101758E+02 -0.37848913147E+02  0.97270251565E+02  0.00000000000E+00 0.  1.
<mgrwt>
<rscale>  0 0.17960486E+04</rscale>
<asrwt>0</asrwt>
<pdfrwt beam="1">  1        1 0.21486656E+00 0.17960486E+04</pdfrwt>
<pdfrwt beam="2">  1       -1 0.88834290E-01 0.17960486E+04</pdfrwt>
<totfact> 0.90649434E+00</totfact>
</mgrwt>
</event>
<event>
12    1  0.2404959E-007  0.2627771E+04  0.7818608E-02  0.8358829E-01
          2   -1    0    0  501    0  0.00000000000E+00  0.00000000000E+00  0.92213377377E+03  0.92213377377E+03  0.00000000000E+00 0. -1.
         -2   -1    0    0    0  501 -0.00000000000E+00 -0.00000000000E+00 -0.18720663825E+04  0.18720663825E+04  0.00000000000E+00 0.  1.
         23    2    1    2    0    0 -0.11547222666E+04  0.71052973057E+02 -0.43624579941E+03  0.12392238101E+04  0.83265936822E+02 0.  0.
        254    2    1    2    0    0  0.11547222666E+04 -0.71052973057E+02 -0.51368680936E+03  0.15549763462E+04  0.90313081063E+03 0.  0.
        -24    2    4    4    0    0  0.84733712894E+03  0.30885132775E+03 -0.54955188613E+03  0.10589480676E+04  0.77423392367E+02 0.  0.
         24    2    4    4    0    0  0.30738513763E+03 -0.37990430081E+03  0.35865076773E+02  0.49602827851E+03  0.77102845228E+02 0.  0.
         13    1    3    3    0    0 -0.51647737294E+03  0.16641221129E+02 -0.15371704643E+03  0.53912404636E+03  0.00000000000E+00 0. -1.
        -13    1    3    3    0    0 -0.63824489363E+03  0.54411751928E+02 -0.28252875298E+03  0.70009976379E+03  0.00000000000E+00 0.  1.
          4    1    6    6  502    0  0.31189174577E+03 -0.37303017167E+03  0.33131826704E+02  0.48736607186E+03  0.00000000000E+00 0. -1.
          3    1    5    5  503    0  0.50769631177E+03  0.21969968281E+03 -0.35836913150E+03  0.65912967618E+03  0.00000000000E+00 0. -1.
         -4    1    5    5    0  503  0.33964081717E+03  0.89151644941E+02 -0.19118275462E+03  0.39981839146E+03  0.00000000000E+00 0.  1.
         -3    1    6    6    0  502 -0.45066081328E+01 -0.68741291378E+01  0.27332500691E+01  0.86622066592E+01  0.00000000000E+00 0.  1.
<mgrwt>
<rscale>  0 0.26277714E+04</rscale>
<asrwt>0</asrwt>
<pdfrwt beam="1">  1        2 0.14186674E+00 0.26277714E+04</pdfrwt>
<pdfrwt beam="2">  1       -2 0.28801021E+00 0.26277714E+04</pdfrwt>
<totfact> 0.94088796E-01</totfact>
</mgrwt>
</event>
<event>
12    1  0.2404959E-007  0.1344005E+04  0.7818608E-02  0.8995379E-01
         -1   -1    0    0    0  501 -0.00000000000E+00  0.00000000000E+00  0.19336964624E+04  0.19336964624E+04  0.00000000000E+00 0.  1.
          1   -1    0    0  501    0  0.00000000000E+00 -0.00000000000E+00 -0.23353573579E+03  0.23353573579E+03  0.00000000000E+00 0. -1.
         23    2    1    2    0    0 -0.30506650171E+03  0.42761320493E+02  0.76563997740E+03  0.83013468347E+03  0.89581899483E+02 0.  0.
        254    2    1    2    0    0  0.30506650171E+03 -0.42761320493E+02  0.93452074926E+03  0.13370975148E+04  0.90532128672E+03 0.  0.
        -24    2    4    4    0    0  0.28551271035E+03 -0.83718571324E+02  0.11026474336E+04  0.11447406289E+04  0.77932262261E+02 0.  0.
         24    2    4    4    0    0  0.19553791358E+02  0.40957250832E+02 -0.16812668437E+03  0.19235688591E+03  0.81699096741E+02 0.  0.
         11    1    3    3    0    0 -0.89810194758E+02  0.16234509945E+02  0.34506591002E+03  0.35693124359E+03  0.00000000000E+00 0.  1.
        -11    1    3    3    0    0 -0.21525630695E+03  0.26526810548E+02  0.42057406738E+03  0.47320343988E+03  0.00000000000E+00 0. -1.
          4    1    6    6  502    0  0.29675959643E+01 -0.11899017546E+02  0.28832936059E+01  0.12597881821E+02  0.00000000000E+00 0. -1.
          1    1    5    5  503    0  0.19428790483E+02  0.94831215487E+01  0.13990422120E+03  0.14156482121E+03  0.00000000000E+00 0. -1.
         -2    1    5    5    0  503  0.26608391987E+03 -0.93201692873E+02  0.96274321243E+03  0.10031758076E+04  0.00000000000E+00 0.  1.
         -3    1    6    6    0  502  0.16586195393E+02  0.52856268377E+02 -0.17100997797E+03  0.17975900409E+03  0.00000000000E+00 0.  1.
<mgrwt>
<rscale>  0 0.13440048E+04</rscale>
<asrwt>0</asrwt>
<pdfrwt beam="1">  1        1 0.35928576E-01 0.13440048E+04</pdfrwt>
<pdfrwt beam="2">  1       -1 0.29749175E+00 0.13440048E+04</pdfrwt>
<totfact> 0.40967222E+00</totfact>
</mgrwt>
</event>
<event>
12    1  0.2404959E-007  0.2137990E+04  0.7818608E-02  0.8544691E-01
          2   -1    0    0  501    0  0.00000000000E+00  0.00000000000E+00  0.20189059262E+04  0.20189059262E+04  0.00000000000E+00 0.  1.
         -2   -1    0    0    0  501 -0.00000000000E+00 -0.00000000000E+00 -0.56602450017E+03  0.56602450017E+03  0.00000000000E+00 0. -1.
         23    2    1    2    0    0 -0.65437125358E+03 -0.34002162679E+03  0.30354478341E+02  0.74368221526E+03  0.91243622965E+02 0.  0.
        254    2    1    2    0    0  0.65437125358E+03  0.34002162679E+03  0.14225269477E+04  0.18412482111E+04  0.90708081989E+03 0.  0.
        -24    2    4    4    0    0  0.39957982317E+03  0.46846904090E+03  0.14135778998E+04  0.15438921846E+04  0.79204302522E+02 0.  0.
         24    2    4    4    0    0  0.25479143041E+03 -0.12844741411E+03  0.89490479326E+01  0.29735602654E+03  0.83205227347E+02 0.  0.
         11    1    3    3    0    0 -0.58480591353E+03 -0.31396729166E+03  0.86247740050E+00  0.66375760681E+03  0.00000000000E+00 0. -1.
        -11    1    3    3    0    0 -0.69565340049E+02 -0.26054335137E+02  0.29492000941E+02  0.79924608444E+02  0.00000000000E+00 0.  1.
          2    1    6    6  502    0  0.21069119154E+03 -0.13210717804E+03 -0.10755998459E+02  0.24891519878E+03  0.00000000000E+00 0. -1.
          3    1    5    5  503    0  0.33568630946E+03  0.41757514496E+03  0.12755621771E+04  0.13835147876E+04  0.00000000000E+00 0. -1.
         -4    1    5    5    0  503  0.63893513711E+02  0.50893895938E+02  0.13801572269E+03  0.16037739693E+03  0.00000000000E+00 0.  1.
         -1    1    6    6    0  502  0.44100238876E+02  0.36597639287E+01  0.19705046392E+02  0.48440827761E+02  0.00000000000E+00 0.  1.
<mgrwt>
<rscale>  0 0.21379899E+04</rscale>
<asrwt>0</asrwt>
<pdfrwt beam="1">  1        2 0.31060091E+00 0.21379899E+04</pdfrwt>
<pdfrwt beam="2">  1       -2 0.87080693E-01 0.21379899E+04</pdfrwt>
<totfact> 0.68297616E+00</totfact>
</mgrwt>
</event>
<event>
12    1  0.2404959E-007  0.1364225E+04  0.7818608E-02  0.8980130E-01
          1   -1    0    0  501    0  0.00000000000E+00  0.00000000000E+00  0.48749870578E+03  0.48749870578E+03  0.00000000000E+00 0. -1.
         -1   -1    0    0    0  501 -0.00000000000E+00 -0.00000000000E+00 -0.95441720225E+03  0.95441720225E+03  0.00000000000E+00 0.  1.
         23    2    1    2    0    0  0.27085893036E+03  0.14826517937E+03  0.97658902781E+02  0.33626423906E+03  0.90494494895E+02 0.  0.
        254    2    1    2    0    0 -0.27085893036E+03 -0.14826517937E+03 -0.56457739925E+03  0.11056516690E+04  0.89909446098E+03 0.  0.
        -24    2    4    4    0    0  0.10420206764E+03 -0.93266995011E+02  0.19501689946E+03  0.25304604158E+03  0.80273936161E+02 0.  0.
         24    2    4    4    0    0 -0.37506099800E+03 -0.54998184357E+02 -0.75959429871E+03  0.85260562738E+03  0.79103127080E+02 0.  0.
         11    1    3    3    0    0  0.12992177025E+03  0.87629924877E+02  0.45153776298E+01  0.15677709894E+03  0.00000000000E+00 0.  1.
        -11    1    3    3    0    0  0.14093716012E+03  0.60635254492E+02  0.93143525151E+02  0.17948714011E+03  0.00000000000E+00 0. -1.
          2    1    6    6  502    0 -0.49070105384E+01  0.10169241502E+02 -0.19079547448E+02  0.22170280918E+02  0.00000000000E+00 0. -1.
          3    1    5    5  503    0 -0.67661903075E+01 -0.13221808534E+01 -0.35038013314E+01  0.77334414885E+01  0.00000000000E+00 0. -1.
         -4    1    5    5    0  503  0.11096825795E+03 -0.91944814158E+02  0.19852070079E+03  0.24531260009E+03  0.00000000000E+00 0.  1.
         -1    1    6    6    0  502 -0.37015398746E+03 -0.65167425859E+02 -0.74051475126E+03  0.83043534647E+03  0.00000000000E+00 0.  1.
<mgrwt>
<rscale>  0 0.13642245E+04</rscale>
<asrwt>0</asrwt>
<pdfrwt beam="1">  1        1 0.74999801E-01 0.13642245E+04</pdfrwt>
<pdfrwt beam="2">  1       -1 0.14683341E+00 0.13642245E+04</pdfrwt>
<totfact> 0.16583641E+01</totfact>
</mgrwt>
</event>
<event>
12    1  0.2404959E-007  0.1774589E+04  0.7818608E-02  0.8719930E-01
         -1   -1    0    0    0  501 -0.00000000000E+00  0.00000000000E+00  0.76794604840E+03  0.76794604840E+03  0.00000000000E+00 0.  1.
          1   -1    0    0  501    0  0.00000000000E+00 -0.00000000000E+00 -0.10251916114E+04  0.10251916114E+04  0.00000000000E+00 0. -1.
         23    2    1    2    0    0  0.64560149944E+03  0.21425489186E+02  0.12024380888E+02  0.65242125272E+03  0.90821570082E+02 0.  0.
        254    2    1    2    0    0 -0.64560149944E+03 -0.21425489186E+02 -0.26926994394E+03  0.11407164071E+04  0.90081478180E+03 0.  0.
        -24    2    4    4    0    0  0.10576780329E+03 -0.27942309736E+03 -0.67266588461E+02  0.31702119782E+03  0.81936258100E+02 0.  0.
         24    2    4    4    0    0 -0.75136930274E+03  0.25799760817E+03 -0.20200335547E+03  0.82369520931E+03  0.80931126872E+02 0.  0.
         11    1    3    3    0    0  0.64380643109E+03  0.14273718533E+02  0.15755588146E+02  0.64415735524E+03  0.00000000000E+00 0.  1.
        -11    1    3    3    0    0  0.17950683505E+01  0.71517706529E+01 -0.37312072585E+01  0.82638974739E+01  0.00000000000E+00 0. -1.
          4    1    6    6  502    0 -0.96913741453E+02  0.31536722742E+02 -0.54722932161E+02  0.11567816332E+03  0.00000000000E+00 0. -1.
          1    1    5    5  503    0  0.13988034235E+01  0.52966572146E+00  0.86287664107E+01  0.87574429238E+01  0.00000000000E+00 0. -1.
         -2    1    5    5    0  503  0.10436899987E+03 -0.27995276308E+03 -0.75895354872E+02  0.30826375489E+03  0.00000000000E+00 0.  1.
         -1    1    6    6    0  502 -0.65445556128E+03  0.22646088543E+03 -0.14728042331E+03  0.70801704599E+03  0.00000000000E+00 0.  1.
<mgrwt>
<rscale>  0 0.17745894E+04</rscale>
<asrwt>0</asrwt>
<pdfrwt beam="1">  1        1 0.15772179E+00 0.17745894E+04</pdfrwt>
<pdfrwt beam="2">  1       -1 0.11814555E+00 0.17745894E+04</pdfrwt>
<totfact> 0.87970735E+00</totfact>
</mgrwt>
</event>
<event>
12    1  0.2404959E-007  0.1729233E+04  0.7818608E-02  0.8744865E-01
         -2   -1    0    0    0  501 -0.00000000000E+00  0.00000000000E+00  0.88145568747E+03  0.88145568747E+03  0.00000000000E+00 0.  1.
          2   -1    0    0  501    0  0.00000000000E+00 -0.00000000000E+00 -0.84809905857E+03  0.84809905857E+03  0.00000000000E+00 0. -1.
         23    2    1    2    0    0  0.60631093855E+03  0.15642382167E+03  0.46159704049E+02  0.63429515744E+03  0.90101400037E+02 0.  0.
        254    2    1    2    0    0 -0.60631093855E+03 -0.15642382167E+03 -0.12803075151E+02  0.10952595886E+04  0.89852561538E+03 0.  0.
        -24    2    4    4    0    0 -0.75456907047E+03 -0.18022174502E+03  0.21636019620E+03  0.80962942905E+03  0.82666307525E+02 0.  0.
         24    2    4    4    0    0  0.14825813192E+03  0.23797923350E+02 -0.22916327136E+03  0.28563015955E+03  0.80758703982E+02 0.  0.
         13    1    3    3    0    0  0.37427864800E+03  0.66069810167E+02  0.60631543728E+02  0.38487129051E+03  0.00000000000E+00 0.  1.
        -13    1    3    3    0    0  0.23203229055E+03  0.90354011506E+02 -0.14471839679E+02  0.24942386693E+03  0.00000000000E+00 0. -1.
          4    1    6    6  502    0  0.22694964551E+02 -0.11593859390E+02 -0.45604768958E+01  0.25889707241E+02  0.00000000000E+00 0. -1.
          3    1    5    5  503    0 -0.33348153612E+03 -0.38156492856E+02  0.10015353802E+03  0.35028072179E+03  0.00000000000E+00 0. -1.
         -4    1    5    5    0  503 -0.42108753435E+03 -0.14206525217E+03  0.11620665818E+03  0.45934870726E+03  0.00000000000E+00 0.  1.
         -3    1    6    6    0  502  0.12556316737E+03  0.35391782741E+02 -0.22460279446E+03  0.25974045231E+03  0.00000000000E+00 0.  1.
<mgrwt>
<rscale>  0 0.17292331E+04</rscale>
<asrwt>0</asrwt>
<pdfrwt beam="1">  1        2 0.13047678E+00 0.17292331E+04</pdfrwt>
<pdfrwt beam="2">  1       -2 0.13560857E+00 0.17292331E+04</pdfrwt>
<totfact> 0.11785088E+01</totfact>
</mgrwt>
</event>
<event>
12    1  0.2404959E-007  0.1677006E+04  0.7818608E-02  0.8774588E-01
         -1   -1    0    0    0  501 -0.00000000000E+00  0.00000000000E+00  0.12905975108E+04  0.12905975108E+04  0.00000000000E+00 0.  1.
          1   -1    0    0  501    0  0.00000000000E+00 -0.00000000000E+00 -0.54477667278E+03  0.54477667278E+03  0.00000000000E+00 0. -1.
         23    2    1    2    0    0 -0.20007842264E+03 -0.41560272725E+03  0.68403285038E+03  0.83000433432E+03  0.90825395642E+02 0.  0.
        254    2    1    2    0    0  0.20007842264E+03  0.41560272725E+03  0.61787987689E+02  0.10053698493E+04  0.89117550255E+03 0.  0.
        -24    2    4    4    0    0 -0.70185917640E+02 -0.25335699623E+03 -0.14373806170E+02  0.27534922396E+03  0.80590063044E+02 0.  0.
         24    2    4    4    0    0  0.27026434028E+03  0.66895972347E+03  0.76161793859E+02  0.73002062533E+03  0.81114544401E+02 0.  0.
         11    1    3    3    0    0 -0.12673516185E+03 -0.26995256820E+03  0.36187346414E+03  0.46892280215E+03  0.00000000000E+00 0.  1.
        -11    1    3    3    0    0 -0.73343260788E+02 -0.14565015905E+03  0.32215938624E+03  0.36108153217E+03  0.00000000000E+00 0. -1.
          2    1    6    6  502    0  0.12594584641E+02  0.25821374614E+02 -0.12885219992E+02  0.31486439041E+02  0.00000000000E+00 0. -1.
          1    1    5    5  503    0  0.83844291146E+01 -0.11607883885E+03  0.14207415926E+01  0.11638992218E+03  0.00000000000E+00 0. -1.
         -2    1    5    5    0  503 -0.78570346755E+02 -0.13727815738E+03 -0.15794547762E+02  0.15895930178E+03  0.00000000000E+00 0.  1.
         -1    1    6    6    0  502  0.25766975564E+03  0.64313834886E+03  0.89047013851E+02  0.69853418629E+03  0.00000000000E+00 0.  1.
<mgrwt>
<rscale>  0 0.16770062E+04</rscale>
<asrwt>0</asrwt>
<pdfrwt beam="1">  1        1 0.83811796E-01 0.16770062E+04</pdfrwt>
<pdfrwt beam="2">  1       -1 0.19855346E+00 0.16770062E+04</pdfrwt>
<totfact> 0.57723389E+00</totfact>
</mgrwt>
</event>
<event>
12    1  0.2404959E-007  0.1881549E+04  0.7818608E-02  0.8664096E-01
          4   -1    0    0  501    0  0.00000000000E+00  0.00000000000E+00  0.51600550573E+03  0.51600550573E+03  0.00000000000E+00 0. -1.
         -4   -1    0    0    0  501 -0.00000000000E+00 -0.00000000000E+00 -0.17152071290E+04  0.17152071290E+04  0.00000000000E+00 0.  1.
         23    2    1    2    0    0 -0.32046469459E+03  0.50801280649E+03 -0.94164229288E+03  0.11205908478E+04  0.90879086841E+02 0.  0.
        254    2    1    2    0    0  0.32046469459E+03 -0.50801280649E+03 -0.25755933035E+03  0.11106217869E+04  0.89798068621E+03 0.  0.
        -24    2    4    4    0    0  0.39986070545E+03 -0.65528329494E+03 -0.40781955745E+03  0.87289928359E+03  0.79696847263E+02 0.  0.
         24    2    4    4    0    0 -0.79396010867E+02  0.14727048845E+03  0.15026022710E+03  0.23772250329E+03  0.77081316866E+02 0.  0.
         11    1    3    3    0    0 -0.14953779930E+03  0.19668913588E+03 -0.31549952879E+03  0.40073447850E+03  0.00000000000E+00 0. -1.
        -11    1    3    3    0    0 -0.17092689528E+03  0.31132367061E+03 -0.62614276409E+03  0.71985636931E+03  0.00000000000E+00 0.  1.
          4    1    6    6  502    0 -0.48906906224E+02  0.79245433895E+02  0.13100655723E+03  0.16073096250E+03  0.00000000000E+00 0. -1.
          3    1    5    5  503    0  0.14609821479E+03 -0.24199189247E+03 -0.19421169434E+03  0.34296201919E+03  0.00000000000E+00 0. -1.
         -4    1    5    5    0  503  0.25376249066E+03 -0.41329140247E+03 -0.21360786311E+03  0.52993726441E+03  0.00000000000E+00 0.  1.
         -3    1    6    6    0  502 -0.30489104643E+02  0.68025054555E+02  0.19253669878E+02  0.76991540788E+02  0.00000000000E+00 0.  1.
<mgrwt>
<rscale>  0 0.18815486E+04</rscale>
<asrwt>0</asrwt>
<pdfrwt beam="1">  1        4 0.79385461E-01 0.18815486E+04</pdfrwt>
<pdfrwt beam="2">  1       -4 0.26387802E+00 0.18815486E+04</pdfrwt>
<totfact> 0.13737150E-01</totfact>
</mgrwt>
</event>
<event>
12    1  0.2404959E-007  0.1542699E+04  0.7818608E-02  0.8856544E-01
         -2   -1    0    0    0  501 -0.00000000000E+00  0.00000000000E+00  0.13737597046E+04  0.13737597046E+04  0.00000000000E+00 0.  1.
          2   -1    0    0  501    0  0.00000000000E+00 -0.00000000000E+00 -0.43310371396E+03  0.43310371396E+03  0.00000000000E+00 0. -1.
         23    2    1    2    0    0 -0.14466660081E+03  0.45234084604E+03  0.11352305250E+03  0.49690166676E+03  0.92103835932E+02 0.  0.
        254    2    1    2    0    0  0.14466660081E+03 -0.45234084604E+03  0.82713293810E+03  0.13099617518E+04  0.89794778657E+03 0.  0.
        -24    2    4    4    0    0 -0.19163563468E+03 -0.40048671344E+03  0.84735763803E+03  0.95989663635E+03  0.79200767929E+02 0.  0.
         24    2    4    4    0    0  0.33630223549E+03 -0.51854132603E+02 -0.20224699931E+02  0.35006511541E+03  0.79677486613E+02 0.  0.
         13    1    3    3    0    0 -0.28757631798E+02  0.13628126862E+03  0.74637937530E+02  0.15802027491E+03  0.00000000000E+00 0.  1.
        -13    1    3    3    0    0 -0.11590896901E+03  0.31605957742E+03  0.38885114965E+02  0.33888139185E+03  0.00000000000E+00 0. -1.
          4    1    6    6  502    0  0.13461938620E+03 -0.59516824875E+02 -0.17428769089E+02  0.14821738621E+03  0.00000000000E+00 0. -1.
          1    1    5    5  503    0 -0.15381525546E+03 -0.26051463527E+03  0.62613257376E+03  0.69539126248E+03  0.00000000000E+00 0. -1.
         -2    1    5    5    0  503 -0.37820379219E+02 -0.13997207817E+03  0.22122506426E+03  0.26450537388E+03  0.00000000000E+00 0.  1.
         -3    1    6    6    0  502  0.20168284929E+03  0.76626922720E+01 -0.27959308422E+01  0.20184772919E+03  0.00000000000E+00 0.  1.
<mgrwt>
<rscale>  0 0.15426995E+04</rscale>
<asrwt>0</asrwt>
<pdfrwt beam="1">  1        2 0.66631341E-01 0.15426995E+04</pdfrwt>
<pdfrwt beam="2">  1       -2 0.21134764E+00 0.15426995E+04</pdfrwt>
<totfact> 0.78478689E+00</totfact>
</mgrwt>
</event>
<event>
12    1  0.2404959E-007  0.2454253E+04  0.7818608E-02  0.8419467E-01
          1   -1    0    0  501    0  0.00000000000E+00  0.00000000000E+00  0.22975936085E+04  0.22975936085E+04  0.00000000000E+00 0. -1.
         -1   -1    0    0    0  501 -0.00000000000E+00 -0.00000000000E+00 -0.65539851354E+03  0.65539851354E+03  0.00000000000E+00 0.  1.
         23    2    1    2    0    0  0.93525128022E+03  0.40199689937E+03  0.10673400693E+04  0.14777844557E+04  0.91299559534E+02 0.  0.
        254    2    1    2    0    0 -0.93525128022E+03 -0.40199689937E+03  0.57485502567E+03  0.14752076664E+04  0.89971267315E+03 0.  0.
        -24    2    4    4    0    0  0.64046250837E+02  0.80393101527E+02  0.30315103406E+03  0.33001893095E+03  0.80293040295E+02 0.  0.
         24    2    4    4    0    0 -0.99929753106E+03 -0.48239000090E+03  0.27170399161E+03  0.11451887355E+04  0.79614773790E+02 0.  0.
         13    1    3    3    0    0  0.39240627905E+03  0.12371559081E+03  0.45505752675E+03  0.61348642031E+03  0.00000000000E+00 0. -1.
        -13    1    3    3    0    0  0.54284500116E+03  0.27828130856E+03  0.61228254259E+03  0.86429803537E+03  0.00000000000E+00 0.  1.
          2    1    6    6  502    0 -0.89831402280E+03 -0.43642011178E+03  0.21942627157E+03  0.10225353227E+04  0.00000000000E+00 0. -1.
          1    1    5    5  503    0  0.77835104955E+02  0.40047581032E+02  0.19387752112E+03  0.21272189710E+03  0.00000000000E+00 0. -1.
         -2    1    5    5    0  503 -0.13788854118E+02  0.40345520496E+02  0.10927351293E+03  0.11729703385E+03  0.00000000000E+00 0.  1.
         -1    1    6    6    0  502 -0.10098350826E+03 -0.45969889120E+02  0.52277720046E+02  0.12265341275E+03  0.00000000000E+00 0.  1.
<mgrwt>
<rscale>  0 0.24542530E+04</rscale>
<asrwt>0</asrwt>
<pdfrwt beam="1">  1        1 0.35347594E+00 0.24542530E+04</pdfrwt>
<pdfrwt beam="2">  1       -1 0.10083054E+00 0.24542530E+04</pdfrwt>
<totfact> 0.15578847E+00</totfact>
</mgrwt>
</event>
<event>
12    1  0.2404959E-007  0.3167167E+04  0.7818608E-02  0.8197542E-01
          2   -1    0    0  501    0  0.00000000000E+00  0.00000000000E+00  0.31822731041E+04  0.31822731041E+04  0.00000000000E+00 0. -1.
         -2   -1    0    0    0  501 -0.00000000000E+00 -0.00000000000E+00 -0.78803318664E+03  0.78803318664E+03  0.00000000000E+00 0.  1.
         23    2    1    2    0    0  0.13168091211E+04 -0.14134166565E+03  0.18544107451E+04  0.22806839482E+04  0.93361299633E+02 0.  0.
        254    2    1    2    0    0 -0.13168091211E+04  0.14134166565E+03  0.53982917235E+03  0.16896223425E+04  0.89969127889E+03 0.  0.
        -24    2    4    4    0    0  0.10606606001E+03  0.10879615823E+03  0.99688337546E+02  0.19780962841E+03  0.78129836284E+02 0.  0.
         24    2    4    4    0    0 -0.14228751811E+04  0.32545507425E+02  0.44014083480E+03  0.14918127141E+04  0.78410640825E+02 0.  0.
         11    1    3    3    0    0  0.38447174308E+03 -0.68898387064E+02  0.49160403217E+03  0.62788536646E+03  0.00000000000E+00 0. -1.
        -11    1    3    3    0    0  0.93233737798E+03 -0.72443278587E+02  0.13628067130E+04  0.16527985818E+04  0.00000000000E+00 0.  1.
          4    1    6    6  502    0 -0.12647215140E+03 -0.19185995261E+02  0.43146495947E+02  0.13499973188E+03  0.00000000000E+00 0. -1.
          3    1    5    5  503    0 -0.70431231346E+01  0.34225917864E+02  0.14906081969E+02  0.37989608010E+02  0.00000000000E+00 0. -1.
         -4    1    5    5    0  503  0.11310918315E+03  0.74570240362E+02  0.84782255577E+02  0.15982002040E+03  0.00000000000E+00 0.  1.
         -3    1    6    6    0  502 -0.12964030297E+04  0.51731502687E+02  0.39699433886E+03  0.13568129822E+04  0.00000000000E+00 0.  1.
<mgrwt>
<rscale>  0 0.31671671E+04</rscale>
<asrwt>0</asrwt>
<pdfrwt beam="1">  1        2 0.48958047E+00 0.31671671E+04</pdfrwt>
<pdfrwt beam="2">  1       -2 0.12123588E+00 0.31671671E+04</pdfrwt>
<totfact> 0.58151160E-01</totfact>
</mgrwt>
</event>
<event>
12    1  0.2404959E-007  0.1830750E+04  0.7818608E-02  0.8690116E-01
          1   -1    0    0  501    0  0.00000000000E+00  0.00000000000E+00  0.22493829109E+04  0.22493829109E+04  0.00000000000E+00 0. -1.
         -1   -1    0    0    0  501 -0.00000000000E+00 -0.00000000000E+00 -0.37250711171E+03  0.37250711171E+03  0.00000000000E+00 0.  1.
         23    2    1    2    0    0 -0.41344137617E+03 -0.33926131596E+03  0.13421963736E+04  0.14474889986E+04  0.87756959202E+02 0.  0.
        254    2    1    2    0    0  0.41344137617E+03  0.33926131596E+03  0.53467942564E+03  0.11744010240E+04  0.89850078739E+03 0.  0.
        -24    2    4    4    0    0  0.52715838176E+03  0.14809914803E+03  0.69535728211E+03  0.88861368387E+03  0.79266716004E+02 0.  0.
         24    2    4    4    0    0 -0.11371700559E+03  0.19116216794E+03 -0.16067785647E+03  0.28578734014E+03  0.79890540190E+02 0.  0.
         13    1    3    3    0    0 -0.25865137668E+03 -0.18697437777E+03  0.89867026548E+03  0.95366042104E+03  0.00000000000E+00 0. -1.
        -13    1    3    3    0    0 -0.15478999949E+03 -0.15228693819E+03  0.44352610812E+03  0.49382857761E+03  0.00000000000E+00 0.  1.
          4    1    6    6  502    0 -0.55683721810E+02  0.26420632280E+02 -0.44310589957E+02  0.75908860267E+02  0.00000000000E+00 0. -1.
          1    1    5    5  503    0  0.45560907006E+03  0.13035616834E+03  0.55277092833E+03  0.72809893184E+03  0.00000000000E+00 0. -1.
         -2    1    5    5    0  503  0.71549311702E+02  0.17742979691E+02  0.14258635378E+03  0.16051475203E+03  0.00000000000E+00 0.  1.
         -3    1    6    6    0  502 -0.58033283782E+02  0.16474153566E+03 -0.11636726651E+03  0.20987847987E+03  0.00000000000E+00 0.  1.
<mgrwt>
<rscale>  0 0.18307497E+04</rscale>
<asrwt>0</asrwt>
<pdfrwt beam="1">  1        1 0.34605890E+00 0.18307497E+04</pdfrwt>
<pdfrwt beam="2">  1       -1 0.57308788E-01 0.18307497E+04</pdfrwt>
<totfact> 0.58518147E+00</totfact>
</mgrwt>
</event>
<event>
12    1  0.2404959E-007  0.3106372E+04  0.7818608E-02  0.8213991E-01
          2   -1    0    0  501    0  0.00000000000E+00  0.00000000000E+00  0.14945167776E+04  0.14945167776E+04  0.00000000000E+00 0. -1.
         -2   -1    0    0    0  501 -0.00000000000E+00 -0.00000000000E+00 -0.16141582196E+04  0.16141582196E+04  0.00000000000E+00 0.  1.
         23    2    1    2    0    0 -0.11445283315E+04 -0.83407667071E+03  0.44023522587E+02  0.14198373894E+04  0.91493974696E+02 0.  0.
        254    2    1    2    0    0  0.11445283315E+04  0.83407667071E+03 -0.16366496450E+03  0.16888376078E+04  0.90540446800E+03 0.  0.
        -24    2    4    4    0    0  0.10959269307E+04  0.31798775568E+03 -0.20556946745E+03  0.11626859287E+04  0.86068070255E+02 0.  0.
         24    2    4    4    0    0  0.48601400897E+02  0.51608891503E+03  0.41904502948E+02  0.52615167915E+03  0.79810636630E+02 0.  0.
         11    1    3    3    0    0 -0.14554651307E+03 -0.70345595099E+02  0.75448565814E+01  0.16183082240E+03  0.00000000000E+00 0.  1.
        -11    1    3    3    0    0 -0.99898181848E+03 -0.76373107561E+03  0.36478666006E+02  0.12580065670E+04  0.00000000000E+00 0. -1.
          4    1    6    6  502    0  0.11596314574E+02  0.42956413350E+03  0.24251615898E+02  0.43040441468E+03  0.00000000000E+00 0. -1.
          1    1    5    5  503    0  0.60033880422E+03  0.19843611006E+03 -0.15023383201E+03  0.64988750866E+03  0.00000000000E+00 0. -1.
         -2    1    5    5    0  503  0.49558812643E+03  0.11955164562E+03 -0.55335635440E+02  0.51279842002E+03  0.00000000000E+00 0.  1.
         -3    1    6    6    0  502  0.37005086323E+02  0.86524781529E+02  0.17652887050E+02  0.95747264471E+02  0.00000000000E+00 0.  1.
<mgrwt>
<rscale>  0 0.31063719E+04</rscale>
<asrwt>0</asrwt>
<pdfrwt beam="1">  1        2 0.22992566E+00 0.31063719E+04</pdfrwt>
<pdfrwt beam="2">  1       -2 0.24833203E+00 0.31063719E+04</pdfrwt>
<totfact> 0.71387002E-01</totfact>
</mgrwt>
</event>
<event>
12    1  0.2404959E-007  0.1327988E+04  0.7818608E-02  0.9007660E-01
         -1   -1    0    0    0  501 -0.00000000000E+00  0.00000000000E+00  0.15831173695E+04  0.15831173695E+04  0.00000000000E+00 0.  1.
          1   -1    0    0  501    0  0.00000000000E+00 -0.00000000000E+00 -0.27849349480E+03  0.27849349480E+03  0.00000000000E+00 0. -1.
         23    2    1    2    0    0  0.63534746413E+02 -0.32088318771E+03  0.18158100041E+03  0.38562452541E+03  0.93444800425E+02 0.  0.
        254    2    1    2    0    0 -0.63534746413E+02  0.32088318771E+03  0.11230428743E+04  0.14759863389E+04  0.90017092319E+03 0.  0.
        -24    2    4    4    0    0 -0.40225985051E+03  0.36225965517E+03  0.92055216426E+03  0.10708695326E+04  0.79373947939E+02 0.  0.
         24    2    4    4    0    0  0.33872510410E+03 -0.41376467456E+02  0.20249071006E+03  0.40511680632E+03  0.81672705986E+02 0.  0.
         11    1    3    3    0    0  0.21766833649E+02 -0.14130386521E+03  0.13227011046E+03  0.19477155719E+03  0.00000000000E+00 0.  1.
        -11    1    3    3    0    0  0.41767912764E+02 -0.17957932251E+03  0.49310889950E+02  0.19085296822E+03  0.00000000000E+00 0. -1.
          2    1    6    6  502    0  0.19308633401E+03 -0.43876639784E+02  0.15643854914E+03  0.25234997831E+03  0.00000000000E+00 0. -1.
          3    1    5    5  503    0 -0.37923335589E+03  0.34436157190E+03  0.82622910814E+03  0.97214061203E+03  0.00000000000E+00 0. -1.
         -4    1    5    5    0  503 -0.23026494623E+02  0.17898083267E+02  0.94323056121E+02  0.98728920561E+02  0.00000000000E+00 0.  1.
         -1    1    6    6    0  502  0.14563877009E+03  0.25001723281E+01  0.46052160918E+02  0.15276682801E+03  0.00000000000E+00 0.  1.
<mgrwt>
<rscale>  0 0.13279878E+04</rscale>
<asrwt>0</asrwt>
<pdfrwt beam="1">  1        1 0.42845154E-01 0.13279878E+04</pdfrwt>
<pdfrwt beam="2">  1       -1 0.24355651E+00 0.13279878E+04</pdfrwt>
<totfact> 0.72861998E+00</totfact>
</mgrwt>
</event>
<event>
12    1  0.2404959E-007  0.1946750E+04  0.7818608E-02  0.8631929E-01
         -2   -1    0    0    0  501 -0.00000000000E+00  0.00000000000E+00  0.44150030084E+03  0.44150030084E+03  0.00000000000E+00 0.  1.
          2   -1    0    0  501    0  0.00000000000E+00 -0.00000000000E+00 -0.21459987848E+04  0.21459987848E+04  0.00000000000E+00 0. -1.
         23    2    1    2    0    0  0.59443419836E+03  0.39637267594E+03 -0.10214905803E+04  0.12499051158E+04  0.91413776398E+02 0.  0.
        254    2    1    2    0    0 -0.59443419836E+03 -0.39637267594E+03 -0.68300790368E+03  0.13375939698E+04  0.90121835158E+03 0.  0.
        -24    2    4    4    0    0  0.16791064587E+03  0.12299099517E+03 -0.11437979975E+03  0.25085580674E+03  0.80778260041E+02 0.  0.
         24    2    4    4    0    0 -0.76234484423E+03 -0.51936367111E+03 -0.56862810393E+03  0.10867381631E+04  0.82180473004E+02 0.  0.
         13    1    3    3    0    0  0.15039557543E+03  0.72721224453E+02 -0.29506723828E+03  0.33907503698E+03  0.00000000000E+00 0. -1.
        -13    1    3    3    0    0  0.44403862293E+03  0.32365145149E+03 -0.72642334198E+03  0.91083007881E+03  0.00000000000E+00 0.  1.
          2    1    6    6  502    0 -0.56358913937E+03 -0.34739428603E+03 -0.43188192018E+03  0.79046663494E+03  0.00000000000E+00 0. -1.
          1    1    5    5  503    0  0.10097986939E+03  0.77813370256E+02 -0.24117222127E+02  0.12974395946E+03  0.00000000000E+00 0. -1.
         -2    1    5    5    0  503  0.66930776476E+02  0.45177624915E+02 -0.90262577622E+02  0.12111184728E+03  0.00000000000E+00 0.  1.
         -1    1    6    6    0  502 -0.19875570486E+03 -0.17196938508E+03 -0.13674618375E+03  0.29627152815E+03  0.00000000000E+00 0.  1.
<mgrwt>
<rscale>  0 0.19467502E+04</rscale>
<asrwt>0</asrwt>
<pdfrwt beam="1">  1        2 0.33015365E+00 0.19467502E+04</pdfrwt>
<pdfrwt beam="2">  1       -2 0.67923125E-01 0.19467502E+04</pdfrwt>
<totfact> 0.10256553E+01</totfact>
</mgrwt>
</event>
<event>
12    1  0.2404959E-007  0.1952264E+04  0.7818608E-02  0.8629270E-01
         -2   -1    0    0    0  501 -0.00000000000E+00  0.00000000000E+00  0.35236175856E+03  0.35236175856E+03  0.00000000000E+00 0.  1.
          2   -1    0    0  501    0  0.00000000000E+00 -0.00000000000E+00 -0.27041350265E+04  0.27041350265E+04  0.00000000000E+00 0. -1.
         23    2    1    2    0    0  0.22249176218E+02 -0.56858401854E+03 -0.17291491466E+04  0.18227568363E+04  0.93289341355E+02 0.  0.
        254    2    1    2    0    0 -0.22249176218E+02  0.56858401854E+03 -0.62262412137E+03  0.12337399488E+04  0.90037250773E+03 0.  0.
        -24    2    4    4    0    0  0.14098961256E+03 -0.93778729284E+02  0.11983678785E+03  0.22209515531E+03  0.79327683515E+02 0.  0.
         24    2    4    4    0    0 -0.16323878878E+03  0.66236274783E+03 -0.74246090922E+03  0.10116447935E+04  0.82496512202E+02 0.  0.
         11    1    3    3    0    0  0.45946042892E+02 -0.25040559918E+03 -0.67659548130E+03  0.72290763468E+03  0.00000000000E+00 0.  1.
        -11    1    3    3    0    0 -0.23696866674E+02 -0.31817841936E+03 -0.10525536653E+04  0.10998492016E+04  0.00000000000E+00 0. -1.
          2    1    6    6  502    0 -0.51608621633E+00  0.11713300469E+03 -0.14826739553E+03  0.18895403598E+03  0.00000000000E+00 0. -1.
          1    1    5    5  503    0 -0.67316248208E+01 -0.16800952685E+02  0.23523009212E+02  0.29680275373E+02  0.00000000000E+00 0. -1.
         -2    1    5    5    0  503  0.14772123739E+03 -0.76977776599E+02  0.96313778639E+02  0.19241487993E+03  0.00000000000E+00 0.  1.
         -3    1    6    6    0  502 -0.16272270257E+03  0.54522974313E+03 -0.59419351369E+03  0.82269075748E+03  0.00000000000E+00 0.  1.
<mgrwt>
<rscale>  0 0.19522641E+04</rscale>
<asrwt>0</asrwt>
<pdfrwt beam="1">  1        2 0.41602077E+00 0.19522641E+04</pdfrwt>
<pdfrwt beam="2">  1       -2 0.54209502E-01 0.19522641E+04</pdfrwt>
<totfact> 0.79007840E+00</totfact>
</mgrwt>
</event>
<event>
12    1  0.2404959E-007  0.4225750E+04  0.7818608E-02  0.7960492E-01
         -2   -1    0    0    0  501 -0.00000000000E+00  0.00000000000E+00  0.15699171790E+04  0.15699171790E+04  0.00000000000E+00 0.  1.
          2   -1    0    0  501    0  0.00000000000E+00 -0.00000000000E+00 -0.28436153831E+04  0.28436153831E+04  0.00000000000E+00 0. -1.
         23    2    1    2    0    0 -0.16275694564E+04 -0.85820939939E+03  0.25290921984E+03  0.18594728968E+04  0.90391768835E+02 0.  0.
        254    2    1    2    0    0  0.16275694564E+04  0.85820939939E+03 -0.15266074239E+04  0.25540596653E+04  0.89843466019E+03 0.  0.
        -24    2    4    4    0    0  0.76062031794E+03 -0.58048845556E+02 -0.73782694083E+03  0.10643316378E+04  0.80624463756E+02 0.  0.
         24    2    4    4    0    0  0.86694913841E+03  0.91625824494E+03 -0.78878048309E+03  0.14897280274E+04  0.77362557104E+02 0.  0.
         11    1    3    3    0    0 -0.10346075936E+04 -0.57223162442E+03  0.19906508607E+03  0.11989532156E+04  0.00000000000E+00 0. -1.
        -11    1    3    3    0    0 -0.59296186278E+03 -0.28597777496E+03  0.53844133769E+02  0.66051968118E+03  0.00000000000E+00 0.  1.
          4    1    6    6  502    0  0.53556647112E+03  0.58254203147E+03 -0.45237933956E+03  0.91150081200E+03  0.00000000000E+00 0. -1.
          3    1    5    5  503    0  0.58446832616E+03 -0.70068304838E+02 -0.59790833547E+03  0.83905135079E+03  0.00000000000E+00 0. -1.
         -4    1    5    5    0  503  0.17615199178E+03  0.12019459283E+02 -0.13991860536E+03  0.22528028705E+03  0.00000000000E+00 0.  1.
         -3    1    6    6    0  502  0.33138266729E+03  0.33371621347E+03 -0.33640114352E+03  0.57822721544E+03  0.00000000000E+00 0.  1.
<mgrwt>
<rscale>  0 0.42257499E+04</rscale>
<asrwt>0</asrwt>
<pdfrwt beam="1">  1        2 0.43747928E+00 0.42257499E+04</pdfrwt>
<pdfrwt beam="2">  1       -2 0.24152573E+00 0.42257499E+04</pdfrwt>
<totfact> 0.12211233E-01</totfact>
</mgrwt>
</event>
<event>
12    1  0.2404959E-007  0.1689691E+04  0.7818608E-02  0.8767266E-01
          1   -1    0    0  501    0  0.00000000000E+00  0.00000000000E+00  0.24875890969E+04  0.24875890969E+04  0.00000000000E+00 0. -1.
         -1   -1    0    0    0  501 -0.00000000000E+00 -0.00000000000E+00 -0.28693013291E+03  0.28693013291E+03  0.00000000000E+00 0.  1.
         23    2    1    2    0    0 -0.39016600113E+03 -0.45694611384E+03  0.66585992602E+03  0.90130852999E+03  0.89209673011E+02 0.  0.
        254    2    1    2    0    0  0.39016600113E+03  0.45694611384E+03  0.15347990380E+04  0.18732106998E+04  0.89010166813E+03 0.  0.
        -24    2    4    4    0    0  0.10889926180E+03 -0.50360490540E+02 -0.73234192846E+02  0.16195460263E+03  0.80441395326E+02 0.  0.
         24    2    4    4    0    0  0.28126673933E+03  0.50730660438E+03  0.16080332308E+04  0.17112560972E+04  0.78457563613E+02 0.  0.
         11    1    3    3    0    0 -0.24553070400E+03 -0.34399231555E+03  0.43663558202E+03  0.60767316154E+03  0.00000000000E+00 0. -1.
        -11    1    3    3    0    0 -0.14463529713E+03 -0.11295379829E+03  0.22922434400E+03  0.29363536845E+03  0.00000000000E+00 0.  1.
          2    1    6    6  502    0  0.21294480866E+03  0.39711633478E+03  0.11469496676E+04  0.12322907185E+04  0.00000000000E+00 0. -1.
          1    1    5    5  503    0  0.75876541931E+02 -0.71919075485E+02 -0.58888971386E+02  0.11998964116E+03  0.00000000000E+00 0. -1.
         -2    1    5    5    0  503  0.33022719872E+02  0.21558584945E+02 -0.14345221460E+02  0.41964961471E+02  0.00000000000E+00 0.  1.
         -1    1    6    6    0  502  0.68321930661E+02  0.11019026959E+03  0.46108356326E+03  0.47896537874E+03  0.00000000000E+00 0.  1.
<mgrwt>
<rscale>  0 0.16896914E+04</rscale>
<asrwt>0</asrwt>
<pdfrwt beam="1">  1        1 0.38270600E+00 0.16896914E+04</pdfrwt>
<pdfrwt beam="2">  1       -1 0.44143099E-01 0.16896914E+04</pdfrwt>
<totfact> 0.66915877E+00</totfact>
</mgrwt>
</event>
<event>
12    1  0.2404959E-007  0.1346132E+04  0.7818608E-02  0.8993761E-01
          2   -1    0    0  501    0  0.00000000000E+00  0.00000000000E+00  0.19287154869E+04  0.19287154869E+04  0.00000000000E+00 0. -1.
         -2   -1    0    0    0  501 -0.00000000000E+00 -0.00000000000E+00 -0.23488052136E+03  0.23488052136E+03  0.00000000000E+00 0.  1.
         23    2    1    2    0    0 -0.25199383751E+03  0.25303699815E+03  0.58658785424E+03  0.69295175478E+03  0.92564610624E+02 0.  0.
        254    2    1    2    0    0  0.25199383751E+03 -0.25303699815E+03  0.11072471113E+04  0.14706442534E+04  0.89959420753E+03 0.  0.
        -24    2    4    4    0    0  0.11776461687E+03 -0.28503977426E+03 -0.32366950101E+02  0.31997634214E+03  0.78873710299E+02 0.  0.
         24    2    4    4    0    0  0.13422922063E+03  0.32002776101E+02  0.11396140614E+04  0.11506679113E+04  0.79213457820E+02 0.  0.
         13    1    3    3    0    0 -0.84056712655E+02  0.77599946330E+02  0.11340238263E+03  0.16108191394E+03  0.00000000000E+00 0.  1.
        -13    1    3    3    0    0 -0.16793712485E+03  0.17543705182E+03  0.47318547160E+03  0.53186984084E+03  0.00000000000E+00 0. -1.
          2    1    6    6  502    0  0.14475799343E+03  0.29921860502E+02  0.10835058894E+04  0.10935425034E+04  0.00000000000E+00 0. -1.
          3    1    5    5  503    0  0.17717366301E+02 -0.13212998803E+03  0.52378743722E+01  0.13341541940E+03  0.00000000000E+00 0. -1.
         -4    1    5    5    0  503  0.10004725057E+03 -0.15290978622E+03 -0.37604824473E+02  0.18656092274E+03  0.00000000000E+00 0.  1.
         -1    1    6    6    0  502 -0.10528772793E+02  0.20809155990E+01  0.56108171954E+02  0.57125407887E+02  0.00000000000E+00 0.  1.
<mgrwt>
<rscale>  0 0.13461318E+04</rscale>
<asrwt>0</asrwt>
<pdfrwt beam="1">  1        2 0.29672545E+00 0.13461318E+04</pdfrwt>
<pdfrwt beam="2">  1       -2 0.36135466E-01 0.13461318E+04</pdfrwt>
<totfact> 0.51552127E+01</totfact>
</mgrwt>
</event>
<event>
12    1  0.2404959E-007  0.1874843E+04  0.7818608E-02  0.8667481E-01
          2   -1    0    0  501    0  0.00000000000E+00  0.00000000000E+00  0.18748910415E+04  0.18748910415E+04  0.00000000000E+00 0. -1.
         -2   -1    0    0    0  501 -0.00000000000E+00 -0.00000000000E+00 -0.46869880203E+03  0.46869880203E+03  0.00000000000E+00 0.  1.
         23    2    1    2    0    0  0.36678857870E+03  0.83301159083E+02 -0.22005209603E+03  0.44632807351E+03  0.96503262448E+02 0.  0.
        254    2    1    2    0    0 -0.36678857870E+03 -0.83301159083E+02  0.16262443355E+04  0.18972617700E+04  0.90191942027E+03 0.  0.
        -24    2    4    4    0    0 -0.64337247356E+02 -0.24949523267E+03  0.39290911962E+02  0.27122319633E+03  0.75040615287E+02 0.  0.
         24    2    4    4    0    0 -0.30245133135E+03  0.16619407358E+03  0.15869534235E+04  0.16260385737E+04  0.80517058746E+02 0.  0.
         13    1    3    3    0    0  0.23396212130E+03  0.10000432375E+03 -0.14431428322E+03  0.29251624111E+03  0.00000000000E+00 0. -1.
        -13    1    3    3    0    0  0.13282645740E+03 -0.16703164670E+02 -0.75737812807E+02  0.15381183239E+03  0.00000000000E+00 0.  1.
          4    1    6    6  502    0 -0.16163093657E+02  0.35481742021E+02  0.20856673435E+03  0.21217983479E+03  0.00000000000E+00 0. -1.
          1    1    5    5  503    0 -0.57606200899E+02 -0.13706741927E+03 -0.83896129418E+01  0.14891721665E+03  0.00000000000E+00 0. -1.
         -2    1    5    5    0  503 -0.67310464576E+01 -0.11242781339E+03  0.47680524904E+02  0.12230597968E+03  0.00000000000E+00 0.  1.
         -3    1    6    6    0  502 -0.28628823769E+03  0.13071233156E+03  0.13783866891E+04  0.14138587389E+04  0.00000000000E+00 0.  1.
<mgrwt>
<rscale>  0 0.18748431E+04</rscale>
<asrwt>0</asrwt>
<pdfrwt beam="1">  1        2 0.28844477E+00 0.18748431E+04</pdfrwt>
<pdfrwt beam="2">  1       -2 0.72107509E-01 0.18748431E+04</pdfrwt>
<totfact> 0.12815851E+01</totfact>
</mgrwt>
</event>
<event>
12    1  0.2404959E-007  0.1814877E+04  0.7818608E-02  0.8698428E-01
          2   -1    0    0  501    0  0.00000000000E+00  0.00000000000E+00  0.25510866041E+04  0.25510866041E+04  0.00000000000E+00 0. -1.
         -2   -1    0    0    0  501 -0.00000000000E+00 -0.00000000000E+00 -0.32278206840E+03  0.32278206840E+03  0.00000000000E+00 0.  1.
         23    2    1    2    0    0 -0.66465360103E+03  0.42035506526E+02  0.10587958498E+04  0.12538068593E+04  0.86322625445E+02 0.  0.
        254    2    1    2    0    0  0.66465360103E+03 -0.42035506526E+02  0.11695086859E+04  0.16200618132E+04  0.90184162640E+03 0.  0.
        -24    2    4    4    0    0  0.45047031973E+03  0.23817179719E+03  0.11473194640E+04  0.12579445192E+04  0.80206901097E+02 0.  0.
         24    2    4    4    0    0  0.21418328130E+03 -0.28020730371E+03  0.22189221876E+02  0.36211729401E+03  0.79031398887E+02 0.  0.
         11    1    3    3    0    0 -0.50736018498E+03  0.57849873017E+02  0.75732787783E+03  0.91340378784E+03  0.00000000000E+00 0.  1.
        -11    1    3    3    0    0 -0.15729341605E+03 -0.15814366492E+02  0.30146797202E+03  0.34040307148E+03  0.00000000000E+00 0. -1.
          4    1    6    6  502    0  0.16105516853E+03 -0.19136859953E+03  0.49699220651E+02  0.25501121686E+03  0.00000000000E+00 0. -1.
          1    1    5    5  503    0  0.26118769854E+03  0.17619121455E+03  0.65389583299E+03  0.72583890661E+03  0.00000000000E+00 0. -1.
         -2    1    5    5    0  503  0.18928262120E+03  0.61980582639E+02  0.49342363100E+03  0.53210561258E+03  0.00000000000E+00 0.  1.
         -3    1    6    6    0  502  0.53128112771E+02 -0.88838704185E+02 -0.27509998775E+02  0.10710607714E+03  0.00000000000E+00 0.  1.
<mgrwt>
<rscale>  0 0.18148774E+04</rscale>
<asrwt>0</asrwt>
<pdfrwt beam="1">  1        2 0.39247485E+00 0.18148774E+04</pdfrwt>
<pdfrwt beam="2">  1       -2 0.49658781E-01 0.18148774E+04</pdfrwt>
<totfact> 0.11778736E+01</totfact>
</mgrwt>
</event>
<event>
12    1  0.2404959E-007  0.1845623E+04  0.7818608E-02  0.8682407E-01
          2   -1    0    0  501    0  0.00000000000E+00  0.00000000000E+00  0.25326743536E+04  0.25326743536E+04  0.00000000000E+00 0. -1.
         -2   -1    0    0    0  501 -0.00000000000E+00 -0.00000000000E+00 -0.33623785351E+03  0.33623785351E+03  0.00000000000E+00 0.  1.
         23    2    1    2    0    0  0.61768878642E+03  0.68010719809E+02  0.13419786901E+04  0.14816387679E+04  0.90452965121E+02 0.  0.
        254    2    1    2    0    0 -0.61768878642E+03 -0.68010719809E+02  0.85445780995E+03  0.13872734392E+04  0.89903534483E+03 0.  0.
        -24    2    4    4    0    0  0.30924424890E+02  0.31870104091E+03  0.31124448849E+03  0.45369131074E+03  0.80224686267E+02 0.  0.
         24    2    4    4    0    0 -0.64861321131E+03 -0.38671176072E+03  0.54321332146E+03  0.93358212847E+03  0.79055640055E+02 0.  0.
         13    1    3    3    0    0  0.37626506255E+03  0.15973713329E+01  0.85206064330E+03  0.93144258479E+03  0.00000000000E+00 0. -1.
        -13    1    3    3    0    0  0.24142372386E+03  0.66413348476E+02  0.48991804685E+03  0.55019618312E+03  0.00000000000E+00 0.  1.
          2    1    6    6  502    0 -0.55430159065E+03 -0.29587436858E+03  0.45077684422E+03  0.77329920384E+03  0.00000000000E+00 0. -1.
          1    1    5    5  503    0  0.17603313650E+02  0.31448587648E+03  0.30478609745E+03  0.43829876609E+03  0.00000000000E+00 0. -1.
         -2    1    5    5    0  503  0.13321111240E+02  0.42151644348E+01  0.64583910431E+01  0.15392544648E+02  0.00000000000E+00 0.  1.
         -1    1    6    6    0  502 -0.94311620655E+02 -0.90837392146E+02  0.92436477246E+02  0.16028292463E+03  0.00000000000E+00 0.  1.
<mgrwt>
<rscale>  0 0.18456229E+04</rscale>
<asrwt>0</asrwt>
<pdfrwt beam="1">  1        2 0.38964220E+00 0.18456229E+04</pdfrwt>
<pdfrwt beam="2">  1       -2 0.51728902E-01 0.18456229E+04</pdfrwt>
<totfact> 0.11075026E+01</totfact>
</mgrwt>
</event>
<event>
12    1  0.2404959E-007  0.2341887E+04  0.7818608E-02  0.8461586E-01
          4   -1    0    0  501    0  0.00000000000E+00  0.00000000000E+00  0.99835091154E+03  0.99835091154E+03  0.00000000000E+00 0. -1.
         -4   -1    0    0    0  501 -0.00000000000E+00 -0.00000000000E+00 -0.13733738924E+04  0.13733738924E+04  0.00000000000E+00 0.  1.
         23    2    1    2    0    0 -0.84389951872E+03 -0.15346189563E+03  0.35177851266E+03  0.93156359296E+03  0.91354554648E+02 0.  0.
        254    2    1    2    0    0  0.84389951872E+03  0.15346189563E+03 -0.72680149349E+03  0.14401612109E+04  0.90005941551E+03 0.  0.
        -24    2    4    4    0    0  0.40242579541E+03  0.50724811050E+03 -0.25945601530E+03  0.70203268568E+03  0.79279893253E+02 0.  0.
         24    2    4    4    0    0  0.44147372332E+03 -0.35378621487E+03 -0.46734547819E+03  0.73812852526E+03  0.79738256896E+02 0.  0.
         11    1    3    3    0    0 -0.41555836790E+03 -0.91596572846E+02  0.22071264105E+03  0.47936704017E+03  0.00000000000E+00 0. -1.
        -11    1    3    3    0    0 -0.42834115082E+03 -0.61865322784E+02  0.13106587161E+03  0.45219655279E+03  0.00000000000E+00 0.  1.
          2    1    6    6  502    0  0.31122334372E+03 -0.29293317065E+03 -0.35745793770E+03  0.55717680261E+03  0.00000000000E+00 0. -1.
          1    1    5    5  503    0  0.26617578239E+03  0.27466019536E+03 -0.16257388023E+03  0.41559359545E+03  0.00000000000E+00 0. -1.
         -2    1    5    5    0  503  0.13625001301E+03  0.23258791514E+03 -0.96882135075E+02  0.28643909023E+03  0.00000000000E+00 0.  1.
         -1    1    6    6    0  502  0.13025037959E+03 -0.60853044216E+02 -0.10988754048E+03  0.18095172265E+03  0.00000000000E+00 0.  1.
<mgrwt>
<rscale>  0 0.23418873E+04</rscale>
<asrwt>0</asrwt>
<pdfrwt beam="1">  1        4 0.15359245E+00 0.23418873E+04</pdfrwt>
<pdfrwt beam="2">  1       -4 0.21128829E+00 0.23418873E+04</pdfrwt>
<totfact> 0.55993265E-02</totfact>
</mgrwt>
</event>
<event>
12    1  0.2404959E-007  0.2463809E+04  0.7818608E-02  0.8415993E-01
         -1   -1    0    0    0  501 -0.00000000000E+00  0.00000000000E+00  0.11735059424E+04  0.11735059424E+04  0.00000000000E+00 0.  1.
          1   -1    0    0  501    0  0.00000000000E+00 -0.00000000000E+00 -0.12932092952E+04  0.12932092952E+04  0.00000000000E+00 0. -1.
         23    2    1    2    0    0  0.10209917612E+04  0.96294714582E+02  0.23727437993E+03  0.10564295727E+04  0.89707648278E+02 0.  0.
        254    2    1    2    0    0 -0.10209917612E+04 -0.96294714582E+02 -0.35697773276E+03  0.14102856650E+04  0.89987538388E+03 0.  0.
        -24    2    4    4    0    0  0.81006567742E+02  0.82668075172E+02  0.12823261174E+03  0.19037983932E+03  0.80030030835E+02 0.  0.
         24    2    4    4    0    0 -0.11019983290E+04 -0.17896278975E+03 -0.48521034449E+03  0.12199058256E+04  0.79455319671E+02 0.  0.
         11    1    3    3    0    0  0.39648841554E+03  0.81380169709E+02  0.94622389019E+02  0.41566716514E+03  0.00000000000E+00 0.  1.
        -11    1    3    3    0    0  0.62450334570E+03  0.14914544874E+02  0.14265199091E+03  0.64076240757E+03  0.00000000000E+00 0. -1.
          2    1    6    6  502    0 -0.11198814756E+03 -0.46039912170E+01 -0.27765031602E+02  0.11547051100E+03  0.00000000000E+00 0. -1.
          3    1    5    5  503    0  0.66313258376E+02  0.35254224548E+02  0.31076412625E+02  0.81277623037E+02  0.00000000000E+00 0. -1.
         -2    1    5    5    0  503  0.14693309366E+02  0.47413850624E+02  0.97156199113E+02  0.10910221628E+03  0.00000000000E+00 0.  1.
         -1    1    6    6    0  502 -0.99001018142E+03 -0.17435879854E+03 -0.45744531289E+03  0.11044353146E+04  0.00000000000E+00 0.  1.
<mgrwt>
<rscale>  0 0.24638091E+04</rscale>
<asrwt>0</asrwt>
<pdfrwt beam="1">  1        1 0.19895528E+00 0.24638091E+04</pdfrwt>
<pdfrwt beam="2">  1       -1 0.18053937E+00 0.24638091E+04</pdfrwt>
<totfact> 0.16815739E+00</totfact>
</mgrwt>
</event>
<event>
12    1  0.2404959E-007  0.1385166E+04  0.7818608E-02  0.8964626E-01
         -2   -1    0    0    0  501 -0.00000000000E+00  0.00000000000E+00  0.22560824946E+03  0.22560824946E+03  0.00000000000E+00 0. -1.
          2   -1    0    0  501    0  0.00000000000E+00 -0.00000000000E+00 -0.21261258031E+04  0.21261258031E+04  0.00000000000E+00 0.  1.
         23    2    1    2    0    0  0.15443579903E+03  0.26154539029E+03 -0.13078684440E+03  0.34311775428E+03  0.91477797461E+02 0.  0.
        254    2    1    2    0    0 -0.15443579903E+03 -0.26154539029E+03 -0.17697307092E+04  0.20086162983E+04  0.90018678245E+03 0.  0.
        -24    2    4    4    0    0 -0.88919382422E+02  0.25491642598E+03 -0.17879103191E+03  0.33277599195E+03  0.76711061267E+02 0.  0.
         24    2    4    4    0    0 -0.65516416612E+02 -0.51646181627E+03 -0.15909396773E+04  0.16758403063E+04  0.79539090558E+02 0.  0.
         13    1    3    3    0    0  0.16307292591E+03  0.22985685516E+03 -0.10288116530E+03  0.30001914473E+03  0.00000000000E+00 0. -1.
        -13    1    3    3    0    0 -0.86371268763E+01  0.31688535128E+02 -0.27905679099E+02  0.43098609550E+02  0.00000000000E+00 0.  1.
          2    1    6    6  502    0  0.12762339918E+02 -0.18196361650E+02 -0.71370599402E+02  0.74751236488E+02  0.00000000000E+00 0. -1.
          1    1    5    5  503    0 -0.14130119290E+02 -0.87229919593E+00 -0.83757445171E+01  0.16449142022E+02  0.00000000000E+00 0. -1.
         -2    1    5    5    0  503 -0.74789263132E+02  0.25578872518E+03 -0.17041528740E+03  0.31632684993E+03  0.00000000000E+00 0.  1.
         -1    1    6    6    0  502 -0.78278756530E+02 -0.49826545462E+03 -0.15195690779E+04  0.16010890698E+04  0.00000000000E+00 0.  1.
<mgrwt>
<rscale>  0 0.13851664E+04</rscale>
<asrwt>0</asrwt>
<pdfrwt beam="1">  1        2 0.32709628E+00 0.13851664E+04</pdfrwt>
<pdfrwt beam="2">  1       -2 0.34708962E-01 0.13851664E+04</pdfrwt>
<totfact> 0.43142700E+01</totfact>
</mgrwt>
</event>
<event>
12    1  0.2404959E-007  0.2566866E+04  0.7818608E-02  0.8379544E-01
          2   -1    0    0  501    0  0.00000000000E+00  0.00000000000E+00  0.77573515016E+03  0.77573515016E+03  0.00000000000E+00 0. -1.
         -2   -1    0    0    0  501 -0.00000000000E+00 -0.00000000000E+00 -0.21234058956E+04  0.21234058956E+04  0.00000000000E+00 0.  1.
         23    2    1    2    0    0  0.58308197745E+03 -0.68744333316E+03  0.16294733552E+03  0.92068882962E+03  0.92483285504E+02 0.  0.
        254    2    1    2    0    0 -0.58308197745E+03  0.68744333316E+03 -0.15106180810E+04  0.19784522161E+04  0.90539673973E+03 0.  0.
        -24    2    4    4    0    0 -0.24678564310E+02  0.25857212409E+02  0.10964349614E+03  0.13970252634E+03  0.78850952114E+02 0.  0.
         24    2    4    4    0    0 -0.55840341314E+03  0.66158612076E+03 -0.16202615771E+04  0.18387496898E+04  0.79008079178E+02 0.  0.
         11    1    3    3    0    0  0.42157575141E+03 -0.50458778688E+03  0.15997352563E+03  0.67670265091E+03  0.00000000000E+00 0. -1.
        -11    1    3    3    0    0  0.16150622604E+03 -0.18285554628E+03  0.29738098832E+01  0.24398617871E+03  0.00000000000E+00 0.  1.
          2    1    6    6  502    0 -0.40666043027E+03  0.52234356460E+03 -0.12790412490E+04  0.14401951332E+04  0.00000000000E+00 0. -1.
          3    1    5    5  503    0  0.76345573321E+01 -0.11038743327E+02  0.82623891065E+02  0.83706915453E+02  0.00000000000E+00 0. -1.
         -4    1    5    5    0  503 -0.32313121642E+02  0.36895955736E+02  0.27019605074E+02  0.55995610884E+02  0.00000000000E+00 0.  1.
         -3    1    6    6    0  502 -0.15174298286E+03  0.13924255615E+03 -0.34122032812E+03  0.39855455663E+03  0.00000000000E+00 0.  1.
<mgrwt>
<rscale>  0 0.25668663E+04</rscale>
<asrwt>0</asrwt>
<pdfrwt beam="1">  1        2 0.11934387E+00 0.25668663E+04</pdfrwt>
<pdfrwt beam="2">  1       -2 0.32667783E+00 0.25668663E+04</pdfrwt>
<totfact> 0.69300037E-01</totfact>
</mgrwt>
</event>
<event>
12    1  0.2404959E-007  0.1427190E+04  0.7818608E-02  0.8934369E-01
          2   -1    0    0  501    0  0.00000000000E+00  0.00000000000E+00  0.10256692714E+04  0.10256692714E+04  0.00000000000E+00 0. -1.
         -2   -1    0    0    0  501 -0.00000000000E+00 -0.00000000000E+00 -0.49647371445E+03  0.49647371445E+03  0.00000000000E+00 0.  1.
         23    2    1    2    0    0 -0.80000596389E+02 -0.98044485428E+02  0.58955082138E+03  0.60874240803E+03  0.83572314771E+02 0.  0.
        254    2    1    2    0    0  0.80000596389E+02  0.98044485428E+02 -0.60355264397E+02  0.91340057786E+03  0.90257688933E+03 0.  0.
        -24    2    4    4    0    0 -0.13772481755E+03 -0.15781388214E+03  0.32593134650E+03  0.39576294843E+03  0.80769560814E+02 0.  0.
         24    2    4    4    0    0  0.21772541394E+03  0.25585836757E+03 -0.38628661090E+03  0.51763762943E+03  0.76573556269E+02 0.  0.
         13    1    3    3    0    0 -0.78661609347E+02 -0.10398689088E+03  0.58823238193E+03  0.60250996457E+03  0.00000000000E+00 0. -1.
        -13    1    3    3    0    0 -0.13389870414E+01  0.59424054502E+01  0.13184394508E+01  0.62324434548E+01  0.00000000000E+00 0.  1.
          2    1    6    6  502    0  0.98292586849E+02  0.16808117232E+03 -0.24409129775E+03  0.31223913072E+03  0.00000000000E+00 0. -1.
          1    1    5    5  503    0  0.41863470522E+01 -0.36648660199E+02  0.68709891607E+02  0.77985248609E+02  0.00000000000E+00 0. -1.
         -2    1    5    5    0  503 -0.14191116460E+03 -0.12116522194E+03  0.25722145489E+03  0.31777769982E+03  0.00000000000E+00 0.  1.
         -1    1    6    6    0  502  0.11943282709E+03  0.87777195253E+02 -0.14219531315E+03  0.20539849871E+03  0.00000000000E+00 0.  1.
<mgrwt>
<rscale>  0 0.14271900E+04</rscale>
<asrwt>0</asrwt>
<pdfrwt beam="1">  1        2 0.15779527E+00 0.14271900E+04</pdfrwt>
<pdfrwt beam="2">  1       -2 0.76380572E-01 0.14271900E+04</pdfrwt>
<totfact> 0.36133405E+01</totfact>
</mgrwt>
</event>
<event>
12    1  0.2404959E-007  0.2979918E+04  0.7818608E-02  0.8249489E-01
          2   -1    0    0  501    0  0.00000000000E+00  0.00000000000E+00  0.85033135483E+03  0.85033135483E+03  0.00000000000E+00 0. -1.
         -2   -1    0    0    0  501 -0.00000000000E+00 -0.00000000000E+00 -0.26107200172E+04  0.26107200172E+04  0.00000000000E+00 0.  1.
         23    2    1    2    0    0  0.42393253625E+03  0.11730062548E+04 -0.14119778634E+04  0.18860732516E+04  0.89041307734E+02 0.  0.
        254    2    1    2    0    0 -0.42393253625E+03 -0.11730062548E+04 -0.34841079906E+03  0.15749781205E+04  0.89638358196E+03 0.  0.
        -24    2    4    4    0    0 -0.64668555547E+03 -0.11152979987E+04 -0.27455839223E+03  0.13205343497E+04  0.79604173040E+02 0.  0.
         24    2    4    4    0    0  0.22275301922E+03 -0.57708256162E+02 -0.73852406827E+02  0.25444377086E+03  0.79613467029E+02 0.  0.
         11    1    3    3    0    0  0.21998833501E+03  0.49394275672E+03 -0.64209635938E+03  0.83944151028E+03  0.00000000000E+00 0.  1.
        -11    1    3    3    0    0  0.20394420124E+03  0.67906349812E+03 -0.76988150398E+03  0.10466317413E+04  0.00000000000E+00 0. -1.
          2    1    6    6  502    0  0.27638575346E+02 -0.35529351433E+02 -0.27248209021E+02  0.52618348085E+02  0.00000000000E+00 0. -1.
          1    1    5    5  503    0 -0.18870283897E+02 -0.68371509719E+02 -0.16170277479E+02  0.72747706695E+02  0.00000000000E+00 0. -1.
         -2    1    5    5    0  503 -0.62781527157E+03 -0.10469264890E+04 -0.25838811475E+03  0.12477866430E+04  0.00000000000E+00 0.  1.
         -1    1    6    6    0  502  0.19511444388E+03 -0.22178904730E+02 -0.46604197805E+02  0.20182542277E+03  0.00000000000E+00 0.  1.
<mgrwt>
<rscale>  0 0.29799175E+04</rscale>
<asrwt>0</asrwt>
<pdfrwt beam="1">  1        2 0.13082021E+00 0.29799175E+04</pdfrwt>
<pdfrwt beam="2">  1       -2 0.40164923E+00 0.29799175E+04</pdfrwt>
<totfact> 0.19678715E-01</totfact>
</mgrwt>
</event>
<event>
12    1  0.2475864E-007  0.1737609E+04  0.7818608E-02  0.8740200E-01
          1   -1    0    0  501    0  0.00000000000E+00  0.00000000000E+00  0.23151202513E+04  0.23151202513E+04  0.00000000000E+00 0. -1.
         -1   -1    0    0    0  501 -0.00000000000E+00 -0.00000000000E+00 -0.32603988783E+03  0.32603988783E+03  0.00000000000E+00 0.  1.
         23    2    1    2    0    0 -0.11143761233E+03 -0.55773665578E+03  0.31402750460E+03  0.65597189857E+03  0.90539159585E+02 0.  0.
        254    2    1    2    0    0  0.11143761233E+03  0.55773665578E+03  0.16750528589E+04  0.19851882406E+04  0.90093382211E+03 0.  0.
        -24    2    4    4    0    0 -0.19357980550E+03 -0.17134810663E+03  0.42425525220E+03  0.50329024958E+03  0.80468885685E+02 0.  0.
         24    2    4    4    0    0  0.30501741784E+03  0.72908476240E+03  0.12507976067E+04  0.14818979910E+04  0.83227320483E+02 0.  0.
         13    1    3    3    0    0 -0.85665907121E+02 -0.39963961632E+03  0.27000078656E+03  0.48984782874E+03  0.00000000000E+00 0. -1.
        -13    1    3    3    0    0 -0.25771705214E+02 -0.15809703946E+03  0.44026718046E+02  0.16612406983E+03  0.00000000000E+00 0.  1.
          2    1    6    6  502    0  0.25596110592E+03  0.51725972576E+03  0.92037549685E+03  0.10863538866E+04  0.00000000000E+00 0. -1.
          3    1    5    5  503    0 -0.14389879894E+03 -0.75841053601E+02  0.26916551944E+03  0.31449770525E+03  0.00000000000E+00 0. -1.
         -4    1    5    5    0  503 -0.49681006560E+02 -0.95507053025E+02  0.15508973275E+03  0.18879254433E+03  0.00000000000E+00 0.  1.
         -1    1    6    6    0  502  0.49056311918E+02  0.21182503664E+03  0.33042210984E+03  0.39554410445E+03  0.00000000000E+00 0.  1.
<mgrwt>
<rscale>  0 0.17376093E+04</rscale>
<asrwt>0</asrwt>
<pdfrwt beam="1">  1        1 0.35617234E+00 0.17376093E+04</pdfrwt>
<pdfrwt beam="2">  1       -1 0.50159984E-01 0.17376093E+04</pdfrwt>
<totfact> 0.68829563E+00</totfact>
</mgrwt>
</event>
<event>
12    1  0.2404959E-007  0.1313202E+04  0.7818608E-02  0.9019161E-01
          2   -1    0    0  501    0  0.00000000000E+00  0.00000000000E+00  0.31793445264E+04  0.31793445264E+04  0.00000000000E+00 0. -1.
         -2   -1    0    0    0  501 -0.00000000000E+00 -0.00000000000E+00 -0.13560176046E+03  0.13560176046E+03  0.00000000000E+00 0.  1.
         23    2    1    2    0    0  0.11507779113E+03 -0.26595643987E+03  0.36696416075E+03  0.47603987090E+03  0.89305864794E+02 0.  0.
        254    2    1    2    0    0 -0.11507779113E+03  0.26595643987E+03  0.26767786052E+04  0.28389064160E+04  0.90015010495E+03 0.  0.
        -24    2    4    4    0    0 -0.42772879864E+03 -0.56703437571E+02  0.17719099014E+04  0.18255174666E+04  0.81744218575E+02 0.  0.
         24    2    4    4    0    0  0.31265100751E+03  0.32265987745E+03  0.90486870386E+03  0.10133889494E+04  0.79433887784E+02 0.  0.
         13    1    3    3    0    0  0.11496766808E+03 -0.25346412108E+03  0.37018372494E+03  0.46313887290E+03  0.00000000000E+00 0. -1.
        -13    1    3    3    0    0  0.11012304631E+00 -0.12492318794E+02 -0.32195641839E+01  0.12900998003E+02  0.00000000000E+00 0.  1.
          2    1    6    6  502    0  0.10848973839E+03  0.10652491565E+03  0.39375778028E+03  0.42209331969E+03  0.00000000000E+00 0. -1.
          3    1    5    5  503    0 -0.14842147930E+03 -0.55835902507E+02  0.57663330881E+03  0.59804059758E+03  0.00000000000E+00 0. -1.
         -4    1    5    5    0  503 -0.27930731933E+03 -0.86753506424E+00  0.11952765925E+04  0.12274768690E+04  0.00000000000E+00 0.  1.
         -3    1    6    6    0  502  0.20416126911E+03  0.21613496179E+03  0.51111092358E+03  0.59129562971E+03  0.00000000000E+00 0.  1.
<mgrwt>
<rscale>  0 0.13132018E+04</rscale>
<asrwt>0</asrwt>
<pdfrwt beam="1">  1        2 0.48912987E+00 0.13132018E+04</pdfrwt>
<pdfrwt beam="2">  1       -2 0.20861812E-01 0.13132018E+04</pdfrwt>
<totfact> 0.26359177E+01</totfact>
</mgrwt>
</event>
<event>
12    1  0.2404959E-007  0.1109634E+04  0.7818608E-02  0.9195853E-01
         -1   -1    0    0    0  501 -0.00000000000E+00  0.00000000000E+00  0.14346311836E+03  0.14346311836E+03  0.00000000000E+00 0.  1.
          1   -1    0    0  501    0  0.00000000000E+00 -0.00000000000E+00 -0.21456500231E+04  0.21456500231E+04  0.00000000000E+00 0. -1.
         23    2    1    2    0    0 -0.10985536859E+03 -0.12157787373E+03 -0.22628743183E+03  0.29391945056E+03  0.91286692481E+02 0.  0.
        254    2    1    2    0    0  0.10985536859E+03  0.12157787373E+03 -0.17758994730E+04  0.19951936909E+04  0.89449960592E+03 0.  0.
        -24    2    4    4    0    0  0.26088473778E+03  0.24801387816E+03 -0.22922539028E+03  0.43408446436E+03  0.79456355853E+02 0.  0.
         24    2    4    4    0    0 -0.15102936918E+03 -0.12643600444E+03 -0.15466740827E+04  0.15611092266E+04  0.77880458139E+02 0.  0.
         11    1    3    3    0    0 -0.94435484117E+02 -0.12033609434E+03 -0.14363884155E+03  0.20983553813E+03  0.00000000000E+00 0.  1.
        -11    1    3    3    0    0 -0.15419884477E+02 -0.12417793822E+01 -0.82648590280E+02  0.84083912424E+02  0.00000000000E+00 0. -1.
          4    1    6    6  502    0 -0.10218679134E+03 -0.36637475265E+02 -0.71963143907E+03  0.72777321537E+03  0.00000000000E+00 0. -1.
          3    1    5    5  503    0  0.22094599936E+03  0.16341336789E+03 -0.16381926161E+03  0.31993407745E+03  0.00000000000E+00 0. -1.
         -4    1    5    5    0  503  0.39938738415E+02  0.84600510274E+02 -0.65406128674E+02  0.11415038692E+03  0.00000000000E+00 0.  1.
         -3    1    6    6    0  502 -0.48842577840E+02 -0.89798529173E+02 -0.82704264360E+03  0.83333601121E+03  0.00000000000E+00 0.  1.
<mgrwt>
<rscale>  0 0.11096335E+04</rscale>
<asrwt>0</asrwt>
<pdfrwt beam="1">  1        1 0.33009999E+00 0.11096335E+04</pdfrwt>
<pdfrwt beam="2">  1       -1 0.22071250E-01 0.11096335E+04</pdfrwt>
<totfact> 0.41106490E+01</totfact>
</mgrwt>
</event>
<event>
12    1  0.2404959E-007  0.1393287E+04  0.7818608E-02  0.8958692E-01
          1   -1    0    0  501    0  0.00000000000E+00  0.00000000000E+00  0.49136569357E+03  0.49136569357E+03  0.00000000000E+00 0. -1.
         -1   -1    0    0    0  501 -0.00000000000E+00 -0.00000000000E+00 -0.98768065004E+03  0.98768065004E+03  0.00000000000E+00 0.  1.
         23    2    1    2    0    0 -0.31597788244E+03  0.16086407240E+03  0.48313811617E+02  0.36900513803E+03  0.90062731044E+02 0.  0.
        254    2    1    2    0    0  0.31597788244E+03 -0.16086407240E+03 -0.54462876809E+03  0.11100412056E+04  0.89991761350E+03 0.  0.
        -24    2    4    4    0    0  0.42525343159E+03 -0.16956350021E+03  0.79381913072E+02  0.47139911770E+03  0.79519672803E+02 0.  0.
         24    2    4    4    0    0 -0.10927554915E+03  0.86994278087E+01 -0.62401068116E+03  0.63864208788E+03  0.80358948001E+02 0.  0.
         13    1    3    3    0    0 -0.12459257139E+03  0.34321527783E+02 -0.17261239387E+02  0.13038108184E+03  0.00000000000E+00 0. -1.
        -13    1    3    3    0    0 -0.19138531104E+03  0.12654254462E+03  0.65575051003E+02  0.23862405620E+03  0.00000000000E+00 0.  1.
          2    1    6    6  502    0 -0.75730599827E+02  0.21515007240E+02 -0.23207785340E+03  0.24506764235E+03  0.00000000000E+00 0. -1.
          1    1    5    5  503    0  0.14087566624E+03 -0.20386013119E+02  0.88729343810E+01  0.14261932489E+03  0.00000000000E+00 0. -1.
         -2    1    5    5    0  503  0.28437776535E+03 -0.14917748709E+03  0.70508978691E+02  0.32877979281E+03  0.00000000000E+00 0.  1.
         -1    1    6    6    0  502 -0.33544949327E+02 -0.12815579431E+02 -0.39193282776E+03  0.39357444553E+03  0.00000000000E+00 0.  1.
<mgrwt>
<rscale>  0 0.13932873E+04</rscale>
<asrwt>0</asrwt>
<pdfrwt beam="1">  1        1 0.75594722E-01 0.13932873E+04</pdfrwt>
<pdfrwt beam="2">  1       -1 0.15195087E+00 0.13932873E+04</pdfrwt>
<totfact> 0.14923095E+01</totfact>
</mgrwt>
</event>
<event>
12    1  0.2404959E-007  0.1468409E+04  0.7818608E-02  0.8905737E-01
         -2   -1    0    0    0  501 -0.00000000000E+00  0.00000000000E+00  0.41674544937E+03  0.41674544937E+03  0.00000000000E+00 0.  1.
          2   -1    0    0  501    0  0.00000000000E+00 -0.00000000000E+00 -0.12934906457E+04  0.12934906457E+04  0.00000000000E+00 0. -1.
         23    2    1    2    0    0  0.42191378478E+03  0.14857791764E+03 -0.19933428647E+03  0.49824098517E+03  0.91778440497E+02 0.  0.
        254    2    1    2    0    0 -0.42191378478E+03 -0.14857791764E+03 -0.67741090984E+03  0.12119951099E+04  0.89997775872E+03 0.  0.
        -24    2    4    4    0    0 -0.56212803981E+03 -0.31014319286E+03 -0.19103186363E+03  0.67452837085E+03  0.79489728575E+02 0.  0.
         24    2    4    4    0    0  0.14021425503E+03  0.16156527522E+03 -0.48637904622E+03  0.53746673902E+03  0.80885990687E+02 0.  0.
         11    1    3    3    0    0  0.28911016643E+03  0.75477324046E+02 -0.17019745888E+03  0.34387307220E+03  0.00000000000E+00 0. -1.
        -11    1    3    3    0    0  0.13280361835E+03  0.73100593591E+02 -0.29136827591E+02  0.15436791296E+03  0.00000000000E+00 0.  1.
          4    1    6    6  502    0  0.12297825457E+03  0.16573970382E+03 -0.40947664288E+03  0.45854598633E+03  0.00000000000E+00 0. -1.
          3    1    5    5  503    0 -0.43686264662E+03 -0.26836126233E+03 -0.17378250100E+03  0.54135671862E+03  0.00000000000E+00 0. -1.
         -4    1    5    5    0  503 -0.12526539318E+03 -0.41781930522E+02 -0.17249362621E+02  0.13317165223E+03  0.00000000000E+00 0.  1.
         -3    1    6    6    0  502  0.17236000457E+02 -0.41744286040E+01 -0.76902403340E+02  0.78920752691E+02  0.00000000000E+00 0.  1.
<mgrwt>
<rscale>  0 0.14684091E+04</rscale>
<asrwt>0</asrwt>
<pdfrwt beam="1">  1        2 0.19899856E+00 0.14684091E+04</pdfrwt>
<pdfrwt beam="2">  1       -2 0.64114684E-01 0.14684091E+04</pdfrwt>
<totfact> 0.36314030E+01</totfact>
</mgrwt>
</event>
<event>
12    1  0.2404959E-007  0.3068781E+04  0.7818608E-02  0.8224358E-01
          1   -1    0    0  501    0  0.00000000000E+00  0.00000000000E+00  0.10434624640E+04  0.10434624640E+04  0.00000000000E+00 0. -1.
         -1   -1    0    0    0  501 -0.00000000000E+00 -0.00000000000E+00 -0.22562898124E+04  0.22562898124E+04  0.00000000000E+00 0.  1.
         23    2    1    2    0    0 -0.49881199887E+03 -0.12158063105E+04 -0.32850260002E+02  0.13174352586E+04  0.86937484605E+02 0.  0.
        254    2    1    2    0    0  0.49881199887E+03  0.12158063105E+04 -0.11799770884E+04  0.19823170178E+04  0.90013134332E+03 0.  0.
        -24    2    4    4    0    0  0.59592625141E+03  0.11140956194E+04 -0.12734312752E+04  0.17953639592E+04  0.73262454013E+02 0.  0.
         24    2    4    4    0    0 -0.97114252538E+02  0.10171069106E+03  0.93454186803E+02  0.18695305859E+03  0.80259070283E+02 0.  0.
         11    1    3    3    0    0 -0.43116964116E+01 -0.56269387570E+02 -0.26151795913E+01  0.56494901254E+02  0.00000000000E+00 0. -1.
        -11    1    3    3    0    0 -0.49450030246E+03 -0.11595369229E+04 -0.30235080411E+02  0.12609403573E+04  0.00000000000E+00 0.  1.
          2    1    6    6  502    0 -0.19060299354E+02  0.34242116534E+02 -0.10417351481E+02  0.40550447199E+02  0.00000000000E+00 0. -1.
          1    1    5    5  503    0  0.29662681289E+02  0.84560911746E+02 -0.10929329903E+03  0.14133452399E+03  0.00000000000E+00 0. -1.
         -2    1    5    5    0  503  0.56626357012E+03  0.10295347077E+04 -0.11641379761E+04  0.16540294352E+04  0.00000000000E+00 0.  1.
         -1    1    6    6    0  502 -0.78053953184E+02  0.67468574531E+02  0.10387153828E+03  0.14640261139E+03  0.00000000000E+00 0.  1.
<mgrwt>
<rscale>  0 0.30687807E+04</rscale>
<asrwt>0</asrwt>
<pdfrwt beam="1">  1        1 0.16053269E+00 0.30687807E+04</pdfrwt>
<pdfrwt beam="2">  1       -1 0.34712151E+00 0.30687807E+04</pdfrwt>
<totfact> 0.19225175E-01</totfact>
</mgrwt>
</event>
<event>
12    1  0.2404959E-007  0.4072556E+04  0.7818608E-02  0.7990068E-01
          2   -1    0    0  501    0  0.00000000000E+00  0.00000000000E+00  0.17574310572E+04  0.17574310572E+04  0.00000000000E+00 0. -1.
         -2   -1    0    0    0  501 -0.00000000000E+00 -0.00000000000E+00 -0.23593687128E+04  0.23593687128E+04  0.00000000000E+00 0.  1.
         23    2    1    2    0    0  0.21426699495E+03  0.17581885384E+04 -0.10777857426E+04  0.20753581183E+04  0.91388897447E+02 0.  0.
        254    2    1    2    0    0 -0.21426699495E+03 -0.17581885384E+04  0.47584808704E+03  0.20414416517E+04  0.89661325756E+03 0.  0.
        -24    2    4    4    0    0 -0.29912591464E+03 -0.44580818085E+03 -0.17743707455E+03  0.57119222873E+03  0.80965423607E+02 0.  0.
         24    2    4    4    0    0  0.84858919690E+02 -0.13123803576E+04  0.65328516159E+03  0.14702494230E+04  0.72860306177E+02 0.  0.
         13    1    3    3    0    0  0.11185278051E+03  0.96881715155E+03 -0.54058721306E+03  0.11150570625E+04  0.00000000000E+00 0.  1.
        -13    1    3    3    0    0  0.10241421444E+03  0.78937138686E+03 -0.53719852950E+03  0.96030105582E+03  0.00000000000E+00 0. -1.
          2    1    6    6  502    0  0.59821201387E+02 -0.12178380390E+04  0.60216782036E+03  0.13598949038E+04  0.00000000000E+00 0. -1.
          1    1    5    5  503    0 -0.28400251910E+03 -0.44179990870E+03 -0.16304722657E+03  0.54993544010E+03  0.00000000000E+00 0. -1.
         -2    1    5    5    0  503 -0.15123395540E+02 -0.40082721499E+01 -0.14389847980E+02  0.21256788638E+02  0.00000000000E+00 0.  1.
         -1    1    6    6    0  502  0.25037718304E+02 -0.94542318552E+02  0.51117341234E+02  0.11035451921E+03  0.00000000000E+00 0.  1.
<mgrwt>
<rscale>  0 0.40725559E+04</rscale>
<asrwt>0</asrwt>
<pdfrwt beam="1">  1        2 0.27037401E+00 0.40725559E+04</pdfrwt>
<pdfrwt beam="2">  1       -2 0.36297980E+00 0.40725559E+04</pdfrwt>
<totfact> 0.91963470E-02</totfact>
</mgrwt>
</event>
<event>
12    1  0.2404959E-007  0.3658199E+04  0.7818608E-02  0.8077289E-01
          1   -1    0    0  501    0  0.00000000000E+00  0.00000000000E+00  0.15980441870E+04  0.15980441870E+04  0.00000000000E+00 0. -1.
         -1   -1    0    0    0  501 -0.00000000000E+00 -0.00000000000E+00 -0.20935624344E+04  0.20935624344E+04  0.00000000000E+00 0.  1.
         23    2    1    2    0    0 -0.13411152969E+04  0.22377068122E+03 -0.12921125060E+04  0.18778731043E+04  0.90493703318E+02 0.  0.
        254    2    1    2    0    0  0.13411152969E+04 -0.22377068122E+03  0.79659425867E+03  0.18137335171E+04  0.89799961071E+03 0.  0.
        -24    2    4    4    0    0  0.12673046706E+04 -0.37056900361E+03  0.90380107657E+03  0.16020718389E+04  0.79970471314E+02 0.  0.
         24    2    4    4    0    0  0.73810626283E+02  0.14679832239E+03 -0.10720681790E+03  0.21166167826E+03  0.79433042439E+02 0.  0.
         11    1    3    3    0    0 -0.11427735663E+04  0.15915801688E+03 -0.10809032679E+04  0.15810169426E+04  0.00000000000E+00 0. -1.
        -11    1    3    3    0    0 -0.19834173057E+03  0.64612664337E+02 -0.21120923814E+03  0.29685616172E+03  0.00000000000E+00 0.  1.
          2    1    6    6  502    0  0.41405164957E+00  0.25792819334E+02  0.10236753827E+02  0.27753055632E+02  0.00000000000E+00 0. -1.
          1    1    5    5  503    0  0.37849806745E+03 -0.11513905227E+03  0.22737297634E+03  0.45630719783E+03  0.00000000000E+00 0. -1.
         -2    1    5    5    0  503  0.88880660318E+03 -0.25542995133E+03  0.67642810023E+03  0.11457646410E+04  0.00000000000E+00 0.  1.
         -1    1    6    6    0  502  0.73396574633E+02  0.12100550305E+03 -0.11744357172E+03  0.18390862262E+03  0.00000000000E+00 0.  1.
<mgrwt>
<rscale>  0 0.36581992E+04</rscale>
<asrwt>0</asrwt>
<pdfrwt beam="1">  1        1 0.24585295E+00 0.36581992E+04</pdfrwt>
<pdfrwt beam="2">  1       -1 0.32208653E+00 0.36581992E+04</pdfrwt>
<totfact> 0.10686854E-01</totfact>
</mgrwt>
</event>
<event>
12    1  0.2404959E-007  0.1675956E+04  0.7818608E-02  0.8775198E-01
          2   -1    0    0  501    0  0.00000000000E+00  0.00000000000E+00  0.94361754980E+03  0.94361754980E+03  0.00000000000E+00 0. -1.
         -2   -1    0    0    0  501 -0.00000000000E+00 -0.00000000000E+00 -0.74416491233E+03  0.74416491233E+03  0.00000000000E+00 0.  1.
         23    2    1    2    0    0  0.24923324759E+03 -0.52982864475E+03 -0.20016734039E+02  0.59302389129E+03  0.91875249606E+02 0.  0.
        254    2    1    2    0    0 -0.24923324759E+03  0.52982864475E+03  0.21946937151E+03  0.10947585708E+04  0.89860665416E+03 0.  0.
        -24    2    4    4    0    0  0.11141374587E+03  0.66068607552E+03  0.82021213234E+02  0.67950835823E+03  0.78006514627E+02 0.  0.
         24    2    4    4    0    0 -0.36064699346E+03 -0.13085743076E+03  0.13744815828E+03  0.41525021262E+03  0.79692043447E+02 0.  0.
         13    1    3    3    0    0  0.17566638244E+03 -0.32777406362E+03  0.27190595537E+02  0.37287242213E+03  0.00000000000E+00 0. -1.
        -13    1    3    3    0    0  0.73566865150E+02 -0.20205458114E+03 -0.47207329577E+02  0.22015146916E+03  0.00000000000E+00 0.  1.
          4    1    6    6  502    0 -0.16158914442E+03 -0.80068027188E+02  0.28064031472E+02  0.18250898727E+03  0.00000000000E+00 0. -1.
          1    1    5    5  503    0  0.91469814760E+02  0.58140074670E+03  0.96707749835E+02  0.59644441832E+03  0.00000000000E+00 0. -1.
         -2    1    5    5    0  503  0.19943931111E+02  0.79285328822E+02 -0.14686536601E+02  0.83063939901E+02  0.00000000000E+00 0.  1.
         -3    1    6    6    0  502 -0.19905784904E+03 -0.50789403577E+02  0.10938412680E+03  0.23274122535E+03  0.00000000000E+00 0.  1.
<mgrwt>
<rscale>  0 0.16759559E+04</rscale>
<asrwt>0</asrwt>
<pdfrwt beam="1">  1        2 0.14517193E+00 0.16759559E+04</pdfrwt>
<pdfrwt beam="2">  1       -2 0.11448691E+00 0.16759559E+04</pdfrwt>
<totfact> 0.15581247E+01</totfact>
</mgrwt>
</event>
<event>
12    1  0.2404959E-007  0.3034889E+04  0.7818608E-02  0.8233838E-01
          4   -1    0    0  501    0  0.00000000000E+00  0.00000000000E+00  0.15794534518E+04  0.15794534518E+04  0.00000000000E+00 0. -1.
         -4   -1    0    0    0  501 -0.00000000000E+00 -0.00000000000E+00 -0.14578696694E+04  0.14578696694E+04  0.00000000000E+00 0.  1.
         23    2    1    2    0    0 -0.17216554757E+02 -0.13486831420E+04  0.35989974667E+03  0.13990008700E+04  0.91831253998E+02 0.  0.
        254    2    1    2    0    0  0.17216554757E+02  0.13486831420E+04 -0.23831596430E+03  0.16383222513E+04  0.89892306278E+03 0.  0.
        -24    2    4    4    0    0 -0.13634446886E+01  0.97938675163E+03  0.25658077949E+03  0.10155721849E+04  0.79705069024E+02 0.  0.
         24    2    4    4    0    0  0.18579999446E+02  0.36929639041E+03 -0.49489674379E+03  0.62275006641E+03  0.78548188005E+02 0.  0.
         13    1    3    3    0    0  0.13114977672E+02 -0.10229747072E+04  0.30287371767E+03  0.10669497379E+04  0.00000000000E+00 0. -1.
        -13    1    3    3    0    0 -0.30331532429E+02 -0.32570843480E+03  0.57026028997E+02  0.33205113212E+03  0.00000000000E+00 0.  1.
          4    1    6    6  502    0  0.16745784152E+02  0.17432512154E+03 -0.17145969250E+03  0.24508793410E+03  0.00000000000E+00 0. -1.
          3    1    5    5  503    0 -0.40179835857E+02  0.44514129473E+03  0.11340957820E+03  0.46111487062E+03  0.00000000000E+00 0. -1.
         -4    1    5    5    0  503  0.38816391169E+02  0.53424545690E+03  0.14317120129E+03  0.55445731424E+03  0.00000000000E+00 0.  1.
         -3    1    6    6    0  502  0.18342152935E+01  0.19497126887E+03 -0.32343705129E+03  0.37766213231E+03  0.00000000000E+00 0.  1.
<mgrwt>
<rscale>  0 0.30348887E+04</rscale>
<asrwt>0</asrwt>
<pdfrwt beam="1">  1        4 0.24299284E+00 0.30348887E+04</pdfrwt>
<pdfrwt beam="2">  1       -4 0.22428764E+00 0.30348887E+04</pdfrwt>
<totfact> 0.10830734E-02</totfact>
</mgrwt>
</event>
<event>
12    1  0.2404959E-007  0.1926519E+04  0.7818608E-02  0.8641768E-01
         -1   -1    0    0    0  501 -0.00000000000E+00  0.00000000000E+00  0.35526003545E+03  0.35526003545E+03  0.00000000000E+00 0.  1.
          1   -1    0    0  501    0  0.00000000000E+00 -0.00000000000E+00 -0.26118007236E+04  0.26118007236E+04  0.00000000000E+00 0. -1.
         23    2    1    2    0    0 -0.43341172194E+03 -0.17755103824E+03  0.16962140313E+02  0.47777299066E+03  0.92785906799E+02 0.  0.
        254    2    1    2    0    0  0.43341172194E+03  0.17755103824E+03 -0.22735028284E+04  0.24892877684E+04  0.89909309360E+03 0.  0.
        -24    2    4    4    0    0  0.60456374561E+03 -0.15052858755E+03 -0.15611575104E+04  0.16825792008E+04  0.75523615353E+02 0.  0.
         24    2    4    4    0    0 -0.17115202366E+03  0.32807962579E+03 -0.71234531804E+03  0.80670856758E+03  0.80084984984E+02 0.  0.
         13    1    3    3    0    0 -0.98833672389E+02 -0.79853228492E+02 -0.14099105282E+02  0.12784137698E+03  0.00000000000E+00 0. -1.
        -13    1    3    3    0    0 -0.33457804956E+03 -0.97697809744E+02  0.31061245595E+02  0.34993161368E+03  0.00000000000E+00 0.  1.
          2    1    6    6  502    0 -0.16297577234E+03  0.25634275477E+03 -0.53486918730E+03  0.61510792371E+03  0.00000000000E+00 0. -1.
          3    1    5    5  503    0  0.30206094870E+03 -0.53471084545E+02 -0.85100015085E+03  0.90460003889E+03  0.00000000000E+00 0. -1.
         -4    1    5    5    0  503  0.30250279691E+03 -0.97057503006E+02 -0.71015735956E+03  0.77797916191E+03  0.00000000000E+00 0.  1.
         -1    1    6    6    0  502 -0.81762513220E+01  0.71736871020E+02 -0.17747613074E+03  0.19160064387E+03  0.00000000000E+00 0.  1.
<mgrwt>
<rscale>  0 0.19265185E+04</rscale>
<asrwt>0</asrwt>
<pdfrwt beam="1">  1        1 0.40181551E+00 0.19265185E+04</pdfrwt>
<pdfrwt beam="2">  1       -1 0.54655388E-01 0.19265185E+04</pdfrwt>
<totfact> 0.35777006E+00</totfact>
</mgrwt>
</event>
<event>
12    1  0.2404959E-007  0.3148576E+04  0.7818608E-02  0.8202532E-01
         -2   -1    0    0    0  501 -0.00000000000E+00  0.00000000000E+00  0.87908619206E+03  0.87908619206E+03  0.00000000000E+00 0.  1.
          2   -1    0    0  501    0  0.00000000000E+00 -0.00000000000E+00 -0.28192710377E+04  0.28192710377E+04  0.00000000000E+00 0. -1.
         23    2    1    2    0    0  0.14377104825E+04  0.71550530567E+02 -0.75506879476E+03  0.16280452857E+04  0.90948653694E+02 0.  0.
        254    2    1    2    0    0 -0.14377104825E+04 -0.71550530567E+02 -0.11851160509E+04  0.20703119441E+04  0.89975584575E+03 0.  0.
        -24    2    4    4    0    0 -0.13483856809E+04 -0.33964612919E+03 -0.88371529915E+03  0.16494554310E+04  0.79038291142E+02 0.  0.
         24    2    4    4    0    0 -0.89324801549E+02  0.26809559862E+03 -0.30140075174E+03  0.42085651305E+03  0.80147496871E+02 0.  0.
         11    1    3    3    0    0  0.11606179632E+04  0.78055020130E+02 -0.57574654972E+03  0.12979255496E+04  0.00000000000E+00 0. -1.
        -11    1    3    3    0    0  0.27709251926E+03 -0.65044895627E+01 -0.17932224504E+03  0.33011973613E+03  0.00000000000E+00 0.  1.
          4    1    6    6  502    0 -0.53195725147E+02  0.82691708182E+02 -0.14719175956E+03  0.17701163199E+03  0.00000000000E+00 0. -1.
          3    1    5    5  503    0 -0.90934705349E+03 -0.23882650218E+03 -0.55463765016E+03  0.10915919956E+04  0.00000000000E+00 0. -1.
         -4    1    5    5    0  503 -0.43903862742E+03 -0.10081962701E+03 -0.32907764899E+03  0.55786343546E+03  0.00000000000E+00 0.  1.
         -3    1    6    6    0  502 -0.36129076402E+02  0.18540389044E+03 -0.15420899218E+03  0.24384488107E+03  0.00000000000E+00 0.  1.
<mgrwt>
<rscale>  0 0.31485757E+04</rscale>
<asrwt>0</asrwt>
<pdfrwt beam="1">  1        2 0.43373401E+00 0.31485757E+04</pdfrwt>
<pdfrwt beam="2">  1       -2 0.13524403E+00 0.31485757E+04</pdfrwt>
<totfact> 0.74713352E-01</totfact>
</mgrwt>
</event>
<event>
12    1  0.2404959E-007  0.1309437E+04  0.7818608E-02  0.9022115E-01
         -2   -1    0    0    0  501 -0.00000000000E+00  0.00000000000E+00  0.17193778412E+03  0.17193778412E+03  0.00000000000E+00 0.  1.
          2   -1    0    0  501    0  0.00000000000E+00 -0.00000000000E+00 -0.24930892319E+04  0.24930892319E+04  0.00000000000E+00 0. -1.
         23    2    1    2    0    0 -0.32797137146E+03 -0.53161194073E+02 -0.50691131206E+03  0.61269309630E+03  0.89679534493E+02 0.  0.
        254    2    1    2    0    0  0.32797137146E+03  0.53161194073E+02 -0.18142401357E+04  0.20523339198E+04  0.90011994477E+03 0.  0.
        -24    2    4    4    0    0  0.63436186789E+03  0.56382639225E+01 -0.12306759234E+04  0.13868852391E+04  0.80253775158E+02 0.  0.
         24    2    4    4    0    0 -0.30639049643E+03  0.47522930150E+02 -0.58356421233E+03  0.66544868068E+03  0.78365754768E+02 0.  0.
         13    1    3    3    0    0 -0.42789755276E+02 -0.19310417013E+02 -0.13419934247E+03  0.14217355197E+03  0.00000000000E+00 0. -1.
        -13    1    3    3    0    0 -0.28518161618E+03 -0.33850777060E+02 -0.37271196959E+03  0.47051954432E+03  0.00000000000E+00 0.  1.
          2    1    6    6  502    0 -0.15137592972E+03  0.61734712659E+02 -0.27755322100E+03  0.32212053231E+03  0.00000000000E+00 0. -1.
          1    1    5    5  503    0  0.18829953619E+03  0.96310478184E+01 -0.44714127095E+03  0.48526774939E+03  0.00000000000E+00 0. -1.
         -2    1    5    5    0  503  0.44606233170E+03 -0.39927838959E+01 -0.78353465247E+03  0.90161748968E+03  0.00000000000E+00 0.  1.
         -1    1    6    6    0  502 -0.15501456670E+03 -0.14211782509E+02 -0.30601099133E+03  0.34332814837E+03  0.00000000000E+00 0.  1.
<mgrwt>
<rscale>  0 0.13094369E+04</rscale>
<asrwt>0</asrwt>
<pdfrwt beam="1">  1        2 0.38355217E+00 0.13094369E+04</pdfrwt>
<pdfrwt beam="2">  1       -2 0.26451968E-01 0.13094369E+04</pdfrwt>
<totfact> 0.44747683E+01</totfact>
</mgrwt>
</event>
<event>
12    1  0.2404959E-007  0.2443295E+04  0.7818608E-02  0.8423470E-01
         -2   -1    0    0    0  501 -0.00000000000E+00  0.00000000000E+00  0.11011373431E+04  0.11011373431E+04  0.00000000000E+00 0.  1.
          2   -1    0    0  501    0  0.00000000000E+00 -0.00000000000E+00 -0.13553459737E+04  0.13553459737E+04  0.00000000000E+00 0. -1.
         23    2    1    2    0    0  0.83896479855E+03 -0.57625048163E+03  0.16598524540E+03  0.10352193642E+04  0.90562020664E+02 0.  0.
        254    2    1    2    0    0 -0.83896479855E+03  0.57625048163E+03 -0.42019387605E+03  0.14212639526E+04  0.89861102749E+03 0.  0.
        -24    2    4    4    0    0 -0.29393194296E+02 -0.16480903519E+03  0.91594903570E+02  0.20772654338E+03  0.82065294227E+02 0.  0.
         24    2    4    4    0    0 -0.80957160425E+03  0.74105951682E+03 -0.51178877962E+03  0.12135374092E+04  0.78548703116E+02 0.  0.
         13    1    3    3    0    0  0.63955811057E+03 -0.42548184518E+03  0.16274287051E+03  0.78520992052E+03  0.00000000000E+00 0. -1.
        -13    1    3    3    0    0  0.19940668798E+03 -0.15076863645E+03  0.32423748896E+01  0.25000944371E+03  0.00000000000E+00 0.  1.
          4    1    6    6  502    0 -0.15058261827E+03  0.15435677128E+03 -0.13291002289E+03  0.25331050501E+03  0.00000000000E+00 0. -1.
          1    1    5    5  503    0 -0.12424223177E+02  0.40896715033E+01  0.19090446705E+02  0.23141561960E+02  0.00000000000E+00 0. -1.
         -2    1    5    5    0  503 -0.16968971119E+02 -0.16889870669E+03  0.72504456864E+02  0.18458498142E+03  0.00000000000E+00 0.  1.
         -3    1    6    6    0  502 -0.65898898599E+03  0.58670274554E+03 -0.37887875673E+03  0.96022690421E+03  0.00000000000E+00 0.  1.
<mgrwt>
<rscale>  0 0.24432945E+04</rscale>
<asrwt>0</asrwt>
<pdfrwt beam="1">  1        2 0.20851477E+00 0.24432945E+04</pdfrwt>
<pdfrwt beam="2">  1       -2 0.16940574E+00 0.24432945E+04</pdfrwt>
<totfact> 0.29610067E+00</totfact>
</mgrwt>
</event>
<event>
12    1  0.2404959E-007  0.2276546E+04  0.7818608E-02  0.8487227E-01
          2   -1    0    0  501    0  0.00000000000E+00  0.00000000000E+00  0.24448034141E+04  0.24448034141E+04  0.00000000000E+00 0.  1.
         -2   -1    0    0    0  501 -0.00000000000E+00 -0.00000000000E+00 -0.52996708455E+03  0.52996708455E+03  0.00000000000E+00 0. -1.
         23    2    1    2    0    0  0.75020136189E+03 -0.41365592114E+03  0.24932103307E+03  0.89669063319E+03  0.89329780330E+02 0.  0.
        254    2    1    2    0    0 -0.75020136189E+03  0.41365592114E+03  0.16655152964E+04  0.20780798654E+04  0.90031184592E+03 0.  0.
        -24    2    4    4    0    0 -0.34563755279E+02 -0.10382354955E+03 -0.52610095292E+02  0.14487508602E+03  0.79037875743E+02 0.  0.
         24    2    4    4    0    0 -0.71563760661E+03  0.51747947069E+03  0.17181253917E+04  0.19332047794E+04  0.73509664541E+02 0.  0.
         11    1    3    3    0    0  0.49319307521E+03 -0.26366216406E+03  0.11868186622E+03  0.57170143569E+03  0.00000000000E+00 0. -1.
        -11    1    3    3    0    0  0.25700828667E+03 -0.14999375708E+03  0.13063916685E+03  0.32498919751E+03  0.00000000000E+00 0.  1.
          2    1    6    6  502    0 -0.17685437256E+02  0.56527408961E+01  0.59625268316E+02  0.62449185682E+02  0.00000000000E+00 0. -1.
          1    1    5    5  503    0 -0.20616962624E+01 -0.52619565122E+02  0.14301958587E+02  0.54567529214E+02  0.00000000000E+00 0. -1.
         -2    1    5    5    0  503 -0.32502059017E+02 -0.51203984432E+02 -0.66912053879E+02  0.90307556807E+02  0.00000000000E+00 0.  1.
         -1    1    6    6    0  502 -0.69795216935E+03  0.51182672980E+03  0.16585001234E+04  0.18707555937E+04  0.00000000000E+00 0.  1.
<mgrwt>
<rscale>  0 0.22765459E+04</rscale>
<asrwt>0</asrwt>
<pdfrwt beam="1">  1        2 0.37612360E+00 0.22765459E+04</pdfrwt>
<pdfrwt beam="2">  1       -2 0.81533399E-01 0.22765459E+04</pdfrwt>
<totfact> 0.45067848E+00</totfact>
</mgrwt>
</event>
<event>
12    1  0.2404959E-007  0.1756848E+04  0.7818608E-02  0.8729590E-01
         -2   -1    0    0    0  501 -0.00000000000E+00  0.00000000000E+00  0.26449956347E+04  0.26449956347E+04  0.00000000000E+00 0.  1.
          2   -1    0    0  501    0  0.00000000000E+00 -0.00000000000E+00 -0.29173151212E+03  0.29173151212E+03  0.00000000000E+00 0. -1.
         23    2    1    2    0    0 -0.19094599813E+03 -0.47065370872E+03  0.15480122509E+04  0.16314777816E+04  0.86037985878E+02 0.  0.
        254    2    1    2    0    0  0.19094599813E+03  0.47065370872E+03  0.80525187166E+03  0.13052493653E+04  0.89289979335E+03 0.  0.
        -24    2    4    4    0    0 -0.89388344951E+02 -0.22396846624E+03  0.97923416003E+02  0.27183661638E+03  0.78447437940E+02 0.  0.
         24    2    4    4    0    0  0.28033434308E+03  0.69462217495E+03  0.70732845565E+03  0.10334127489E+04  0.80876792224E+02 0.  0.
         13    1    3    3    0    0 -0.99022673224E+02 -0.33862572036E+03  0.11186029749E+04  0.11729217722E+04  0.00000000000E+00 0. -1.
        -13    1    3    3    0    0 -0.91923324908E+02 -0.13202798835E+03  0.42940927601E+03  0.45855600933E+03  0.00000000000E+00 0.  1.
          2    1    6    6  502    0  0.16080530069E+02  0.24095033422E+02  0.50877316660E+02  0.58546182057E+02  0.00000000000E+00 0. -1.
          3    1    5    5  503    0 -0.63862819669E+01  0.57255361931E+01  0.75334938787E+01  0.11415773827E+02  0.00000000000E+00 0. -1.
         -4    1    5    5    0  503 -0.83002062984E+02 -0.22969400243E+03  0.90389922125E+02  0.26042084255E+03  0.00000000000E+00 0.  1.
         -1    1    6    6    0  502  0.26425381301E+03  0.67052714153E+03  0.65645113899E+03  0.97486656682E+03  0.00000000000E+00 0.  1.
<mgrwt>
<rscale>  0 0.17568478E+04</rscale>
<asrwt>0</asrwt>
<pdfrwt beam="1">  1        2 0.44881773E-01 0.17568478E+04</pdfrwt>
<pdfrwt beam="2">  1       -2 0.40692239E+00 0.17568478E+04</pdfrwt>
<totfact> 0.72123196E-01</totfact>
</mgrwt>
</event>
<event>
12    1  0.2404959E-007  0.2060425E+04  0.7818608E-02  0.8578879E-01
         -2   -1    0    0    0  501 -0.00000000000E+00  0.00000000000E+00  0.10669224697E+04  0.10669224697E+04  0.00000000000E+00 0.  1.
          2   -1    0    0  501    0  0.00000000000E+00 -0.00000000000E+00 -0.99476598951E+03  0.99476598951E+03  0.00000000000E+00 0. -1.
         23    2    1    2    0    0 -0.79301674469E+03 -0.26170413187E+02  0.27468521259E+03  0.84466534034E+03  0.91908232852E+02 0.  0.
        254    2    1    2    0    0  0.79301674469E+03  0.26170413187E+02 -0.20252873239E+03  0.12170231189E+04  0.90031490967E+03 0.  0.
        -24    2    4    4    0    0  0.81558754578E+03 -0.28239120991E+03 -0.65569533562E+02  0.86931793749E+03  0.80538639426E+02 0.  0.
         24    2    4    4    0    0 -0.22570801091E+02  0.30856162310E+03 -0.13695919882E+03  0.34770518140E+03  0.80133355836E+02 0.  0.
         11    1    3    3    0    0 -0.55230100237E+02 -0.11151214074E+02 -0.24612714488E+01  0.56398328031E+02  0.00000000000E+00 0. -1.
        -11    1    3    3    0    0 -0.73778664445E+03 -0.15019199113E+02  0.27714648404E+03  0.78826701231E+03  0.00000000000E+00 0.  1.
          2    1    6    6  502    0 -0.42637160863E+02  0.17494805867E+03 -0.10648896319E+03  0.20920002390E+03  0.00000000000E+00 0. -1.
          3    1    5    5  503    0  0.65971444971E+03 -0.25466596821E+03 -0.72348936846E+02  0.71085320509E+03  0.00000000000E+00 0. -1.
         -4    1    5    5    0  503  0.15587309607E+03 -0.27725241700E+02  0.67794032836E+01  0.15846473240E+03  0.00000000000E+00 0.  1.
         -1    1    6    6    0  502  0.20066359772E+02  0.13361356443E+03 -0.30470235636E+02  0.13850515750E+03  0.00000000000E+00 0.  1.
<mgrwt>
<rscale>  0 0.20604254E+04</rscale>
<asrwt>0</asrwt>
<pdfrwt beam="1">  1        2 0.15304092E+00 0.20604254E+04</pdfrwt>
<pdfrwt beam="2">  1       -2 0.16414192E+00 0.20604254E+04</pdfrwt>
<totfact> 0.55110755E+00</totfact>
</mgrwt>
</event>
<event>
12    1  0.2538477E-007  0.1741091E+04  0.7818608E-02  0.8738270E-01
          2   -1    0    0  501    0  0.00000000000E+00  0.00000000000E+00  0.12613342660E+04  0.12613342660E+04  0.00000000000E+00 0. -1.
         -2   -1    0    0    0  501 -0.00000000000E+00 -0.00000000000E+00 -0.60083128137E+03  0.60083128137E+03  0.00000000000E+00 0.  1.
         23    2    1    2    0    0  0.42601967966E+03  0.44304234357E+03  0.41164022114E+03  0.74539185825E+03  0.91553618328E+02 0.  0.
        254    2    1    2    0    0 -0.42601967966E+03 -0.44304234357E+03  0.24886276349E+03  0.11167736891E+04  0.89859418650E+03 0.  0.
        -24    2    4    4    0    0 -0.60673737431E+03 -0.51053168246E+03  0.83729440569E+01  0.79740205566E+03  0.83708374811E+02 0.  0.
         24    2    4    4    0    0  0.18071769465E+03  0.67489338889E+02  0.24048981943E+03  0.31937163346E+03  0.83361807705E+02 0.  0.
         11    1    3    3    0    0  0.16985079211E+03  0.24250434169E+03  0.19918842072E+03  0.35683844281E+03  0.00000000000E+00 0.  1.
        -11    1    3    3    0    0  0.25616888755E+03  0.20053800188E+03  0.21245180042E+03  0.38855341544E+03  0.00000000000E+00 0. -1.
          4    1    6    6  502    0 -0.16621135141E+00  0.42710565617E+01  0.46528333495E+02  0.46724248183E+02  0.00000000000E+00 0. -1.
          3    1    5    5  503    0 -0.51306026743E+01  0.29087520781E+01 -0.25079866581E+01  0.64088937837E+01  0.00000000000E+00 0. -1.
         -4    1    5    5    0  503 -0.60160677163E+03 -0.51344043453E+03  0.10880930715E+02  0.79099316188E+03  0.00000000000E+00 0.  1.
         -3    1    6    6    0  502  0.18088390600E+03  0.63218282327E+02  0.19396148593E+03  0.27264738527E+03  0.00000000000E+00 0.  1.
<mgrwt>
<rscale>  0 0.17410906E+04</rscale>
<asrwt>0</asrwt>
<pdfrwt beam="1">  1        2 0.19405143E+00 0.17410906E+04</pdfrwt>
<pdfrwt beam="2">  1       -2 0.92435582E-01 0.17410906E+04</pdfrwt>
<totfact> 0.16413787E+01</totfact>
</mgrwt>
</event>
<event>
12    1  0.2404959E-007  0.1491415E+04  0.7818608E-02  0.8890182E-01
         -1   -1    0    0    0  501 -0.00000000000E+00  0.00000000000E+00  0.33926604573E+03  0.33926604573E+03  0.00000000000E+00 0.  1.
          1   -1    0    0  501    0  0.00000000000E+00 -0.00000000000E+00 -0.16390660853E+04  0.16390660853E+04  0.00000000000E+00 0. -1.
         23    2    1    2    0    0  0.27012075264E+03 -0.32031367973E+03 -0.13871618715E+03  0.45102726512E+03  0.92829622853E+02 0.  0.
        254    2    1    2    0    0 -0.27012075264E+03  0.32031367973E+03 -0.11610838525E+04  0.15273048660E+04  0.89943224687E+03 0.  0.
        -24    2    4    4    0    0  0.10704132912E+03 -0.22591975464E+03 -0.59713631589E+03  0.65252835290E+03  0.81999328664E+02 0.  0.
         24    2    4    4    0    0 -0.37716208175E+03  0.54623343437E+03 -0.56394753657E+03  0.87477651307E+03  0.81085899334E+02 0.  0.
         13    1    3    3    0    0  0.46800638615E+02 -0.10349913036E+03 -0.94006798070E+01  0.11397693864E+03  0.00000000000E+00 0.  1.
        -13    1    3    3    0    0  0.22332011402E+03 -0.21681454937E+03 -0.12931550734E+03  0.33705032649E+03  0.00000000000E+00 0. -1.
          2    1    6    6  502    0 -0.11849940098E+03  0.24112708344E+03 -0.22080561734E+03  0.34776356774E+03  0.00000000000E+00 0. -1.
          1    1    5    5  503    0  0.14666629226E+02 -0.18965125701E+02 -0.16160061534E+02  0.28912516226E+02  0.00000000000E+00 0. -1.
         -2    1    5    5    0  503  0.92374699891E+02 -0.20695462894E+03 -0.58097625436E+03  0.62361583667E+03  0.00000000000E+00 0.  1.
         -1    1    6    6    0  502 -0.25866268077E+03  0.30510635092E+03 -0.34314191924E+03  0.52701294532E+03  0.00000000000E+00 0.  1.
<mgrwt>
<rscale>  0 0.14914147E+04</rscale>
<asrwt>0</asrwt>
<pdfrwt beam="1">  1        1 0.25216401E+00 0.14914147E+04</pdfrwt>
<pdfrwt beam="2">  1       -1 0.52194776E-01 0.14914147E+04</pdfrwt>
<totfact> 0.18774203E+01</totfact>
</mgrwt>
</event>
<event>
12    1  0.2404959E-007  0.2140631E+04  0.7818608E-02  0.8543553E-01
          2   -1    0    0  501    0  0.00000000000E+00  0.00000000000E+00  0.18467401797E+04  0.18467401797E+04  0.00000000000E+00 0. -1.
         -2   -1    0    0    0  501 -0.00000000000E+00 -0.00000000000E+00 -0.62032275354E+03  0.62032275354E+03  0.00000000000E+00 0.  1.
         23    2    1    2    0    0 -0.75727477825E+03 -0.32135523589E+03  0.15470687527E+03  0.84197850964E+03  0.90880779258E+02 0.  0.
        254    2    1    2    0    0  0.75727477825E+03  0.32135523589E+03  0.10717105509E+04  0.16250844236E+04  0.90310663907E+03 0.  0.
        -24    2    4    4    0    0  0.18010377026E+03  0.54769309590E+03  0.64269306005E+03  0.86683147326E+03  0.77054125384E+02 0.  0.
         24    2    4    4    0    0  0.57717100798E+03 -0.22633786001E+03  0.42901749081E+03  0.75825295032E+03  0.80847572089E+02 0.  0.
         11    1    3    3    0    0 -0.22032018704E+03 -0.62742812951E+02  0.72919780728E+02  0.24040578157E+03  0.00000000000E+00 0.  1.
        -11    1    3    3    0    0 -0.53695459121E+03 -0.25861242294E+03  0.81787094541E+02  0.60157272806E+03  0.00000000000E+00 0. -1.
          4    1    6    6  502    0  0.17412323835E+03 -0.33665138836E+02  0.14283403931E+03  0.22771430893E+03  0.00000000000E+00 0. -1.
          3    1    5    5  503    0  0.10485852468E+03  0.42182461440E+03  0.46702659561E+03  0.63800090636E+03  0.00000000000E+00 0. -1.
         -4    1    5    5    0  503  0.75245245587E+02  0.12586848150E+03  0.17566646444E+03  0.22883056690E+03  0.00000000000E+00 0.  1.
         -3    1    6    6    0  502  0.40304776963E+03 -0.19267272118E+03  0.28618345150E+03  0.53053864138E+03  0.00000000000E+00 0.  1.
<mgrwt>
<rscale>  0 0.21406307E+04</rscale>
<asrwt>0</asrwt>
<pdfrwt beam="1">  1        2 0.28411387E+00 0.21406307E+04</pdfrwt>
<pdfrwt beam="2">  1       -2 0.95434270E-01 0.21406307E+04</pdfrwt>
<totfact> 0.68842012E+00</totfact>
</mgrwt>
</event>
<event>
12    1  0.2404959E-007  0.1644412E+04  0.7818608E-02  0.8793719E-01
         -2   -1    0    0    0  501 -0.00000000000E+00  0.00000000000E+00  0.49830291952E+03  0.49830291952E+03  0.00000000000E+00 0.  1.
          2   -1    0    0  501    0  0.00000000000E+00 -0.00000000000E+00 -0.13566505968E+04  0.13566505968E+04  0.00000000000E+00 0. -1.
         23    2    1    2    0    0  0.41199122548E+03 -0.34844403144E+03 -0.91004611269E+02  0.55478720480E+03  0.91416576277E+02 0.  0.
        254    2    1    2    0    0 -0.41199122548E+03  0.34844403144E+03 -0.76734306603E+03  0.13001663115E+04  0.90025943137E+03 0.  0.
        -24    2    4    4    0    0  0.25331637758E+03 -0.29274814558E+02 -0.11934262198E+03  0.29384087978E+03  0.84104692452E+02 0.  0.
         24    2    4    4    0    0 -0.66530760306E+03  0.37771884599E+03 -0.64800044405E+03  0.10063254318E+04  0.86490264199E+02 0.  0.
         11    1    3    3    0    0  0.15738189180E+03 -0.18680538444E+03 -0.60632566879E+02  0.25167761062E+03  0.00000000000E+00 0. -1.
        -11    1    3    3    0    0  0.25460933369E+03 -0.16163864700E+03 -0.30372044390E+02  0.30310959418E+03  0.00000000000E+00 0.  1.
          4    1    6    6  502    0 -0.47856103794E+03  0.27130219150E+03 -0.51503992696E+03  0.75358587600E+03  0.00000000000E+00 0. -1.
          3    1    5    5  503    0  0.10691602780E+03  0.13926318637E+02 -0.14797608297E+02  0.10882990657E+03  0.00000000000E+00 0. -1.
         -4    1    5    5    0  503  0.14640034978E+03 -0.43201133194E+02 -0.10454501368E+03  0.18501097322E+03  0.00000000000E+00 0.  1.
         -3    1    6    6    0  502 -0.18674656513E+03  0.10641665449E+03 -0.13296051709E+03  0.25273955576E+03  0.00000000000E+00 0.  1.
<mgrwt>
<rscale>  0 0.16444123E+04</rscale>
<asrwt>0</asrwt>
<pdfrwt beam="1">  1        2 0.20871548E+00 0.16444123E+04</pdfrwt>
<pdfrwt beam="2">  1       -2 0.76661987E-01 0.16444123E+04</pdfrwt>
<totfact> 0.22274966E+01</totfact>
</mgrwt>
</event>
<event>
12    1  0.2404959E-007  0.1976037E+04  0.7818608E-02  0.8617907E-01
         -2   -1    0    0    0  501 -0.00000000000E+00  0.00000000000E+00  0.10736204886E+04  0.10736204886E+04  0.00000000000E+00 0.  1.
          2   -1    0    0  501    0  0.00000000000E+00 -0.00000000000E+00 -0.90924152409E+03  0.90924152409E+03  0.00000000000E+00 0. -1.
         23    2    1    2    0    0  0.55832000910E+03 -0.53483777069E+03 -0.37499265607E+02  0.77952819835E+03  0.92115924613E+02 0.  0.
        254    2    1    2    0    0 -0.55832000910E+03  0.53483777069E+03  0.20187823007E+03  0.12033338143E+04  0.89971371855E+03 0.  0.
        -24    2    4    4    0    0 -0.63049713921E+03  0.57165894610E+01  0.18784964516E+03  0.66276385031E+03  0.80056918161E+02 0.  0.
         24    2    4    4    0    0  0.72177130107E+02  0.52912118123E+03  0.14028584915E+02  0.54056996399E+03  0.82706240616E+02 0.  0.
         11    1    3    3    0    0  0.44344996636E+03 -0.37028681608E+03 -0.19597907811E+02  0.57805214023E+03  0.00000000000E+00 0. -1.
        -11    1    3    3    0    0  0.11487004274E+03 -0.16455095462E+03 -0.17901357796E+02  0.20147605812E+03  0.00000000000E+00 0.  1.
          4    1    6    6  502    0  0.37015109472E+02  0.69500282258E+02 -0.75321024825E+01  0.79102086767E+02  0.00000000000E+00 0. -1.
          3    1    5    5  503    0 -0.62408040830E+01 -0.92326204643E+01  0.36668841925E+01  0.11731792528E+02  0.00000000000E+00 0. -1.
         -4    1    5    5    0  503 -0.62425633513E+03  0.14949209925E+02  0.18418276097E+03  0.65103205778E+03  0.00000000000E+00 0.  1.
         -3    1    6    6    0  502  0.35162020634E+02  0.45962089897E+03  0.21560687398E+02  0.46146787723E+03  0.00000000000E+00 0.  1.
<mgrwt>
<rscale>  0 0.19760368E+04</rscale>
<asrwt>0</asrwt>
<pdfrwt beam="1">  1        2 0.13988331E+00 0.19760368E+04</pdfrwt>
<pdfrwt beam="2">  1       -2 0.16517238E+00 0.19760368E+04</pdfrwt>
<totfact> 0.62091193E+00</totfact>
</mgrwt>
</event>
<event>
12    1  0.2404959E-007  0.2087030E+04  0.7818608E-02  0.8566978E-01
          2   -1    0    0  501    0  0.00000000000E+00  0.00000000000E+00  0.10145663698E+04  0.10145663698E+04  0.00000000000E+00 0. -1.
         -2   -1    0    0    0  501 -0.00000000000E+00 -0.00000000000E+00 -0.10732897738E+04  0.10732897738E+04  0.00000000000E+00 0.  1.
         23    2    1    2    0    0 -0.57133033375E+03 -0.54232172636E+03 -0.33364531885E+03  0.86148085747E+03  0.10148331807E+03 0.  0.
        254    2    1    2    0    0  0.57133033375E+03  0.54232172636E+03  0.27492191487E+03  0.12263752862E+04  0.89882316288E+03 0.  0.
        -24    2    4    4    0    0  0.72880430046E+03  0.30926565744E+03 -0.40935988822E+02  0.79593076748E+03  0.70915979957E+02 0.  0.
         24    2    4    4    0    0 -0.15747396670E+03  0.23305606892E+03  0.31585790370E+03  0.43044451870E+03  0.80019290794E+02 0.  0.
         13    1    3    3    0    0 -0.86042289544E+02 -0.69132827560E+02 -0.85755342236E+02  0.13977339575E+03  0.00000000000E+00 0.  1.
        -13    1    3    3    0    0 -0.48528804421E+03 -0.47318889880E+03 -0.24788997661E+03  0.72170746173E+03  0.00000000000E+00 0. -1.
          2    1    6    6  502    0 -0.13798662723E+03  0.20421984602E+03  0.22724020016E+03  0.33523747310E+03  0.00000000000E+00 0. -1.
          3    1    5    5  503    0  0.55530173516E+03  0.25066542151E+03 -0.48377970634E+01  0.60927545075E+03  0.00000000000E+00 0. -1.
         -4    1    5    5    0  503  0.17350256530E+03  0.58600235934E+02 -0.36098191758E+02  0.18665531673E+03  0.00000000000E+00 0.  1.
         -1    1    6    6    0  502 -0.19487339468E+02  0.28836222902E+02  0.88617703536E+02  0.95207045594E+02  0.00000000000E+00 0.  1.
<mgrwt>
<rscale>  0 0.20870301E+04</rscale>
<asrwt>0</asrwt>
<pdfrwt beam="1">  1        2 0.15608713E+00 0.20870301E+04</pdfrwt>
<pdfrwt beam="2">  1       -2 0.16512150E+00 0.20870301E+04</pdfrwt>
<totfact> 0.52537868E+00</totfact>
</mgrwt>
</event>
<event>
12    1  0.2404959E-007  0.1961659E+04  0.7818608E-02  0.8624759E-01
         -2   -1    0    0    0  501 -0.00000000000E+00  0.00000000000E+00  0.16750830724E+04  0.16750830724E+04  0.00000000000E+00 0.  1.
          2   -1    0    0  501    0  0.00000000000E+00 -0.00000000000E+00 -0.57431547558E+03  0.57431547558E+03  0.00000000000E+00 0. -1.
         23    2    1    2    0    0 -0.50537903516E+03  0.23453134323E+03 -0.17358387762E+03  0.59106085039E+03  0.93854388121E+02 0.  0.
        254    2    1    2    0    0  0.50537903516E+03 -0.23453134323E+03  0.12743514745E+04  0.16583376976E+04  0.90316073804E+03 0.  0.
        -24    2    4    4    0    0  0.34616404329E+03 -0.52726731020E+03  0.11090202356E+04  0.12780354794E+04  0.74889533876E+02 0.  0.
         24    2    4    4    0    0  0.15921499187E+03  0.29273596697E+03  0.16533123884E+03  0.38030221823E+03  0.79067051668E+02 0.  0.
         13    1    3    3    0    0 -0.53876216630E+02  0.60465120461E+02 -0.20698695451E+02  0.83588955635E+02  0.00000000000E+00 0.  1.
        -13    1    3    3    0    0 -0.45150281853E+03  0.17406622276E+03 -0.15288518217E+03  0.50747189476E+03  0.00000000000E+00 0. -1.
          4    1    6    6  502    0  0.16437007444E+03  0.25057818271E+03  0.15023271903E+03  0.33522651579E+03  0.00000000000E+00 0. -1.
          1    1    5    5  503    0  0.22973193670E+03 -0.40855810698E+03  0.80507172475E+03  0.93157767873E+03  0.00000000000E+00 0. -1.
         -2    1    5    5    0  503  0.11643210659E+03 -0.11870920321E+03  0.30394851088E+03  0.34645780066E+03  0.00000000000E+00 0.  1.
         -3    1    6    6    0  502 -0.51550825709E+01  0.42157784254E+02  0.15098519815E+02  0.45075702437E+02  0.00000000000E+00 0.  1.
<mgrwt>
<rscale>  0 0.19616586E+04</rscale>
<asrwt>0</asrwt>
<pdfrwt beam="1">  1        2 0.88356228E-01 0.19616586E+04</pdfrwt>
<pdfrwt beam="2">  1       -2 0.25770509E+00 0.19616586E+04</pdfrwt>
<totfact> 0.28078266E+00</totfact>
</mgrwt>
</event>
<event>
12    1  0.2404959E-007  0.1654973E+04  0.7818608E-02  0.8787470E-01
          2   -1    0    0  501    0  0.00000000000E+00  0.00000000000E+00  0.80948280494E+03  0.80948280494E+03  0.00000000000E+00 0. -1.
         -2   -1    0    0    0  501 -0.00000000000E+00 -0.00000000000E+00 -0.84589021795E+03  0.84589021795E+03  0.00000000000E+00 0.  1.
         23    2    1    2    0    0 -0.21276903909E+03  0.46422838727E+03  0.25779264378E+03  0.57921176848E+03  0.90832626372E+02 0.  0.
        254    2    1    2    0    0  0.21276903909E+03 -0.46422838727E+03 -0.29420005680E+03  0.10761612544E+04  0.90043917758E+03 0.  0.
        -24    2    4    4    0    0 -0.20017792298E+03 -0.23375556819E+03  0.20876007524E+03  0.38128880190E+03  0.84187379902E+02 0.  0.
         24    2    4    4    0    0  0.41294696207E+03 -0.23047281909E+03 -0.50296013204E+03  0.69487245251E+03  0.78967822634E+02 0.  0.
         11    1    3    3    0    0 -0.19523253586E+03  0.45799840600E+03  0.25767293545E+03  0.56060112792E+03  0.00000000000E+00 0. -1.
        -11    1    3    3    0    0 -0.17536503226E+02  0.62299812700E+01  0.11970833154E+00  0.18610640561E+02  0.00000000000E+00 0.  1.
          2    1    6    6  502    0  0.13564739128E+03 -0.11948547537E+03 -0.19085387021E+03  0.26287296049E+03  0.00000000000E+00 0. -1.
          1    1    5    5  503    0 -0.96707782907E+01 -0.24428949693E+02  0.50710182992E+02  0.57112347132E+02  0.00000000000E+00 0. -1.
         -2    1    5    5    0  503 -0.19050714469E+03 -0.20932661849E+03  0.15804989225E+03  0.32417645477E+03  0.00000000000E+00 0.  1.
         -1    1    6    6    0  502  0.27729957079E+03 -0.11098734372E+03 -0.31210626183E+03  0.43199949201E+03  0.00000000000E+00 0.  1.
<mgrwt>
<rscale>  0 0.16549726E+04</rscale>
<asrwt>0</asrwt>
<pdfrwt beam="1">  1        2 0.12453582E+00 0.16549726E+04</pdfrwt>
<pdfrwt beam="2">  1       -2 0.13013696E+00 0.16549726E+04</pdfrwt>
<totfact> 0.14021946E+01</totfact>
</mgrwt>
</event>
<event>
12    1  0.2404959E-007  0.1600902E+04  0.7818608E-02  0.8819994E-01
          2   -1    0    0  501    0  0.00000000000E+00  0.00000000000E+00  0.13307188392E+04  0.13307188392E+04  0.00000000000E+00 0. -1.
         -2   -1    0    0    0  501 -0.00000000000E+00 -0.00000000000E+00 -0.48148573328E+03  0.48148573328E+03  0.00000000000E+00 0.  1.
         23    2    1    2    0    0  0.17843014715E+03  0.45713175926E+03  0.26358089997E+02  0.50014590353E+03  0.92975336373E+02 0.  0.
        254    2    1    2    0    0 -0.17843014715E+03 -0.45713175926E+03  0.82287501587E+03  0.13120586689E+04  0.89641948672E+03 0.  0.
        -24    2    4    4    0    0  0.10697230735E+03 -0.64890423927E+03  0.60651578767E+03  0.89823108620E+03  0.80236508166E+02 0.  0.
         24    2    4    4    0    0 -0.28540245450E+03  0.19177248001E+03  0.21635922820E+03  0.41382758271E+03  0.78808041842E+02 0.  0.
         11    1    3    3    0    0  0.48543796672E+02  0.68008612464E+02 -0.23756185068E+02  0.86867876074E+02  0.00000000000E+00 0.  1.
        -11    1    3    3    0    0  0.12988635048E+03  0.38912314679E+03  0.50114275065E+02  0.41327802745E+03  0.00000000000E+00 0. -1.
          2    1    6    6  502    0 -0.16633902507E+03  0.12020935182E+03  0.17266824849E+03  0.26820380974E+03  0.00000000000E+00 0. -1.
          3    1    5    5  503    0  0.77306099037E+02 -0.51547943659E+03  0.43497856717E+03  0.67889736809E+03  0.00000000000E+00 0. -1.
         -4    1    5    5    0  503  0.29666208314E+02 -0.13342480268E+03  0.17153722050E+03  0.21933371811E+03  0.00000000000E+00 0.  1.
         -1    1    6    6    0  502 -0.11906342943E+03  0.71563128193E+02  0.43690979716E+02  0.14562377296E+03  0.00000000000E+00 0.  1.
<mgrwt>
<rscale>  0 0.16009024E+04</rscale>
<asrwt>0</asrwt>
<pdfrwt beam="1">  1        2 0.20472597E+00 0.16009024E+04</pdfrwt>
<pdfrwt beam="2">  1       -2 0.74074729E-01 0.16009024E+04</pdfrwt>
<totfact> 0.24969152E+01</totfact>
</mgrwt>
</event>
<event>
12    1  0.2404959E-007  0.1562534E+04  0.7818608E-02  0.8843901E-01
         -2   -1    0    0    0  501 -0.00000000000E+00  0.00000000000E+00  0.37585307144E+03  0.37585307144E+03  0.00000000000E+00 0. -1.
          2   -1    0    0  501    0  0.00000000000E+00 -0.00000000000E+00 -0.16239798442E+04  0.16239798442E+04  0.00000000000E+00 0.  1.
         23    2    1    2    0    0  0.48401941715E+02 -0.51102905977E+03 -0.35205225503E+03  0.62904710775E+03  0.90917685917E+02 0.  0.
        254    2    1    2    0    0 -0.48401941715E+02  0.51102905977E+03 -0.89607451773E+03  0.13707858079E+04  0.90144924533E+03 0.  0.
        -24    2    4    4    0    0  0.28853109354E+03 -0.95258112541E+02 -0.14837538159E+03  0.34780899793E+03  0.81434300122E+02 0.  0.
         24    2    4    4    0    0 -0.33693303525E+03  0.60628717231E+03 -0.74769913614E+03  0.10229768100E+04  0.79495597249E+02 0.  0.
         11    1    3    3    0    0  0.20757447250E+02 -0.22790729721E+03 -0.21206573973E+03  0.31200077837E+03  0.00000000000E+00 0.  1.
        -11    1    3    3    0    0  0.27644494465E+02 -0.28312176256E+03 -0.13998651530E+03  0.31704632938E+03  0.00000000000E+00 0. -1.
          2    1    6    6  502    0 -0.29686423195E+03  0.57576127183E+03 -0.69380944561E+03  0.94921070431E+03  0.00000000000E+00 0. -1.
          3    1    5    5  503    0  0.18652462212E+03 -0.10148924232E+03 -0.97978989376E+02  0.23386188942E+03  0.00000000000E+00 0. -1.
         -4    1    5    5    0  503  0.10200647142E+03  0.62311297821E+01 -0.50396392210E+02  0.11394710851E+03  0.00000000000E+00 0.  1.
         -1    1    6    6    0  502 -0.40068803302E+02  0.30525900479E+02 -0.53889690526E+02  0.73766105652E+02  0.00000000000E+00 0.  1.
<mgrwt>
<rscale>  0 0.15625336E+04</rscale>
<asrwt>0</asrwt>
<pdfrwt beam="1">  1        2 0.24984306E+00 0.15625336E+04</pdfrwt>
<pdfrwt beam="2">  1       -2 0.57823549E-01 0.15625336E+04</pdfrwt>
<totfact> 0.29109357E+01</totfact>
</mgrwt>
</event>
<event>
12    1  0.2404959E-007  0.1632865E+04  0.7818608E-02  0.8800608E-01
         -1   -1    0    0    0  501 -0.00000000000E+00  0.00000000000E+00  0.18672600294E+03  0.18672600294E+03  0.00000000000E+00 0.  1.
          1   -1    0    0  501    0  0.00000000000E+00 -0.00000000000E+00 -0.35697345862E+04  0.35697345862E+04  0.00000000000E+00 0. -1.
         23    2    1    2    0    0 -0.29777753683E+03 -0.27740717538E+03 -0.28637769114E+03  0.50584261260E+03  0.90765435860E+02 0.  0.
        254    2    1    2    0    0  0.29777753683E+03  0.27740717538E+03 -0.30966308921E+04  0.32506179765E+04  0.90098176727E+03 0.  0.
        -24    2    4    4    0    0 -0.19309789048E+03 -0.54199889962E+01 -0.16812749340E+03  0.26676292351E+03  0.74695593799E+02 0.  0.
         24    2    4    4    0    0  0.49087542730E+03  0.28282716438E+03 -0.29285033987E+04  0.29838550530E+04  0.79428780427E+02 0.  0.
         13    1    3    3    0    0 -0.27774513067E+03 -0.21872709223E+03 -0.25794374084E+03  0.43762869184E+03  0.00000000000E+00 0. -1.
        -13    1    3    3    0    0 -0.20032406162E+02 -0.58680083157E+02 -0.28433950297E+02  0.68213920760E+02  0.00000000000E+00 0.  1.
          4    1    6    6  502    0  0.35124182116E+03  0.15983917709E+03 -0.20005113184E+04  0.20373916940E+04  0.00000000000E+00 0. -1.
          3    1    5    5  503    0 -0.19058622637E+03  0.86601927324E+01 -0.16473663693E+03  0.25206401601E+03  0.00000000000E+00 0. -1.
         -4    1    5    5    0  503 -0.25116641090E+01 -0.14080181729E+02 -0.33908564776E+01  0.14698907502E+02  0.00000000000E+00 0.  1.
         -3    1    6    6    0  502  0.13963360614E+03  0.12298798729E+03 -0.92799208029E+03  0.94646335907E+03  0.00000000000E+00 0.  1.
<mgrwt>
<rscale>  0 0.16328653E+04</rscale>
<asrwt>0</asrwt>
<pdfrwt beam="1">  1        1 0.54918995E+00 0.16328653E+04</pdfrwt>
<pdfrwt beam="2">  1       -1 0.28727077E-01 0.16328653E+04</pdfrwt>
<totfact> 0.23405446E+00</totfact>
</mgrwt>
</event>
<event>
12    1  0.2404959E-007  0.1882494E+04  0.7818608E-02  0.8663620E-01
         -1   -1    0    0    0  501 -0.00000000000E+00  0.00000000000E+00  0.44547014941E+03  0.44547014941E+03  0.00000000000E+00 0.  1.
          1   -1    0    0  501    0  0.00000000000E+00 -0.00000000000E+00 -0.19887884965E+04  0.19887884965E+04  0.00000000000E+00 0. -1.
         23    2    1    2    0    0 -0.33827074329E+03  0.62366700011E+03 -0.77572140217E+03  0.10549711617E+04  0.88503307164E+02 0.  0.
        254    2    1    2    0    0  0.33827074329E+03 -0.62366700011E+03 -0.76759694494E+03  0.13792874843E+04  0.89991181322E+03 0.  0.
        -24    2    4    4    0    0  0.24448131108E+02 -0.29750867684E+03 -0.85697846949E+03  0.91112770745E+03  0.81440028253E+02 0.  0.
         24    2    4    4    0    0  0.31382261219E+03 -0.32615832327E+03  0.89381524545E+02  0.46815977682E+03  0.79502427290E+02 0.  0.
         11    1    3    3    0    0 -0.23017171458E+03  0.35051031357E+03 -0.41796339579E+03  0.59205565476E+03  0.00000000000E+00 0.  1.
        -11    1    3    3    0    0 -0.10809902871E+03  0.27315668653E+03 -0.35775800639E+03  0.46291550691E+03  0.00000000000E+00 0. -1.
          4    1    6    6  502    0  0.13943911860E+03 -0.18707965303E+03  0.73111529515E+02  0.24451453969E+03  0.00000000000E+00 0. -1.
          1    1    5    5  503    0  0.24408254059E+02 -0.59989319734E+02 -0.27548397063E+03  0.28299452189E+03  0.00000000000E+00 0. -1.
         -2    1    5    5    0  503  0.39877048946E-01 -0.23751935710E+03 -0.58149449886E+03  0.62813318555E+03  0.00000000000E+00 0.  1.
         -3    1    6    6    0  502  0.17438349359E+03 -0.13907867024E+03  0.16269995030E+02  0.22364523713E+03  0.00000000000E+00 0.  1.
<mgrwt>
<rscale>  0 0.18824940E+04</rscale>
<asrwt>0</asrwt>
<pdfrwt beam="1">  1        1 0.30596746E+00 0.18824940E+04</pdfrwt>
<pdfrwt beam="2">  1       -1 0.68533869E-01 0.18824940E+04</pdfrwt>
<totfact> 0.61233098E+00</totfact>
</mgrwt>
</event>
<event>
12    1  0.2404959E-007  0.1676472E+04  0.7818608E-02  0.8774898E-01
         -1   -1    0    0    0  501 -0.00000000000E+00  0.00000000000E+00  0.62289876232E+03  0.62289876232E+03  0.00000000000E+00 0.  1.
          1   -1    0    0  501    0  0.00000000000E+00 -0.00000000000E+00 -0.11280155927E+04  0.11280155927E+04  0.00000000000E+00 0. -1.
         23    2    1    2    0    0 -0.31775961118E+03  0.49996389804E+03 -0.20647186473E+03  0.63385128889E+03  0.90563544905E+02 0.  0.
        254    2    1    2    0    0  0.31775961118E+03 -0.49996389804E+03 -0.29864496560E+03  0.11170630661E+04  0.89872465655E+03 0.  0.
        -24    2    4    4    0    0 -0.21695967174E+03 -0.34907208716E+03 -0.35962938272E+03  0.55191864889E+03  0.79737575040E+02 0.  0.
         24    2    4    4    0    0  0.53471928292E+03 -0.15089181088E+03  0.60984417117E+02  0.56514441720E+03  0.83522829467E+02 0.  0.
         11    1    3    3    0    0 -0.18474394358E+03  0.21227269268E+03 -0.79601004037E+02  0.29244886833E+03  0.00000000000E+00 0.  1.
        -11    1    3    3    0    0 -0.13301566760E+03  0.28769120537E+03 -0.12687086069E+03  0.34140242056E+03  0.00000000000E+00 0. -1.
          4    1    6    6  502    0  0.39741102223E+03 -0.13010059813E+03  0.13518128460E+02  0.41838310915E+03  0.00000000000E+00 0. -1.
          3    1    5    5  503    0 -0.44045497314E+02 -0.23255552497E+02 -0.42537878371E+02  0.65500363754E+02  0.00000000000E+00 0. -1.
         -4    1    5    5    0  503 -0.17291417443E+03 -0.32581653467E+03 -0.31709150435E+03  0.48641828513E+03  0.00000000000E+00 0.  1.
         -3    1    6    6    0  502  0.13730826069E+03 -0.20791212744E+02  0.47466288657E+02  0.14676130805E+03  0.00000000000E+00 0.  1.
<mgrwt>
<rscale>  0 0.16764719E+04</rscale>
<asrwt>0</asrwt>
<pdfrwt beam="1">  1        1 0.17354086E+00 0.16764719E+04</pdfrwt>
<pdfrwt beam="2">  1       -1 0.95830579E-01 0.16764719E+04</pdfrwt>
<totfact> 0.12094830E+01</totfact>
</mgrwt>
</event>
<event>
12    1  0.2404959E-007  0.2399722E+04  0.7818608E-02  0.8439608E-01
         -2   -1    0    0    0  501 -0.00000000000E+00  0.00000000000E+00  0.64954576356E+03  0.64954576356E+03  0.00000000000E+00 0.  1.
          2   -1    0    0  501    0  0.00000000000E+00 -0.00000000000E+00 -0.22164201653E+04  0.22164201653E+04  0.00000000000E+00 0. -1.
         23    2    1    2    0    0 -0.97192360376E+03  0.28780642964E+03 -0.89190061361E+03  0.13533118207E+04  0.92185394752E+02 0.  0.
        254    2    1    2    0    0  0.97192360376E+03 -0.28780642964E+03 -0.67497378809E+03  0.15126541081E+04  0.89725403524E+03 0.  0.
        -24    2    4    4    0    0  0.73676996326E+03 -0.55117014131E+03 -0.25464537587E+03  0.95814611057E+03  0.81124585144E+02 0.  0.
         24    2    4    4    0    0  0.23515364050E+03  0.26336371167E+03 -0.42032841222E+03  0.55450799756E+03  0.78393022495E+02 0.  0.
         13    1    3    3    0    0 -0.14421844201E+03  0.51079417617E+02 -0.94280295878E+02  0.17971321630E+03  0.00000000000E+00 0.  1.
        -13    1    3    3    0    0 -0.82770516174E+03  0.23672701203E+03 -0.79762031774E+03  0.11735986044E+04  0.00000000000E+00 0. -1.
          4    1    6    6  502    0  0.11417399385E+03  0.18051413076E+03 -0.22457093833E+03  0.30992444018E+03  0.00000000000E+00 0. -1.
          3    1    5    5  503    0  0.63252377015E+03 -0.47674576150E+03 -0.24759574443E+03  0.82986534665E+03  0.00000000000E+00 0. -1.
         -4    1    5    5    0  503  0.10424619310E+03 -0.74424379814E+02 -0.70496314368E+01  0.12828076391E+03  0.00000000000E+00 0.  1.
         -3    1    6    6    0  502  0.12097964665E+03  0.82849580912E+02 -0.19575747389E+03  0.24458355739E+03  0.00000000000E+00 0.  1.
<mgrwt>
<rscale>  0 0.23997219E+04</rscale>
<asrwt>0</asrwt>
<pdfrwt beam="1">  1        2 0.34098771E+00 0.23997219E+04</pdfrwt>
<pdfrwt beam="2">  1       -2 0.99930118E-01 0.23997219E+04</pdfrwt>
<totfact> 0.37605769E+00</totfact>
</mgrwt>
</event>
<event>
12    1  0.2404959E-007  0.2601134E+04  0.7818608E-02  0.8367816E-01
          2   -1    0    0  501    0  0.00000000000E+00  0.00000000000E+00  0.94166831647E+03  0.94166831647E+03  0.00000000000E+00 0. -1.
         -2   -1    0    0    0  501 -0.00000000000E+00 -0.00000000000E+00 -0.17962526229E+04  0.17962526229E+04  0.00000000000E+00 0.  1.
         23    2    1    2    0    0  0.10165276337E+04 -0.17880836948E+03 -0.89309928364E+03  0.13678876657E+04  0.90495705330E+02 0.  0.
        254    2    1    2    0    0 -0.10165276337E+04  0.17880836948E+03  0.38514977217E+02  0.13700332736E+04  0.90011493954E+03 0.  0.
        -24    2    4    4    0    0 -0.92328435568E+03  0.38582223474E+03 -0.20839224282E+03  0.10252181499E+04  0.79574680793E+02 0.  0.
         24    2    4    4    0    0 -0.93243277971E+02 -0.20701386526E+03  0.24690722004E+03  0.34481512369E+03  0.79907727528E+02 0.  0.
         13    1    3    3    0    0  0.31343396414E+03 -0.63718875115E+02 -0.33210193154E+03  0.46107769178E+03  0.00000000000E+00 0.  1.
        -13    1    3    3    0    0  0.70309366952E+03 -0.11508949436E+03 -0.56099735210E+03  0.90680997397E+03  0.00000000000E+00 0. -1.
          2    1    6    6  502    0 -0.16360151600E+02 -0.14266288422E+02  0.66127105854E+02  0.69598675809E+02  0.00000000000E+00 0. -1.
          1    1    5    5  503    0 -0.24629187293E+03  0.80671013109E+02 -0.25347748825E+02  0.26040354720E+03  0.00000000000E+00 0. -1.
         -2    1    5    5    0  503 -0.67699248276E+03  0.30515122163E+03 -0.18304449400E+03  0.76481460273E+03  0.00000000000E+00 0.  1.
         -1    1    6    6    0  502 -0.76883126372E+02 -0.19274757684E+03  0.18078011419E+03  0.27521644788E+03  0.00000000000E+00 0.  1.
<mgrwt>
<rscale>  0 0.26011337E+04</rscale>
<asrwt>0</asrwt>
<pdfrwt beam="1">  1        2 0.14487205E+00 0.26011337E+04</pdfrwt>
<pdfrwt beam="2">  1       -2 0.27634656E+00 0.26011337E+04</pdfrwt>
<totfact> 0.10780858E+00</totfact>
</mgrwt>
</event>
<event>
12    1  0.2404959E-007  0.1499864E+04  0.7818608E-02  0.8884543E-01
         -2   -1    0    0    0  501 -0.00000000000E+00  0.00000000000E+00  0.20013257031E+03  0.20013257031E+03  0.00000000000E+00 0. -1.
          2   -1    0    0  501    0  0.00000000000E+00 -0.00000000000E+00 -0.28101283201E+04  0.28101283201E+04  0.00000000000E+00 0.  1.
         23    2    1    2    0    0 -0.44540157083E+03  0.11119007736E+02 -0.51088406384E+03  0.68409120150E+03  0.92043759462E+02 0.  0.
        254    2    1    2    0    0  0.44540157083E+03 -0.11119007736E+02 -0.20991116860E+04  0.23261696889E+04  0.89793616692E+03 0.  0.
        -24    2    4    4    0    0 -0.13641668961E+03  0.28420036614E+03 -0.92517528806E+03  0.98060845307E+03  0.79147098942E+02 0.  0.
         24    2    4    4    0    0  0.58181826044E+03 -0.29531937388E+03 -0.11739363979E+04  0.13455612359E+04  0.81745656370E+02 0.  0.
         11    1    3    3    0    0 -0.71909435422E+02 -0.32388491955E+02 -0.84275142567E+02  0.11542218577E+03  0.00000000000E+00 0.  1.
        -11    1    3    3    0    0 -0.37349213541E+03  0.43507499691E+02 -0.42660892127E+03  0.56866901573E+03  0.00000000000E+00 0. -1.
          2    1    6    6  502    0  0.55407211192E+03 -0.29563767199E+03 -0.11008755824E+04  0.12674086106E+04  0.00000000000E+00 0. -1.
          1    1    5    5  503    0 -0.94790762945E+02  0.23147805243E+03 -0.80459412659E+03  0.84257883076E+03  0.00000000000E+00 0. -1.
         -2    1    5    5    0  503 -0.41625926663E+02  0.52722313711E+02 -0.12058116147E+03  0.13802962231E+03  0.00000000000E+00 0.  1.
         -1    1    6    6    0  502  0.27746148519E+02  0.31829810823E+00 -0.73060815498E+02  0.78152625245E+02  0.00000000000E+00 0.  1.
<mgrwt>
<rscale>  0 0.14998643E+04</rscale>
<asrwt>0</asrwt>
<pdfrwt beam="1">  1        2 0.43232741E+00 0.14998643E+04</pdfrwt>
<pdfrwt beam="2">  1       -2 0.30789628E-01 0.14998643E+04</pdfrwt>
<totfact> 0.21632836E+01</totfact>
</mgrwt>
</event>
<event>
12    1  0.2404959E-007  0.1771812E+04  0.7818608E-02  0.8721435E-01
          2   -1    0    0  501    0  0.00000000000E+00  0.00000000000E+00  0.71769329988E+03  0.71769329988E+03  0.00000000000E+00 0. -1.
         -2   -1    0    0    0  501 -0.00000000000E+00 -0.00000000000E+00 -0.10935441920E+04  0.10935441920E+04  0.00000000000E+00 0.  1.
         23    2    1    2    0    0 -0.52868565471E+03  0.29525022457E+03  0.11021134494E+03  0.62251530338E+03  0.93260633647E+02 0.  0.
        254    2    1    2    0    0  0.52868565471E+03 -0.29525022457E+03 -0.48606223710E+03  0.11887221885E+04  0.90006817885E+03 0.  0.
        -24    2    4    4    0    0  0.43734772027E+03 -0.39352364380E+03  0.82402259093E+02  0.59932442750E+03  0.79156493361E+02 0.  0.
         24    2    4    4    0    0  0.91337934435E+02  0.98273419231E+02 -0.56846449619E+03  0.58939776103E+03  0.78978187414E+02 0.  0.
         13    1    3    3    0    0 -0.42925557446E+03  0.23203162315E+03  0.50894703823E+02  0.49060095110E+03  0.00000000000E+00 0.  1.
        -13    1    3    3    0    0 -0.99430080249E+02  0.63218601414E+02  0.59316641116E+02  0.13191435228E+03  0.00000000000E+00 0. -1.
          4    1    6    6  502    0  0.36440349539E+01 -0.27735899776E+01  0.77644223016E+00  0.46448524892E+01  0.00000000000E+00 0. -1.
          3    1    5    5  503    0  0.27362857163E+03 -0.22571876838E+03  0.13507922264E+02  0.35497045169E+03  0.00000000000E+00 0. -1.
         -4    1    5    5    0  503  0.16371914864E+03 -0.16780487542E+03  0.68894336829E+02  0.24435397581E+03  0.00000000000E+00 0.  1.
         -3    1    6    6    0  502  0.87693899481E+02  0.10104700921E+03 -0.56924093842E+03  0.58475290855E+03  0.00000000000E+00 0.  1.
<mgrwt>
<rscale>  0 0.17718119E+04</rscale>
<asrwt>0</asrwt>
<pdfrwt beam="1">  1        2 0.11041435E+00 0.17718119E+04</pdfrwt>
<pdfrwt beam="2">  1       -2 0.16823757E+00 0.17718119E+04</pdfrwt>
<totfact> 0.82341927E+00</totfact>
</mgrwt>
</event>
<event>
12    1  0.2404959E-007  0.2131847E+04  0.7818608E-02  0.8547343E-01
          2   -1    0    0  501    0  0.00000000000E+00  0.00000000000E+00  0.14463307395E+04  0.14463307395E+04  0.00000000000E+00 0. -1.
         -2   -1    0    0    0  501 -0.00000000000E+00 -0.00000000000E+00 -0.78556940969E+03  0.78556940969E+03  0.00000000000E+00 0.  1.
         23    2    1    2    0    0  0.13304966511E+03 -0.83802271710E+03  0.48669192230E+03  0.98278755671E+03  0.94963501555E+02 0.  0.
        254    2    1    2    0    0 -0.13304966511E+03  0.83802271710E+03  0.17406940755E+03  0.12491125925E+04  0.89999879022E+03 0.  0.
        -24    2    4    4    0    0 -0.48090654475E+03  0.39267193938E+03  0.24814621130E+03  0.67329547109E+03  0.79296232236E+02 0.  0.
         24    2    4    4    0    0  0.34785687964E+03  0.44535077772E+03 -0.74076803757E+02  0.57581712143E+03  0.82074725405E+02 0.  0.
         13    1    3    3    0    0  0.12722194318E+03 -0.74724356886E+03  0.39971299459E+03  0.85692989916E+03  0.00000000000E+00 0.  1.
        -13    1    3    3    0    0  0.58277219340E+01 -0.90779148236E+02  0.86978927712E+02  0.12585765755E+03  0.00000000000E+00 0. -1.
          4    1    6    6  502    0  0.28500448135E+03  0.39183596254E+03 -0.38888619590E+02  0.48608157819E+03  0.00000000000E+00 0. -1.
          3    1    5    5  503    0 -0.45061472146E+03  0.34611103015E+03  0.24136443690E+03  0.61733561681E+03  0.00000000000E+00 0. -1.
         -4    1    5    5    0  503 -0.30291823296E+02  0.46560909233E+02  0.67817744040E+01  0.55959854282E+02  0.00000000000E+00 0.  1.
         -3    1    6    6    0  502  0.62852398290E+02  0.53514815178E+02 -0.35188184166E+02  0.89735543233E+02  0.00000000000E+00 0.  1.
<mgrwt>
<rscale>  0 0.21318473E+04</rscale>
<asrwt>0</asrwt>
<pdfrwt beam="1">  1        2 0.22251242E+00 0.21318473E+04</pdfrwt>
<pdfrwt beam="2">  1       -2 0.12085683E+00 0.21318473E+04</pdfrwt>
<totfact> 0.65297743E+00</totfact>
</mgrwt>
</event>
<event>
12    1  0.2404959E-007  0.1751955E+04  0.7818608E-02  0.8732275E-01
         -4   -1    0    0    0  501 -0.00000000000E+00  0.00000000000E+00  0.27749866621E+04  0.27749866621E+04  0.00000000000E+00 0.  1.
          4   -1    0    0  501    0  0.00000000000E+00 -0.00000000000E+00 -0.27651908373E+03  0.27651908373E+03  0.00000000000E+00 0. -1.
         23    2    1    2    0    0  0.46225650639E+03 -0.30941936316E+03  0.14828514908E+04  0.15863723877E+04  0.91144875947E+02 0.  0.
        254    2    1    2    0    0 -0.46225650639E+03  0.30941936316E+03  0.10156160875E+04  0.14651333581E+04  0.89761812589E+03 0.  0.
        -24    2    4    4    0    0 -0.10929785264E+01  0.37661991163E+03  0.47847432114E+02  0.38800976926E+03  0.80115240996E+02 0.  0.
         24    2    4    4    0    0 -0.46116352786E+03 -0.67200548468E+02  0.96776865537E+03  0.10771235889E+04  0.80195649721E+02 0.  0.
         11    1    3    3    0    0  0.32934294257E+02  0.24497549987E+01  0.88892556953E+02  0.94829086885E+02  0.00000000000E+00 0.  1.
        -11    1    3    3    0    0  0.42932221213E+03 -0.31186911816E+03  0.13939589339E+04  0.14915433008E+04  0.00000000000E+00 0. -1.
          2    1    6    6  502    0 -0.10732954064E+03  0.17238527737E+02  0.20425661877E+03  0.23138185635E+03  0.00000000000E+00 0. -1.
          1    1    5    5  503    0 -0.14542159029E+02  0.11463865588E+02  0.88729237125E+01  0.20533469717E+02  0.00000000000E+00 0. -1.
         -2    1    5    5    0  503  0.13449180502E+02  0.36515604604E+03  0.38974508402E+02  0.36747629954E+03  0.00000000000E+00 0.  1.
         -3    1    6    6    0  502 -0.35383398722E+03 -0.84439076205E+02  0.76351203660E+03  0.84574173252E+03  0.00000000000E+00 0.  1.
<mgrwt>
<rscale>  0 0.17519552E+04</rscale>
<asrwt>0</asrwt>
<pdfrwt beam="1">  1        4 0.42541399E-01 0.17519552E+04</pdfrwt>
<pdfrwt beam="2">  1       -4 0.42692100E+00 0.17519552E+04</pdfrwt>
<totfact> 0.45263939E-02</totfact>
</mgrwt>
</event>
<event>
12    1  0.2404959E-007  0.1832879E+04  0.7818608E-02  0.8689008E-01
         -2   -1    0    0    0  501 -0.00000000000E+00  0.00000000000E+00  0.48476377782E+03  0.48476377782E+03  0.00000000000E+00 0. -1.
          2   -1    0    0  501    0  0.00000000000E+00 -0.00000000000E+00 -0.17325161905E+04  0.17325161905E+04  0.00000000000E+00 0.  1.
         23    2    1    2    0    0  0.16143050684E+03  0.46401581536E+03  0.11403744704E+03  0.51290881340E+03  0.93276074605E+02 0.  0.
        254    2    1    2    0    0 -0.16143050684E+03 -0.46401581536E+03 -0.13617898597E+04  0.17043711549E+04  0.89946591166E+03 0.  0.
        -24    2    4    4    0    0 -0.15804493771E+02 -0.65043368381E+03 -0.54922621448E+03  0.85428727225E+03  0.69595616221E+02 0.  0.
         24    2    4    4    0    0 -0.14562601307E+03  0.18641786845E+03 -0.81256364522E+03  0.85008388265E+03  0.80152184290E+02 0.  0.
         11    1    3    3    0    0  0.16388631232E+03  0.35740691549E+03  0.96236148427E+02  0.40479602625E+03  0.00000000000E+00 0. -1.
        -11    1    3    3    0    0 -0.24558054854E+01  0.10660889987E+03  0.17801298612E+02  0.10811278715E+03  0.00000000000E+00 0.  1.
          2    1    6    6  502    0 -0.92192457693E+02  0.16993685665E+03 -0.65211685347E+03  0.68017231278E+03  0.00000000000E+00 0. -1.
          1    1    5    5  503    0 -0.28395970354E+02 -0.49619193761E+03 -0.44997134516E+03  0.67043790283E+03  0.00000000000E+00 0. -1.
         -2    1    5    5    0  503  0.12591476583E+02 -0.15424174620E+03 -0.99254869320E+02  0.18384936942E+03  0.00000000000E+00 0.  1.
         -1    1    6    6    0  502 -0.53433555372E+02  0.16481011801E+02 -0.16044679176E+03  0.16991156987E+03  0.00000000000E+00 0.  1.
<mgrwt>
<rscale>  0 0.18328787E+04</rscale>
<asrwt>0</asrwt>
<pdfrwt beam="1">  1        2 0.26654095E+00 0.18328787E+04</pdfrwt>
<pdfrwt beam="2">  1       -2 0.74579042E-01 0.18328787E+04</pdfrwt>
<totfact> 0.14319778E+01</totfact>
</mgrwt>
</event>
<event>
12    1  0.2404959E-007  0.1316404E+04  0.7818608E-02  0.9016657E-01
          2   -1    0    0  501    0  0.00000000000E+00  0.00000000000E+00  0.42015457482E+03  0.42015457482E+03  0.00000000000E+00 0. -1.
         -2   -1    0    0    0  501 -0.00000000000E+00 -0.00000000000E+00 -0.10311204314E+04  0.10311204314E+04  0.00000000000E+00 0.  1.
         23    2    1    2    0    0 -0.15111310272E+03 -0.22473522580E+03  0.69203050076E+02  0.29411300425E+03  0.91500303812E+02 0.  0.
        254    2    1    2    0    0  0.15111310272E+03  0.22473522580E+03 -0.68016890668E+03  0.11571620020E+04  0.89613228137E+03 0.  0.
        -24    2    4    4    0    0  0.37824453201E+03 -0.49368577395E+01  0.14719381356E+02  0.38693028526E+03  0.80031786834E+02 0.  0.
         24    2    4    4    0    0 -0.22713142929E+03  0.22967208354E+03 -0.69488828804E+03  0.77023171673E+03  0.77776683374E+02 0.  0.
         11    1    3    3    0    0  0.12409748210E+01 -0.57673253748E+02  0.94883765221E-01  0.57686681473E+02  0.00000000000E+00 0.  1.
        -11    1    3    3    0    0 -0.15235407754E+03 -0.16706197205E+03  0.69108166311E+02  0.23642632277E+03  0.00000000000E+00 0. -1.
          2    1    6    6  502    0 -0.97742032820E+02  0.72544983764E+02 -0.18757628815E+03  0.22360935473E+03  0.00000000000E+00 0. -1.
          1    1    5    5  503    0  0.32913776597E+03  0.23232571908E+02  0.97631352286E+01  0.33010110602E+03  0.00000000000E+00 0. -1.
         -2    1    5    5    0  503  0.49106766041E+02 -0.28169429647E+02  0.49562461276E+01  0.56829179242E+02  0.00000000000E+00 0.  1.
         -1    1    6    6    0  502 -0.12938939647E+03  0.15712709978E+03 -0.50731199989E+03  0.54662236200E+03  0.00000000000E+00 0.  1.
<mgrwt>
<rscale>  0 0.13164041E+04</rscale>
<asrwt>0</asrwt>
<pdfrwt beam="1">  1        2 0.64639167E-01 0.13164041E+04</pdfrwt>
<pdfrwt beam="2">  1       -2 0.15863391E+00 0.13164041E+04</pdfrwt>
<totfact> 0.18965384E+01</totfact>
</mgrwt>
</event>
<event>
12    1  0.2404959E-007  0.1821154E+04  0.7818608E-02  0.8695130E-01
         -1   -1    0    0    0  501 -0.00000000000E+00  0.00000000000E+00  0.91119117293E+03  0.91119117293E+03  0.00000000000E+00 0.  1.
          1   -1    0    0  501    0  0.00000000000E+00 -0.00000000000E+00 -0.90996289968E+03  0.90996289968E+03  0.00000000000E+00 0. -1.
         23    2    1    2    0    0 -0.21719173781E+03 -0.64694752053E+03  0.54689886646E+02  0.69049548331E+03  0.89887059577E+02 0.  0.
        254    2    1    2    0    0  0.21719173781E+03  0.64694752053E+03 -0.53461613392E+02  0.11306585893E+04  0.89989852548E+03 0.  0.
        -24    2    4    4    0    0  0.68286319595E+02  0.18047125181E+03  0.40402464412E+03  0.45584908836E+03  0.85612990452E+02 0.  0.
         24    2    4    4    0    0  0.14890541822E+03  0.46647626872E+03 -0.45748625751E+03  0.67480950094E+03  0.79380437735E+02 0.  0.
         11    1    3    3    0    0 -0.11481379042E+03 -0.24493597186E+03 -0.97059239667E+01  0.27068439508E+03  0.00000000000E+00 0.  1.
        -11    1    3    3    0    0 -0.10237794740E+03 -0.40201154866E+03  0.64395810613E+02  0.41981108823E+03  0.00000000000E+00 0. -1.
          4    1    6    6  502    0  0.99490723933E+02  0.38040795796E+03 -0.39603853486E+03  0.55808166044E+03  0.00000000000E+00 0. -1.
          1    1    5    5  503    0  0.54693892855E+02  0.14583124742E+03  0.38218372046E+03  0.41270155176E+03  0.00000000000E+00 0. -1.
         -2    1    5    5    0  503  0.13592426740E+02  0.34640004387E+02  0.21840923654E+02  0.43147536600E+02  0.00000000000E+00 0.  1.
         -3    1    6    6    0  502  0.49414694286E+02  0.86068310759E+02 -0.61447722650E+02  0.11672784050E+03  0.00000000000E+00 0.  1.
<mgrwt>
<rscale>  0 0.18211537E+04</rscale>
<asrwt>0</asrwt>
<pdfrwt beam="1">  1        1 0.13999429E+00 0.18211537E+04</pdfrwt>
<pdfrwt beam="2">  1       -1 0.14018326E+00 0.18211537E+04</pdfrwt>
<totfact> 0.70272080E+00</totfact>
</mgrwt>
</event>
<event>
12    1  0.2404959E-007  0.1744433E+04  0.7818608E-02  0.8736421E-01
         -3   -1    0    0    0  501 -0.00000000000E+00  0.00000000000E+00  0.13226022031E+04  0.13226022031E+04  0.00000000000E+00 0.  1.
          3   -1    0    0  501    0  0.00000000000E+00 -0.00000000000E+00 -0.57520036255E+03  0.57520036255E+03  0.00000000000E+00 0. -1.
         23    2    1    2    0    0 -0.62668664116E+03 -0.10053178902E+03  0.29312507308E+03  0.70504975408E+03  0.91269164797E+02 0.  0.
        254    2    1    2    0    0  0.62668664116E+03  0.10053178902E+03  0.45427676749E+03  0.11927528116E+04  0.90191413186E+03 0.  0.
        -24    2    4    4    0    0  0.53578088343E+03  0.45459309232E+03  0.40610962271E+03  0.81551893255E+03  0.80187711337E+02 0.  0.
         24    2    4    4    0    0  0.90905757730E+02 -0.35406130330E+03  0.48167144781E+02  0.37723387904E+03  0.79762537423E+02 0.  0.
         11    1    3    3    0    0 -0.28493426900E+03 -0.89087542008E+02  0.11968025601E+03  0.32163254106E+03  0.00000000000E+00 0. -1.
        -11    1    3    3    0    0 -0.34175237217E+03 -0.11444247013E+02  0.17344481708E+03  0.38341721302E+03  0.00000000000E+00 0.  1.
          4    1    6    6  502    0  0.80691119921E+02 -0.23292369800E+03  0.63901076247E+02  0.25465241698E+03  0.00000000000E+00 0. -1.
          3    1    5    5  503    0  0.33740716412E+03  0.27694816424E+03  0.20750728422E+03  0.48332510082E+03  0.00000000000E+00 0. -1.
         -4    1    5    5    0  503  0.19837371931E+03  0.17764492808E+03  0.19860233849E+03  0.33219383173E+03  0.00000000000E+00 0.  1.
         -3    1    6    6    0  502  0.10214637809E+02 -0.12113760530E+03 -0.15733931467E+02  0.12258146206E+03  0.00000000000E+00 0.  1.
<mgrwt>
<rscale>  0 0.17444326E+04</rscale>
<asrwt>0</asrwt>
<pdfrwt beam="1">  1        3 0.88492364E-01 0.17444326E+04</pdfrwt>
<pdfrwt beam="2">  1       -3 0.20347726E+00 0.17444326E+04</pdfrwt>
<totfact> 0.40047935E-01</totfact>
</mgrwt>
</event>
<event>
12    1  0.2404959E-007  0.1387813E+04  0.7818608E-02  0.8962688E-01
          2   -1    0    0  501    0  0.00000000000E+00  0.00000000000E+00  0.25081525438E+04  0.25081525438E+04  0.00000000000E+00 0. -1.
         -2   -1    0    0    0  501 -0.00000000000E+00 -0.00000000000E+00 -0.19197644560E+03  0.19197644560E+03  0.00000000000E+00 0.  1.
         23    2    1    2    0    0 -0.22031374681E+03  0.54082698773E+02  0.13004176121E+04  0.13232199404E+04  0.91443750810E+02 0.  0.
        254    2    1    2    0    0  0.22031374681E+03 -0.54082698773E+02  0.10157584861E+04  0.13769090490E+04  0.90147109865E+03 0.  0.
        -24    2    4    4    0    0  0.37235680409E+03  0.11014107136E+03  0.71199117937E+02  0.40282959565E+03  0.80135657398E+02 0.  0.
         24    2    4    4    0    0 -0.15204305728E+03 -0.16422377014E+03  0.94455936818E+03  0.97407945332E+03  0.80943458261E+02 0.  0.
         11    1    3    3    0    0 -0.16197057679E+03  0.45158360486E+02  0.70017372040E+03  0.72008123431E+03  0.00000000000E+00 0.  1.
        -11    1    3    3    0    0 -0.58343170020E+02  0.89243382871E+01  0.60024389166E+03  0.60313870609E+03  0.00000000000E+00 0. -1.
          4    1    6    6  502    0 -0.15069839370E+03 -0.17269120621E+03  0.91747693600E+03  0.94567234636E+03  0.00000000000E+00 0. -1.
          3    1    5    5  503    0  0.20339165876E+03  0.84539299803E+02  0.72638611972E+02  0.23192979113E+03  0.00000000000E+00 0. -1.
         -4    1    5    5    0  503  0.16896514532E+03  0.25601771561E+02 -0.14394940355E+01  0.17089980452E+03  0.00000000000E+00 0.  1.
         -3    1    6    6    0  502 -0.13446635758E+01  0.84674360758E+01  0.27082432172E+02  0.28407106966E+02  0.00000000000E+00 0.  1.
<mgrwt>
<rscale>  0 0.13878130E+04</rscale>
<asrwt>0</asrwt>
<pdfrwt beam="1">  1        2 0.38586960E+00 0.13878130E+04</pdfrwt>
<pdfrwt beam="2">  1       -2 0.29534840E-01 0.13878130E+04</pdfrwt>
<totfact> 0.35552752E+01</totfact>
</mgrwt>
</event>
<event>
12    1  0.2404959E-007  0.2356281E+04  0.7818608E-02  0.8456055E-01
         -2   -1    0    0    0  501 -0.00000000000E+00  0.00000000000E+00  0.70374907840E+03  0.70374907840E+03  0.00000000000E+00 0.  1.
          2   -1    0    0  501    0  0.00000000000E+00 -0.00000000000E+00 -0.19723156946E+04  0.19723156946E+04  0.00000000000E+00 0. -1.
         23    2    1    2    0    0  0.12203743766E+03  0.99613820171E+03 -0.54401014669E+03  0.11455622836E+04  0.95819898098E+02 0.  0.
        254    2    1    2    0    0 -0.12203743766E+03 -0.99613820171E+03 -0.72455646953E+03  0.15305024894E+04  0.90015073148E+03 0.  0.
        -24    2    4    4    0    0  0.36751566036E+03 -0.25959107276E+03 -0.29864219459E+03  0.54565233223E+03  0.78064214638E+02 0.  0.
         24    2    4    4    0    0 -0.48955309802E+03 -0.73654712895E+03 -0.42591427494E+03  0.98485015716E+03  0.79768123407E+02 0.  0.
         11    1    3    3    0    0  0.86465886368E+02  0.65099826587E+03 -0.40645693873E+03  0.77232268820E+03  0.00000000000E+00 0.  1.
        -11    1    3    3    0    0  0.35571551290E+02  0.34513993585E+03 -0.13755320797E+03  0.37323959543E+03  0.00000000000E+00 0. -1.
          2    1    6    6  502    0 -0.30591269267E+02 -0.44393121687E+02 -0.60412382681E+01  0.54250083579E+02  0.00000000000E+00 0. -1.
          3    1    5    5  503    0  0.19285202630E+02  0.31828415495E-01 -0.14241894821E+01  0.19337744677E+02  0.00000000000E+00 0. -1.
         -4    1    5    5    0  503  0.34823045773E+03 -0.25962290118E+03 -0.29721800511E+03  0.52631458755E+03  0.00000000000E+00 0.  1.
         -3    1    6    6    0  502 -0.45896182875E+03 -0.69215400726E+03 -0.41987303667E+03  0.93060007358E+03  0.00000000000E+00 0.  1.
<mgrwt>
<rscale>  0 0.23562813E+04</rscale>
<asrwt>0</asrwt>
<pdfrwt beam="1">  1        2 0.30343318E+00 0.23562813E+04</pdfrwt>
<pdfrwt beam="2">  1       -2 0.10826909E+00 0.23562813E+04</pdfrwt>
<totfact> 0.42650068E+00</totfact>
</mgrwt>
</event>
<event>
12    1  0.2404959E-007  0.1636502E+04  0.7818608E-02  0.8798432E-01
          2   -1    0    0  501    0  0.00000000000E+00  0.00000000000E+00  0.21270316978E+04  0.21270316978E+04  0.00000000000E+00 0. -1.
         -2   -1    0    0    0  501 -0.00000000000E+00 -0.00000000000E+00 -0.31477431682E+03  0.31477431682E+03  0.00000000000E+00 0.  1.
         23    2    1    2    0    0  0.27704371321E+03 -0.33471182804E+03  0.11759041131E+04  0.12569340705E+04  0.91364913826E+02 0.  0.
        254    2    1    2    0    0 -0.27704371321E+03  0.33471182804E+03  0.63635326779E+03  0.11848719440E+04  0.90010600236E+03 0.  0.
        -24    2    4    4    0    0 -0.65558146898E+02  0.62431335237E+03  0.41064990462E+03  0.75436700726E+03  0.79819827767E+02 0.  0.
         24    2    4    4    0    0 -0.21148556632E+03 -0.28960152433E+03  0.22570336317E+03  0.43050493678E+03  0.76140034079E+02 0.  0.
         13    1    3    3    0    0  0.90468916784E+02 -0.49411704056E+02  0.27842578119E+03  0.29689570060E+03  0.00000000000E+00 0. -1.
        -13    1    3    3    0    0  0.18657479643E+03 -0.28530012399E+03  0.89747833195E+03  0.96003836993E+03  0.00000000000E+00 0.  1.
          4    1    6    6  502    0 -0.18050695020E+03 -0.20907078476E+03  0.19812210230E+03  0.33992016641E+03  0.00000000000E+00 0. -1.
          3    1    5    5  503    0 -0.27348868248E+02  0.52858963859E+03  0.33318334855E+03  0.62543273849E+03  0.00000000000E+00 0. -1.
         -4    1    5    5    0  503 -0.38209278650E+02  0.95723713781E+02  0.77466556068E+02  0.12893426877E+03  0.00000000000E+00 0.  1.
         -3    1    6    6    0  502 -0.30978616119E+02 -0.80530739569E+02  0.27581260873E+02  0.90584770373E+02  0.00000000000E+00 0.  1.
<mgrwt>
<rscale>  0 0.16365023E+04</rscale>
<asrwt>0</asrwt>
<pdfrwt beam="1">  1        2 0.32723564E+00 0.16365023E+04</pdfrwt>
<pdfrwt beam="2">  1       -2 0.48426819E-01 0.16365023E+04</pdfrwt>
<totfact> 0.21926890E+01</totfact>
</mgrwt>
</event>
<event>
12    1  0.2404959E-007  0.1924369E+04  0.7818608E-02  0.8642821E-01
         -1   -1    0    0    0  501 -0.00000000000E+00  0.00000000000E+00  0.83121530866E+03  0.83121530866E+03  0.00000000000E+00 0.  1.
          1   -1    0    0  501    0  0.00000000000E+00 -0.00000000000E+00 -0.11137894864E+04  0.11137894864E+04  0.00000000000E+00 0. -1.
         23    2    1    2    0    0  0.66489133412E+03  0.47318904232E+02  0.23432292681E+03  0.71251246362E+03  0.91908715057E+02 0.  0.
        254    2    1    2    0    0 -0.66489133412E+03 -0.47318904232E+02 -0.51689710455E+03  0.12324923314E+04  0.89862960417E+03 0.  0.
        -24    2    4    4    0    0 -0.73411282668E+03 -0.27156520020E+03 -0.16894205483E+03  0.80497181074E+03  0.82273312406E+02 0.  0.
         24    2    4    4    0    0  0.69221492563E+02  0.22424629597E+03 -0.34795504972E+03  0.42752052071E+03  0.81382201422E+02 0.  0.
         11    1    3    3    0    0  0.52354228193E+02 -0.18192960043E+02  0.69447317170E+01  0.55858556224E+02  0.00000000000E+00 0. -1.
        -11    1    3    3    0    0  0.61253710592E+03  0.65511864276E+02  0.22737819509E+03  0.65665390739E+03  0.00000000000E+00 0.  1.
          2    1    6    6  502    0  0.55820835362E+02  0.21825467450E+03 -0.28717990631E+03  0.36499776326E+03  0.00000000000E+00 0. -1.
          3    1    5    5  503    0 -0.44955348840E+03 -0.20831369329E+03 -0.11144037887E+03  0.50785026513E+03  0.00000000000E+00 0. -1.
         -4    1    5    5    0  503 -0.28455933827E+03 -0.63251506913E+02 -0.57501675958E+02  0.29712154561E+03  0.00000000000E+00 0.  1.
         -1    1    6    6    0  502  0.13400657201E+02  0.59916214753E+01 -0.60775143413E+02  0.62522757442E+02  0.00000000000E+00 0.  1.
<mgrwt>
<rscale>  0 0.19243689E+04</rscale>
<asrwt>0</asrwt>
<pdfrwt beam="1">  1        1 0.17135223E+00 0.19243689E+04</pdfrwt>
<pdfrwt beam="2">  1       -1 0.12787928E+00 0.19243689E+04</pdfrwt>
<totfact> 0.61107175E+00</totfact>
</mgrwt>
</event>
<event>
12    1  0.2404959E-007  0.2050360E+04  0.7818608E-02  0.8583431E-01
          1   -1    0    0  501    0  0.00000000000E+00  0.00000000000E+00  0.24138821871E+04  0.24138821871E+04  0.00000000000E+00 0. -1.
         -1   -1    0    0    0  501 -0.00000000000E+00 -0.00000000000E+00 -0.43539561996E+03  0.43539561996E+03  0.00000000000E+00 0.  1.
         23    2    1    2    0    0 -0.22058026289E+03  0.79510541038E+03  0.78812480794E+03  0.11443864761E+04  0.87358043559E+02 0.  0.
        254    2    1    2    0    0  0.22058026289E+03 -0.79510541038E+03  0.11903617592E+04  0.17048913310E+04  0.89935814150E+03 0.  0.
        -24    2    4    4    0    0  0.27838249618E+03 -0.67671955079E+03  0.13149250519E+04  0.15068020891E+04  0.77320625411E+02 0.  0.
         24    2    4    4    0    0 -0.57802233290E+02 -0.11838585959E+03 -0.12456329266E+03  0.19808924187E+03  0.79793633481E+02 0.  0.
         13    1    3    3    0    0 -0.13004235909E+03  0.55773693819E+03  0.49995362030E+03  0.76022044818E+03  0.00000000000E+00 0.  1.
        -13    1    3    3    0    0 -0.90537903800E+02  0.23736847219E+03  0.28817118764E+03  0.38416602791E+03  0.00000000000E+00 0. -1.
          4    1    6    6  502    0 -0.14828479013E+02 -0.10556180319E+03 -0.70298224878E+02  0.12769110581E+03  0.00000000000E+00 0. -1.
          1    1    5    5  503    0  0.67901426525E+02 -0.10422319330E+03  0.26012750387E+03  0.28833902964E+03  0.00000000000E+00 0. -1.
         -2    1    5    5    0  503  0.21048106965E+03 -0.57249635749E+03  0.10547975480E+04  0.12184630595E+04  0.00000000000E+00 0.  1.
         -3    1    6    6    0  502 -0.42973754277E+02 -0.12824056392E+02 -0.54265067780E+02  0.70398136056E+02  0.00000000000E+00 0.  1.
<mgrwt>
<rscale>  0 0.20503597E+04</rscale>
<asrwt>0</asrwt>
<pdfrwt beam="1">  1        1 0.37136648E+00 0.20503597E+04</pdfrwt>
<pdfrwt beam="2">  1       -1 0.66983943E-01 0.20503597E+04</pdfrwt>
<totfact> 0.32415065E+00</totfact>
</mgrwt>
</event>
<event>
12    1  0.2404959E-007  0.1355561E+04  0.7818608E-02  0.8986629E-01
         -2   -1    0    0    0  501 -0.00000000000E+00  0.00000000000E+00  0.13548235997E+03  0.13548235997E+03  0.00000000000E+00 0.  1.
          2   -1    0    0  501    0  0.00000000000E+00 -0.00000000000E+00 -0.33907459111E+04  0.33907459111E+04  0.00000000000E+00 0. -1.
         23    2    1    2    0    0  0.79514133638E+02 -0.34883351659E+03 -0.11613427192E+04  0.12187409141E+04  0.92764134589E+02 0.  0.
        254    2    1    2    0    0 -0.79514133638E+02  0.34883351659E+03 -0.20939208320E+04  0.23074873570E+04  0.90110273119E+03 0.  0.
        -24    2    4    4    0    0 -0.71860822006E+02  0.37612282977E+03 -0.21634101275E+04  0.21984701206E+04  0.79341860898E+02 0.  0.
         24    2    4    4    0    0 -0.76533116316E+01 -0.27289313173E+02  0.69489295475E+02  0.10901723633E+03  0.79074116114E+02 0.  0.
         13    1    3    3    0    0  0.61921205430E+02 -0.32931130919E+03 -0.11253347050E+04  0.11741628389E+04  0.00000000000E+00 0. -1.
        -13    1    3    3    0    0  0.17592928208E+02 -0.19522207399E+02 -0.36008014187E+02  0.44578075221E+02  0.00000000000E+00 0.  1.
          2    1    6    6  502    0 -0.68055809059E+01 -0.54209010704E+02  0.33577052912E+02  0.64127616947E+02  0.00000000000E+00 0. -1.
          1    1    5    5  503    0 -0.88461728488E+01  0.23313880247E+03 -0.11997537737E+04  0.12222279139E+04  0.00000000000E+00 0. -1.
         -2    1    5    5    0  503 -0.63014649157E+02  0.14298402729E+03 -0.96365635379E+03  0.97624220677E+03  0.00000000000E+00 0.  1.
         -1    1    6    6    0  502 -0.84773072562E+00  0.26919697532E+02  0.35912242563E+02  0.44889619385E+02  0.00000000000E+00 0.  1.
<mgrwt>
<rscale>  0 0.13555608E+04</rscale>
<asrwt>0</asrwt>
<pdfrwt beam="1">  1        2 0.52165320E+00 0.13555608E+04</pdfrwt>
<pdfrwt beam="2">  1       -2 0.20843441E-01 0.13555608E+04</pdfrwt>
<totfact> 0.19085384E+01</totfact>
</mgrwt>
</event>
<event>
12    1  0.2404959E-007  0.4031411E+04  0.7818608E-02  0.7998240E-01
          1   -1    0    0  501    0  0.00000000000E+00  0.00000000000E+00  0.18728472699E+04  0.18728472699E+04  0.00000000000E+00 0. -1.
         -1   -1    0    0    0  501 -0.00000000000E+00 -0.00000000000E+00 -0.21694611430E+04  0.21694611430E+04  0.00000000000E+00 0.  1.
         23    2    1    2    0    0  0.18387032870E+04 -0.52794711296E+03 -0.80561452695E+02  0.19169868731E+04  0.93758157604E+02 0.  0.
        254    2    1    2    0    0 -0.18387032870E+04  0.52794711296E+03 -0.21605242035E+03  0.21253215399E+04  0.90041938437E+03 0.  0.
        -24    2    4    4    0    0  0.55407101583E+02  0.12101276676E+02  0.93728985309E+02  0.13631419756E+03  0.81117507147E+02 0.  0.
         24    2    4    4    0    0 -0.18941103886E+04  0.51584583629E+03 -0.30978140566E+03  0.19890073423E+04  0.80215942893E+02 0.  0.
         11    1    3    3    0    0  0.91763175678E+03 -0.21471270034E+03 -0.39575682969E+02  0.94324748577E+03  0.00000000000E+00 0.  1.
        -11    1    3    3    0    0  0.92107153023E+03 -0.31323441262E+03 -0.40985769726E+02  0.97373938729E+03  0.00000000000E+00 0. -1.
          2    1    6    6  502    0 -0.17354099671E+04  0.47279304932E+03 -0.30615671312E+03  0.18245308861E+04  0.00000000000E+00 0. -1.
          1    1    5    5  503    0  0.73544904653E+02 -0.30242721356E+00  0.55187515087E+02  0.91948933023E+02  0.00000000000E+00 0. -1.
         -2    1    5    5    0  503 -0.18137803070E+02  0.12403703890E+02  0.38541470221E+02  0.44365264534E+02  0.00000000000E+00 0.  1.
         -1    1    6    6    0  502 -0.15870042153E+03  0.43052786966E+02 -0.36246925367E+01  0.16447645623E+03  0.00000000000E+00 0.  1.
<mgrwt>
<rscale>  0 0.40314114E+04</rscale>
<asrwt>0</asrwt>
<pdfrwt beam="1">  1        1 0.28813035E+00 0.40314114E+04</pdfrwt>
<pdfrwt beam="2">  1       -1 0.33376325E+00 0.40314114E+04</pdfrwt>
<totfact> 0.56423470E-02</totfact>
</mgrwt>
</event>
<event>
12    1  0.2404959E-007  0.2711240E+04  0.7818608E-02  0.8331367E-01
          2   -1    0    0  501    0  0.00000000000E+00  0.00000000000E+00  0.20216658323E+04  0.20216658323E+04  0.00000000000E+00 0. -1.
         -2   -1    0    0    0  501 -0.00000000000E+00 -0.00000000000E+00 -0.90900565116E+03  0.90900565116E+03  0.00000000000E+00 0.  1.
         23    2    1    2    0    0 -0.54928448389E+03  0.10510656251E+04  0.72071274023E+03  0.13909310493E+04  0.93861267558E+02 0.  0.
        254    2    1    2    0    0  0.54928448389E+03 -0.10510656251E+04  0.39194744094E+03  0.15397404342E+04  0.90040291851E+03 0.  0.
        -24    2    4    4    0    0  0.15770002429E+02 -0.59404335058E+03  0.55220436837E+03  0.81489922735E+03  0.77426681105E+02 0.  0.
         24    2    4    4    0    0  0.53351448146E+03 -0.45702227451E+03 -0.16025692743E+03  0.72484120681E+03  0.78774557938E+02 0.  0.
         11    1    3    3    0    0 -0.16914559499E+03  0.42181406845E+03  0.27119933106E+03  0.52923191307E+03  0.00000000000E+00 0. -1.
        -11    1    3    3    0    0 -0.38013888890E+03  0.62925155664E+03  0.44951340917E+03  0.86169913625E+03  0.00000000000E+00 0.  1.
          2    1    6    6  502    0  0.41139021487E+03 -0.35522124274E+03 -0.15726340270E+03  0.56582313316E+03  0.00000000000E+00 0. -1.
          1    1    5    5  503    0  0.49744174568E+01 -0.42737917049E+03  0.44171375259E+03  0.61464521427E+03  0.00000000000E+00 0. -1.
         -2    1    5    5    0  503  0.10795584972E+02 -0.16666418009E+03  0.11049061578E+03  0.20025401308E+03  0.00000000000E+00 0.  1.
         -1    1    6    6    0  502  0.12212426658E+03 -0.10180103177E+03 -0.29935247319E+01  0.15901807365E+03  0.00000000000E+00 0.  1.
<mgrwt>
<rscale>  0 0.27112401E+04</rscale>
<asrwt>0</asrwt>
<pdfrwt beam="1">  1        2 0.31102551E+00 0.27112401E+04</pdfrwt>
<pdfrwt beam="2">  1       -2 0.13984702E+00 0.27112401E+04</pdfrwt>
<totfact> 0.20515524E+00</totfact>
</mgrwt>
</event>
<event>
12    1  0.2404959E-007  0.3204908E+04  0.7818608E-02  0.8187522E-01
          1   -1    0    0  501    0  0.00000000000E+00  0.00000000000E+00  0.20670028215E+04  0.20670028215E+04  0.00000000000E+00 0. -1.
         -1   -1    0    0    0  501 -0.00000000000E+00 -0.00000000000E+00 -0.12423102793E+04  0.12423102793E+04  0.00000000000E+00 0.  1.
         23    2    1    2    0    0 -0.13937935221E+04 -0.37177196288E+03  0.69603491476E+03  0.16041741472E+04  0.89639932099E+02 0.  0.
        254    2    1    2    0    0  0.13937935221E+04  0.37177196288E+03  0.12865762741E+03  0.17051389535E+04  0.90003960533E+03 0.  0.
        -24    2    4    4    0    0  0.48911868313E+03  0.54451657264E+03  0.23888681318E+03  0.77414883852E+03  0.80648190330E+02 0.  0.
         24    2    4    4    0    0  0.90467483897E+03 -0.17274460976E+03 -0.11022918577E+03  0.93099011502E+03  0.79466070778E+02 0.  0.
         13    1    3    3    0    0 -0.56192192349E+03 -0.19484650791E+03  0.29491889647E+03  0.66385131260E+03  0.00000000000E+00 0. -1.
        -13    1    3    3    0    0 -0.83187159861E+03 -0.17692545497E+03  0.40111601829E+03  0.94032283463E+03  0.00000000000E+00 0.  1.
          4    1    6    6  502    0  0.31653998337E+03 -0.83102254818E+02 -0.81451715316E+01  0.32736812559E+03  0.00000000000E+00 0. -1.
          3    1    5    5  503    0  0.10231595040E+03  0.95846783286E+02  0.77413716293E+02  0.16015006413E+03  0.00000000000E+00 0. -1.
         -4    1    5    5    0  503  0.38680273274E+03  0.44866978935E+03  0.16147309689E+03  0.61399877439E+03  0.00000000000E+00 0.  1.
         -3    1    6    6    0  502  0.58813485560E+03 -0.89642354941E+02 -0.10208401424E+03  0.60362198944E+03  0.00000000000E+00 0.  1.
<mgrwt>
<rscale>  0 0.32049080E+04</rscale>
<asrwt>0</asrwt>
<pdfrwt beam="1">  1        1 0.31800043E+00 0.32049080E+04</pdfrwt>
<pdfrwt beam="2">  1       -1 0.19112466E+00 0.32049080E+04</pdfrwt>
<totfact> 0.38942086E-01</totfact>
</mgrwt>
</event>
<event>
12    1  0.2980721E-007  0.2700922E+04  0.7818608E-02  0.8334706E-01
          1   -1    0    0  501    0  0.00000000000E+00  0.00000000000E+00  0.34543359949E+04  0.34543359949E+04  0.00000000000E+00 0. -1.
         -1   -1    0    0    0  501 -0.00000000000E+00 -0.00000000000E+00 -0.52795822174E+03  0.52795822174E+03  0.00000000000E+00 0.  1.
         23    2    1    2    0    0  0.61927794330E+03 -0.88026622331E+03  0.52583927968E+03  0.12013167012E+04  0.91000403842E+02 0.  0.
        254    2    1    2    0    0 -0.61927794330E+03  0.88026622331E+03  0.24005384935E+04  0.27809775155E+04  0.90159696534E+03 0.  0.
        -24    2    4    4    0    0 -0.41145766069E+03  0.40379409349E+03  0.20911889014E+04  0.21707404696E+04  0.81829633161E+02 0.  0.
         24    2    4    4    0    0 -0.20782028262E+03  0.47647212982E+03  0.30934959212E+03  0.61023704583E+03  0.80480566622E+02 0.  0.
         11    1    3    3    0    0  0.27401561951E+03 -0.46420290267E+03  0.24593437900E+03  0.59249693109E+03  0.00000000000E+00 0.  1.
        -11    1    3    3    0    0  0.34526232380E+03 -0.41606332064E+03  0.27990490068E+03  0.60881977008E+03  0.00000000000E+00 0. -1.
          2    1    6    6  502    0 -0.16659362722E+03  0.44154644088E+03  0.28021780511E+03  0.54885217899E+03  0.00000000000E+00 0. -1.
          1    1    5    5  503    0 -0.40187102045E+03  0.39186579642E+03  0.20689982616E+04  0.21437847201E+04  0.00000000000E+00 0. -1.
         -2    1    5    5    0  503 -0.95866402367E+01  0.11928297067E+02  0.22190639772E+02  0.26955749580E+02  0.00000000000E+00 0.  1.
         -1    1    6    6    0  502 -0.41226655393E+02  0.34925688939E+02  0.29131787012E+02  0.61384866842E+02  0.00000000000E+00 0.  1.
<mgrwt>
<rscale>  0 0.27009221E+04</rscale>
<asrwt>0</asrwt>
<pdfrwt beam="1">  1        1 0.53143629E+00 0.27009221E+04</pdfrwt>
<pdfrwt beam="2">  1       -1 0.81224344E-01 0.27009221E+04</pdfrwt>
<totfact> 0.35781506E-01</totfact>
</mgrwt>
</event>
<event>
12    1  0.2591661E-007  0.3002397E+04  0.7818608E-02  0.8243047E-01
          2   -1    0    0  501    0  0.00000000000E+00  0.00000000000E+00  0.26490312325E+04  0.26490312325E+04  0.00000000000E+00 0. -1.
         -2   -1    0    0    0  501 -0.00000000000E+00 -0.00000000000E+00 -0.85072489266E+03  0.85072489266E+03  0.00000000000E+00 0.  1.
         23    2    1    2    0    0 -0.50278331423E+03 -0.11939071835E+04  0.31854420508E+03  0.13371766530E+04  0.91463473249E+02 0.  0.
        254    2    1    2    0    0  0.50278331423E+03  0.11939071835E+04  0.14797621348E+04  0.21625794721E+04  0.89936009146E+03 0.  0.
        -24    2    4    4    0    0  0.41419258139E+03  0.11507547508E+04  0.78311477359E+03  0.14544954614E+04  0.80599674573E+02 0.  0.
         24    2    4    4    0    0  0.88590732837E+02  0.43152432680E+02  0.69664736116E+03  0.70808401080E+03  0.79718066607E+02 0.  0.
         13    1    3    3    0    0 -0.22380382358E+03 -0.64903028812E+03  0.16976404769E+03  0.70721163610E+03  0.00000000000E+00 0.  1.
        -13    1    3    3    0    0 -0.27897949065E+03 -0.54487689534E+03  0.14878015739E+03  0.62996501690E+03  0.00000000000E+00 0. -1.
          4    1    6    6  502    0  0.68178961884E+02  0.23765072040E+02  0.24138555591E+03  0.25195264653E+03  0.00000000000E+00 0. -1.
          3    1    5    5  503    0  0.15916044263E+02  0.92403694445E+02  0.44107793940E+02  0.10362075419E+03  0.00000000000E+00 0. -1.
         -4    1    5    5    0  503  0.39827653713E+03  0.10583510563E+04  0.73900697965E+03  0.13508747072E+04  0.00000000000E+00 0.  1.
         -3    1    6    6    0  502  0.20411770953E+02  0.19387360640E+02  0.45526180525E+03  0.45613136426E+03  0.00000000000E+00 0.  1.
<mgrwt>
<rscale>  0 0.30023969E+04</rscale>
<asrwt>0</asrwt>
<pdfrwt beam="1">  1        2 0.40754326E+00 0.30023969E+04</pdfrwt>
<pdfrwt beam="2">  1       -2 0.13088075E+00 0.30023969E+04</pdfrwt>
<totfact> 0.10399866E+00</totfact>
</mgrwt>
</event>
<event>
12    1  0.2404959E-007  0.1304476E+04  0.7818608E-02  0.9026023E-01
         -2   -1    0    0    0  501 -0.00000000000E+00  0.00000000000E+00  0.12650468034E+04  0.12650468034E+04  0.00000000000E+00 0.  1.
          2   -1    0    0  501    0  0.00000000000E+00 -0.00000000000E+00 -0.33628347691E+03  0.33628347691E+03  0.00000000000E+00 0. -1.
         23    2    1    2    0    0  0.32766816096E+03 -0.28435376478E+02  0.30851063943E+03  0.45932950052E+03  0.87348618027E+02 0.  0.
        254    2    1    2    0    0 -0.32766816096E+03  0.28435376478E+02  0.62025268709E+03  0.11420007798E+04  0.90070938204E+03 0.  0.
        -24    2    4    4    0    0 -0.25776804345E+03 -0.40344537559E+03  0.46196275475E+03  0.66996417975E+03  0.78929589318E+02 0.  0.
         24    2    4    4    0    0 -0.69900117509E+02  0.43188075207E+03  0.15828993234E+03  0.47203660005E+03  0.79723513936E+02 0.  0.
         13    1    3    3    0    0  0.18988295736E+03 -0.23639673544E+01  0.12095681346E+03  0.22514812138E+03  0.00000000000E+00 0. -1.
        -13    1    3    3    0    0  0.13778520359E+03 -0.26071409123E+02  0.18755382596E+03  0.23418137914E+03  0.00000000000E+00 0.  1.
          2    1    6    6  502    0 -0.36700065156E+02  0.57942348607E+02  0.14984558365E+02  0.70205039235E+02  0.00000000000E+00 0. -1.
          1    1    5    5  503    0 -0.16344040323E+03 -0.30307453742E+03  0.36316851580E+03  0.50045810165E+03  0.00000000000E+00 0. -1.
         -2    1    5    5    0  503 -0.94327640217E+02 -0.10037083818E+03  0.98794238946E+02  0.16950607810E+03  0.00000000000E+00 0.  1.
         -1    1    6    6    0  502 -0.33200052353E+02  0.37393840346E+03  0.14330537397E+03  0.40183156082E+03  0.00000000000E+00 0.  1.
<mgrwt>
<rscale>  0 0.13044759E+04</rscale>
<asrwt>0</asrwt>
<pdfrwt beam="1">  1        2 0.51735920E-01 0.13044759E+04</pdfrwt>
<pdfrwt beam="2">  1       -2 0.19462258E+00 0.13044759E+04</pdfrwt>
<totfact> 0.13656172E+01</totfact>
</mgrwt>
</event>
<event>
12    1  0.2404959E-007  0.1534159E+04  0.7818608E-02  0.8862050E-01
          2   -1    0    0  501    0  0.00000000000E+00  0.00000000000E+00  0.13705639217E+04  0.13705639217E+04  0.00000000000E+00 0. -1.
         -2   -1    0    0    0  501 -0.00000000000E+00 -0.00000000000E+00 -0.42932036207E+03  0.42932036207E+03  0.00000000000E+00 0.  1.
         23    2    1    2    0    0  0.43736411556E+03 -0.11366528928E+02  0.33747285744E+02  0.44831523989E+03  0.91821062194E+02 0.  0.
        254    2    1    2    0    0 -0.43736411556E+03  0.11366528928E+02  0.90749627384E+03  0.13515690438E+04  0.90098436482E+03 0.  0.
        -24    2    4    4    0    0 -0.48762904503E+03 -0.33785242350E+03  0.37094004000E+03  0.70427998474E+03  0.80544633688E+02 0.  0.
         24    2    4    4    0    0  0.50264929468E+02  0.34921895242E+03  0.53655623384E+03  0.64728905909E+03  0.81302485071E+02 0.  0.
         13    1    3    3    0    0  0.31715069050E+03 -0.45682701752E+02  0.71601395181E+01  0.32050388035E+03  0.00000000000E+00 0. -1.
        -13    1    3    3    0    0  0.12021342507E+03  0.34316172823E+02  0.26587146226E+02  0.12781135954E+03  0.00000000000E+00 0.  1.
          2    1    6    6  502    0  0.36889741556E+02  0.79631716525E+02  0.91545018908E+02  0.12681700909E+03  0.00000000000E+00 0. -1.
          1    1    5    5  503    0 -0.22733036247E+03 -0.13381328749E+03  0.20600070581E+03  0.33469595218E+03  0.00000000000E+00 0. -1.
         -2    1    5    5    0  503 -0.26029868256E+03 -0.20403913600E+03  0.16493933419E+03  0.36958403256E+03  0.00000000000E+00 0.  1.
         -1    1    6    6    0  502  0.13375187912E+02  0.26958723590E+03  0.44501121493E+03  0.52047205000E+03  0.00000000000E+00 0.  1.
<mgrwt>
<rscale>  0 0.15341591E+04</rscale>
<asrwt>0</asrwt>
<pdfrwt beam="1">  1        2 0.21085599E+00 0.15341591E+04</pdfrwt>
<pdfrwt beam="2">  1       -2 0.66049287E-01 0.15341591E+04</pdfrwt>
<totfact> 0.30578601E+01</totfact>
</mgrwt>
</event>
<event>
12    1  0.2404959E-007  0.3691009E+04  0.7818608E-02  0.8069957E-01
          1   -1    0    0  501    0  0.00000000000E+00  0.00000000000E+00  0.27939864616E+04  0.27939864616E+04  0.00000000000E+00 0. -1.
         -1   -1    0    0    0  501 -0.00000000000E+00 -0.00000000000E+00 -0.12190061625E+04  0.12190061625E+04  0.00000000000E+00 0.  1.
         23    2    1    2    0    0  0.99955930867E+03  0.67555914151E+03 -0.61649271214E+03  0.13577524908E+04  0.89048283870E+02 0.  0.
        254    2    1    2    0    0 -0.99955930867E+03 -0.67555914151E+03  0.21914730113E+04  0.26552401333E+04  0.89008271590E+03 0.  0.
        -24    2    4    4    0    0 -0.75230034998E+03 -0.85716345047E+03  0.19357692190E+04  0.22481498804E+04  0.79312155591E+02 0.  0.
         24    2    4    4    0    0 -0.24725895869E+03  0.18160430896E+03  0.25570379224E+03  0.40709025289E+03  0.78872853059E+02 0.  0.
         13    1    3    3    0    0  0.95041381591E+03  0.61730768225E+03 -0.58377323758E+03  0.12748122956E+04  0.00000000000E+00 0. -1.
        -13    1    3    3    0    0  0.49145492760E+02  0.58251459254E+02 -0.32719474563E+02  0.82940195199E+02  0.00000000000E+00 0.  1.
          4    1    6    6  502    0 -0.11936008547E+03  0.13480295917E+03  0.15703948340E+03  0.23891435108E+03  0.00000000000E+00 0. -1.
          1    1    5    5  503    0 -0.75898940257E+02 -0.53947261320E+02  0.15334366450E+03  0.17940244028E+03  0.00000000000E+00 0. -1.
         -2    1    5    5    0  503 -0.67640140973E+03 -0.80321618915E+03  0.17824255545E+04  0.20687474401E+04  0.00000000000E+00 0.  1.
         -3    1    6    6    0  502 -0.12789887322E+03  0.46801349795E+02  0.98664308838E+02  0.16817590182E+03  0.00000000000E+00 0.  1.
<mgrwt>
<rscale>  0 0.36910089E+04</rscale>
<asrwt>0</asrwt>
<pdfrwt beam="1">  1        1 0.42984407E+00 0.36910089E+04</pdfrwt>
<pdfrwt beam="2">  1       -1 0.18753941E+00 0.36910089E+04</pdfrwt>
<totfact> 0.12422833E-01</totfact>
</mgrwt>
</event>
<event>
12    1  0.2404959E-007  0.1548779E+04  0.7818608E-02  0.8852648E-01
         -2   -1    0    0    0  501 -0.00000000000E+00  0.00000000000E+00  0.33866292350E+03  0.33866292350E+03  0.00000000000E+00 0.  1.
          2   -1    0    0  501    0  0.00000000000E+00 -0.00000000000E+00 -0.17707252440E+04  0.17707252440E+04  0.00000000000E+00 0. -1.
         23    2    1    2    0    0 -0.35663133862E+03 -0.68747276569E+02 -0.95887746056E+03  0.10294295013E+04  0.91471384251E+02 0.  0.
        254    2    1    2    0    0  0.35663133862E+03  0.68747276569E+02 -0.47318485996E+03  0.10799586662E+04  0.90027479652E+03 0.  0.
        -24    2    4    4    0    0  0.20670265394E+03  0.10603489637E+03 -0.72969520250E+03  0.77015686518E+03  0.81958050519E+02 0.  0.
         24    2    4    4    0    0  0.14992868468E+03 -0.37287619801E+02  0.25651034254E+03  0.30980180100E+03  0.79439429715E+02 0.  0.
         11    1    3    3    0    0 -0.10141502605E+03  0.12411422506E+02 -0.34178310171E+03  0.35672782276E+03  0.00000000000E+00 0. -1.
        -11    1    3    3    0    0 -0.25521631258E+03 -0.81158699075E+02 -0.61709435885E+03  0.67270167858E+03  0.00000000000E+00 0.  1.
          2    1    6    6  502    0  0.18901658069E+01 -0.24244310972E+02  0.47238321320E+02  0.53130201791E+02  0.00000000000E+00 0. -1.
          3    1    5    5  503    0  0.17657974714E+03  0.11913501408E+03 -0.61463348746E+03  0.65049818031E+03  0.00000000000E+00 0. -1.
         -2    1    5    5    0  503  0.30122906800E+02 -0.13100117706E+02 -0.11506171504E+03  0.11965868488E+03  0.00000000000E+00 0.  1.
         -1    1    6    6    0  502  0.14803851888E+03 -0.13043308830E+02  0.20927202122E+03  0.25667159921E+03  0.00000000000E+00 0.  1.
<mgrwt>
<rscale>  0 0.15487789E+04</rscale>
<asrwt>0</asrwt>
<pdfrwt beam="1">  1        2 0.27241926E+00 0.15487789E+04</pdfrwt>
<pdfrwt beam="2">  1       -2 0.52101989E-01 0.15487789E+04</pdfrwt>
<totfact> 0.29987595E+01</totfact>
</mgrwt>
</event>
<event>
12    1  0.2404959E-007  0.1739082E+04  0.7818608E-02  0.8739383E-01
         -1   -1    0    0    0  501 -0.00000000000E+00  0.00000000000E+00  0.15589268993E+03  0.15589268993E+03  0.00000000000E+00 0.  1.
          1   -1    0    0  501    0  0.00000000000E+00 -0.00000000000E+00 -0.48501427517E+04  0.48501427517E+04  0.00000000000E+00 0. -1.
         23    2    1    2    0    0  0.42455129751E+03  0.46672596294E+03 -0.15912268113E+04  0.17141499446E+04  0.90721214820E+02 0.  0.
        254    2    1    2    0    0 -0.42455129751E+03 -0.46672596294E+03 -0.31030232505E+04  0.32918854971E+04  0.89982215132E+03 0.  0.
        -24    2    4    4    0    0 -0.48222911388E+03 -0.10613183918E+03 -0.70224287646E+03  0.86221496330E+03  0.80378478726E+02 0.  0.
         24    2    4    4    0    0  0.57677816373E+02 -0.36059412377E+03 -0.24007803741E+04  0.24296705338E+04  0.78725127455E+02 0.  0.
         11    1    3    3    0    0  0.20669819061E+03  0.24316215765E+03 -0.92277184946E+03  0.97640148662E+03  0.00000000000E+00 0. -1.
        -11    1    3    3    0    0  0.21785310690E+03  0.22356380529E+03 -0.66845496180E+03  0.73774845793E+03  0.00000000000E+00 0.  1.
          4    1    6    6  502    0  0.14024271858E+02 -0.16676760564E+03 -0.13435845439E+04  0.13539673338E+04  0.00000000000E+00 0. -1.
          3    1    5    5  503    0 -0.36083350120E+03 -0.70328856993E+02 -0.45953490250E+03  0.58848898914E+03  0.00000000000E+00 0. -1.
         -4    1    5    5    0  503 -0.12139561268E+03 -0.35802982184E+02 -0.24270797396E+03  0.27372597417E+03  0.00000000000E+00 0.  1.
         -3    1    6    6    0  502  0.43653544515E+02 -0.19382651813E+03 -0.10571958302E+04  0.10757032000E+04  0.00000000000E+00 0.  1.
<mgrwt>
<rscale>  0 0.17390823E+04</rscale>
<asrwt>0</asrwt>
<pdfrwt beam="1">  1        1 0.74617588E+00 0.17390823E+04</pdfrwt>
<pdfrwt beam="2">  1       -1 0.23983489E-01 0.17390823E+04</pdfrwt>
<totfact> 0.19410747E-01</totfact>
</mgrwt>
</event>
<event>
12    1  0.2404959E-007  0.2056449E+04  0.7818608E-02  0.8580674E-01
          2   -1    0    0  501    0  0.00000000000E+00  0.00000000000E+00  0.11130814450E+04  0.11130814450E+04  0.00000000000E+00 0. -1.
         -2   -1    0    0    0  501 -0.00000000000E+00 -0.00000000000E+00 -0.94983648313E+03  0.94983648313E+03  0.00000000000E+00 0.  1.
         23    2    1    2    0    0 -0.19436786442E+03 -0.72772008528E+03  0.41272541936E+03  0.86398995457E+03  0.93706886465E+02 0.  0.
        254    2    1    2    0    0  0.19436786442E+03  0.72772008528E+03 -0.24948045752E+03  0.11989279735E+04  0.89879496984E+03 0.  0.
        -24    2    4    4    0    0 -0.27336440877E+03  0.33138320636E+03  0.15064462322E+03  0.46233086786E+03  0.80703775816E+02 0.  0.
         24    2    4    4    0    0  0.46773227319E+03  0.39633687892E+03 -0.40012508074E+03  0.73659710568E+03  0.81356099242E+02 0.  0.
         13    1    3    3    0    0 -0.91113971545E+02 -0.50117800833E+03  0.29427983251E+03  0.58828715069E+03  0.00000000000E+00 0. -1.
        -13    1    3    3    0    0 -0.10325389288E+03 -0.22654207695E+03  0.11844558685E+03  0.27570280388E+03  0.00000000000E+00 0.  1.
          4    1    6    6  502    0  0.53782265753E+02  0.83331959087E+02 -0.55928496193E+02  0.11386283064E+03  0.00000000000E+00 0. -1.
          1    1    5    5  503    0 -0.47270894991E+02  0.25532118201E+02  0.13771400496E+01  0.53743121307E+02  0.00000000000E+00 0. -1.
         -2    1    5    5    0  503 -0.22609351378E+03  0.30585108816E+03  0.14926748317E+03  0.40858774655E+03  0.00000000000E+00 0.  1.
         -3    1    6    6    0  502  0.41395000744E+03  0.31300491983E+03 -0.34419658455E+03  0.62273427504E+03  0.00000000000E+00 0.  1.
<mgrwt>
<rscale>  0 0.20564487E+04</rscale>
<asrwt>0</asrwt>
<pdfrwt beam="1">  1        2 0.17124330E+00 0.20564487E+04</pdfrwt>
<pdfrwt beam="2">  1       -2 0.14612869E+00 0.20564487E+04</pdfrwt>
<totfact> 0.63499841E+00</totfact>
</mgrwt>
</event>
<event>
12    1  0.2404959E-007  0.2256809E+04  0.7818608E-02  0.8495148E-01
         -2   -1    0    0    0  501 -0.00000000000E+00  0.00000000000E+00  0.16533030091E+04  0.16533030091E+04  0.00000000000E+00 0.  1.
          2   -1    0    0  501    0  0.00000000000E+00 -0.00000000000E+00 -0.77015333971E+03  0.77015333971E+03  0.00000000000E+00 0. -1.
         23    2    1    2    0    0 -0.39432089238E+03 -0.85835605545E+03  0.44946456604E+03  0.10498547250E+04  0.88952028789E+02 0.  0.
        254    2    1    2    0    0  0.39432089238E+03  0.85835605545E+03  0.43368510335E+03  0.13736016238E+04  0.89801701983E+03 0.  0.
        -24    2    4    4    0    0  0.62955612255E+03  0.60825030569E+03  0.50526901607E+03  0.10139793372E+04  0.80919539216E+02 0.  0.
         24    2    4    4    0    0 -0.23523523017E+03  0.25010574976E+03 -0.71583912721E+02  0.35962228660E+03  0.79469697902E+02 0.  0.
         13    1    3    3    0    0 -0.24120849522E+03 -0.48701099604E+03  0.21281534356E+03  0.58365368061E+03  0.00000000000E+00 0. -1.
        -13    1    3    3    0    0 -0.15311239715E+03 -0.37134505941E+03  0.23664922248E+03  0.46620104441E+03  0.00000000000E+00 0.  1.
          2    1    6    6  502    0 -0.23212038967E+03  0.23200484664E+03 -0.82312989139E+02  0.33835122631E+03  0.00000000000E+00 0. -1.
          1    1    5    5  503    0  0.61069633582E+03  0.56776730377E+03  0.47094698218E+03  0.95765379226E+03  0.00000000000E+00 0. -1.
         -2    1    5    5    0  503  0.18859786724E+02  0.40483001927E+02  0.34322033894E+02  0.56325544924E+02  0.00000000000E+00 0.  1.
         -1    1    6    6    0  502 -0.31148404969E+01  0.18100903116E+02  0.10729076418E+02  0.21271060287E+02  0.00000000000E+00 0.  1.
<mgrwt>
<rscale>  0 0.22568091E+04</rscale>
<asrwt>0</asrwt>
<pdfrwt beam="1">  1        2 0.11848513E+00 0.22568091E+04</pdfrwt>
<pdfrwt beam="2">  1       -2 0.25435431E+00 0.22568091E+04</pdfrwt>
<totfact> 0.19909429E+00</totfact>
</mgrwt>
</event>
<event>
12    1  0.2404959E-007  0.3378470E+04  0.7818608E-02  0.8143211E-01
         -2   -1    0    0    0  501 -0.00000000000E+00  0.00000000000E+00  0.59932439511E+03  0.59932439511E+03  0.00000000000E+00 0.  1.
          2   -1    0    0  501    0  0.00000000000E+00 -0.00000000000E+00 -0.47612186198E+04  0.47612186198E+04  0.00000000000E+00 0. -1.
         23    2    1    2    0    0 -0.40105170903E+02 -0.11076774064E+04 -0.36933136952E+04  0.38577292539E+04  0.11380370815E+03 0.  0.
        254    2    1    2    0    0  0.40105170903E+02  0.11076774064E+04 -0.46858052958E+03  0.15028137611E+04  0.90017988553E+03 0.  0.
        -24    2    4    4    0    0  0.38205787323E+03  0.17506019996E+03 -0.93037706312E+02  0.43785137645E+03  0.80271545127E+02 0.  0.
         24    2    4    4    0    0 -0.34195270232E+03  0.93261720647E+03 -0.37554282327E+03  0.10649623846E+04  0.80037267055E+02 0.  0.
         11    1    3    3    0    0 -0.27872189478E+02 -0.78281593863E+03 -0.24225417259E+04  0.25460333986E+04  0.00000000000E+00 0.  1.
        -11    1    3    3    0    0 -0.12232981424E+02 -0.32486146780E+03 -0.12707719692E+04  0.13116958553E+04  0.00000000000E+00 0. -1.
          2    1    6    6  502    0 -0.40796760220E+02  0.83728694670E+02 -0.13125698890E+02  0.94059310687E+02  0.00000000000E+00 0. -1.
          3    1    5    5  503    0  0.24596192225E+03  0.73739479468E+02 -0.73312444291E+02  0.26703837274E+03  0.00000000000E+00 0. -1.
         -4    1    5    5    0  503  0.13609595098E+03  0.10132072049E+03 -0.19725262021E+02  0.17081300371E+03  0.00000000000E+00 0.  1.
         -1    1    6    6    0  502 -0.30115594210E+03  0.84888851180E+03 -0.36241712438E+03  0.97090307394E+03  0.00000000000E+00 0.  1.
<mgrwt>
<rscale>  0 0.33784698E+04</rscale>
<asrwt>0</asrwt>
<pdfrwt beam="1">  1        2 0.73249518E+00 0.33784698E+04</pdfrwt>
<pdfrwt beam="2">  1       -2 0.92203752E-01 0.33784698E+04</pdfrwt>
<totfact> 0.54280118E-02</totfact>
</mgrwt>
</event>
<event>
12    1  0.2404959E-007  0.2331615E+04  0.7818608E-02  0.8465559E-01
         -2   -1    0    0    0  501 -0.00000000000E+00  0.00000000000E+00  0.10528573734E+04  0.10528573734E+04  0.00000000000E+00 0.  1.
          2   -1    0    0  501    0  0.00000000000E+00 -0.00000000000E+00 -0.12908745277E+04  0.12908745277E+04  0.00000000000E+00 0. -1.
         23    2    1    2    0    0  0.85433049930E+03  0.49884060078E+03 -0.10370194680E+03  0.99894815792E+03  0.91764815839E+02 0.  0.
        254    2    1    2    0    0 -0.85433049930E+03 -0.49884060078E+03 -0.13431520748E+03  0.13447837431E+04  0.90093295740E+03 0.  0.
        -24    2    4    4    0    0 -0.44939983877E+03  0.22157553767E+03 -0.53663372086E+02  0.51059202594E+03  0.82271048804E+02 0.  0.
         24    2    4    4    0    0 -0.40493066053E+03 -0.72041613844E+03 -0.80651835396E+02  0.83419171716E+03  0.80017810898E+02 0.  0.
         13    1    3    3    0    0  0.78098506256E+03  0.44446714771E+03 -0.11874446272E+03  0.90641544600E+03  0.00000000000E+00 0. -1.
        -13    1    3    3    0    0  0.73345436745E+02  0.54373453065E+02  0.15042515917E+02  0.92532711917E+02  0.00000000000E+00 0.  1.
          4    1    6    6  502    0 -0.93572702259E+02 -0.11674046539E+03 -0.33487712616E+02  0.15331540615E+03  0.00000000000E+00 0. -1.
          3    1    5    5  503    0  0.17369776970E+01 -0.16569647730E+01 -0.41790818219E+01  0.48194759729E+01  0.00000000000E+00 0. -1.
         -4    1    5    5    0  503 -0.45113681647E+03  0.22323250244E+03 -0.49484290264E+02  0.50577254997E+03  0.00000000000E+00 0.  1.
         -3    1    6    6    0  502 -0.31135795827E+03 -0.60367567305E+03 -0.47164122780E+02  0.68087631101E+03  0.00000000000E+00 0.  1.
<mgrwt>
<rscale>  0 0.23316147E+04</rscale>
<asrwt>0</asrwt>
<pdfrwt beam="1">  1        2 0.19859608E+00 0.23316147E+04</pdfrwt>
<pdfrwt beam="2">  1       -2 0.16197806E+00 0.23316147E+04</pdfrwt>
<totfact> 0.36865954E+00</totfact>
</mgrwt>
</event>
<event>
12    1  0.2404959E-007  0.1461894E+04  0.7818608E-02  0.8910196E-01
          1   -1    0    0  501    0  0.00000000000E+00  0.00000000000E+00  0.66674171838E+03  0.66674171838E+03  0.00000000000E+00 0. -1.
         -1   -1    0    0    0  501 -0.00000000000E+00 -0.00000000000E+00 -0.80133556338E+03  0.80133556338E+03  0.00000000000E+00 0.  1.
         23    2    1    2    0    0  0.25031349863E+03 -0.21855474798E+03 -0.34339279919E+03  0.48714090990E+03  0.94681709399E+02 0.  0.
        254    2    1    2    0    0 -0.25031349863E+03  0.21855474798E+03  0.20879895419E+03  0.98093637186E+03  0.89900841871E+03 0.  0.
        -24    2    4    4    0    0  0.66647893454E+01 -0.28043775464E+03  0.28661990657E+03  0.40860774789E+03  0.78227662262E+02 0.  0.
         24    2    4    4    0    0 -0.25697828797E+03  0.49899250263E+03 -0.77820952387E+02  0.57232862398E+03  0.80452439527E+02 0.  0.
         11    1    3    3    0    0  0.19494706803E+03 -0.20539664316E+03 -0.31488573217E+03  0.42349163472E+03  0.00000000000E+00 0.  1.
        -11    1    3    3    0    0  0.55366430603E+02 -0.13158104826E+02 -0.28507067022E+02  0.63649275177E+02  0.00000000000E+00 0. -1.
          4    1    6    6  502    0 -0.25419110004E+03  0.49748178886E+03 -0.68938844835E+02  0.56289769045E+03  0.00000000000E+00 0. -1.
          1    1    5    5  503    0 -0.12544652005E+01 -0.24616302201E+03  0.20725330342E+03  0.32179456003E+03  0.00000000000E+00 0. -1.
         -2    1    5    5    0  503  0.79192545459E+01 -0.34274732636E+02  0.79366603151E+02  0.86813187856E+02  0.00000000000E+00 0.  1.
         -1    1    6    6    0  502 -0.27871879320E+01  0.15107137698E+01 -0.88821075523E+01  0.94309335292E+01  0.00000000000E+00 0.  1.
<mgrwt>
<rscale>  0 0.14618945E+04</rscale>
<asrwt>0</asrwt>
<pdfrwt beam="1">  1        1 0.10257565E+00 0.14618945E+04</pdfrwt>
<pdfrwt beam="2">  1       -1 0.12328239E+00 0.14618945E+04</pdfrwt>
<totfact> 0.16485087E+01</totfact>
</mgrwt>
</event>
<event>
12    1  0.2404959E-007  0.1582094E+04  0.7818608E-02  0.8831624E-01
          1   -1    0    0  501    0  0.00000000000E+00  0.00000000000E+00  0.76431012232E+03  0.76431012232E+03  0.00000000000E+00 0. -1.
         -1   -1    0    0    0  501 -0.00000000000E+00 -0.00000000000E+00 -0.81871937451E+03  0.81871937451E+03  0.00000000000E+00 0.  1.
         23    2    1    2    0    0  0.16119684821E+03 -0.32279458565E+03 -0.40708855280E+03  0.55143882044E+03  0.90459463176E+02 0.  0.
        254    2    1    2    0    0 -0.16119684821E+03  0.32279458565E+03  0.35267930060E+03  0.10315906764E+04  0.89978656699E+03 0.  0.
        -24    2    4    4    0    0  0.18773607956E+03  0.14065793193E+03  0.53560242643E+03  0.59018358890E+03  0.80107552889E+02 0.  0.
         24    2    4    4    0    0 -0.34893292777E+03  0.18213665372E+03 -0.18292312583E+03  0.44140708748E+03  0.80320596420E+02 0.  0.
         13    1    3    3    0    0  0.79693635919E+00  0.50589255059E+01 -0.14586475888E+02  0.15459402113E+02  0.00000000000E+00 0. -1.
        -13    1    3    3    0    0  0.16039991185E+03 -0.32785351115E+03 -0.39250207691E+03  0.53597941833E+03  0.00000000000E+00 0.  1.
          4    1    6    6  502    0 -0.24766270245E+03  0.14675261977E+03 -0.96400407705E+02  0.30358884070E+03  0.00000000000E+00 0. -1.
          1    1    5    5  503    0  0.93855375657E+02  0.22171358351E+02  0.19518524533E+03  0.21771008397E+03  0.00000000000E+00 0. -1.
         -2    1    5    5    0  503  0.93880703902E+02  0.11848657358E+03  0.34041718110E+03  0.37247350493E+03  0.00000000000E+00 0.  1.
         -3    1    6    6    0  502 -0.10127022532E+03  0.35384033952E+02 -0.86522718121E+02  0.13781824678E+03  0.00000000000E+00 0.  1.
<mgrwt>
<rscale>  0 0.15820942E+04</rscale>
<asrwt>0</asrwt>
<pdfrwt beam="1">  1        1 0.11758617E+00 0.15820942E+04</pdfrwt>
<pdfrwt beam="2">  1       -1 0.12595683E+00 0.15820942E+04</pdfrwt>
<totfact> 0.12548330E+01</totfact>
</mgrwt>
</event>
<event>
12    1  0.2404959E-007  0.2183265E+04  0.7818608E-02  0.8525426E-01
          2   -1    0    0  501    0  0.00000000000E+00  0.00000000000E+00  0.13404220464E+04  0.13404220464E+04  0.00000000000E+00 0. -1.
         -2   -1    0    0    0  501 -0.00000000000E+00 -0.00000000000E+00 -0.88901933554E+03  0.88901933554E+03  0.00000000000E+00 0.  1.
         23    2    1    2    0    0  0.57180849840E+03 -0.62571369198E+03 -0.13417937263E+03  0.86287812301E+03  0.89844131473E+02 0.  0.
        254    2    1    2    0    0 -0.57180849840E+03  0.62571369198E+03  0.58558208344E+03  0.13665632589E+04  0.89783416114E+03 0.  0.
        -24    2    4    4    0    0 -0.38773374264E+03  0.42466031307E+03  0.81555043045E+03  0.10011360068E+04  0.80479580143E+02 0.  0.
         24    2    4    4    0    0 -0.18407475576E+03  0.20105337891E+03 -0.22996834701E+03  0.36542725208E+03  0.79659645127E+02 0.  0.
         13    1    3    3    0    0  0.41197271447E+03 -0.49996991734E+03 -0.12136175632E+03  0.65910553905E+03  0.00000000000E+00 0.  1.
        -13    1    3    3    0    0  0.15983578393E+03 -0.12574377464E+03 -0.12817616309E+02  0.20377258396E+03  0.00000000000E+00 0. -1.
          4    1    6    6  502    0 -0.10683644684E+03  0.10231772965E+03 -0.17331653034E+03  0.22786303751E+03  0.00000000000E+00 0. -1.
          1    1    5    5  503    0 -0.31988055449E+02  0.84136414102E+01  0.44755232370E+02  0.55651198349E+02  0.00000000000E+00 0. -1.
         -2    1    5    5    0  503 -0.35574568720E+03  0.41624667166E+03  0.77079519808E+03  0.94548480845E+03  0.00000000000E+00 0.  1.
         -1    1    6    6    0  502 -0.77238308920E+02  0.98735649258E+02 -0.56651816665E+02  0.13756421457E+03  0.00000000000E+00 0.  1.
<mgrwt>
<rscale>  0 0.21832646E+04</rscale>
<asrwt>0</asrwt>
<pdfrwt beam="1">  1        2 0.20621878E+00 0.21832646E+04</pdfrwt>
<pdfrwt beam="2">  1       -2 0.13677221E+00 0.21832646E+04</pdfrwt>
<totfact> 0.54700252E+00</totfact>
</mgrwt>
</event>
<event>
12    1  0.2404959E-007  0.4023041E+04  0.7818608E-02  0.7999914E-01
         -2   -1    0    0    0  501 -0.00000000000E+00  0.00000000000E+00  0.11420834025E+04  0.11420834025E+04  0.00000000000E+00 0.  1.
          2   -1    0    0  501    0  0.00000000000E+00 -0.00000000000E+00 -0.35428370822E+04  0.35428370822E+04  0.00000000000E+00 0. -1.
         23    2    1    2    0    0 -0.16101051519E+04 -0.73014773212E+03 -0.19815143926E+04  0.26570964916E+04  0.90598934578E+02 0.  0.
        254    2    1    2    0    0  0.16101051519E+04  0.73014773212E+03 -0.41923928717E+03  0.20278239931E+04  0.90041893374E+03 0.  0.
        -24    2    4    4    0    0  0.33186229220E+03  0.57460994083E+03  0.80413176177E+01  0.66885646977E+03  0.83637009085E+02 0.  0.
         24    2    4    4    0    0  0.12782428597E+04  0.15553779130E+03 -0.42728060479E+03  0.13589675233E+04  0.78276442014E+02 0.  0.
         13    1    3    3    0    0 -0.68775007950E+03 -0.32784641357E+03 -0.79043855548E+03  0.10978508791E+04  0.00000000000E+00 0. -1.
        -13    1    3    3    0    0 -0.92235507239E+03 -0.40230131856E+03 -0.11910758371E+04  0.15592456125E+04  0.00000000000E+00 0.  1.
          2    1    6    6  502    0  0.54262087413E+03  0.43025898460E+02 -0.21345395331E+03  0.58468045218E+03  0.00000000000E+00 0. -1.
          1    1    5    5  503    0  0.18887831778E+03  0.25237231576E+03 -0.14882417611E+02  0.31557612559E+03  0.00000000000E+00 0. -1.
         -2    1    5    5    0  503  0.14298397442E+03  0.32223762506E+03  0.22923735229E+02  0.35328034418E+03  0.00000000000E+00 0.  1.
         -1    1    6    6    0  502  0.73562198556E+03  0.11251189284E+03 -0.21382665148E+03  0.77428707115E+03  0.00000000000E+00 0.  1.
<mgrwt>
<rscale>  0 0.40230414E+04</rscale>
<asrwt>0</asrwt>
<pdfrwt beam="1">  1        2 0.54505185E+00 0.40230414E+04</pdfrwt>
<pdfrwt beam="2">  1       -2 0.17570514E+00 0.40230414E+04</pdfrwt>
<totfact> 0.11577651E-01</totfact>
</mgrwt>
</event>
<event>
12    1  0.2404959E-007  0.1661454E+04  0.7818608E-02  0.8783659E-01
         -2   -1    0    0    0  501 -0.00000000000E+00  0.00000000000E+00  0.74961714364E+03  0.74961714364E+03  0.00000000000E+00 0.  1.
          2   -1    0    0  501    0  0.00000000000E+00 -0.00000000000E+00 -0.92061285581E+03  0.92061285581E+03  0.00000000000E+00 0. -1.
         23    2    1    2    0    0 -0.22975331004E+03 -0.45424447744E+03  0.22456440148E+03  0.56410936440E+03  0.93089074735E+02 0.  0.
        254    2    1    2    0    0  0.22975331004E+03  0.45424447744E+03 -0.39556011365E+03  0.11061206350E+04  0.89883837647E+03 0.  0.
        -24    2    4    4    0    0  0.23955150410E+03  0.68287893926E+03 -0.45303106433E+03  0.85748156733E+03  0.79554536411E+02 0.  0.
         24    2    4    4    0    0 -0.97981940516E+01 -0.22863446182E+03  0.57470950682E+02  0.24863906772E+03  0.78413991652E+02 0.  0.
         13    1    3    3    0    0 -0.16342545402E+03 -0.24805380964E+03  0.16348223266E+03  0.33906490808E+03  0.00000000000E+00 0.  1.
        -13    1    3    3    0    0 -0.66327856025E+02 -0.20619066780E+03  0.61082168820E+02  0.22504445632E+03  0.00000000000E+00 0. -1.
          4    1    6    6  502    0 -0.48860886985E+01  0.52701815943E+01 -0.15522255959E+01  0.73524200850E+01  0.00000000000E+00 0. -1.
          1    1    5    5  503    0  0.70780679070E+02  0.14161440445E+03 -0.69026992424E+02  0.17271152179E+03  0.00000000000E+00 0. -1.
         -2    1    5    5    0  503  0.16877082503E+03  0.54126453481E+03 -0.38400407191E+03  0.68477004554E+03  0.00000000000E+00 0.  1.
         -3    1    6    6    0  502 -0.49121053531E+01 -0.23390464341E+03  0.59023176278E+02  0.24128664763E+03  0.00000000000E+00 0.  1.
<mgrwt>
<rscale>  0 0.16614538E+04</rscale>
<asrwt>0</asrwt>
<pdfrwt beam="1">  1        2 0.14163275E+00 0.16614538E+04</pdfrwt>
<pdfrwt beam="2">  1       -2 0.11532571E+00 0.16614538E+04</pdfrwt>
<totfact> 0.15872706E+01</totfact>
</mgrwt>
</event>
<event>
12    1  0.2404959E-007  0.1385897E+04  0.7818608E-02  0.8964091E-01
         -1   -1    0    0    0  501 -0.00000000000E+00  0.00000000000E+00  0.55425122910E+03  0.55425122910E+03  0.00000000000E+00 0. -1.
          1   -1    0    0  501    0  0.00000000000E+00 -0.00000000000E+00 -0.86635355190E+03  0.86635355190E+03  0.00000000000E+00 0.  1.
         23    2    1    2    0    0  0.21964835042E+03 -0.32070129780E+03 -0.13248052590E+02  0.39536001455E+03  0.70988097276E+02 0.  0.
        254    2    1    2    0    0 -0.21964835042E+03  0.32070129780E+03 -0.29885427021E+03  0.10252447665E+04  0.90039893162E+03 0.  0.
        -24    2    4    4    0    0 -0.50834294272E+03  0.25338923635E+03  0.31897290334E+02  0.57382525373E+03  0.75095487118E+02 0.  0.
         24    2    4    4    0    0  0.28869459230E+03  0.67312061446E+02 -0.33075156055E+03  0.45141951272E+03  0.80669079709E+02 0.  0.
         13    1    3    3    0    0  0.10572633451E+03 -0.13728476733E+03 -0.39879323225E+02  0.17780755206E+03  0.00000000000E+00 0.  1.
        -13    1    3    3    0    0  0.11392201591E+03 -0.18341653047E+03  0.26631270635E+02  0.21755246249E+03  0.00000000000E+00 0. -1.
          2    1    6    6  502    0  0.28855405587E+03  0.74277487472E+02 -0.31202814181E+03  0.43144194231E+03  0.00000000000E+00 0. -1.
          1    1    5    5  503    0 -0.49711763827E+03  0.25844372952E+03  0.28297595888E+02  0.56099898533E+03  0.00000000000E+00 0. -1.
         -2    1    5    5    0  503 -0.11225304444E+02 -0.50544931692E+01  0.35996944465E+01  0.12826268404E+02  0.00000000000E+00 0.  1.
         -1    1    6    6    0  502  0.14053642874E+00 -0.69654260253E+01 -0.18723418739E+02  0.19977570409E+02  0.00000000000E+00 0.  1.
<mgrwt>
<rscale>  0 0.13858969E+04</rscale>
<asrwt>0</asrwt>
<pdfrwt beam="1">  1        1 0.13328516E+00 0.13858969E+04</pdfrwt>
<pdfrwt beam="2">  1       -1 0.85269420E-01 0.13858969E+04</pdfrwt>
<totfact> 0.25762675E+01</totfact>
</mgrwt>
</event>
<event>
12    1  0.2709106E-007  0.3518869E+04  0.7818608E-02  0.8109333E-01
         -2   -1    0    0    0  501 -0.00000000000E+00  0.00000000000E+00  0.10877106606E+04  0.10877106606E+04  0.00000000000E+00 0.  1.
          2   -1    0    0  501    0  0.00000000000E+00 -0.00000000000E+00 -0.28459872186E+04  0.28459872186E+04  0.00000000000E+00 0. -1.
         23    2    1    2    0    0  0.11461143086E+04 -0.11785480338E+04 -0.81020200690E+03  0.18349575111E+04  0.89934972820E+02 0.  0.
        254    2    1    2    0    0 -0.11461143086E+04  0.11785480338E+04 -0.94807455112E+03  0.20987403681E+04  0.89627691137E+03 0.  0.
        -24    2    4    4    0    0 -0.12498193527E+04  0.98960914649E+03 -0.65652686987E+03  0.17259865488E+04  0.81408589310E+02 0.  0.
         24    2    4    4    0    0  0.10370504412E+03  0.18893888729E+03 -0.29154768125E+03  0.37275381932E+03  0.86560499491E+02 0.  0.
         11    1    3    3    0    0  0.53170921155E+03 -0.52698054007E+03 -0.32149922017E+03  0.81472996989E+03  0.00000000000E+00 0.  1.
        -11    1    3    3    0    0  0.61440509702E+03 -0.65156749371E+03 -0.48870278672E+03  0.10202275412E+04  0.00000000000E+00 0. -1.
          2    1    6    6  502    0  0.11540124445E+03  0.13922295076E+03 -0.21854149147E+03  0.28365623690E+03  0.00000000000E+00 0. -1.
          1    1    5    5  503    0 -0.11119677317E+04  0.89095161988E+03 -0.61180586632E+03  0.15506687084E+04  0.00000000000E+00 0. -1.
         -2    1    5    5    0  503 -0.13785162101E+03  0.98657526607E+02 -0.44721003556E+02  0.17531784031E+03  0.00000000000E+00 0.  1.
         -1    1    6    6    0  502 -0.11696200332E+02  0.49715936528E+02 -0.73006189778E+02  0.89097582419E+02  0.00000000000E+00 0.  1.
<mgrwt>
<rscale>  0 0.35188695E+04</rscale>
<asrwt>0</asrwt>
<pdfrwt beam="1">  1        2 0.43784418E+00 0.35188695E+04</pdfrwt>
<pdfrwt beam="2">  1       -2 0.16734011E+00 0.35188695E+04</pdfrwt>
<totfact> 0.39594463E-01</totfact>
</mgrwt>
</event>
<event>
12    1  0.2404959E-007  0.2318643E+04  0.7818608E-02  0.8470606E-01
          2   -1    0    0  501    0  0.00000000000E+00  0.00000000000E+00  0.47141979028E+04  0.47141979028E+04  0.00000000000E+00 0. -1.
         -2   -1    0    0    0  501 -0.00000000000E+00 -0.00000000000E+00 -0.28510188763E+03  0.28510188763E+03  0.00000000000E+00 0.  1.
         23    2    1    2    0    0 -0.25971391777E+03  0.78173123339E+03  0.30405561524E+04  0.31514943713E+04  0.91542427319E+02 0.  0.
        254    2    1    2    0    0  0.25971391777E+03 -0.78173123339E+03  0.13885398628E+04  0.18478054191E+04  0.89876964578E+03 0.  0.
        -24    2    4    4    0    0 -0.21431485879E+02 -0.73662449130E+03  0.45775025848E+03  0.87106581145E+03  0.78392595126E+02 0.  0.
         24    2    4    4    0    0  0.28114540365E+03 -0.45106742086E+02  0.93078960429E+03  0.97673960769E+03  0.81077849018E+02 0.  0.
         13    1    3    3    0    0 -0.13258517263E+03  0.26336278554E+03  0.11179156136E+04  0.11561462295E+04  0.00000000000E+00 0.  1.
        -13    1    3    3    0    0 -0.12712874514E+03  0.51836844785E+03  0.19226405388E+04  0.19953481418E+04  0.00000000000E+00 0. -1.
          4    1    6    6  502    0 -0.38077338210E+01 -0.72516433212E+01  0.18458778155E+02  0.20194347196E+02  0.00000000000E+00 0. -1.
          1    1    5    5  503    0 -0.13730848432E+02 -0.39764677462E+02  0.11794139490E+02  0.43690588216E+02  0.00000000000E+00 0. -1.
         -2    1    5    5    0  503 -0.77006374475E+01 -0.69685981384E+03  0.44595611899E+03  0.82737522324E+03  0.00000000000E+00 0.  1.
         -3    1    6    6    0  502  0.28495313747E+03 -0.37855098765E+02  0.91233082613E+03  0.95654526049E+03  0.00000000000E+00 0.  1.
<mgrwt>
<rscale>  0 0.23186433E+04</rscale>
<asrwt>0</asrwt>
<pdfrwt beam="1">  1        2 0.72526116E+00 0.23186433E+04</pdfrwt>
<pdfrwt beam="2">  1       -2 0.43861832E-01 0.23186433E+04</pdfrwt>
<totfact> 0.33427832E-01</totfact>
</mgrwt>
</event>
<event>
12    1  0.2404959E-007  0.2825789E+04  0.7818608E-02  0.8295306E-01
          3   -1    0    0  501    0  0.00000000000E+00  0.00000000000E+00  0.13832879205E+04  0.13832879205E+04  0.00000000000E+00 0. -1.
         -3   -1    0    0    0  501 -0.00000000000E+00 -0.00000000000E+00 -0.14431349964E+04  0.14431349964E+04  0.00000000000E+00 0.  1.
         23    2    1    2    0    0 -0.17506464761E+03 -0.11985593700E+04 -0.39687843734E+03  0.12788834280E+04  0.10410635998E+03 0.  0.
        254    2    1    2    0    0  0.17506464761E+03  0.11985593700E+04  0.33703136144E+03  0.15475394890E+04  0.90227276202E+03 0.  0.
        -24    2    4    4    0    0 -0.17433049695E+03  0.11076149531E+04  0.35219232277E+03  0.11777852719E+04  0.77050036659E+02 0.  0.
         24    2    4    4    0    0  0.34939514456E+03  0.90944416920E+02 -0.15160961332E+02  0.36975421703E+03  0.78361165446E+02 0.  0.
         13    1    3    3    0    0 -0.64812308276E+02 -0.74283013514E+03 -0.21574658756E+03  0.77623697091E+03  0.00000000000E+00 0. -1.
        -13    1    3    3    0    0 -0.11025233933E+03 -0.45572923483E+03 -0.18113184978E+03  0.50264645708E+03  0.00000000000E+00 0.  1.
          4    1    6    6  502    0  0.29361668365E+02 -0.35619695125E+01 -0.20549434124E+02  0.36014919670E+02  0.00000000000E+00 0. -1.
          1    1    5    5  503    0 -0.16115870532E+02  0.29946039534E+03  0.78478387613E+02  0.30999210793E+03  0.00000000000E+00 0. -1.
         -2    1    5    5    0  503 -0.15821462642E+03  0.80815455771E+03  0.27371393516E+03  0.86779316399E+03  0.00000000000E+00 0.  1.
         -3    1    6    6    0  502  0.32003347620E+03  0.94506386433E+02  0.53884727918E+01  0.33373929736E+03  0.00000000000E+00 0.  1.
<mgrwt>
<rscale>  0 0.28257892E+04</rscale>
<asrwt>0</asrwt>
<pdfrwt beam="1">  1        3 0.21281353E+00 0.28257892E+04</pdfrwt>
<pdfrwt beam="2">  1       -3 0.22202077E+00 0.28257892E+04</pdfrwt>
<totfact> 0.29601568E-02</totfact>
</mgrwt>
</event>
<event>
12    1  0.2404959E-007  0.2011991E+04  0.7818608E-02  0.8601035E-01
         -2   -1    0    0    0  501 -0.00000000000E+00  0.00000000000E+00  0.51746645838E+03  0.51746645838E+03  0.00000000000E+00 0.  1.
          2   -1    0    0  501    0  0.00000000000E+00 -0.00000000000E+00 -0.19557348942E+04  0.19557348942E+04  0.00000000000E+00 0. -1.
         23    2    1    2    0    0 -0.39237080398E+03 -0.65781582314E+03 -0.86661850673E+03  0.11605190306E+04  0.95395383899E+02 0.  0.
        254    2    1    2    0    0  0.39237080398E+03  0.65781582314E+03 -0.57164992909E+03  0.13126823219E+04  0.89981927737E+03 0.  0.
        -24    2    4    4    0    0  0.45817267966E+03  0.72896941218E+03 -0.71727808489E+03  0.11234597255E+04  0.79720106689E+02 0.  0.
         24    2    4    4    0    0 -0.65801875681E+02 -0.71153589036E+02  0.14562815580E+03  0.18922259648E+03  0.72145070385E+02 0.  0.
         11    1    3    3    0    0 -0.36898630555E+02 -0.13213905183E+03 -0.16081214258E+03  0.21138302476E+03  0.00000000000E+00 0.  1.
        -11    1    3    3    0    0 -0.35547217342E+03 -0.52567677132E+03 -0.70580636415E+03  0.94913600588E+03  0.00000000000E+00 0. -1.
          2    1    6    6  502    0 -0.18360387560E+01  0.70603801336E+01 -0.42682236904E+01  0.84520849154E+01  0.00000000000E+00 0. -1.
          3    1    5    5  503    0  0.38902552955E+01  0.34606622167E+02 -0.25763551740E+02  0.43318737081E+02  0.00000000000E+00 0. -1.
         -4    1    5    5    0  503  0.45428242436E+03  0.69436279001E+03 -0.69151453315E+03  0.10801409884E+04  0.00000000000E+00 0.  1.
         -1    1    6    6    0  502 -0.63965836925E+02 -0.78213969169E+02  0.14989637949E+03  0.18077051156E+03  0.00000000000E+00 0.  1.
<mgrwt>
<rscale>  0 0.20119913E+04</rscale>
<asrwt>0</asrwt>
<pdfrwt beam="1">  1        2 0.30088229E+00 0.20119913E+04</pdfrwt>
<pdfrwt beam="2">  1       -2 0.79610225E-01 0.20119913E+04</pdfrwt>
<totfact> 0.91714018E+00</totfact>
</mgrwt>
</event>
<event>
12    1  0.2404959E-007  0.3411531E+04  0.7818608E-02  0.8135082E-01
         -2   -1    0    0    0  501 -0.00000000000E+00  0.00000000000E+00  0.12689640814E+04  0.12689640814E+04  0.00000000000E+00 0.  1.
          2   -1    0    0  501    0  0.00000000000E+00 -0.00000000000E+00 -0.22929218450E+04  0.22929218450E+04  0.00000000000E+00 0. -1.
         23    2    1    2    0    0 -0.14774046727E+04 -0.24012438920E+03 -0.10242521658E+04  0.18160138721E+04  0.91812828806E+02 0.  0.
        254    2    1    2    0    0  0.14774046727E+04  0.24012438920E+03  0.29440224464E+00  0.17458720542E+04  0.89871288735E+03 0.  0.
        -24    2    4    4    0    0  0.15719804098E+04  0.25299789287E+03  0.83315809342E+02  0.15963447252E+04  0.79022877623E+02 0.  0.
         24    2    4    4    0    0 -0.94575737089E+02 -0.12873503668E+02 -0.83021407098E+02  0.14952732899E+03  0.79721834751E+02 0.  0.
         11    1    3    3    0    0 -0.83533701092E+03 -0.15060928974E+03 -0.52833392602E+03  0.99980388944E+03  0.00000000000E+00 0. -1.
        -11    1    3    3    0    0 -0.64206766175E+03 -0.89515099465E+02 -0.49591823980E+03  0.81620998270E+03  0.00000000000E+00 0.  1.
          4    1    6    6  502    0 -0.10536116021E+03  0.93737803034E+00 -0.62362194681E+02  0.12243731491E+03  0.00000000000E+00 0. -1.
          3    1    5    5  503    0  0.15219162905E+04  0.24221343070E+03  0.66732193682E+02  0.15425140929E+04  0.00000000000E+00 0. -1.
         -4    1    5    5    0  503  0.50064119285E+02  0.10784462173E+02  0.16583615660E+02  0.53830632288E+02  0.00000000000E+00 0.  1.
         -3    1    6    6    0  502  0.10785423117E+02 -0.13810881699E+02 -0.20659212416E+02  0.27090014078E+02  0.00000000000E+00 0.  1.
<mgrwt>
<rscale>  0 0.34115307E+04</rscale>
<asrwt>0</asrwt>
<pdfrwt beam="1">  1        2 0.35275720E+00 0.34115307E+04</pdfrwt>
<pdfrwt beam="2">  1       -2 0.19522525E+00 0.34115307E+04</pdfrwt>
<totfact> 0.54164642E-01</totfact>
</mgrwt>
</event>
<event>
12    1  0.2404959E-007  0.1794980E+04  0.7818608E-02  0.8708973E-01
         -2   -1    0    0    0  501 -0.00000000000E+00  0.00000000000E+00  0.10694885485E+04  0.10694885485E+04  0.00000000000E+00 0.  1.
          2   -1    0    0  501    0  0.00000000000E+00 -0.00000000000E+00 -0.75315300285E+03  0.75315300285E+03  0.00000000000E+00 0. -1.
         23    2    1    2    0    0 -0.37819944920E+03 -0.37258193575E+03  0.53107912190E+03  0.75613821408E+03  0.88588051412E+02 0.  0.
        254    2    1    2    0    0  0.37819944920E+03  0.37258193575E+03 -0.21474357621E+03  0.10665033373E+04  0.89970130753E+03 0.  0.
        -24    2    4    4    0    0  0.54467975278E+03  0.41479097747E+03 -0.40289622624E+03  0.79909093791E+03  0.86564252775E+02 0.  0.
         24    2    4    4    0    0 -0.16648030358E+03 -0.42209041720E+02  0.18815265003E+03  0.26741239941E+03  0.81306069630E+02 0.  0.
         13    1    3    3    0    0 -0.28135712289E+03 -0.25490823999E+03  0.32458153938E+03  0.49949296004E+03  0.00000000000E+00 0. -1.
        -13    1    3    3    0    0 -0.96842326304E+02 -0.11767369576E+03  0.20649758251E+03  0.25664525404E+03  0.00000000000E+00 0.  1.
          2    1    6    6  502    0 -0.93363503996E+02 -0.64621149339E+02  0.11275904330E+03  0.16002261924E+03  0.00000000000E+00 0. -1.
          1    1    5    5  503    0  0.46940074161E+03  0.38955477167E+03 -0.36767960488E+03  0.71223470022E+03  0.00000000000E+00 0. -1.
         -2    1    5    5    0  503  0.75279011169E+02  0.25236205797E+02 -0.35216621357E+02  0.86856237688E+02  0.00000000000E+00 0.  1.
         -1    1    6    6    0  502 -0.73116799583E+02  0.22412107620E+02  0.75393606729E+02  0.10738978017E+03  0.00000000000E+00 0.  1.
<mgrwt>
<rscale>  0 0.17949802E+04</rscale>
<asrwt>0</asrwt>
<pdfrwt beam="1">  1        2 0.11586969E+00 0.17949802E+04</pdfrwt>
<pdfrwt beam="2">  1       -2 0.16453670E+00 0.17949802E+04</pdfrwt>
<totfact> 0.82137506E+00</totfact>
</mgrwt>
</event>
<event>
12    1  0.2404959E-007  0.2086730E+04  0.7818608E-02  0.8567111E-01
         -2   -1    0    0    0  501 -0.00000000000E+00  0.00000000000E+00  0.85850635789E+03  0.85850635789E+03  0.00000000000E+00 0.  1.
          2   -1    0    0  501    0  0.00000000000E+00 -0.00000000000E+00 -0.12680286766E+04  0.12680286766E+04  0.00000000000E+00 0. -1.
         23    2    1    2    0    0  0.36854411637E+03  0.40032927071E+03  0.49392598795E+03  0.74048956985E+03  0.90959500768E+02 0.  0.
        254    2    1    2    0    0 -0.36854411637E+03 -0.40032927071E+03 -0.90344830666E+03  0.13860454646E+04  0.89934136818E+03 0.  0.
        -24    2    4    4    0    0 -0.65328834347E+03 -0.17982254547E+03 -0.58796085989E+03  0.90067514188E+03  0.79974563884E+02 0.  0.
         24    2    4    4    0    0  0.28474422710E+03 -0.22050672524E+03 -0.31548744678E+03  0.48537032275E+03  0.79683940598E+02 0.  0.
         13    1    3    3    0    0  0.14762457319E+03  0.19715993241E+03  0.27379946401E+03  0.36828141421E+03  0.00000000000E+00 0. -1.
        -13    1    3    3    0    0  0.22091954318E+03  0.20316933830E+03  0.22012652395E+03  0.37220815564E+03  0.00000000000E+00 0.  1.
          4    1    6    6  502    0  0.23715121226E+03 -0.14202732226E+03 -0.22418864380E+03  0.35591151393E+03  0.00000000000E+00 0. -1.
          3    1    5    5  503    0 -0.60673058342E+03 -0.18726066777E+03 -0.54210522438E+03  0.83490516399E+03  0.00000000000E+00 0. -1.
         -4    1    5    5    0  503 -0.46557760050E+02  0.74381223045E+01 -0.45855635503E+02  0.65769977890E+02  0.00000000000E+00 0.  1.
         -3    1    6    6    0  502  0.47593014841E+02 -0.78479402986E+02 -0.91298802980E+02  0.12945880882E+03  0.00000000000E+00 0.  1.
<mgrwt>
<rscale>  0 0.20867302E+04</rscale>
<asrwt>0</asrwt>
<pdfrwt beam="1">  1        2 0.19508133E+00 0.20867302E+04</pdfrwt>
<pdfrwt beam="2">  1       -2 0.13207790E+00 0.20867302E+04</pdfrwt>
<totfact> 0.66436383E+00</totfact>
</mgrwt>
</event>
<event>
12    1  0.2404959E-007  0.2102606E+04  0.7818608E-02  0.8560096E-01
         -2   -1    0    0    0  501 -0.00000000000E+00  0.00000000000E+00  0.16265002241E+04  0.16265002241E+04  0.00000000000E+00 0.  1.
          2   -1    0    0  501    0  0.00000000000E+00 -0.00000000000E+00 -0.67951912476E+03  0.67951912476E+03  0.00000000000E+00 0. -1.
         23    2    1    2    0    0  0.45862453236E+03  0.15176020816E+03 -0.38735748996E+03  0.62611086007E+03  0.92743525928E+02 0.  0.
        254    2    1    2    0    0 -0.45862453236E+03 -0.15176020816E+03  0.13343385893E+04  0.16799084888E+04  0.89903583761E+03 0.  0.
        -24    2    4    4    0    0  0.24831642233E+03 -0.10049496859E+03  0.56264426856E+03  0.62853032297E+03  0.81984813467E+02 0.  0.
         24    2    4    4    0    0 -0.70694095469E+03 -0.51265239570E+02  0.77169432074E+03  0.10513781658E+04  0.86546430698E+02 0.  0.
         13    1    3    3    0    0  0.15529305220E+03  0.87806747126E+02 -0.10628661540E+03  0.20766030317E+03  0.00000000000E+00 0.  1.
        -13    1    3    3    0    0  0.30333148017E+03  0.63953461033E+02 -0.28107087457E+03  0.41845055690E+03  0.00000000000E+00 0. -1.
          4    1    6    6  502    0 -0.54545290505E+03 -0.11086196932E+02  0.62414081764E+03  0.82897137202E+03  0.00000000000E+00 0. -1.
          3    1    5    5  503    0  0.64497049973E+02 -0.67552288281E+02  0.18787766424E+03  0.20981229189E+03  0.00000000000E+00 0. -1.
         -4    1    5    5    0  503  0.18381937236E+03 -0.32942680309E+02  0.37476660432E+03  0.41871803108E+03  0.00000000000E+00 0.  1.
         -3    1    6    6    0  502 -0.16148804965E+03 -0.40179042638E+02  0.14755350310E+03  0.22240679379E+03  0.00000000000E+00 0.  1.
<mgrwt>
<rscale>  0 0.21026060E+04</rscale>
<asrwt>0</asrwt>
<pdfrwt beam="1">  1        2 0.10454140E+00 0.21026060E+04</pdfrwt>
<pdfrwt beam="2">  1       -2 0.25023080E+00 0.21026060E+04</pdfrwt>
<totfact> 0.25098700E+00</totfact>
</mgrwt>
</event>
<event>
12    1  0.2404959E-007  0.1425033E+04  0.7818608E-02  0.8935895E-01
          2   -1    0    0  501    0  0.00000000000E+00  0.00000000000E+00  0.27364296757E+03  0.27364296757E+03  0.00000000000E+00 0. -1.
         -2   -1    0    0    0  501 -0.00000000000E+00 -0.00000000000E+00 -0.18552632834E+04  0.18552632834E+04  0.00000000000E+00 0.  1.
         23    2    1    2    0    0 -0.28878259480E+03 -0.29232375226E+03 -0.61703447269E+03  0.74706279506E+03  0.92318557641E+02 0.  0.
        254    2    1    2    0    0  0.28878259480E+03  0.29232375226E+03 -0.96458584311E+03  0.13818434559E+04  0.90012050561E+03 0.  0.
        -24    2    4    4    0    0  0.53442131006E+03 -0.24268004320E+02 -0.35623257618E+03  0.64861031327E+03  0.87170049126E+02 0.  0.
         24    2    4    4    0    0 -0.24563871525E+03  0.31659175658E+03 -0.60835326692E+03  0.73323314261E+03  0.83477094338E+02 0.  0.
         13    1    3    3    0    0 -0.13928065200E+02 -0.13478510306E+00 -0.53821330137E+02  0.55594466856E+02  0.00000000000E+00 0.  1.
        -13    1    3    3    0    0 -0.27485452960E+03 -0.29218896715E+03 -0.56321314255E+03  0.69146832821E+03  0.00000000000E+00 0. -1.
          4    1    6    6  502    0 -0.18433974336E+02  0.76098140468E+02 -0.10831455842E+03  0.13365171888E+03  0.00000000000E+00 0. -1.
          1    1    5    5  503    0  0.18286034782E+03 -0.49286731747E+02 -0.11633546197E+03  0.22226342129E+03  0.00000000000E+00 0. -1.
         -2    1    5    5    0  503  0.35156096224E+03  0.25018727428E+02 -0.23989711422E+03  0.42634689198E+03  0.00000000000E+00 0.  1.
         -3    1    6    6    0  502 -0.22720474092E+03  0.24049361611E+03 -0.50003870850E+03  0.59958142373E+03  0.00000000000E+00 0.  1.
<mgrwt>
<rscale>  0 0.14250330E+04</rscale>
<asrwt>0</asrwt>
<pdfrwt beam="1">  1        2 0.42098917E-01 0.14250330E+04</pdfrwt>
<pdfrwt beam="2">  1       -2 0.28542513E+00 0.14250330E+04</pdfrwt>
<totfact> 0.46279746E+00</totfact>
</mgrwt>
</event>
<event>
12    1  0.2404959E-007  0.1753613E+04  0.7818608E-02  0.8731364E-01
          2   -1    0    0  501    0  0.00000000000E+00  0.00000000000E+00  0.82162640905E+03  0.82162640905E+03  0.00000000000E+00 0. -1.
         -2   -1    0    0    0  501 -0.00000000000E+00 -0.00000000000E+00 -0.93569276603E+03  0.93569276603E+03  0.00000000000E+00 0.  1.
         23    2    1    2    0    0 -0.58146536486E+03  0.14138732741E+03  0.16508727804E+03  0.62740235093E+03  0.91036002207E+02 0.  0.
        254    2    1    2    0    0  0.58146536486E+03 -0.14138732741E+03 -0.27915363503E+03  0.11299168241E+04  0.91689308572E+03 0.  0.
        -24    2    4    4    0    0  0.43212198997E+03 -0.50829301530E+03 -0.27400449709E+03  0.72572988812E+03  0.80710609341E+02 0.  0.
         24    2    4    4    0    0  0.14934337489E+03  0.36690568789E+03 -0.51491379394E+01  0.40418693602E+03  0.80108290469E+02 0.  0.
         11    1    3    3    0    0 -0.57317233154E+03  0.12463913422E+03  0.16117755958E+03  0.60830883697E+03  0.00000000000E+00 0.  1.
        -11    1    3    3    0    0 -0.82930333156E+01  0.16748193194E+02  0.39097184630E+01  0.19093513959E+02  0.00000000000E+00 0. -1.
          2    1    6    6  502    0  0.79677828160E+02  0.16388369477E+03 -0.40448906892E+02  0.18666155411E+03  0.00000000000E+00 0. -1.
          3    1    5    5  503    0  0.21791079348E+02 -0.58146443898E+02 -0.15212667419E+02  0.63931880366E+02  0.00000000000E+00 0. -1.
         -2    1    5    5    0  503  0.41033091063E+03 -0.45014657141E+03 -0.25879182967E+03  0.66179800776E+03  0.00000000000E+00 0.  1.
         -3    1    6    6    0  502  0.69665546727E+02  0.20302199312E+03  0.35299768953E+02  0.21752538192E+03  0.00000000000E+00 0.  1.
<mgrwt>
<rscale>  0 0.17536133E+04</rscale>
<asrwt>0</asrwt>
<pdfrwt beam="1">  1        2 0.12640406E+00 0.17536133E+04</pdfrwt>
<pdfrwt beam="2">  1       -2 0.14395273E+00 0.17536133E+04</pdfrwt>
<totfact> 0.10514517E+01</totfact>
</mgrwt>
</event>
<event>
12    1  0.2404959E-007  0.2008989E+04  0.7818608E-02  0.8602429E-01
          1   -1    0    0  501    0  0.00000000000E+00  0.00000000000E+00  0.71218698914E+03  0.71218698914E+03  0.00000000000E+00 0. -1.
         -1   -1    0    0    0  501 -0.00000000000E+00 -0.00000000000E+00 -0.14167762251E+04  0.14167762251E+04  0.00000000000E+00 0.  1.
         23    2    1    2    0    0 -0.27286575432E+03 -0.72389671533E+03 -0.49587805319E+03  0.92268091840E+03  0.83443748652E+02 0.  0.
        254    2    1    2    0    0  0.27286575432E+03  0.72389671533E+03 -0.20871118279E+03  0.12062822959E+04  0.90170640740E+03 0.  0.
        -24    2    4    4    0    0  0.36926272546E+03  0.83450022043E+03 -0.35645127663E+03  0.98344368485E+03  0.85781060612E+02 0.  0.
         24    2    4    4    0    0 -0.96396971137E+02 -0.11060350510E+03  0.14774009384E+03  0.22283861101E+03  0.79400250911E+02 0.  0.
         11    1    3    3    0    0 -0.13132641739E+03 -0.27005715681E+03 -0.15696990219E+03  0.33884664089E+03  0.00000000000E+00 0. -1.
        -11    1    3    3    0    0 -0.14153933693E+03 -0.45383955852E+03 -0.33890815100E+03  0.58383427751E+03  0.00000000000E+00 0.  1.
          4    1    6    6  502    0 -0.10583950766E+03 -0.74762393583E+02  0.11052151807E+03  0.17031272070E+03  0.00000000000E+00 0. -1.
          3    1    5    5  503    0  0.27327763089E+03  0.57842644649E+03 -0.21058029981E+03  0.67349972547E+03  0.00000000000E+00 0. -1.
         -4    1    5    5    0  503  0.95985094570E+02  0.25607377394E+03 -0.14587097682E+03  0.30994395938E+03  0.00000000000E+00 0.  1.
         -3    1    6    6    0  502  0.94425365213E+01 -0.35841111513E+02  0.37218575771E+02  0.52525890310E+02  0.00000000000E+00 0.  1.
<mgrwt>
<rscale>  0 0.20089894E+04</rscale>
<asrwt>0</asrwt>
<pdfrwt beam="1">  1        1 0.10956723E+00 0.20089894E+04</pdfrwt>
<pdfrwt beam="2">  1       -1 0.21796557E+00 0.20089894E+04</pdfrwt>
<totfact> 0.27929020E+00</totfact>
</mgrwt>
</event>
<event>
12    1  0.2404959E-007  0.1999762E+04  0.7818608E-02  0.8606732E-01
          2   -1    0    0  501    0  0.00000000000E+00  0.00000000000E+00  0.97317011366E+03  0.97317011366E+03  0.00000000000E+00 0. -1.
         -2   -1    0    0    0  501 -0.00000000000E+00 -0.00000000000E+00 -0.10273252119E+04  0.10273252119E+04  0.00000000000E+00 0.  1.
         23    2    1    2    0    0 -0.25624732654E+03  0.70092825237E+03 -0.29531121901E+03  0.80792707467E+03  0.92597702883E+02 0.  0.
        254    2    1    2    0    0  0.25624732654E+03 -0.70092825237E+03  0.24115612079E+03  0.11925682509E+04  0.89838725004E+03 0.  0.
        -24    2    4    4    0    0 -0.74396689726E+02 -0.76289192346E+03  0.32419046104E+03  0.83673980698E+03  0.86574218071E+02 0.  0.
         24    2    4    4    0    0  0.33064401627E+03  0.61963671090E+02 -0.83034340250E+02  0.35582844388E+03  0.80958123653E+02 0.  0.
         11    1    3    3    0    0 -0.21861519757E+03  0.65783107490E+03 -0.25820174166E+03  0.73973134793E+03  0.00000000000E+00 0. -1.
        -11    1    3    3    0    0 -0.37632128967E+02  0.43097177477E+02 -0.37109477347E+02  0.68195726743E+02  0.00000000000E+00 0.  1.
          4    1    6    6  502    0  0.18074597932E+02 -0.67531293305E+01  0.11071223347E+02  0.22245625021E+02  0.00000000000E+00 0. -1.
          1    1    5    5  503    0 -0.81624858804E+01 -0.15970174980E+02  0.21752793678E+02  0.28193203036E+02  0.00000000000E+00 0. -1.
         -2    1    5    5    0  503 -0.66234203846E+02 -0.74692174848E+03  0.30243766737E+03  0.80854660395E+03  0.00000000000E+00 0.  1.
         -3    1    6    6    0  502  0.31256941833E+03  0.68716800420E+02 -0.94105563598E+02  0.33358281886E+03  0.00000000000E+00 0.  1.
<mgrwt>
<rscale>  0 0.19997622E+04</rscale>
<asrwt>0</asrwt>
<pdfrwt beam="1">  1        2 0.14971848E+00 0.19997622E+04</pdfrwt>
<pdfrwt beam="2">  1       -2 0.15805003E+00 0.19997622E+04</pdfrwt>
<totfact> 0.63423673E+00</totfact>
</mgrwt>
</event>
<event>
12    1  0.2404959E-007  0.2327537E+04  0.7818608E-02  0.8467142E-01
         -1   -1    0    0    0  501 -0.00000000000E+00  0.00000000000E+00  0.12093180174E+04  0.12093180174E+04  0.00000000000E+00 0.  1.
          1   -1    0    0  501    0  0.00000000000E+00 -0.00000000000E+00 -0.11199343301E+04  0.11199343301E+04  0.00000000000E+00 0. -1.
         23    2    1    2    0    0  0.38850725603E+03 -0.39965426484E+03 -0.77735156122E+03  0.96122019230E+03  0.94907265069E+02 0.  0.
        254    2    1    2    0    0 -0.38850725603E+03  0.39965426484E+03  0.86673524860E+03  0.13680321552E+04  0.89978917925E+03 0.  0.
        -24    2    4    4    0    0  0.21020951588E+03  0.90974860895E+02  0.58574307258E+03  0.63382842609E+03  0.78607001985E+02 0.  0.
         24    2    4    4    0    0 -0.59871677191E+03  0.30867940395E+03  0.28099217602E+03  0.73420372911E+03  0.79710510382E+02 0.  0.
         13    1    3    3    0    0  0.26869714818E+03 -0.29904515968E+03 -0.48793313465E+03  0.63222219897E+03  0.00000000000E+00 0.  1.
        -13    1    3    3    0    0  0.11981010784E+03 -0.10060910516E+03 -0.28941842657E+03  0.32899799334E+03  0.00000000000E+00 0. -1.
          4    1    6    6  502    0 -0.97865527753E+02  0.83021107801E+02  0.65780225951E+02  0.14421235727E+03  0.00000000000E+00 0. -1.
          1    1    5    5  503    0  0.43768915693E+02  0.10557257489E+02  0.21373330575E+03  0.21842412791E+03  0.00000000000E+00 0. -1.
         -2    1    5    5    0  503  0.16644060019E+03  0.80417603405E+02  0.37200976683E+03  0.41540429818E+03  0.00000000000E+00 0.  1.
         -3    1    6    6    0  502 -0.50085124415E+03  0.22565829615E+03  0.21521195007E+03  0.58999137184E+03  0.00000000000E+00 0.  1.
<mgrwt>
<rscale>  0 0.23275367E+04</rscale>
<asrwt>0</asrwt>
<pdfrwt beam="1">  1        1 0.17229759E+00 0.23275367E+04</pdfrwt>
<pdfrwt beam="2">  1       -1 0.18604893E+00 0.23275367E+04</pdfrwt>
<totfact> 0.20811432E+00</totfact>
</mgrwt>
</event>
<event>
12    1  0.2404959E-007  0.2307865E+04  0.7818608E-02  0.8474826E-01
         -1   -1    0    0    0  501 -0.00000000000E+00  0.00000000000E+00  0.44522483512E+03  0.44522483512E+03  0.00000000000E+00 0.  1.
          1   -1    0    0  501    0  0.00000000000E+00 -0.00000000000E+00 -0.29907594518E+04  0.29907594518E+04  0.00000000000E+00 0. -1.
         23    2    1    2    0    0 -0.82982782399E+03 -0.43372394228E+03 -0.66801485474E+03  0.11536751742E+04  0.89397348540E+02 0.  0.
        254    2    1    2    0    0  0.82982782399E+03  0.43372394228E+03 -0.18775197619E+04  0.22823091127E+04  0.89840066438E+03 0.  0.
        -24    2    4    4    0    0  0.21629238304E+03  0.38332461417E+03 -0.14775494616E+04  0.15437824080E+04  0.79947214036E+02 0.  0.
         24    2    4    4    0    0  0.61353544095E+03  0.50399328106E+02 -0.39997030035E+03  0.73852670467E+03  0.80496104126E+02 0.  0.
         13    1    3    3    0    0 -0.66934648478E+03 -0.38662878472E+03 -0.53677201575E+03  0.94107955602E+03  0.00000000000E+00 0. -1.
        -13    1    3    3    0    0 -0.16048133921E+03 -0.47095157554E+02 -0.13124283899E+03  0.21259561822E+03  0.00000000000E+00 0.  1.
          4    1    6    6  502    0  0.13099754270E+03 -0.11728987192E+02 -0.57410461668E+02  0.14350570178E+03  0.00000000000E+00 0. -1.
          3    1    5    5  503    0  0.71750410289E+02  0.62967230682E+02 -0.34384431653E+03  0.35684997902E+03  0.00000000000E+00 0. -1.
         -4    1    5    5    0  503  0.14454197275E+03  0.32035738349E+03 -0.11337051450E+04  0.11869324290E+04  0.00000000000E+00 0.  1.
         -1    1    6    6    0  502  0.48253789825E+03  0.62128315298E+02 -0.34255983868E+03  0.59502100290E+03  0.00000000000E+00 0.  1.
<mgrwt>
<rscale>  0 0.23078651E+04</rscale>
<asrwt>0</asrwt>
<pdfrwt beam="1">  1        1 0.46011683E+00 0.23078651E+04</pdfrwt>
<pdfrwt beam="2">  1       -1 0.68496130E-01 0.23078651E+04</pdfrwt>
<totfact> 0.11835910E+00</totfact>
</mgrwt>
</event>
<event>
12    1  0.2404959E-007  0.4557481E+04  0.7818608E-02  0.7900650E-01
         -2   -1    0    0    0  501 -0.00000000000E+00  0.00000000000E+00  0.11784364961E+04  0.11784364961E+04  0.00000000000E+00 0.  1.
          2   -1    0    0  501    0  0.00000000000E+00 -0.00000000000E+00 -0.44063972491E+04  0.44063972491E+04  0.00000000000E+00 0. -1.
         23    2    1    2    0    0  0.20632771113E+04 -0.37688592116E+03 -0.78400899491E+03  0.22410166146E+04  0.91268435375E+02 0.  0.
        254    2    1    2    0    0 -0.20632771113E+04  0.37688592116E+03 -0.24439517581E+04  0.33438171306E+04  0.89947616520E+03 0.  0.
        -24    2    4    4    0    0 -0.33697163678E+03 -0.25734002536E+03 -0.59401055782E+03  0.73404677707E+03  0.78755034569E+02 0.  0.
         24    2    4    4    0    0 -0.17263054745E+04  0.63422594652E+03 -0.18499412002E+04  0.26097703536E+04  0.79029813282E+02 0.  0.
         11    1    3    3    0    0  0.48207016388E+03 -0.11573941657E+03 -0.21488533699E+03  0.54033597280E+03  0.00000000000E+00 0. -1.
        -11    1    3    3    0    0  0.15812069474E+04 -0.26114650458E+03 -0.56912365792E+03  0.17006806418E+04  0.00000000000E+00 0.  1.
          4    1    6    6  502    0 -0.16516821563E+04  0.59532847712E+03 -0.17821930688E+04  0.25017358125E+04  0.00000000000E+00 0. -1.
          3    1    5    5  503    0 -0.34030672275E+03 -0.25453486504E+03 -0.59303640279E+03  0.72958127588E+03  0.00000000000E+00 0. -1.
         -4    1    5    5    0  503  0.33350859699E+01 -0.28051603213E+01 -0.97415502663E+00  0.44655011892E+01  0.00000000000E+00 0.  1.
         -3    1    6    6    0  502 -0.74623318206E+02  0.38897469400E+02 -0.67748131488E+02  0.10803454108E+03  0.00000000000E+00 0.  1.
<mgrwt>
<rscale>  0 0.45574815E+04</rscale>
<asrwt>0</asrwt>
<pdfrwt beam="1">  1        2 0.67790727E+00 0.45574815E+04</pdfrwt>
<pdfrwt beam="2">  1       -2 0.18129792E+00 0.45574815E+04</pdfrwt>
<totfact> 0.20121265E-02</totfact>
</mgrwt>
</event>
<event>
12    1  0.2404959E-007  0.2834017E+04  0.7818608E-02  0.8292785E-01
         -1   -1    0    0    0  501 -0.00000000000E+00  0.00000000000E+00  0.11315091797E+04  0.11315091797E+04  0.00000000000E+00 0.  1.
          1   -1    0    0  501    0  0.00000000000E+00 -0.00000000000E+00 -0.17745445983E+04  0.17745445983E+04  0.00000000000E+00 0. -1.
         23    2    1    2    0    0  0.15677494914E+03 -0.11903387594E+04 -0.72254017243E+03  0.14042418803E+04  0.91357598573E+02 0.  0.
        254    2    1    2    0    0 -0.15677494914E+03  0.11903387594E+04  0.79504753827E+02  0.15018118977E+04  0.89868416219E+03 0.  0.
        -24    2    4    4    0    0  0.17828714352E+03  0.98750970744E+03 -0.18260491379E+03  0.10234795955E+04  0.84877559466E+02 0.  0.
         24    2    4    4    0    0 -0.33506209266E+03  0.20282905198E+03  0.26210966762E+03  0.47833230218E+03  0.81817377000E+02 0.  0.
         13    1    3    3    0    0  0.10434294484E+03 -0.45251071237E+03 -0.27518838660E+03  0.53979815030E+03  0.00000000000E+00 0. -1.
        -13    1    3    3    0    0  0.52432004306E+02 -0.73782804706E+03 -0.44735178583E+03  0.86444373003E+03  0.00000000000E+00 0.  1.
          4    1    6    6  502    0 -0.66663777046E+02  0.37056528832E+02  0.15297994800E+02  0.77789936008E+02  0.00000000000E+00 0. -1.
          3    1    5    5  503    0  0.18245105211E+03  0.96922356307E+03 -0.16976512204E+03  0.10007511670E+04  0.00000000000E+00 0. -1.
         -2    1    5    5    0  503 -0.41639085944E+01  0.18286144377E+02 -0.12839791746E+02  0.22728428521E+02  0.00000000000E+00 0.  1.
         -3    1    6    6    0  502 -0.26839831562E+03  0.16577252315E+03  0.24681167282E+03  0.40054236617E+03  0.00000000000E+00 0.  1.
<mgrwt>
<rscale>  0 0.28340173E+04</rscale>
<asrwt>0</asrwt>
<pdfrwt beam="1">  1        1 0.27300686E+00 0.28340173E+04</pdfrwt>
<pdfrwt beam="2">  1       -1 0.17407834E+00 0.28340173E+04</pdfrwt>
<totfact> 0.84073305E-01</totfact>
</mgrwt>
</event>
<event>
12    1  0.2404959E-007  0.2164832E+04  0.7818608E-02  0.8533210E-01
         -2   -1    0    0    0  501 -0.00000000000E+00  0.00000000000E+00  0.38759591958E+03  0.38759591958E+03  0.00000000000E+00 0.  1.
          2   -1    0    0  501    0  0.00000000000E+00 -0.00000000000E+00 -0.30227995312E+04  0.30227995312E+04  0.00000000000E+00 0. -1.
         23    2    1    2    0    0  0.66864293123E+03  0.55862202701E+03 -0.14008372719E+04  0.16521847539E+04  0.90705347978E+02 0.  0.
        254    2    1    2    0    0 -0.66864293123E+03 -0.55862202701E+03 -0.12343663397E+04  0.17582106969E+04  0.89916775710E+03 0.  0.
        -24    2    4    4    0    0  0.96064845150E+02  0.15576024347E+02  0.66018653279E+02  0.14203754336E+03  0.79656350246E+02 0.  0.
         24    2    4    4    0    0 -0.76470777638E+03 -0.57419805136E+03 -0.13003849930E+04  0.16161731535E+04  0.80827882944E+02 0.  0.
         13    1    3    3    0    0  0.43877001629E+03  0.31656010169E+03 -0.90668435287E+03  0.10558437105E+04  0.00000000000E+00 0. -1.
        -13    1    3    3    0    0  0.22987291494E+03  0.24206192532E+03 -0.49415291900E+03  0.59634104342E+03  0.00000000000E+00 0.  1.
          4    1    6    6  502    0 -0.52625976644E+03 -0.36893153990E+03 -0.92522512287E+03  0.11265439853E+04  0.00000000000E+00 0. -1.
          1    1    5    5  503    0  0.35912642438E+02 -0.30791682423E+02  0.39381560694E+02  0.61552846530E+02  0.00000000000E+00 0. -1.
         -4    1    5    5    0  503  0.60152202712E+02  0.46367706770E+02  0.26637092585E+02  0.80484696828E+02  0.00000000000E+00 0.  1.
         -1    1    6    6    0  502 -0.23844800994E+03 -0.20526651146E+03 -0.37515987016E+03  0.48962916820E+03  0.00000000000E+00 0.  1.
<mgrwt>
<rscale>  0 0.21648323E+04</rscale>
<asrwt>0</asrwt>
<pdfrwt beam="1">  1        2 0.46504608E+00 0.21648323E+04</pdfrwt>
<pdfrwt beam="2">  1       -2 0.59630142E-01 0.21648323E+04</pdfrwt>
<totfact> 0.40583225E+00</totfact>
</mgrwt>
</event>
<event>
12    1  0.2404959E-007  0.1513484E+04  0.7818608E-02  0.8875535E-01
         -2   -1    0    0    0  501 -0.00000000000E+00  0.00000000000E+00  0.15124257596E+03  0.15124257596E+03  0.00000000000E+00 0.  1.
          2   -1    0    0  501    0  0.00000000000E+00 -0.00000000000E+00 -0.37863581418E+04  0.37863581418E+04  0.00000000000E+00 0. -1.
         23    2    1    2    0    0  0.37148006242E+03  0.27462126127E+03 -0.15953107518E+04  0.16634005644E+04  0.92036780378E+02 0.  0.
        254    2    1    2    0    0 -0.37148006242E+03 -0.27462126127E+03 -0.20398048141E+04  0.22742001534E+04  0.89317880862E+03 0.  0.
        -24    2    4    4    0    0  0.28078771253E+03 -0.75613741841E+02 -0.43962667306E+03  0.53289740615E+03  0.78414643746E+02 0.  0.
         24    2    4    4    0    0 -0.65226777495E+03 -0.19900751943E+03 -0.16001781410E+04  0.17413027472E+04  0.80671751488E+02 0.  0.
         13    1    3    3    0    0  0.26562898592E+03  0.23394264677E+03 -0.12911299211E+04  0.13387697312E+04  0.00000000000E+00 0. -1.
        -13    1    3    3    0    0  0.10585107650E+03  0.40678614500E+02 -0.30418083071E+03  0.32463083317E+03  0.00000000000E+00 0.  1.
          4    1    6    6  502    0 -0.51489555773E+03 -0.14516874379E+03 -0.13280302759E+04  0.14317317533E+04  0.00000000000E+00 0. -1.
          1    1    5    5  503    0  0.21748167804E+03 -0.88638295363E+02 -0.32006237610E+03  0.39698230727E+03  0.00000000000E+00 0. -1.
         -2    1    5    5    0  503  0.63306034484E+02  0.13024553521E+02 -0.11956429696E+03  0.13591509888E+03  0.00000000000E+00 0.  1.
         -3    1    6    6    0  502 -0.13737221722E+03 -0.53838775636E+02 -0.27214786505E+03  0.30957099392E+03  0.00000000000E+00 0.  1.
<mgrwt>
<rscale>  0 0.15134841E+04</rscale>
<asrwt>0</asrwt>
<pdfrwt beam="1">  1        2 0.58251663E+00 0.15134841E+04</pdfrwt>
<pdfrwt beam="2">  1       -2 0.23268089E-01 0.15134841E+04</pdfrwt>
<totfact> 0.80802308E+00</totfact>
</mgrwt>
</event>
<event>
12    1  0.2404959E-007  0.1703450E+04  0.7818608E-02  0.8759399E-01
          1   -1    0    0  501    0  0.00000000000E+00  0.00000000000E+00  0.62603973087E+03  0.62603973087E+03  0.00000000000E+00 0. -1.
         -1   -1    0    0    0  501 -0.00000000000E+00 -0.00000000000E+00 -0.11587692591E+04  0.11587692591E+04  0.00000000000E+00 0.  1.
         23    2    1    2    0    0  0.23233769930E+03 -0.46675097022E+03  0.13559894673E+03  0.54814461655E+03  0.10118385034E+03 0.  0.
        254    2    1    2    0    0 -0.23233769930E+03  0.46675097022E+03 -0.66832847500E+03  0.12366643735E+04  0.90046573914E+03 0.  0.
        -24    2    4    4    0    0 -0.39403141964E+03  0.33388859152E+03 -0.81547300146E+03  0.96855222949E+03  0.79717337665E+02 0.  0.
         24    2    4    4    0    0  0.16169372033E+03  0.13286237870E+03  0.14714452646E+03  0.26811214397E+03  0.80220566010E+02 0.  0.
         11    1    3    3    0    0  0.93417965339E+02 -0.26149951836E+03  0.11112501645E+03  0.29909477366E+03  0.00000000000E+00 0. -1.
        -11    1    3    3    0    0  0.13891973397E+03 -0.20525145186E+03  0.24473930283E+02  0.24904984288E+03  0.00000000000E+00 0.  1.
          4    1    6    6  502    0  0.36765678747E+02 -0.48175659154E+01  0.35041764816E+02  0.51018127724E+02  0.00000000000E+00 0. -1.
          3    1    5    5  503    0 -0.18082587657E+03  0.19889218786E+03 -0.38473285015E+03  0.46933513188E+03  0.00000000000E+00 0. -1.
         -4    1    5    5    0  503 -0.21320554307E+03  0.13499640366E+03 -0.43074015131E+03  0.49921709761E+03  0.00000000000E+00 0.  1.
         -3    1    6    6    0  502  0.12492804159E+03  0.13767994462E+03  0.11210276164E+03  0.21709401625E+03  0.00000000000E+00 0.  1.
<mgrwt>
<rscale>  0 0.17034501E+04</rscale>
<asrwt>0</asrwt>
<pdfrwt beam="1">  1        1 0.96313805E-01 0.17034501E+04</pdfrwt>
<pdfrwt beam="2">  1       -1 0.17827219E+00 0.17034501E+04</pdfrwt>
<totfact> 0.65581002E+00</totfact>
</mgrwt>
</event>
<event>
12    1  0.2404959E-007  0.2025940E+04  0.7818608E-02  0.8594588E-01
          2   -1    0    0  501    0  0.00000000000E+00  0.00000000000E+00  0.14110666341E+04  0.14110666341E+04  0.00000000000E+00 0. -1.
         -2   -1    0    0    0  501 -0.00000000000E+00 -0.00000000000E+00 -0.72718611167E+03  0.72718611167E+03  0.00000000000E+00 0.  1.
         23    2    1    2    0    0 -0.78292646240E+03 -0.16851063705E+03  0.14705494122E+03  0.81921362185E+03  0.90089523108E+02 0.  0.
        254    2    1    2    0    0  0.78292646240E+03  0.16851063705E+03  0.53682558121E+03  0.13190391239E+04  0.90017377513E+03 0.  0.
        -24    2    4    4    0    0  0.13824519191E+03  0.10640205439E+03  0.63158559693E+03  0.65958255898E+03  0.75601955002E+02 0.  0.
         24    2    4    4    0    0  0.64468127049E+03  0.62108582659E+02 -0.94760015716E+02  0.65945656493E+03  0.80200273631E+02 0.  0.
         11    1    3    3    0    0 -0.41059801372E+03 -0.12050494081E+03  0.45621093938E+02  0.43034109012E+03  0.00000000000E+00 0.  1.
        -11    1    3    3    0    0 -0.37232844867E+03 -0.48005696237E+02  0.10143384728E+03  0.38887253173E+03  0.00000000000E+00 0. -1.
          2    1    6    6  502    0  0.52131819840E+03  0.21366483937E+02 -0.89935369507E+02  0.52945024441E+03  0.00000000000E+00 0. -1.
          3    1    5    5  503    0  0.13099492105E+03  0.97644398201E+02  0.46982657343E+03  0.49742447361E+03  0.00000000000E+00 0. -1.
         -4    1    5    5    0  503  0.72502708583E+01  0.87576561886E+01  0.16175902349E+03  0.16215808537E+03  0.00000000000E+00 0.  1.
         -1    1    6    6    0  502  0.12336307209E+03  0.40742098722E+02 -0.48246462090E+01  0.13000632051E+03  0.00000000000E+00 0.  1.
<mgrwt>
<rscale>  0 0.20259398E+04</rscale>
<asrwt>0</asrwt>
<pdfrwt beam="1">  1        2 0.21708717E+00 0.20259398E+04</pdfrwt>
<pdfrwt beam="2">  1       -2 0.11187479E+00 0.20259398E+04</pdfrwt>
<totfact> 0.83390429E+00</totfact>
</mgrwt>
</event>
<event>
12    1  0.2404959E-007  0.1256126E+04  0.7818608E-02  0.9065100E-01
         -1   -1    0    0    0  501 -0.00000000000E+00  0.00000000000E+00  0.61369852868E+03  0.61369852868E+03  0.00000000000E+00 0. -1.
          1   -1    0    0  501    0  0.00000000000E+00 -0.00000000000E+00 -0.64276393945E+03  0.64276393945E+03  0.00000000000E+00 0.  1.
         23    2    1    2    0    0  0.73741822857E+02 -0.28855947742E+03  0.17913442447E+02  0.31193053170E+03  0.90968877866E+02 0.  0.
        254    2    1    2    0    0 -0.73741822857E+02  0.28855947742E+03 -0.46978853219E+02  0.94453193643E+03  0.89511403623E+03 0.  0.
        -24    2    4    4    0    0  0.34318454050E+03 -0.92923569623E+01  0.15961210957E+03  0.38641313999E+03  0.77311787591E+02 0.  0.
         24    2    4    4    0    0 -0.41692636336E+03  0.29785183438E+03 -0.20659096279E+03  0.55811879644E+03  0.79205159705E+02 0.  0.
         13    1    3    3    0    0  0.32495684140E+01  0.56497590341E+01 -0.54464064210E+01  0.84936926553E+01  0.00000000000E+00 0.  1.
        -13    1    3    3    0    0  0.70492254443E+02 -0.29420923645E+03  0.23359848868E+02  0.30343683904E+03  0.00000000000E+00 0. -1.
          4    1    6    6  502    0 -0.13326431394E+03  0.10856370460E+03 -0.10851861747E+03  0.20327750899E+03  0.00000000000E+00 0. -1.
          1    1    5    5  503    0  0.13858360352E+02 -0.14050480876E+02  0.21735182575E+02  0.29357934635E+02  0.00000000000E+00 0. -1.
         -2    1    5    5    0  503  0.32932618015E+03  0.47581239136E+01  0.13787692699E+03  0.35705520536E+03  0.00000000000E+00 0.  1.
         -3    1    6    6    0  502 -0.28366204943E+03  0.18928812978E+03 -0.98072345320E+02  0.35484128745E+03  0.00000000000E+00 0.  1.
<mgrwt>
<rscale>  0 0.12561262E+04</rscale>
<asrwt>0</asrwt>
<pdfrwt beam="1">  1        1 0.98886760E-01 0.12561262E+04</pdfrwt>
<pdfrwt beam="2">  1       -1 0.94415158E-01 0.12561262E+04</pdfrwt>
<totfact> 0.33158009E+01</totfact>
</mgrwt>
</event>
<event>
12    1  0.2404959E-007  0.1681590E+04  0.7818608E-02  0.8771934E-01
          2   -1    0    0  501    0  0.00000000000E+00  0.00000000000E+00  0.11119286860E+04  0.11119286860E+04  0.00000000000E+00 0. -1.
         -2   -1    0    0    0  501 -0.00000000000E+00 -0.00000000000E+00 -0.63577484727E+03  0.63577484727E+03  0.00000000000E+00 0.  1.
         23    2    1    2    0    0 -0.23028240975E+02  0.50333681626E+03 -0.16026730850E+03  0.53661113264E+03  0.91584098051E+02 0.  0.
        254    2    1    2    0    0  0.23028240975E+02 -0.50333681626E+03  0.63642114727E+03  0.12110924007E+04  0.89879623706E+03 0.  0.
        -24    2    4    4    0    0  0.27486443130E+03 -0.66123464633E+03  0.42306416719E+03  0.83641380548E+03  0.88448014878E+02 0.  0.
         24    2    4    4    0    0 -0.25183619033E+03  0.15789783007E+03  0.21335698008E+03  0.37467859518E+03  0.80682446889E+02 0.  0.
         13    1    3    3    0    0 -0.38587162435E+02  0.87293811574E+02 -0.22302124330E+02  0.98013077666E+02  0.00000000000E+00 0. -1.
        -13    1    3    3    0    0  0.15558921461E+02  0.41604300469E+03 -0.13796518417E+03  0.43859805498E+03  0.00000000000E+00 0.  1.
          4    1    6    6  502    0 -0.14444672515E+03  0.42983592937E+02  0.10295634823E+03  0.18251700006E+03  0.00000000000E+00 0. -1.
          1    1    5    5  503    0  0.75173355503E+02 -0.19832812735E+03  0.80314280473E+02  0.22679387806E+03  0.00000000000E+00 0. -1.
         -2    1    5    5    0  503  0.19969107580E+03 -0.46290651898E+03  0.34274988672E+03  0.60961992742E+03  0.00000000000E+00 0.  1.
         -3    1    6    6    0  502 -0.10738946518E+03  0.11491423713E+03  0.11040063185E+03  0.19216159512E+03  0.00000000000E+00 0.  1.
<mgrwt>
<rscale>  0 0.16815901E+04</rscale>
<asrwt>0</asrwt>
<pdfrwt beam="1">  1        2 0.17106595E+00 0.16815901E+04</pdfrwt>
<pdfrwt beam="2">  1       -2 0.97811515E-01 0.16815901E+04</pdfrwt>
<totfact> 0.17768364E+01</totfact>
</mgrwt>
</event>
<event>
12    1  0.2404959E-007  0.2199789E+04  0.7818608E-02  0.8518516E-01
          2   -1    0    0  501    0  0.00000000000E+00  0.00000000000E+00  0.26761328755E+04  0.26761328755E+04  0.00000000000E+00 0.  1.
         -2   -1    0    0    0  501 -0.00000000000E+00 -0.00000000000E+00 -0.45205809768E+03  0.45205809768E+03  0.00000000000E+00 0. -1.
         23    2    1    2    0    0  0.83438250744E+03 -0.36961324583E+03  0.94688485736E+03  0.13182801262E+04  0.91996945147E+02 0.  0.
        254    2    1    2    0    0 -0.83438250744E+03  0.36961324583E+03  0.12771899204E+04  0.18099108469E+04  0.90097450614E+03 0.  0.
        -24    2    4    4    0    0 -0.52912914810E+03 -0.22855742042E+03  0.41935878255E+03  0.71748902860E+03  0.81930262161E+02 0.  0.
         24    2    4    4    0    0 -0.30525335934E+03  0.59817066625E+03  0.85783113790E+03  0.10924218183E+04  0.80767621400E+02 0.  0.
         11    1    3    3    0    0  0.28348939460E+03 -0.13188088206E+03  0.26362551933E+03  0.40897092604E+03  0.00000000000E+00 0.  1.
        -11    1    3    3    0    0  0.55089311284E+03 -0.23773236377E+03  0.68325933802E+03  0.90930920019E+03  0.00000000000E+00 0. -1.
          2    1    6    6  502    0 -0.13516929805E+03  0.22472356327E+03  0.27912646106E+03  0.38299216740E+03  0.00000000000E+00 0. -1.
          3    1    5    5  503    0 -0.12887752980E+03 -0.33500954780E+02  0.13238537118E+03  0.18777012052E+03  0.00000000000E+00 0. -1.
         -4    1    5    5    0  503 -0.40025161830E+03 -0.19505646564E+03  0.28697341137E+03  0.52971890808E+03  0.00000000000E+00 0.  1.
         -1    1    6    6    0  502 -0.17008406129E+03  0.37344710298E+03  0.57870467684E+03  0.70942965093E+03  0.00000000000E+00 0.  1.
<mgrwt>
<rscale>  0 0.21997887E+04</rscale>
<asrwt>0</asrwt>
<pdfrwt beam="1">  1        2 0.41171274E+00 0.21997887E+04</pdfrwt>
<pdfrwt beam="2">  1       -2 0.69547401E-01 0.21997887E+04</pdfrwt>
<totfact> 0.47305057E+00</totfact>
</mgrwt>
</event>
<event>
12    1  0.3530439E-007  0.2635693E+04  0.7818608E-02  0.8356177E-01
         -1   -1    0    0    0  501 -0.00000000000E+00  0.00000000000E+00  0.15206333272E+04  0.15206333272E+04  0.00000000000E+00 0.  1.
          1   -1    0    0  501    0  0.00000000000E+00 -0.00000000000E+00 -0.11421022848E+04  0.11421022848E+04  0.00000000000E+00 0. -1.
         23    2    1    2    0    0  0.11314764950E+04 -0.17404399096E+03  0.36192279982E+03  0.12061401506E+04  0.11513288132E+03 0.  0.
        254    2    1    2    0    0 -0.11314764950E+04  0.17404399096E+03  0.16608242579E+02  0.14565954614E+04  0.90047994699E+03 0.  0.
        -24    2    4    4    0    0 -0.16844330722E+03  0.21864490422E+03  0.33148138507E+03  0.43894669409E+03  0.81336029602E+02 0.  0.
         24    2    4    4    0    0 -0.96303318776E+03 -0.44600913260E+02 -0.31487314249E+03  0.10176487673E+04  0.83915168730E+02 0.  0.
         13    1    3    3    0    0  0.60821347790E+03 -0.76816402964E+02  0.13596975064E+03  0.62794280596E+03  0.00000000000E+00 0. -1.
        -13    1    3    3    0    0  0.52326301708E+03 -0.97227587996E+02  0.22595304917E+03  0.57819734463E+03  0.00000000000E+00 0.  1.
          4    1    6    6  502    0 -0.46220149919E+02  0.14777771769E+02 -0.91288868225E+01  0.49376323998E+02  0.00000000000E+00 0. -1.
          1    1    5    5  503    0 -0.49311347258E+02  0.50295228024E+02  0.37381128946E+02  0.79740627861E+02  0.00000000000E+00 0. -1.
         -2    1    5    5    0  503 -0.11913195996E+03  0.16834967620E+03  0.29410025612E+03  0.35920606622E+03  0.00000000000E+00 0.  1.
         -3    1    6    6    0  502 -0.91681303784E+03 -0.59378685029E+02 -0.30574425567E+03  0.96827244330E+03  0.00000000000E+00 0.  1.
<mgrwt>
<rscale>  0 0.26356925E+04</rscale>
<asrwt>0</asrwt>
<pdfrwt beam="1">  1        1 0.17570804E+00 0.26356925E+04</pdfrwt>
<pdfrwt beam="2">  1       -1 0.23394359E+00 0.26356925E+04</pdfrwt>
<totfact> 0.92011689E-01</totfact>
</mgrwt>
</event>
<event>
12    1  0.2404959E-007  0.2234269E+04  0.7818608E-02  0.8504299E-01
          2   -1    0    0  501    0  0.00000000000E+00  0.00000000000E+00  0.10064683755E+04  0.10064683755E+04  0.00000000000E+00 0. -1.
         -2   -1    0    0    0  501 -0.00000000000E+00 -0.00000000000E+00 -0.12399687635E+04  0.12399687635E+04  0.00000000000E+00 0.  1.
         23    2    1    2    0    0 -0.63058753498E+03  0.55327592093E+03  0.30880209682E+03  0.89860698454E+03  0.91547221216E+02 0.  0.
        254    2    1    2    0    0  0.63058753498E+03 -0.55327592093E+03 -0.54230248483E+03  0.13478301544E+04  0.90487527108E+03 0.  0.
        -24    2    4    4    0    0  0.62596308842E+03 -0.77104029718E+03 -0.38563796516E+03  0.10681409555E+04  0.76652023237E+02 0.  0.
         24    2    4    4    0    0  0.46244465623E+01  0.21776437624E+03 -0.15666451967E+03  0.27968919897E+03  0.78990931294E+02 0.  0.
         11    1    3    3    0    0 -0.34362188138E+03  0.24998890514E+03  0.12975224317E+03  0.44430405655E+03  0.00000000000E+00 0. -1.
        -11    1    3    3    0    0 -0.28696565360E+03  0.30328701579E+03  0.17904985364E+03  0.45430292800E+03  0.00000000000E+00 0.  1.
          2    1    6    6  502    0  0.37332940328E+02  0.16530264249E+03 -0.10733826378E+03  0.20059963838E+03  0.00000000000E+00 0. -1.
          1    1    5    5  503    0  0.23576772407E+03 -0.34351663411E+03 -0.18030809515E+03  0.45398359750E+03  0.00000000000E+00 0. -1.
         -2    1    5    5    0  503  0.39019536435E+03 -0.42752366307E+03 -0.20532987001E+03  0.61415735798E+03  0.00000000000E+00 0.  1.
         -3    1    6    6    0  502 -0.32708493766E+02  0.52461733756E+02 -0.49326255897E+02  0.79089560587E+02  0.00000000000E+00 0.  1.
<mgrwt>
<rscale>  0 0.22342689E+04</rscale>
<asrwt>0</asrwt>
<pdfrwt beam="1">  1        2 0.15484129E+00 0.22342689E+04</pdfrwt>
<pdfrwt beam="2">  1       -2 0.19076443E+00 0.22342689E+04</pdfrwt>
<totfact> 0.34825975E+00</totfact>
</mgrwt>
</event>
<event>
12    1  0.2404959E-007  0.2232897E+04  0.7818608E-02  0.8504859E-01
         -2   -1    0    0    0  501 -0.00000000000E+00  0.00000000000E+00  0.15851771484E+04  0.15851771484E+04  0.00000000000E+00 0.  1.
          2   -1    0    0  501    0  0.00000000000E+00 -0.00000000000E+00 -0.78632068945E+03  0.78632068945E+03  0.00000000000E+00 0. -1.
         23    2    1    2    0    0 -0.37988598811E+03 -0.49235614200E+03 -0.40277967386E+03  0.74643194060E+03  0.90560707568E+02 0.  0.
        254    2    1    2    0    0  0.37988598811E+03  0.49235614200E+03  0.12016361328E+04  0.16250658972E+04  0.90010101666E+03 0.  0.
        -24    2    4    4    0    0  0.56536596573E+02  0.45068618708E+03  0.10019470604E+03  0.47337387170E+03  0.87917104813E+02 0.  0.
         24    2    4    4    0    0  0.32334939154E+03  0.41669954924E+02  0.11014414268E+04  0.11516920255E+04  0.83247167822E+02 0.  0.
         11    1    3    3    0    0 -0.33496882702E+03 -0.46967092122E+03 -0.35706736706E+03  0.67844822495E+03  0.00000000000E+00 0.  1.
        -11    1    3    3    0    0 -0.44917161086E+02 -0.22685220784E+02 -0.45712306795E+02  0.67983715657E+02  0.00000000000E+00 0. -1.
          2    1    6    6  502    0  0.47508118018E+02  0.37614806437E+02  0.20278106127E+03  0.21164133280E+03  0.00000000000E+00 0. -1.
          1    1    5    5  503    0 -0.46691070745E+01  0.17303519792E+03  0.37316085607E+01  0.17313839893E+03  0.00000000000E+00 0. -1.
         -2    1    5    5    0  503  0.61205703647E+02  0.27765098915E+03  0.96463097475E+02  0.30023547277E+03  0.00000000000E+00 0.  1.
         -1    1    6    6    0  502  0.27584127352E+03  0.40551484871E+01  0.89866036550E+03  0.94005069274E+03  0.00000000000E+00 0.  1.
<mgrwt>
<rscale>  0 0.22328973E+04</rscale>
<asrwt>0</asrwt>
<pdfrwt beam="1">  1        2 0.12097241E+00 0.22328973E+04</pdfrwt>
<pdfrwt beam="2">  1       -2 0.24387341E+00 0.22328973E+04</pdfrwt>
<totfact> 0.22516458E+00</totfact>
</mgrwt>
</event>
<event>
12    1  0.2404959E-007  0.1637877E+04  0.7818608E-02  0.8797611E-01
         -2   -1    0    0    0  501 -0.00000000000E+00  0.00000000000E+00  0.12168671099E+04  0.12168671099E+04  0.00000000000E+00 0.  1.
          2   -1    0    0  501    0  0.00000000000E+00 -0.00000000000E+00 -0.55113664768E+03  0.55113664768E+03  0.00000000000E+00 0. -1.
         23    2    1    2    0    0 -0.52712657424E+03 -0.20475196239E+03  0.23341584114E+03  0.61840446303E+03  0.90306885827E+02 0.  0.
        254    2    1    2    0    0  0.52712657424E+03  0.20475196239E+03  0.43231462107E+03  0.11495992945E+04  0.90271635359E+03 0.  0.
        -24    2    4    4    0    0  0.10161315031E+03  0.48218885913E+03  0.36700537103E+02  0.50079947786E+03  0.81374808215E+02 0.  0.
         24    2    4    4    0    0  0.42551342394E+03 -0.27743689675E+03  0.39561408397E+03  0.64879981668E+03  0.79986205502E+02 0.  0.
         13    1    3    3    0    0 -0.27617293317E+03 -0.10867928098E+03  0.73676486342E+02  0.30579551954E+03  0.00000000000E+00 0. -1.
        -13    1    3    3    0    0 -0.25095364107E+03 -0.96072681402E+02  0.15973935480E+03  0.31260894349E+03  0.00000000000E+00 0.  1.
          4    1    6    6  502    0  0.22741718134E+03 -0.13143021608E+03  0.15692972149E+03  0.30597289676E+03  0.00000000000E+00 0. -1.
          3    1    5    5  503    0  0.53500211385E+01  0.10963263443E+03  0.37545022085E+02  0.11600674955E+03  0.00000000000E+00 0. -1.
         -4    1    5    5    0  503  0.96263129171E+02  0.37255622470E+03 -0.84448498224E+00  0.38479272831E+03  0.00000000000E+00 0.  1.
         -3    1    6    6    0  502  0.19809624259E+03 -0.14600668067E+03  0.23868436248E+03  0.34282691992E+03  0.00000000000E+00 0.  1.
<mgrwt>
<rscale>  0 0.16378767E+04</rscale>
<asrwt>0</asrwt>
<pdfrwt beam="1">  1        2 0.84790254E-01 0.16378767E+04</pdfrwt>
<pdfrwt beam="2">  1       -2 0.18721032E+00 0.16378767E+04</pdfrwt>
<totfact> 0.84906801E+00</totfact>
</mgrwt>
</event>
<event>
12    1  0.2404959E-007  0.1333798E+04  0.7818608E-02  0.9003184E-01
         -2   -1    0    0    0  501 -0.00000000000E+00  0.00000000000E+00  0.52574125122E+03  0.52574125122E+03  0.00000000000E+00 0.  1.
          2   -1    0    0  501    0  0.00000000000E+00 -0.00000000000E+00 -0.84595641969E+03  0.84595641969E+03  0.00000000000E+00 0. -1.
         23    2    1    2    0    0 -0.23748278256E+03 -0.26289434324E+03 -0.83412428028E+02  0.37623741712E+03  0.95317643531E+02 0.  0.
        254    2    1    2    0    0  0.23748278256E+03  0.26289434324E+03 -0.23680274045E+03  0.99546025379E+03  0.89964107914E+03 0.  0.
        -24    2    4    4    0    0 -0.20569293588E+03  0.40634592389E+03 -0.24496957251E+03  0.52313712915E+03  0.78966896278E+02 0.  0.
         24    2    4    4    0    0  0.44317571845E+03 -0.14345158065E+03  0.81668320639E+01  0.47232312464E+03  0.77713341952E+02 0.  0.
         13    1    3    3    0    0 -0.24308144767E+03 -0.26602982803E+03 -0.80798824940E+02  0.36930869163E+03  0.00000000000E+00 0. -1.
        -13    1    3    3    0    0  0.55986651058E+01  0.31354847860E+01 -0.26136030876E+01  0.69287254895E+01  0.00000000000E+00 0.  1.
          4    1    6    6  502    0  0.65156774466E+02 -0.16496900272E+01  0.20708118109E+02  0.68388251123E+02  0.00000000000E+00 0. -1.
          3    1    5    5  503    0  0.10222121418E+00  0.12037847004E+02 -0.23192129999E+02  0.26130348325E+02  0.00000000000E+00 0. -1.
         -4    1    5    5    0  503 -0.20579515710E+03  0.39430807688E+03 -0.22177744251E+03  0.49700678083E+03  0.00000000000E+00 0.  1.
         -3    1    6    6    0  502  0.37801894398E+03 -0.14180189062E+03 -0.12541286045E+02  0.40393487352E+03  0.00000000000E+00 0.  1.
<mgrwt>
<rscale>  0 0.13337979E+04</rscale>
<asrwt>0</asrwt>
<pdfrwt beam="1">  1        2 0.13014714E+00 0.13337979E+04</pdfrwt>
<pdfrwt beam="2">  1       -2 0.80883269E-01 0.13337979E+04</pdfrwt>
<totfact> 0.42142879E+01</totfact>
</mgrwt>
</event>
<event>
12    1  0.2404959E-007  0.1630977E+04  0.7818608E-02  0.8801740E-01
         -1   -1    0    0    0  501 -0.00000000000E+00  0.00000000000E+00  0.11424875367E+04  0.11424875367E+04  0.00000000000E+00 0.  1.
          1   -1    0    0  501    0  0.00000000000E+00 -0.00000000000E+00 -0.58208235975E+03  0.58208235975E+03  0.00000000000E+00 0. -1.
         23    2    1    2    0    0  0.15748381897E+03 -0.47598764494E+03 -0.73238943961E+02  0.51503301504E+03  0.92356225010E+02 0.  0.
        254    2    1    2    0    0 -0.15748381897E+03  0.47598764494E+03  0.63364412096E+03  0.12095368815E+04  0.90006066695E+03 0.  0.
        -24    2    4    4    0    0 -0.30184951760E+03  0.66944608917E+03  0.60436880055E+03  0.95457728922E+03  0.81761582850E+02 0.  0.
         24    2    4    4    0    0  0.14436569863E+03 -0.19345844423E+03  0.29275320411E+02  0.25495959224E+03  0.76679362955E+02 0.  0.
         13    1    3    3    0    0  0.10278163279E+02 -0.81304284640E+02  0.18277640540E+02  0.83964870541E+02  0.00000000000E+00 0.  1.
        -13    1    3    3    0    0  0.14720565569E+03 -0.39468336030E+03 -0.91516584501E+02  0.43106814450E+03  0.00000000000E+00 0. -1.
          2    1    6    6  502    0  0.13540699898E+02 -0.35245992477E+02 -0.21538326676E+02  0.43468725027E+02  0.00000000000E+00 0. -1.
          3    1    5    5  503    0 -0.21463102808E+03  0.51751289185E+03  0.49822353637E+03  0.74974179798E+03  0.00000000000E+00 0. -1.
         -4    1    5    5    0  503 -0.87218489520E+02  0.15193319732E+03  0.10614526418E+03  0.20483549123E+03  0.00000000000E+00 0.  1.
         -1    1    6    6    0  502  0.13082499873E+03 -0.15821245175E+03  0.50813647087E+02  0.21149086721E+03  0.00000000000E+00 0.  1.
<mgrwt>
<rscale>  0 0.16309774E+04</rscale>
<asrwt>0</asrwt>
<pdfrwt beam="1">  1        1 0.89551132E-01 0.16309774E+04</pdfrwt>
<pdfrwt beam="2">  1       -1 0.17576731E+00 0.16309774E+04</pdfrwt>
<totfact> 0.76457874E+00</totfact>
</mgrwt>
</event>
<event>
12    1  0.2404959E-007  0.3475753E+04  0.7818608E-02  0.8119560E-01
         -2   -1    0    0    0  501 -0.00000000000E+00  0.00000000000E+00  0.20893345979E+04  0.20893345979E+04  0.00000000000E+00 0.  1.
          2   -1    0    0  501    0  0.00000000000E+00 -0.00000000000E+00 -0.14455386800E+04  0.14455386800E+04  0.00000000000E+00 0. -1.
         23    2    1    2    0    0  0.38929157443E+03  0.15428487195E+04 -0.36156692800E+01  0.15938384416E+04  0.91530343048E+02 0.  0.
        254    2    1    2    0    0 -0.38929157443E+03 -0.15428487195E+04  0.64741158721E+03  0.19410348362E+04  0.90362844741E+03 0.  0.
        -24    2    4    4    0    0 -0.80228545654E+02 -0.14947992558E+04  0.59454458534E+03  0.16126602294E+04  0.79550718360E+02 0.  0.
         24    2    4    4    0    0 -0.30906302878E+03 -0.48049463694E+02  0.52867001869E+02  0.32837460683E+03  0.84889668409E+02 0.  0.
         11    1    3    3    0    0  0.29653346744E+03  0.10518088954E+04 -0.32350320543E+02  0.10932888882E+04  0.00000000000E+00 0. -1.
        -11    1    3    3    0    0  0.92758106993E+02  0.49103982413E+03  0.28734651263E+02  0.50054955347E+03  0.00000000000E+00 0.  1.
          2    1    6    6  502    0 -0.80770589327E+02 -0.78791520053E+01 -0.23213530050E+02  0.84408750222E+02  0.00000000000E+00 0. -1.
          3    1    5    5  503    0 -0.24074337238E+02 -0.60621045164E+03  0.28211509132E+03  0.66907369560E+03  0.00000000000E+00 0. -1.
         -4    1    5    5    0  503 -0.56154208416E+02 -0.88858880418E+03  0.31242949402E+03  0.94358653380E+03  0.00000000000E+00 0.  1.
         -1    1    6    6    0  502 -0.22829243945E+03 -0.40170311688E+02  0.76080531919E+02  0.24396585661E+03  0.00000000000E+00 0.  1.
<mgrwt>
<rscale>  0 0.34757526E+04</rscale>
<asrwt>0</asrwt>
<pdfrwt beam="1">  1        2 0.22239057E+00 0.34757526E+04</pdfrwt>
<pdfrwt beam="2">  1       -2 0.32143609E+00 0.34757526E+04</pdfrwt>
<totfact> 0.26319876E-01</totfact>
</mgrwt>
</event>
<event>
12    1  0.2404959E-007  0.1659922E+04  0.7818608E-02  0.8784558E-01
         -2   -1    0    0    0  501 -0.00000000000E+00  0.00000000000E+00  0.14915839563E+04  0.14915839563E+04  0.00000000000E+00 0. -1.
          2   -1    0    0  501    0  0.00000000000E+00 -0.00000000000E+00 -0.46181460234E+03  0.46181460234E+03  0.00000000000E+00 0.  1.
         23    2    1    2    0    0 -0.45531816065E+03 -0.34316399990E+03  0.23308999986E+03  0.62295594827E+03  0.93096762569E+02 0.  0.
        254    2    1    2    0    0  0.45531816065E+03  0.34316399990E+03  0.79667935408E+03  0.13304426103E+04  0.90016853308E+03 0.  0.
        -24    2    4    4    0    0  0.70162796196E+03  0.25618165728E+03  0.40620128020E+03  0.85406397638E+03  0.80715284641E+02 0.  0.
         24    2    4    4    0    0 -0.24630980130E+03  0.86982342620E+02  0.39047807387E+03  0.47637863396E+03  0.78924207777E+02 0.  0.
         11    1    3    3    0    0 -0.98935637178E+02 -0.86647114129E+02  0.96435648937E+02  0.16308224022E+03  0.00000000000E+00 0. -1.
        -11    1    3    3    0    0 -0.35638252348E+03 -0.25651688577E+03  0.13665435092E+03  0.45987370804E+03  0.00000000000E+00 0.  1.
          4    1    6    6  502    0 -0.33694052083E+02 -0.98544295433E+01  0.83731786911E+02  0.90793232494E+02  0.00000000000E+00 0. -1.
          3    1    5    5  503    0  0.72439754976E+02  0.50521379361E+02  0.33882457335E+02  0.94593598031E+02  0.00000000000E+00 0. -1.
         -4    1    5    5    0  503  0.62918820698E+03  0.20566027792E+03  0.37231882287E+03  0.75947037834E+03  0.00000000000E+00 0.  1.
         -3    1    6    6    0  502 -0.21261574922E+03  0.96836772163E+02  0.30674628696E+03  0.38558540147E+03  0.00000000000E+00 0.  1.
<mgrwt>
<rscale>  0 0.16599220E+04</rscale>
<asrwt>0</asrwt>
<pdfrwt beam="1">  1        2 0.71048401E-01 0.16599220E+04</pdfrwt>
<pdfrwt beam="2">  1       -2 0.22947445E+00 0.16599220E+04</pdfrwt>
<totfact> 0.55487134E+00</totfact>
</mgrwt>
</event>
<event>
12    1  0.2956697E-007  0.2706659E+04  0.7818608E-02  0.8332848E-01
          1   -1    0    0  501    0  0.00000000000E+00  0.00000000000E+00  0.27304976471E+04  0.27304976471E+04  0.00000000000E+00 0. -1.
         -1   -1    0    0    0  501 -0.00000000000E+00 -0.00000000000E+00 -0.67075725352E+03  0.67075725352E+03  0.00000000000E+00 0.  1.
         23    2    1    2    0    0 -0.10401188237E+04  0.59602696629E+03  0.84329565781E+03  0.14685332231E+04  0.91361638141E+02 0.  0.
        254    2    1    2    0    0  0.10401188237E+04 -0.59602696629E+03  0.12164447358E+04  0.19327216775E+04  0.90475409672E+03 0.  0.
        -24    2    4    4    0    0  0.77004651131E+03 -0.67854193355E+03  0.47245545392E+03  0.11327537438E+04  0.80784299072E+02 0.  0.
         24    2    4    4    0    0  0.27007231241E+03  0.82514967256E+02  0.74398928189E+03  0.79996793374E+03  0.81736587208E+02 0.  0.
         11    1    3    3    0    0 -0.40214482378E+03  0.24206335865E+03  0.27757409071E+03  0.54530954946E+03  0.00000000000E+00 0. -1.
        -11    1    3    3    0    0 -0.63797399995E+03  0.35396360764E+03  0.56572156709E+03  0.92322367367E+03  0.00000000000E+00 0.  1.
          2    1    6    6  502    0  0.13803735760E+03  0.29485638363E+02  0.26442022233E+03  0.29973616555E+03  0.00000000000E+00 0. -1.
          3    1    5    5  503    0  0.10295211382E+03 -0.11749782513E+03  0.49314254517E+02  0.16381932837E+03  0.00000000000E+00 0. -1.
         -4    1    5    5    0  503  0.66709439749E+03 -0.56104410842E+03  0.42314119941E+03  0.96893441542E+03  0.00000000000E+00 0.  1.
         -1    1    6    6    0  502  0.13203495481E+03  0.53029328893E+02  0.47956905957E+03  0.50023176819E+03  0.00000000000E+00 0.  1.
<mgrwt>
<rscale>  0 0.27066593E+04</rscale>
<asrwt>0</asrwt>
<pdfrwt beam="1">  1        1 0.42007655E+00 0.27066593E+04</pdfrwt>
<pdfrwt beam="2">  1       -1 0.10319343E+00 0.27066593E+04</pdfrwt>
<totfact> 0.72199889E-01</totfact>
</mgrwt>
</event>
<event>
12    1  0.2404959E-007  0.3216317E+04  0.7818608E-02  0.8184521E-01
          2   -1    0    0  501    0  0.00000000000E+00  0.00000000000E+00  0.14064113373E+04  0.14064113373E+04  0.00000000000E+00 0. -1.
         -2   -1    0    0    0  501 -0.00000000000E+00 -0.00000000000E+00 -0.18388456567E+04  0.18388456567E+04  0.00000000000E+00 0.  1.
         23    2    1    2    0    0 -0.12028220684E+04 -0.22253163561E+03  0.64324492435E+03  0.13851820728E+04  0.93081066916E+02 0.  0.
        254    2    1    2    0    0  0.12028220684E+04  0.22253163561E+03 -0.10756792437E+04  0.18600749212E+04  0.89804878478E+03 0.  0.
        -24    2    4    4    0    0  0.93662247177E+03 -0.37226584096E+02 -0.11360906242E+04  0.14749976686E+04  0.79175393241E+02 0.  0.
         24    2    4    4    0    0  0.26619959666E+03  0.25975821971E+03  0.60411380432E+02  0.38507725257E+03  0.79362444473E+02 0.  0.
         11    1    3    3    0    0 -0.97187389029E+03 -0.14536516426E+03  0.53240973385E+03  0.11176448516E+04  0.00000000000E+00 0. -1.
        -11    1    3    3    0    0 -0.23094817814E+03 -0.77166471353E+02  0.11083519050E+03  0.26753722123E+03  0.00000000000E+00 0.  1.
          4    1    6    6  502    0  0.11070484411E+02  0.45389338022E+02  0.20001853968E+01  0.46762681412E+02  0.00000000000E+00 0. -1.
          3    1    5    5  503    0  0.13260685779E+03  0.21750823401E+02 -0.15337103586E+03  0.20391260798E+03  0.00000000000E+00 0. -1.
         -4    1    5    5    0  503  0.80401561399E+03 -0.58977407497E+02 -0.98271958829E+03  0.12710850606E+04  0.00000000000E+00 0.  1.
         -3    1    6    6    0  502  0.25512911225E+03  0.21436888169E+03  0.58411195035E+02  0.33831457116E+03  0.00000000000E+00 0.  1.
<mgrwt>
<rscale>  0 0.32163168E+04</rscale>
<asrwt>0</asrwt>
<pdfrwt beam="1">  1        2 0.21637098E+00 0.32163168E+04</pdfrwt>
<pdfrwt beam="2">  1       -2 0.28289933E+00 0.32163168E+04</pdfrwt>
<totfact> 0.48784010E-01</totfact>
</mgrwt>
</event>
<event>
12    1  0.2404959E-007  0.2893955E+04  0.7818608E-02  0.8274678E-01
         -2   -1    0    0    0  501 -0.00000000000E+00  0.00000000000E+00  0.16336827587E+04  0.16336827587E+04  0.00000000000E+00 0. -1.
          2   -1    0    0  501    0  0.00000000000E+00 -0.00000000000E+00 -0.12816101535E+04  0.12816101535E+04  0.00000000000E+00 0.  1.
         23    2    1    2    0    0 -0.60288120726E+03  0.11445894867E+04 -0.15282742000E+02  0.12969563494E+04  0.91166698908E+02 0.  0.
        254    2    1    2    0    0  0.60288120726E+03 -0.11445894867E+04  0.36735534727E+03  0.16183365628E+04  0.90028464181E+03 0.  0.
        -24    2    4    4    0    0  0.72182401470E+03 -0.73178612142E+03 -0.24984961356E+02  0.10312720627E+04  0.79730692680E+02 0.  0.
         24    2    4    4    0    0 -0.11894280744E+03 -0.41280336524E+03  0.39234030863E+03  0.58706450007E+03  0.78484391294E+02 0.  0.
         11    1    3    3    0    0 -0.30523177746E+03  0.63116204191E+03 -0.46795746682E+02  0.70265340178E+03  0.00000000000E+00 0.  1.
        -11    1    3    3    0    0 -0.29764942980E+03  0.51342744475E+03  0.31513004682E+02  0.59430294762E+03  0.00000000000E+00 0. -1.
          4    1    6    6  502    0 -0.11173680547E+03 -0.40594815717E+03  0.36244662459E+03  0.55555969587E+03  0.00000000000E+00 0. -1.
          3    1    5    5  503    0  0.25765825019E+03 -0.23459929770E+03 -0.41281157204E+02  0.35089704803E+03  0.00000000000E+00 0. -1.
         -4    1    5    5    0  503  0.46416576451E+03 -0.49718682372E+03  0.16296195848E+02  0.68037501470E+03  0.00000000000E+00 0.  1.
         -3    1    6    6    0  502 -0.72060019665E+01 -0.68552080736E+01  0.29893684045E+02  0.31504804203E+02  0.00000000000E+00 0.  1.
<mgrwt>
<rscale>  0 0.28939554E+04</rscale>
<asrwt>0</asrwt>
<pdfrwt beam="1">  1        2 0.19717079E+00 0.28939554E+04</pdfrwt>
<pdfrwt beam="2">  1       -2 0.25133581E+00 0.28939554E+04</pdfrwt>
<totfact> 0.92269892E-01</totfact>
</mgrwt>
</event>
<event>
12    1  0.2404959E-007  0.1608720E+04  0.7818608E-02  0.8815209E-01
         -2   -1    0    0    0  501 -0.00000000000E+00  0.00000000000E+00  0.39976689512E+03  0.39976689512E+03  0.00000000000E+00 0.  1.
          2   -1    0    0  501    0  0.00000000000E+00 -0.00000000000E+00 -0.16184316631E+04  0.16184316631E+04  0.00000000000E+00 0. -1.
         23    2    1    2    0    0  0.24634873465E+03  0.14694215243E+03  0.16265425424E+03  0.34211720964E+03  0.91148688886E+02 0.  0.
        254    2    1    2    0    0 -0.24634873465E+03 -0.14694215243E+03 -0.13813190222E+04  0.16760813485E+04  0.90494571699E+03 0.  0.
        -24    2    4    4    0    0 -0.52134583059E+03 -0.24920749771E+03 -0.11659526518E+04  0.13037380726E+04  0.79884440733E+02 0.  0.
         24    2    4    4    0    0  0.27499709595E+03  0.10226534528E+03 -0.21536637042E+03  0.37234327592E+03  0.78582682527E+02 0.  0.
         13    1    3    3    0    0 -0.50139502115E+01  0.24014543125E+01  0.16492532247E+02  0.17404318414E+02  0.00000000000E+00 0. -1.
        -13    1    3    3    0    0  0.25136268486E+03  0.14454069812E+03  0.14616172199E+03  0.32471289123E+03  0.00000000000E+00 0.  1.
          4    1    6    6  502    0  0.26625061024E+03  0.10680116773E+03 -0.18731450262E+03  0.34261144140E+03  0.00000000000E+00 0. -1.
          3    1    5    5  503    0 -0.31078107861E+03 -0.11153595341E+03 -0.61389404815E+03  0.69705885697E+03  0.00000000000E+00 0. -1.
         -4    1    5    5    0  503 -0.21056475198E+03 -0.13767154430E+03 -0.55205860361E+03  0.60667921566E+03  0.00000000000E+00 0.  1.
         -3    1    6    6    0  502  0.87464857060E+01 -0.45358224544E+01 -0.28051867792E+02  0.29731834524E+02  0.00000000000E+00 0.  1.
<mgrwt>
<rscale>  0 0.16087205E+04</rscale>
<asrwt>0</asrwt>
<pdfrwt beam="1">  1        2 0.24898948E+00 0.16087205E+04</pdfrwt>
<pdfrwt beam="2">  1       -2 0.61502600E-01 0.16087205E+04</pdfrwt>
<totfact> 0.25643006E+01</totfact>
</mgrwt>
</event>
<event>
12    1  0.2404959E-007  0.1885073E+04  0.7818608E-02  0.8662323E-01
          1   -1    0    0  501    0  0.00000000000E+00  0.00000000000E+00  0.23887243946E+04  0.23887243946E+04  0.00000000000E+00 0. -1.
         -1   -1    0    0    0  501 -0.00000000000E+00 -0.00000000000E+00 -0.37190338891E+03  0.37190338891E+03  0.00000000000E+00 0.  1.
         23    2    1    2    0    0  0.45973935884E+03  0.26603465185E+02 -0.37099037702E+02  0.47179208583E+03  0.95621186080E+02 0.  0.
        254    2    1    2    0    0 -0.45973935884E+03 -0.26603465185E+02  0.20539200434E+04  0.22888356977E+04  0.89895121327E+03 0.  0.
        -24    2    4    4    0    0 -0.22431077060E+03  0.26207796979E+03  0.22207344460E+03  0.41776569731E+03  0.78812302331E+02 0.  0.
         24    2    4    4    0    0 -0.23542858825E+03 -0.28868143497E+03  0.18318465988E+04  0.18710700003E+04  0.80482256893E+02 0.  0.
         11    1    3    3    0    0  0.20416433918E+03  0.35534033374E+02  0.24698903284E+02  0.20870021741E+03  0.00000000000E+00 0. -1.
        -11    1    3    3    0    0  0.25557501966E+03 -0.89305681892E+01 -0.61797940987E+02  0.26309186843E+03  0.00000000000E+00 0.  1.
          4    1    6    6  502    0 -0.22968282821E+03 -0.24041832579E+03  0.16005388593E+04  0.16347109265E+04  0.00000000000E+00 0. -1.
          1    1    5    5  503    0 -0.19220171488E+03  0.22453938351E+03  0.15292220524E+03  0.33278316485E+03  0.00000000000E+00 0. -1.
         -2    1    5    5    0  503 -0.32109055719E+02  0.37538586272E+02  0.69151239360E+02  0.84982532461E+02  0.00000000000E+00 0.  1.
         -3    1    6    6    0  502 -0.57457600333E+01 -0.48263109180E+02  0.23130773944E+03  0.23635907385E+03  0.00000000000E+00 0.  1.
<mgrwt>
<rscale>  0 0.18850726E+04</rscale>
<asrwt>0</asrwt>
<pdfrwt beam="1">  1        1 0.36749605E+00 0.18850726E+04</pdfrwt>
<pdfrwt beam="2">  1       -1 0.57215907E-01 0.18850726E+04</pdfrwt>
<totfact> 0.46893034E+00</totfact>
</mgrwt>
</event>
<event>
12    1  0.2404959E-007  0.1993246E+04  0.7818608E-02  0.8609785E-01
          2   -1    0    0  501    0  0.00000000000E+00  0.00000000000E+00  0.68474691219E+03  0.68474691219E+03  0.00000000000E+00 0. -1.
         -2   -1    0    0    0  501 -0.00000000000E+00 -0.00000000000E+00 -0.14505461724E+04  0.14505461724E+04  0.00000000000E+00 0.  1.
         23    2    1    2    0    0 -0.38590476329E+02  0.78781270086E+03 -0.33097213397E+03  0.86270420752E+03  0.11215132506E+03 0.  0.
        254    2    1    2    0    0  0.38590476329E+02 -0.78781270086E+03 -0.43482712628E+03  0.12725888771E+04  0.89903823272E+03 0.  0.
        -24    2    4    4    0    0  0.52680570172E+02 -0.56173379017E+03  0.19195640599E+03  0.60126431551E+03  0.79695807996E+02 0.  0.
         24    2    4    4    0    0 -0.14090093843E+02 -0.22607891069E+03 -0.62678353227E+03  0.67132456160E+03  0.80677543827E+02 0.  0.
         13    1    3    3    0    0  0.19876058638E+02  0.15583503770E+03 -0.28598356507E+02  0.15967931198E+03  0.00000000000E+00 0. -1.
        -13    1    3    3    0    0 -0.58466534968E+02  0.63197766316E+03 -0.30237377747E+03  0.70302489554E+03  0.00000000000E+00 0.  1.
          4    1    6    6  502    0  0.56229471801E+00  0.56197823171E+01 -0.38086220599E+02  0.38502705465E+02  0.00000000000E+00 0. -1.
          3    1    5    5  503    0 -0.11421341382E+02 -0.25889846128E+03  0.68874266081E+02  0.26814646151E+03  0.00000000000E+00 0. -1.
         -4    1    5    5    0  503  0.64101911554E+02 -0.30283532889E+03  0.12308213991E+03  0.33311785400E+03  0.00000000000E+00 0.  1.
         -3    1    6    6    0  502 -0.14652388561E+02 -0.23169869301E+03 -0.58869731167E+03  0.63282185613E+03  0.00000000000E+00 0.  1.
<mgrwt>
<rscale>  0 0.19932456E+04</rscale>
<asrwt>0</asrwt>
<pdfrwt beam="1">  1        2 0.10534568E+00 0.19932456E+04</pdfrwt>
<pdfrwt beam="2">  1       -2 0.22316095E+00 0.19932456E+04</pdfrwt>
<totfact> 0.36946046E+00</totfact>
</mgrwt>
</event>
<event>
12    1  0.2404959E-007  0.2326964E+04  0.7818608E-02  0.8467365E-01
         -2   -1    0    0    0  501 -0.00000000000E+00  0.00000000000E+00  0.66929671857E+03  0.66929671857E+03  0.00000000000E+00 0.  1.
          2   -1    0    0  501    0  0.00000000000E+00 -0.00000000000E+00 -0.20225572604E+04  0.20225572604E+04  0.00000000000E+00 0. -1.
         23    2    1    2    0    0 -0.85105368544E+03  0.35267945225E+03 -0.98700654477E+03  0.13531062396E+04  0.89662727416E+02 0.  0.
        254    2    1    2    0    0  0.85105368544E+03 -0.35267945225E+03 -0.36625399707E+03  0.13387477394E+04  0.89968235940E+03 0.  0.
        -24    2    4    4    0    0  0.28998981895E+03 -0.11019956904E+03  0.29481524216E+03  0.43487849506E+03  0.77234955450E+02 0.  0.
         24    2    4    4    0    0  0.56106386649E+03 -0.24247988321E+03 -0.66106923923E+03  0.90386924433E+03  0.79861854146E+02 0.  0.
         13    1    3    3    0    0 -0.35858604562E+03  0.10113524502E+03 -0.40196179508E+03  0.54807442433E+03  0.00000000000E+00 0. -1.
        -13    1    3    3    0    0 -0.49246763981E+03  0.25154420723E+03 -0.58504474969E+03  0.80503181527E+03  0.00000000000E+00 0.  1.
          4    1    6    6  502    0  0.96025197255E+02 -0.18303105887E+02 -0.13630854055E+03  0.16773747470E+03  0.00000000000E+00 0. -1.
          1    1    5    5  503    0  0.15609909041E+03 -0.97616784342E+02  0.15238180344E+03  0.23898990906E+03  0.00000000000E+00 0. -1.
         -2    1    5    5    0  503  0.13389072854E+03 -0.12582784699E+02  0.14243343872E+03  0.19588858600E+03  0.00000000000E+00 0.  1.
         -3    1    6    6    0  502  0.46503866923E+03 -0.22417677733E+03 -0.52476069868E+03  0.73613176963E+03  0.00000000000E+00 0.  1.
<mgrwt>
<rscale>  0 0.23269645E+04</rscale>
<asrwt>0</asrwt>
<pdfrwt beam="1">  1        2 0.31116265E+00 0.23269645E+04</pdfrwt>
<pdfrwt beam="2">  1       -2 0.10296873E+00 0.23269645E+04</pdfrwt>
<totfact> 0.45228598E+00</totfact>
</mgrwt>
</event>
<event>
12    1  0.2404959E-007  0.1688228E+04  0.7818608E-02  0.8768107E-01
          1   -1    0    0  501    0  0.00000000000E+00  0.00000000000E+00  0.71703541145E+03  0.71703541145E+03  0.00000000000E+00 0. -1.
         -1   -1    0    0    0  501 -0.00000000000E+00 -0.00000000000E+00 -0.99371415631E+03  0.99371415631E+03  0.00000000000E+00 0.  1.
         23    2    1    2    0    0  0.12494508286E+03  0.49771419250E+03  0.21420500202E+03  0.56343302967E+03  0.90787140547E+02 0.  0.
        254    2    1    2    0    0 -0.12494508286E+03 -0.49771419250E+03 -0.49088374688E+03  0.11473165381E+04  0.90113134141E+03 0.  0.
        -24    2    4    4    0    0  0.19658876109E+03 -0.51047900023E+03 -0.58280888745E+03  0.80345625357E+03  0.81484976850E+02 0.  0.
         24    2    4    4    0    0 -0.32153384395E+03  0.12764807728E+02  0.91925140570E+02  0.34386028452E+03  0.79010826332E+02 0.  0.
         11    1    3    3    0    0  0.91200512580E+02  0.31634694146E+03  0.90934130131E+02  0.34155810177E+03  0.00000000000E+00 0.  1.
        -11    1    3    3    0    0  0.33744570284E+02  0.18136725104E+03  0.12327087189E+03  0.22187492790E+03  0.00000000000E+00 0. -1.
          4    1    6    6  502    0 -0.29798454814E+03  0.19085863602E+02  0.10459192650E+03  0.31638352076E+03  0.00000000000E+00 0. -1.
          1    1    5    5  503    0  0.20240634000E+03 -0.50353486695E+03 -0.56465295765E+03  0.78316578787E+03  0.00000000000E+00 0. -1.
         -2    1    5    5    0  503 -0.58175789149E+01 -0.69441332776E+01 -0.18155929806E+02  0.20290465705E+02  0.00000000000E+00 0.  1.
         -3    1    6    6    0  502 -0.23549295811E+02 -0.63210558747E+01 -0.12666785935E+02  0.27476763756E+02  0.00000000000E+00 0.  1.
<mgrwt>
<rscale>  0 0.16882278E+04</rscale>
<asrwt>0</asrwt>
<pdfrwt beam="1">  1        1 0.11031314E+00 0.16882278E+04</pdfrwt>
<pdfrwt beam="2">  1       -1 0.15287910E+00 0.16882278E+04</pdfrwt>
<totfact> 0.82892990E+00</totfact>
</mgrwt>
</event>
<event>
12    1  0.2404959E-007  0.2951337E+04  0.7818608E-02  0.8257765E-01
          1   -1    0    0  501    0  0.00000000000E+00  0.00000000000E+00  0.16238040108E+04  0.16238040108E+04  0.00000000000E+00 0. -1.
         -1   -1    0    0    0  501 -0.00000000000E+00 -0.00000000000E+00 -0.13410469070E+04  0.13410469070E+04  0.00000000000E+00 0.  1.
         23    2    1    2    0    0  0.84070158917E+03 -0.10130977690E+04 -0.10353405422E+03  0.13236428375E+04  0.90359335166E+02 0.  0.
        254    2    1    2    0    0 -0.84070158917E+03  0.10130977690E+04  0.38629115795E+03  0.16412080803E+04  0.90066467263E+03 0.  0.
        -24    2    4    4    0    0 -0.39112701504E+03  0.60172819337E+03  0.65048710897E+03  0.97188855073E+03  0.79854339350E+02 0.  0.
         24    2    4    4    0    0 -0.44957457413E+03  0.41136957559E+03 -0.26419595102E+03  0.66931952953E+03  0.82746037120E+02 0.  0.
         11    1    3    3    0    0  0.66246758342E+02 -0.78600351545E+02  0.16156775535E+02  0.10405618506E+03  0.00000000000E+00 0. -1.
        -11    1    3    3    0    0  0.77445483082E+03 -0.93449741741E+03 -0.11969082975E+03  0.12195866525E+04  0.00000000000E+00 0.  1.
          4    1    6    6  502    0 -0.29260333807E+03  0.29173805600E+03 -0.14063548918E+03  0.43647009930E+03  0.00000000000E+00 0. -1.
          1    1    5    5  503    0 -0.17269850576E+03  0.32681628575E+03  0.36315536268E+03  0.51818478940E+03  0.00000000000E+00 0. -1.
         -2    1    5    5    0  503 -0.21842850928E+03  0.27491190762E+03  0.28733174629E+03  0.45370376133E+03  0.00000000000E+00 0.  1.
         -3    1    6    6    0  502 -0.15697123606E+03  0.11963151959E+03 -0.12356046185E+03  0.23284943023E+03  0.00000000000E+00 0.  1.
<mgrwt>
<rscale>  0 0.29513369E+04</rscale>
<asrwt>0</asrwt>
<pdfrwt beam="1">  1        1 0.24981600E+00 0.29513369E+04</pdfrwt>
<pdfrwt beam="2">  1       -1 0.20631491E+00 0.29513369E+04</pdfrwt>
<totfact> 0.62557353E-01</totfact>
</mgrwt>
</event>
<event>
12    1  0.2404959E-007  0.4088243E+04  0.7818608E-02  0.7986978E-01
         -2   -1    0    0    0  501 -0.00000000000E+00  0.00000000000E+00  0.11266925353E+04  0.11266925353E+04  0.00000000000E+00 0.  1.
          2   -1    0    0  501    0  0.00000000000E+00 -0.00000000000E+00 -0.37085838005E+04  0.37085838005E+04  0.00000000000E+00 0. -1.
         23    2    1    2    0    0  0.14777297823E+04  0.12059955330E+04 -0.16719950453E+04  0.25381063388E+04  0.91136274644E+02 0.  0.
        254    2    1    2    0    0 -0.14777297823E+04 -0.12059955330E+04 -0.90989621990E+03  0.22971699970E+04  0.90053780001E+03 0.  0.
        -24    2    4    4    0    0 -0.50554937328E+03 -0.30040491746E+03  0.13032825642E+03  0.60796016691E+03  0.82503496074E+02 0.  0.
         24    2    4    4    0    0 -0.97218040903E+03 -0.90559061551E+03 -0.10402244763E+04  0.16892098301E+04  0.78318442946E+02 0.  0.
         11    1    3    3    0    0  0.69092354691E+03  0.50539035998E+03 -0.74799270206E+03  0.11367883910E+04  0.00000000000E+00 0.  1.
        -11    1    3    3    0    0  0.78680623540E+03  0.70060517298E+03 -0.92400234327E+03  0.14013179478E+04  0.00000000000E+00 0. -1.
          4    1    6    6  502    0 -0.78499368067E+03 -0.76981843527E+03 -0.84790557759E+03  0.13884449469E+04  0.00000000000E+00 0. -1.
          3    1    5    5  503    0 -0.31940129951E+03 -0.14271253782E+03  0.73813140816E+02  0.35753662517E+03  0.00000000000E+00 0. -1.
         -4    1    5    5    0  503 -0.18614807377E+03 -0.15769237964E+03  0.56515115600E+02  0.25042354174E+03  0.00000000000E+00 0.  1.
         -3    1    6    6    0  502 -0.18718672836E+03 -0.13577218023E+03 -0.19231889872E+03  0.30076488326E+03  0.00000000000E+00 0.  1.
<mgrwt>
<rscale>  0 0.40882435E+04</rscale>
<asrwt>0</asrwt>
<pdfrwt beam="1">  1        2 0.57055135E+00 0.40882435E+04</pdfrwt>
<pdfrwt beam="2">  1       -2 0.17333731E+00 0.40882435E+04</pdfrwt>
<totfact> 0.90714895E-02</totfact>
</mgrwt>
</event>
<event>
12    1  0.2404959E-007  0.1173960E+04  0.7818608E-02  0.9135960E-01
          1   -1    0    0  501    0  0.00000000000E+00  0.00000000000E+00  0.37545222738E+03  0.37545222738E+03  0.00000000000E+00 0. -1.
         -1   -1    0    0    0  501 -0.00000000000E+00 -0.00000000000E+00 -0.91768156438E+03  0.91768156438E+03  0.00000000000E+00 0.  1.
         23    2    1    2    0    0  0.47946479632E+02 -0.14434677820E+03  0.77145349369E+02  0.19396301487E+03  0.92387168604E+02 0.  0.
        254    2    1    2    0    0 -0.47946479632E+02  0.14434677820E+03 -0.61937468637E+03  0.10991707769E+04  0.89521870924E+03 0.  0.
        -24    2    4    4    0    0  0.36371891869E+03 -0.93747114647E+02 -0.44107775775E+03  0.58478589415E+03  0.79655384611E+02 0.  0.
         24    2    4    4    0    0 -0.41166539832E+03  0.23809389285E+03 -0.17829692861E+03  0.51438488274E+03  0.81516322577E+02 0.  0.
         13    1    3    3    0    0  0.11055051381E+02 -0.17482703498E+02  0.56593229563E+02  0.60254897851E+02  0.00000000000E+00 0. -1.
        -13    1    3    3    0    0  0.36891428251E+02 -0.12686407470E+03  0.20552119806E+02  0.13370811702E+03  0.00000000000E+00 0.  1.
          4    1    6    6  502    0 -0.85938272396E+02  0.71603308830E+02 -0.73549889128E+02  0.13387309920E+03  0.00000000000E+00 0. -1.
          1    1    5    5  503    0  0.33275899882E+03 -0.93962441913E+02 -0.36562830395E+03  0.50323110837E+03  0.00000000000E+00 0. -1.
         -2    1    5    5    0  503  0.30959919874E+02  0.21532726520E+00 -0.75449453809E+02  0.81554785786E+02  0.00000000000E+00 0.  1.
         -3    1    6    6    0  502 -0.32572712593E+03  0.16649058402E+03 -0.10474703948E+03  0.38051178354E+03  0.00000000000E+00 0.  1.
<mgrwt>
<rscale>  0 0.11739601E+04</rscale>
<asrwt>0</asrwt>
<pdfrwt beam="1">  1        1 0.57761882E-01 0.11739601E+04</pdfrwt>
<pdfrwt beam="2">  1       -1 0.14118178E+00 0.11739601E+04</pdfrwt>
<totfact> 0.26539271E+01</totfact>
</mgrwt>
</event>
<event>
12    1  0.2404959E-007  0.1472007E+04  0.7818608E-02  0.8903284E-01
          2   -1    0    0  501    0  0.00000000000E+00  0.00000000000E+00  0.11252716860E+04  0.11252716860E+04  0.00000000000E+00 0. -1.
         -2   -1    0    0    0  501 -0.00000000000E+00 -0.00000000000E+00 -0.48139571047E+03  0.48139571047E+03  0.00000000000E+00 0.  1.
         23    2    1    2    0    0  0.35860880292E+03 -0.28032415074E+03  0.19645749280E+03  0.50383358875E+03  0.89837829750E+02 0.  0.
        254    2    1    2    0    0 -0.35860880292E+03  0.28032415074E+03  0.44741848276E+03  0.11028338077E+04  0.89937600911E+03 0.  0.
        -24    2    4    4    0    0  0.23374743080E+03 -0.53331123876E+02  0.31814800627E+03  0.40632604793E+03  0.80003957071E+02 0.  0.
         24    2    4    4    0    0 -0.59235623373E+03  0.33365527462E+03  0.12927047649E+03  0.69650775981E+03  0.78742958228E+02 0.  0.
         11    1    3    3    0    0  0.22007030625E+03 -0.11924022209E+03  0.12419908374E+03  0.27941829335E+03  0.00000000000E+00 0.  1.
        -11    1    3    3    0    0  0.13853849667E+03 -0.16108392865E+03  0.72258409059E+02  0.22441529540E+03  0.00000000000E+00 0. -1.
          2    1    6    6  502    0 -0.30996919130E+03  0.13030487199E+03  0.55614109424E+02  0.34081254142E+03  0.00000000000E+00 0. -1.
          1    1    5    5  503    0  0.54252317171E+02  0.18725366675E+02  0.95289702712E+02  0.11123884537E+03  0.00000000000E+00 0. -1.
         -2    1    5    5    0  503  0.17949511363E+03 -0.72056490551E+02  0.22285830356E+03  0.29508720256E+03  0.00000000000E+00 0.  1.
         -1    1    6    6    0  502 -0.28238704243E+03  0.20335040263E+03  0.73656367064E+02  0.35569521840E+03  0.00000000000E+00 0.  1.
<mgrwt>
<rscale>  0 0.14720067E+04</rscale>
<asrwt>0</asrwt>
<pdfrwt beam="1">  1        2 0.17311872E+00 0.14720067E+04</pdfrwt>
<pdfrwt beam="2">  1       -2 0.74060879E-01 0.14720067E+04</pdfrwt>
<totfact> 0.33423453E+01</totfact>
</mgrwt>
</event>
<event>
12    1  0.2404959E-007  0.1849839E+04  0.7818608E-02  0.8680236E-01
         -1   -1    0    0    0  501 -0.00000000000E+00  0.00000000000E+00  0.97326238475E+03  0.97326238475E+03  0.00000000000E+00 0.  1.
          1   -1    0    0  501    0  0.00000000000E+00 -0.00000000000E+00 -0.87897787688E+03  0.87897787688E+03  0.00000000000E+00 0. -1.
         23    2    1    2    0    0  0.63778592852E+02  0.61574094337E+03 -0.29664432257E+03  0.69248043435E+03  0.91250641626E+02 0.  0.
        254    2    1    2    0    0 -0.63778592852E+02 -0.61574094337E+03  0.39092883044E+03  0.11597598273E+04  0.89945143740E+03 0.  0.
        -24    2    4    4    0    0 -0.19605012340E+03 -0.77090961476E+03  0.47041671791E+03  0.92755701370E+03  0.79579143911E+02 0.  0.
         24    2    4    4    0    0  0.13227153054E+03  0.15516867139E+03 -0.79487887477E+02  0.23220281358E+03  0.77632132550E+02 0.  0.
         13    1    3    3    0    0  0.30112883587E+02  0.38017539916E+03 -0.23004539979E+03  0.44537737465E+03  0.00000000000E+00 0. -1.
        -13    1    3    3    0    0  0.33665709265E+02  0.23556554421E+03 -0.66598922786E+02  0.24710305971E+03  0.00000000000E+00 0.  1.
          2    1    6    6  502    0 -0.10044873231E+02  0.81783213807E+01 -0.91234943701E+01  0.15843691753E+02  0.00000000000E+00 0. -1.
          1    1    5    5  503    0 -0.26820542458E+02 -0.17210408531E+03  0.13698443919E+03  0.22159398516E+03  0.00000000000E+00 0. -1.
         -2    1    5    5    0  503 -0.16922958094E+03 -0.59880552945E+03  0.33343227873E+03  0.70596302854E+03  0.00000000000E+00 0.  1.
         -1    1    6    6    0  502  0.14231640378E+03  0.14699035001E+03 -0.70364393107E+02  0.21635912183E+03  0.00000000000E+00 0.  1.
<mgrwt>
<rscale>  0 0.18498390E+04</rscale>
<asrwt>0</asrwt>
<pdfrwt beam="1">  1        1 0.13522737E+00 0.18498390E+04</pdfrwt>
<pdfrwt beam="2">  1       -1 0.14973267E+00 0.18498390E+04</pdfrwt>
<totfact> 0.62392345E+00</totfact>
</mgrwt>
</event>
<event>
12    1  0.2404959E-007  0.2327558E+04  0.7818608E-02  0.8467134E-01
          2   -1    0    0  501    0  0.00000000000E+00  0.00000000000E+00  0.13651923702E+04  0.13651923702E+04  0.00000000000E+00 0.  1.
         -2   -1    0    0    0  501 -0.00000000000E+00 -0.00000000000E+00 -0.99208146893E+03  0.99208146893E+03  0.00000000000E+00 0. -1.
         23    2    1    2    0    0  0.36532664703E+03  0.14158720132E+03 -0.75925069292E+03  0.85925787659E+03  0.91389217980E+02 0.  0.
        254    2    1    2    0    0 -0.36532664703E+03 -0.14158720132E+03  0.11323615942E+04  0.14980159625E+04  0.89905425277E+03 0.  0.
        -24    2    4    4    0    0 -0.26753593842E+03  0.36375962548E+03  0.49592549341E+03  0.67551695426E+03  0.80526498773E+02 0.  0.
         24    2    4    4    0    0 -0.97790708616E+02 -0.50534682680E+03  0.63643610077E+03  0.82249900827E+03  0.80717223686E+02 0.  0.
         11    1    3    3    0    0  0.36746724419E+03  0.14324950792E+03 -0.76017145868E+03  0.85639549489E+03  0.00000000000E+00 0. -1.
        -11    1    3    3    0    0 -0.21405971539E+01 -0.16623065994E+01  0.92076575949E+00  0.28623816988E+01  0.00000000000E+00 0.  1.
          4    1    6    6  502    0 -0.69742611608E+02 -0.45752028136E+03  0.59206980455E+03  0.75148885101E+03  0.00000000000E+00 0. -1.
          3    1    5    5  503    0 -0.16096135499E+03  0.27458160441E+03  0.32009612372E+03  0.45140352646E+03  0.00000000000E+00 0. -1.
         -4    1    5    5    0  503 -0.10657458342E+03  0.89178021071E+02  0.17582936969E+03  0.22411342780E+03  0.00000000000E+00 0.  1.
         -3    1    6    6    0  502 -0.28048097008E+02 -0.47826545442E+02  0.44366296215E+02  0.71010157263E+02  0.00000000000E+00 0.  1.
<mgrwt>
<rscale>  0 0.23275584E+04</rscale>
<asrwt>0</asrwt>
<pdfrwt beam="1">  1        2 0.21002960E+00 0.23275584E+04</pdfrwt>
<pdfrwt beam="2">  1       -2 0.15262792E+00 0.23275584E+04</pdfrwt>
<totfact> 0.39219179E+00</totfact>
</mgrwt>
</event>
<event>
12    1  0.2404959E-007  0.2921882E+04  0.7818608E-02  0.8266397E-01
         -1   -1    0    0    0  501 -0.00000000000E+00  0.00000000000E+00  0.13416574507E+04  0.13416574507E+04  0.00000000000E+00 0.  1.
          1   -1    0    0  501    0  0.00000000000E+00 -0.00000000000E+00 -0.15908296019E+04  0.15908296019E+04  0.00000000000E+00 0. -1.
         23    2    1    2    0    0  0.84293726312E+03  0.73610668601E+03  0.59018054394E+03  0.12684007613E+04  0.90172800543E+02 0.  0.
        254    2    1    2    0    0 -0.84293726312E+03 -0.73610668601E+03 -0.83935269513E+03  0.16640862914E+04  0.90126242332E+03 0.  0.
        -24    2    4    4    0    0 -0.22374850690E+03  0.16864568121E+03 -0.18480833950E+02  0.29209429948E+03  0.80453579353E+02 0.  0.
         24    2    4    4    0    0 -0.61918875621E+03 -0.90475236722E+03 -0.82087186118E+03  0.13719919919E+04  0.80992911020E+02 0.  0.
         11    1    3    3    0    0  0.58580958872E+03  0.48182094722E+03  0.35879832785E+03  0.83908315410E+03  0.00000000000E+00 0. -1.
        -11    1    3    3    0    0  0.25712767440E+03  0.25428573879E+03  0.23138221609E+03  0.42931760716E+03  0.00000000000E+00 0.  1.
          2    1    6    6  502    0 -0.66356553268E+02 -0.13699674000E+03 -0.93802493924E+02  0.17880214427E+03  0.00000000000E+00 0. -1.
          3    1    5    5  503    0 -0.85918329423E+02  0.60618309301E+02 -0.46095933184E+02  0.11481016423E+03  0.00000000000E+00 0. -1.
         -4    1    5    5    0  503 -0.13783017748E+03  0.10802737191E+03  0.27615099235E+02  0.17728413525E+03  0.00000000000E+00 0.  1.
         -1    1    6    6    0  502 -0.55283220294E+03 -0.76775562723E+03 -0.72706936726E+03  0.11931898477E+04  0.00000000000E+00 0.  1.
<mgrwt>
<rscale>  0 0.29218819E+04</rscale>
<asrwt>0</asrwt>
<pdfrwt beam="1">  1        1 0.24474301E+00 0.29218819E+04</pdfrwt>
<pdfrwt beam="2">  1       -1 0.20640884E+00 0.29218819E+04</pdfrwt>
<totfact> 0.65975113E-01</totfact>
</mgrwt>
</event>
<event>
12    1  0.2404959E-007  0.1935064E+04  0.7818608E-02  0.8637597E-01
         -2   -1    0    0    0  501 -0.00000000000E+00  0.00000000000E+00  0.10838199212E+04  0.10838199212E+04  0.00000000000E+00 0.  1.
          2   -1    0    0  501    0  0.00000000000E+00 -0.00000000000E+00 -0.86372155893E+03  0.86372155893E+03  0.00000000000E+00 0. -1.
         23    2    1    2    0    0  0.82094410028E+02 -0.66348380129E+03 -0.26586103193E+03  0.72539271870E+03  0.92532487824E+02 0.  0.
        254    2    1    2    0    0 -0.82094410028E+02  0.66348380129E+03  0.48595939424E+03  0.12221487615E+04  0.90030040296E+03 0.  0.
        -24    2    4    4    0    0  0.23557528710E+03  0.73997637304E+03  0.29102932682E+03  0.83336338734E+03  0.82071418499E+02 0.  0.
         24    2    4    4    0    0 -0.31766969713E+03 -0.76492571751E+02  0.19493006742E+03  0.38878537413E+03  0.79944893185E+02 0.  0.
         13    1    3    3    0    0  0.96951876085E+02 -0.59192911862E+03 -0.25389378263E+03  0.65133846854E+03  0.00000000000E+00 0. -1.
        -13    1    3    3    0    0 -0.14857466057E+02 -0.71554682673E+02 -0.11967249305E+02  0.74054250155E+02  0.00000000000E+00 0.  1.
          2    1    6    6  502    0 -0.33032008702E+02  0.13790977189E+02  0.34905350083E+02  0.49996881054E+02  0.00000000000E+00 0. -1.
          3    1    5    5  503    0  0.10980946061E+03  0.22758808043E+03  0.79003098154E+02  0.26475638143E+03  0.00000000000E+00 0. -1.
         -4    1    5    5    0  503  0.12576582649E+03  0.51238829262E+03  0.21202622867E+03  0.56860700591E+03  0.00000000000E+00 0.  1.
         -1    1    6    6    0  502 -0.28463768842E+03 -0.90283548941E+02  0.16002471734E+03  0.33878849307E+03  0.00000000000E+00 0.  1.
<mgrwt>
<rscale>  0 0.19350645E+04</rscale>
<asrwt>0</asrwt>
<pdfrwt beam="1">  1        2 0.13288024E+00 0.19350645E+04</pdfrwt>
<pdfrwt beam="2">  1       -2 0.16674153E+00 0.19350645E+04</pdfrwt>
<totfact> 0.65191012E+00</totfact>
</mgrwt>
</event>
<event>
12    1  0.2404959E-007  0.2930308E+04  0.7818608E-02  0.8263917E-01
          2   -1    0    0  501    0  0.00000000000E+00  0.00000000000E+00  0.28841177646E+04  0.28841177646E+04  0.00000000000E+00 0. -1.
         -2   -1    0    0    0  501 -0.00000000000E+00 -0.00000000000E+00 -0.74430935722E+03  0.74430935722E+03  0.00000000000E+00 0.  1.
         23    2    1    2    0    0 -0.10849822048E+04 -0.74922930552E+03  0.80601845329E+03  0.15480376399E+04  0.90685447249E+02 0.  0.
        254    2    1    2    0    0  0.10849822048E+04  0.74922930552E+03  0.13337899541E+04  0.20803894819E+04  0.90027430146E+03 0.  0.
        -24    2    4    4    0    0  0.47116553786E+02  0.51323364175E+03  0.53708042802E+03  0.74841817218E+03  0.77753672774E+02 0.  0.
         24    2    4    4    0    0  0.10378656511E+04  0.23599566377E+03  0.79670952608E+03  0.13319713098E+04  0.80885339358E+02 0.  0.
         11    1    3    3    0    0 -0.15988369470E+03 -0.14097137765E+03  0.10501409859E+03  0.23762088724E+03  0.00000000000E+00 0. -1.
        -11    1    3    3    0    0 -0.92509851015E+03 -0.60825792786E+03  0.70100435470E+03  0.13104167526E+04  0.00000000000E+00 0.  1.
          2    1    6    6  502    0  0.44296795074E+03  0.96572489724E+02  0.29003467070E+03  0.53820717327E+03  0.00000000000E+00 0. -1.
          1    1    5    5  503    0  0.30382640066E+02  0.19456876035E+03  0.25744550551E+03  0.32412697455E+03  0.00000000000E+00 0. -1.
         -2    1    5    5    0  503  0.16733913720E+02  0.31866488140E+03  0.27963492251E+03  0.42429119763E+03  0.00000000000E+00 0.  1.
         -3    1    6    6    0  502  0.59489770032E+03  0.13942317404E+03  0.50667485538E+03  0.79376413649E+03  0.00000000000E+00 0.  1.
<mgrwt>
<rscale>  0 0.29303077E+04</rscale>
<asrwt>0</asrwt>
<pdfrwt beam="1">  1        2 0.44371042E+00 0.29303077E+04</pdfrwt>
<pdfrwt beam="2">  1       -2 0.11450913E+00 0.29303077E+04</pdfrwt>
<totfact> 0.10535365E+00</totfact>
</mgrwt>
</event>
<event>
12    1  0.2404959E-007  0.2481280E+04  0.7818608E-02  0.8409685E-01
         -1   -1    0    0    0  501 -0.00000000000E+00  0.00000000000E+00  0.11248224303E+04  0.11248224303E+04  0.00000000000E+00 0.  1.
          1   -1    0    0  501    0  0.00000000000E+00 -0.00000000000E+00 -0.13683824900E+04  0.13683824900E+04  0.00000000000E+00 0. -1.
         23    2    1    2    0    0  0.38250692399E+03  0.85671546568E+03 -0.63440822588E+03  0.11363582992E+04  0.92538916538E+02 0.  0.
        254    2    1    2    0    0 -0.38250692399E+03 -0.85671546568E+03  0.39084816618E+03  0.13568466211E+04  0.89888682723E+03 0.  0.
        -24    2    4    4    0    0  0.27673877931E+03 -0.13453592207E+03  0.11280683501E+03  0.33668973884E+03  0.77138394578E+02 0.  0.
         24    2    4    4    0    0 -0.65924570330E+03 -0.72217954361E+03  0.27804133117E+03  0.10201568823E+04  0.85234336154E+02 0.  0.
         13    1    3    3    0    0  0.24589579661E+03  0.49773628582E+03 -0.42280763643E+03  0.69783411384E+03  0.00000000000E+00 0. -1.
        -13    1    3    3    0    0  0.13661112738E+03  0.35897917986E+03 -0.21160058945E+03  0.43852418537E+03  0.00000000000E+00 0.  1.
          2    1    6    6  502    0 -0.31903702734E+03 -0.35406053742E+03  0.17970584057E+03  0.50935025092E+03  0.00000000000E+00 0. -1.
          1    1    5    5  503    0  0.52524880709E+01 -0.22765273897E+02  0.12049217530E+02  0.26287448899E+02  0.00000000000E+00 0. -1.
         -2    1    5    5    0  503  0.27148629124E+03 -0.11177064817E+03  0.10075761748E+03  0.31040228994E+03  0.00000000000E+00 0.  1.
         -1    1    6    6    0  502 -0.34020867595E+03 -0.36811900619E+03  0.98335490599E+02  0.51080663134E+03  0.00000000000E+00 0.  1.
<mgrwt>
<rscale>  0 0.24812798E+04</rscale>
<asrwt>0</asrwt>
<pdfrwt beam="1">  1        1 0.21052038E+00 0.24812798E+04</pdfrwt>
<pdfrwt beam="2">  1       -1 0.17304961E+00 0.24812798E+04</pdfrwt>
<totfact> 0.16820972E+00</totfact>
</mgrwt>
</event>
<event>
12    1  0.2404959E-007  0.1093709E+04  0.7818608E-02  0.9211345E-01
         -1   -1    0    0    0  501 -0.00000000000E+00  0.00000000000E+00  0.88947827644E+03  0.88947827644E+03  0.00000000000E+00 0.  1.
          1   -1    0    0  501    0  0.00000000000E+00 -0.00000000000E+00 -0.33620830754E+03  0.33620830754E+03  0.00000000000E+00 0. -1.
         23    2    1    2    0    0 -0.13831025424E+03  0.17695963193E+02  0.95611249860E+01  0.16484024519E+03  0.87395753793E+02 0.  0.
        254    2    1    2    0    0  0.13831025424E+03 -0.17695963193E+02  0.54370884390E+03  0.10608463388E+04  0.90018485549E+03 0.  0.
        -24    2    4    4    0    0  0.14651597151E+03 -0.14779623841E+03 -0.20166921772E+03  0.30029611458E+03  0.78718644951E+02 0.  0.
         24    2    4    4    0    0 -0.82057172734E+01  0.13010027521E+03  0.74537806162E+03  0.76055022421E+03  0.76516491002E+02 0.  0.
         11    1    3    3    0    0 -0.78543996831E+01 -0.25319744777E+02  0.71376648181E+01  0.27454094941E+02  0.00000000000E+00 0. -1.
        -11    1    3    3    0    0 -0.13045585456E+03  0.43015707970E+02  0.24234601679E+01  0.13738615025E+03  0.00000000000E+00 0.  1.
          4    1    6    6  502    0 -0.24886980532E+02  0.58917887909E+01  0.14384411854E+03  0.14609998430E+03  0.00000000000E+00 0. -1.
          1    1    5    5  503    0  0.15375002251E+02  0.88932451784E+01 -0.21428991243E+02  0.27833112829E+02  0.00000000000E+00 0. -1.
         -2    1    5    5    0  503  0.13114096926E+03 -0.15668948359E+03 -0.18024022647E+03  0.27246300175E+03  0.00000000000E+00 0.  1.
         -3    1    6    6    0  502  0.16681263258E+02  0.12420848642E+03  0.60153394309E+03  0.61445023991E+03  0.00000000000E+00 0.  1.
<mgrwt>
<rscale>  0 0.10937093E+04</rscale>
<asrwt>0</asrwt>
<pdfrwt beam="1">  1        1 0.51724355E-01 0.10937093E+04</pdfrwt>
<pdfrwt beam="2">  1       -1 0.13684281E+00 0.10937093E+04</pdfrwt>
<totfact> 0.33492375E+01</totfact>
</mgrwt>
</event>
<event>
12    1  0.2404959E-007  0.1416461E+04  0.7818608E-02  0.8941989E-01
         -2   -1    0    0    0  501 -0.00000000000E+00  0.00000000000E+00  0.91257403864E+03  0.91257403864E+03  0.00000000000E+00 0. -1.
          2   -1    0    0  501    0  0.00000000000E+00 -0.00000000000E+00 -0.54964317430E+03  0.54964317430E+03  0.00000000000E+00 0.  1.
         23    2    1    2    0    0 -0.30585507983E+03 -0.26181618674E+03  0.19456285967E+03  0.45686510951E+03  0.93680181639E+02 0.  0.
        254    2    1    2    0    0  0.30585507983E+03  0.26181618674E+03  0.16836800467E+03  0.10053521034E+04  0.90569863717E+03 0.  0.
        -24    2    4    4    0    0 -0.29756589643E+03 -0.34556308705E+02  0.25166004361E+02  0.31308722273E+03  0.87468166063E+02 0.  0.
         24    2    4    4    0    0  0.60342097626E+03  0.29637249544E+03  0.14320200031E+03  0.69226488070E+03  0.82281963483E+02 0.  0.
         11    1    3    3    0    0 -0.15977136075E+03 -0.10369407290E+03  0.13513133242E+03  0.23353763181E+03  0.00000000000E+00 0. -1.
        -11    1    3    3    0    0 -0.14608371908E+03 -0.15812211384E+03  0.59431527248E+02  0.22332747770E+03  0.00000000000E+00 0.  1.
          2    1    6    6  502    0  0.49443624282E+03  0.27369520714E+03  0.13229998229E+03  0.58041325790E+03  0.00000000000E+00 0. -1.
          3    1    5    5  503    0 -0.28502883826E+03 -0.19238709128E+02  0.39847017031E+02  0.28844297762E+03  0.00000000000E+00 0. -1.
         -2    1    5    5    0  503 -0.12537058163E+02 -0.15317599577E+02 -0.14681012670E+02  0.24644245113E+02  0.00000000000E+00 0.  1.
         -1    1    6    6    0  502  0.10898473343E+03  0.22677288300E+02  0.10902018019E+02  0.11185162280E+03  0.00000000000E+00 0.  1.
<mgrwt>
<rscale>  0 0.14164605E+04</rscale>
<asrwt>0</asrwt>
<pdfrwt beam="1">  1        2 0.84560488E-01 0.14164605E+04</pdfrwt>
<pdfrwt beam="2">  1       -2 0.14039601E+00 0.14164605E+04</pdfrwt>
<totfact> 0.19082901E+01</totfact>
</mgrwt>
</event>
<event>
12    1  0.2404959E-007  0.2008477E+04  0.7818608E-02  0.8602667E-01
         -1   -1    0    0    0  501 -0.00000000000E+00  0.00000000000E+00  0.72786777250E+03  0.72786777250E+03  0.00000000000E+00 0.  1.
          1   -1    0    0  501    0  0.00000000000E+00 -0.00000000000E+00 -0.13855473127E+04  0.13855473127E+04  0.00000000000E+00 0. -1.
         23    2    1    2    0    0 -0.69650874126E+03 -0.23145126115E+03 -0.59811179721E+03  0.95139361294E+03  0.93370080022E+02 0.  0.
        254    2    1    2    0    0  0.69650874126E+03  0.23145126115E+03 -0.59567742952E+02  0.11620214722E+04  0.89891683317E+03 0.  0.
        -24    2    4    4    0    0  0.21706635546E+03  0.26173525784E+03  0.37287944359E+03  0.51076605129E+03  0.78865276466E+02 0.  0.
         24    2    4    4    0    0  0.47944238580E+03 -0.30283996688E+02 -0.43244718654E+03  0.65125542093E+03  0.79629971703E+02 0.  0.
         11    1    3    3    0    0 -0.60485262360E+03 -0.20434046472E+03 -0.55732134339E+03  0.84747200638E+03  0.00000000000E+00 0. -1.
        -11    1    3    3    0    0 -0.91656117660E+02 -0.27110796427E+02 -0.40790453820E+02  0.10392160656E+03  0.00000000000E+00 0.  1.
          2    1    6    6  502    0  0.41066978656E+03 -0.82984069560E+01 -0.33538834176E+03  0.53028659887E+03  0.00000000000E+00 0. -1.
          1    1    5    5  503    0  0.21966220173E+03  0.24593125075E+03  0.36777713099E+03  0.49395716519E+03  0.00000000000E+00 0. -1.
         -2    1    5    5    0  503 -0.25958462750E+01  0.15804007090E+02  0.51023125959E+01  0.16808886096E+02  0.00000000000E+00 0.  1.
         -1    1    6    6    0  502  0.68772599240E+02 -0.21985589732E+02 -0.97058844778E+02  0.12096882206E+03  0.00000000000E+00 0.  1.
<mgrwt>
<rscale>  0 0.20084773E+04</rscale>
<asrwt>0</asrwt>
<pdfrwt beam="1">  1        1 0.21316113E+00 0.20084773E+04</pdfrwt>
<pdfrwt beam="2">  1       -1 0.11197966E+00 0.20084773E+04</pdfrwt>
<totfact> 0.53334045E+00</totfact>
</mgrwt>
</event>
<event>
12    1  0.2404959E-007  0.1462483E+04  0.7818608E-02  0.8909792E-01
         -1   -1    0    0    0  501 -0.00000000000E+00  0.00000000000E+00  0.62031429019E+03  0.62031429019E+03  0.00000000000E+00 0.  1.
          1   -1    0    0  501    0  0.00000000000E+00 -0.00000000000E+00 -0.86200472264E+03  0.86200472264E+03  0.00000000000E+00 0. -1.
         23    2    1    2    0    0  0.10851158544E+03  0.42524864280E+03  0.15830888526E+02  0.44954808470E+03  0.96081689447E+02 0.  0.
        254    2    1    2    0    0 -0.10851158544E+03 -0.42524864280E+03 -0.25752132098E+03  0.10327709281E+04  0.89871429656E+03 0.  0.
        -24    2    4    4    0    0 -0.35555477585E+03 -0.58714694363E+03 -0.13932693063E+03  0.70495982955E+03  0.79972718125E+02 0.  0.
         24    2    4    4    0    0  0.24704319042E+03  0.16189830082E+03 -0.11819439035E+03  0.32781109857E+03  0.79049381355E+02 0.  0.
         13    1    3    3    0    0  0.46748387526E+01  0.59088578912E+02  0.34335525866E+02  0.68499946071E+02  0.00000000000E+00 0.  1.
        -13    1    3    3    0    0  0.10383674668E+03  0.36616006389E+03 -0.18504637339E+02  0.38104813863E+03  0.00000000000E+00 0. -1.
          2    1    6    6  502    0  0.74001009100E+02  0.52688382103E+02 -0.76995961125E+02  0.11908229502E+03  0.00000000000E+00 0. -1.
          3    1    5    5  503    0 -0.32432621248E+03 -0.49749180615E+03 -0.10016332380E+03  0.60226097393E+03  0.00000000000E+00 0. -1.
         -4    1    5    5    0  503 -0.31228563380E+02 -0.89655137473E+02 -0.39163606830E+02  0.10269885562E+03  0.00000000000E+00 0.  1.
         -1    1    6    6    0  502  0.17304218132E+03  0.10920991872E+03 -0.41198429228E+02  0.20872880355E+03  0.00000000000E+00 0.  1.
<mgrwt>
<rscale>  0 0.14624826E+04</rscale>
<asrwt>0</asrwt>
<pdfrwt beam="1">  1        1 0.13261611E+00 0.14624826E+04</pdfrwt>
<pdfrwt beam="2">  1       -1 0.95432967E-01 0.14624826E+04</pdfrwt>
<totfact> 0.20128764E+01</totfact>
</mgrwt>
</event>
<event>
12    1  0.2404959E-007  0.2329770E+04  0.7818608E-02  0.8466275E-01
         -2   -1    0    0    0  501 -0.00000000000E+00  0.00000000000E+00  0.10830205709E+04  0.10830205709E+04  0.00000000000E+00 0. -1.
          2   -1    0    0  501    0  0.00000000000E+00 -0.00000000000E+00 -0.12529369737E+04  0.12529369737E+04  0.00000000000E+00 0.  1.
         23    2    1    2    0    0 -0.71057838704E+03 -0.28171639396E+03 -0.70071941728E+03  0.10406921166E+04  0.88014823364E+02 0.  0.
        254    2    1    2    0    0  0.71057838704E+03  0.28171639396E+03  0.53080301442E+03  0.12952654279E+04  0.90093002945E+03 0.  0.
        -24    2    4    4    0    0 -0.53133803076E+02  0.23682420887E+03 -0.12493811421E+03  0.28458730346E+03  0.80445596373E+02 0.  0.
         24    2    4    4    0    0  0.76371219012E+03  0.44892185093E+02  0.65574112863E+03  0.10106781245E+04  0.78754212042E+02 0.  0.
         13    1    3    3    0    0 -0.37049251136E+03 -0.17266194982E+03 -0.42351481328E+03  0.58859293825E+03  0.00000000000E+00 0.  1.
        -13    1    3    3    0    0 -0.34008587568E+03 -0.10905444414E+03 -0.27720460400E+03  0.45209917840E+03  0.00000000000E+00 0. -1.
          2    1    6    6  502    0  0.59841789581E+02  0.19084811221E+02  0.74729907302E+02  0.97620842267E+02  0.00000000000E+00 0. -1.
          3    1    5    5  503    0 -0.32637468046E+02  0.31232353098E+02 -0.44051209073E+01  0.45387986194E+02  0.00000000000E+00 0. -1.
         -4    1    5    5    0  503 -0.20496335030E+02  0.20559185577E+03 -0.12053299331E+03  0.23919931727E+03  0.00000000000E+00 0.  1.
         -1    1    6    6    0  502  0.70387040054E+03  0.25807373872E+02  0.58101122133E+03  0.91305728222E+03  0.00000000000E+00 0.  1.
<mgrwt>
<rscale>  0 0.23297695E+04</rscale>
<asrwt>0</asrwt>
<pdfrwt beam="1">  1        2 0.19275954E+00 0.23297695E+04</pdfrwt>
<pdfrwt beam="2">  1       -2 0.16661855E+00 0.23297695E+04</pdfrwt>
<totfact> 0.35909783E+00</totfact>
</mgrwt>
</event>
<event>
12    1  0.2404959E-007  0.1418921E+04  0.7818608E-02  0.8940236E-01
          1   -1    0    0  501    0  0.00000000000E+00  0.00000000000E+00  0.18299103119E+04  0.18299103119E+04  0.00000000000E+00 0. -1.
         -1   -1    0    0    0  501 -0.00000000000E+00 -0.00000000000E+00 -0.27505933687E+03  0.27505933687E+03  0.00000000000E+00 0.  1.
         23    2    1    2    0    0  0.64791026909E+01 -0.30749555235E+03  0.48543703962E+02  0.32391641542E+03  0.89274069556E+02 0.  0.
        254    2    1    2    0    0 -0.64791026909E+01  0.30749555235E+03  0.15063072711E+04  0.17810532334E+04  0.89921828923E+03 0.  0.
        -24    2    4    4    0    0 -0.29609148000E+02  0.29116012769E+03  0.32056096602E+02  0.30437707068E+03  0.77245622675E+02 0.  0.
         24    2    4    4    0    0  0.23130045309E+02  0.16335424657E+02  0.14742511745E+04  0.14766761627E+04  0.79712727316E+02 0.  0.
         13    1    3    3    0    0  0.28535772603E+02 -0.15412550487E+03  0.61610286297E+02  0.16841849348E+03  0.00000000000E+00 0. -1.
        -13    1    3    3    0    0 -0.22056669912E+02 -0.15337004748E+03 -0.13066582334E+02  0.15549792194E+03  0.00000000000E+00 0.  1.
          2    1    6    6  502    0  0.41477187019E+02 -0.16517885368E+02  0.96767029736E+03  0.96869964487E+03  0.00000000000E+00 0. -1.
          1    1    5    5  503    0 -0.45766504796E+02  0.19406421293E+03 -0.43332935255E+01  0.19943487441E+03  0.00000000000E+00 0. -1.
         -2    1    5    5    0  503  0.16157356797E+02  0.97095914765E+02  0.36389390127E+02  0.10494219626E+03  0.00000000000E+00 0.  1.
         -1    1    6    6    0  502 -0.18347141710E+02  0.32853310025E+02  0.50658087714E+03  0.50797651784E+03  0.00000000000E+00 0.  1.
<mgrwt>
<rscale>  0 0.14189206E+04</rscale>
<asrwt>0</asrwt>
<pdfrwt beam="1">  1        1 0.28152466E+00 0.14189206E+04</pdfrwt>
<pdfrwt beam="2">  1       -1 0.42316822E-01 0.14189206E+04</pdfrwt>
<totfact> 0.20791348E+01</totfact>
</mgrwt>
</event>
<event>
12    1  0.2404959E-007  0.2544868E+04  0.7818608E-02  0.8387173E-01
          2   -1    0    0  501    0  0.00000000000E+00  0.00000000000E+00  0.17080891322E+04  0.17080891322E+04  0.00000000000E+00 0. -1.
         -2   -1    0    0    0  501 -0.00000000000E+00 -0.00000000000E+00 -0.94789425926E+03  0.94789425926E+03  0.00000000000E+00 0.  1.
         23    2    1    2    0    0  0.33081866315E+03  0.51521124296E+03  0.13003265808E+04  0.14401195712E+04  0.90617602598E+02 0.  0.
        254    2    1    2    0    0 -0.33081866315E+03 -0.51521124296E+03 -0.54013170784E+03  0.12158638203E+04  0.90094336939E+03 0.  0.
        -24    2    4    4    0    0  0.24675204886E+03 -0.34918987344E+03 -0.52631208680E+02  0.43799046169E+03  0.79028216960E+02 0.  0.
         24    2    4    4    0    0 -0.57757071201E+03 -0.16602136952E+03 -0.48750049916E+03  0.77787335858E+03  0.79241420921E+02 0.  0.
         13    1    3    3    0    0  0.78233859084E+02  0.88388475348E+02  0.18439316394E+03  0.21893811497E+03  0.00000000000E+00 0.  1.
        -13    1    3    3    0    0  0.25258480407E+03  0.42682276762E+03  0.11159334168E+04  0.12211814562E+04  0.00000000000E+00 0. -1.
          4    1    6    6  502    0 -0.25762319079E+03 -0.34510878477E+02 -0.19678311748E+03  0.32601273670E+03  0.00000000000E+00 0. -1.
          3    1    5    5  503    0  0.24450945134E+03 -0.34718557978E+03 -0.41738953999E+02  0.42669056573E+03  0.00000000000E+00 0. -1.
         -4    1    5    5    0  503  0.22425975147E+01 -0.20042936629E+01 -0.10892254681E+02  0.11299895961E+02  0.00000000000E+00 0.  1.
         -3    1    6    6    0  502 -0.31994752122E+03 -0.13151049104E+03 -0.29071738168E+03  0.45186062187E+03  0.00000000000E+00 0.  1.
<mgrwt>
<rscale>  0 0.25448677E+04</rscale>
<asrwt>0</asrwt>
<pdfrwt beam="1">  1        2 0.26278294E+00 0.25448677E+04</pdfrwt>
<pdfrwt beam="2">  1       -2 0.14582989E+00 0.25448677E+04</pdfrwt>
<totfact> 0.27843685E+00</totfact>
</mgrwt>
</event>
<event>
12    1  0.2404959E-007  0.1787760E+04  0.7818608E-02  0.8712836E-01
         -1   -1    0    0    0  501 -0.00000000000E+00  0.00000000000E+00  0.83112115497E+03  0.83112115497E+03  0.00000000000E+00 0.  1.
          1   -1    0    0  501    0  0.00000000000E+00 -0.00000000000E+00 -0.96137772391E+03  0.96137772391E+03  0.00000000000E+00 0. -1.
         23    2    1    2    0    0 -0.36557021806E+03 -0.54878507161E+03 -0.12355709693E+03  0.67705617470E+03  0.91280163991E+02 0.  0.
        254    2    1    2    0    0  0.36557021806E+03  0.54878507161E+03 -0.66994720143E+01  0.11154427042E+04  0.89964487674E+03 0.  0.
        -24    2    4    4    0    0  0.65896091032E+03  0.34639878178E+03  0.22547345643E+02  0.74907400835E+03  0.79886731319E+02 0.  0.
         24    2    4    4    0    0 -0.29339069227E+03  0.20238628983E+03 -0.29246817658E+02  0.36636869584E+03  0.79575978326E+02 0.  0.
         11    1    3    3    0    0 -0.21616864889E+03 -0.24231597043E+03 -0.57902683353E+02  0.32984638095E+03  0.00000000000E+00 0. -1.
        -11    1    3    3    0    0 -0.14940156916E+03 -0.30646910118E+03 -0.65654413575E+02  0.34720979374E+03  0.00000000000E+00 0.  1.
          4    1    6    6  502    0 -0.25750596042E+03  0.18055482709E+03 -0.51732341450E+02  0.31872496042E+03  0.00000000000E+00 0. -1.
          3    1    5    5  503    0  0.49492593605E+03  0.26874822267E+03  0.50515158001E+02  0.56544590418E+03  0.00000000000E+00 0. -1.
         -4    1    5    5    0  503  0.16403497427E+03  0.77650559114E+02 -0.27967812357E+02  0.18362810417E+03  0.00000000000E+00 0.  1.
         -3    1    6    6    0  502 -0.35884731841E+02  0.21831462741E+02  0.22485523793E+02  0.47643735422E+02  0.00000000000E+00 0.  1.
<mgrwt>
<rscale>  0 0.17877599E+04</rscale>
<asrwt>0</asrwt>
<pdfrwt beam="1">  1        1 0.14790427E+00 0.17877599E+04</pdfrwt>
<pdfrwt beam="2">  1       -1 0.12786479E+00 0.17877599E+04</pdfrwt>
<totfact> 0.81085957E+00</totfact>
</mgrwt>
</event>
<event>
12    1  0.2404959E-007  0.2417476E+04  0.7818608E-02  0.8432990E-01
          2   -1    0    0  501    0  0.00000000000E+00  0.00000000000E+00  0.12421393422E+04  0.12421393422E+04  0.00000000000E+00 0. -1.
         -2   -1    0    0    0  501 -0.00000000000E+00 -0.00000000000E+00 -0.11762346813E+04  0.11762346813E+04  0.00000000000E+00 0.  1.
         23    2    1    2    0    0  0.54250151517E+03  0.88582204291E+03  0.66810804141E+02  0.10447629676E+04  0.89874297044E+02 0.  0.
        254    2    1    2    0    0 -0.54250151517E+03 -0.88582204291E+03 -0.90614328623E+00  0.13736110559E+04  0.89878691916E+03 0.  0.
        -24    2    4    4    0    0 -0.60179626660E+03 -0.10315647451E+04 -0.16280001108E+02  0.11971482094E+04  0.81327897349E+02 0.  0.
         24    2    4    4    0    0  0.59294751421E+02  0.14574270223E+03  0.15373857822E+02  0.17646284650E+03  0.78396287472E+02 0.  0.
         13    1    3    3    0    0  0.46336863943E+03  0.80094216024E+03  0.43129083012E+02  0.92632551399E+03  0.00000000000E+00 0. -1.
        -13    1    3    3    0    0  0.79132875744E+02  0.84879882664E+02  0.23681721129E+02  0.11843745362E+03  0.00000000000E+00 0.  1.
          4    1    6    6  502    0  0.42218001378E+02  0.60407377834E+02 -0.28481493617E+02  0.79010166534E+02  0.00000000000E+00 0. -1.
          1    1    5    5  503    0 -0.51850674477E+03 -0.83741392361E+03  0.36400791103E+01  0.98494902102E+03  0.00000000000E+00 0. -1.
         -2    1    5    5    0  503 -0.83289521824E+02 -0.19415082153E+03 -0.19920080218E+02  0.21219918836E+03  0.00000000000E+00 0.  1.
         -3    1    6    6    0  502  0.17076750043E+02  0.85335324396E+02  0.43855351438E+02  0.97452679961E+02  0.00000000000E+00 0.  1.
<mgrwt>
<rscale>  0 0.24174759E+04</rscale>
<asrwt>0</asrwt>
<pdfrwt beam="1">  1        2 0.19109836E+00 0.24174759E+04</pdfrwt>
<pdfrwt beam="2">  1       -2 0.18095918E+00 0.24174759E+04</pdfrwt>
<totfact> 0.28669621E+00</totfact>
</mgrwt>
</event>
<event>
12    1  0.2404959E-007  0.2629160E+04  0.7818608E-02  0.8358363E-01
          2   -1    0    0  501    0  0.00000000000E+00  0.00000000000E+00  0.21313128673E+04  0.21313128673E+04  0.00000000000E+00 0. -1.
         -2   -1    0    0    0  501 -0.00000000000E+00 -0.00000000000E+00 -0.81082450614E+03  0.81082450614E+03  0.00000000000E+00 0.  1.
         23    2    1    2    0    0 -0.79744558062E+03 -0.73642067252E+03  0.10338237819E+04  0.15016947680E+04  0.89781418212E+02 0.  0.
        254    2    1    2    0    0  0.79744558062E+03  0.73642067252E+03  0.28666457923E+03  0.14404426055E+04  0.90247629208E+03 0.  0.
        -24    2    4    4    0    0  0.48838289127E+03 -0.94646980479E+02 -0.27603723661E+01  0.50400019021E+03  0.80824950840E+02 0.  0.
         24    2    4    4    0    0  0.30906268935E+03  0.83106765299E+03  0.28942495160E+03  0.93644241528E+03  0.83453009081E+02 0.  0.
         13    1    3    3    0    0 -0.18719249164E+02 -0.41106057458E+02  0.45215152125E+02  0.63910313962E+02  0.00000000000E+00 0. -1.
        -13    1    3    3    0    0 -0.77872633146E+03 -0.69531461506E+03  0.98860862981E+03  0.14377844540E+04  0.00000000000E+00 0.  1.
          4    1    6    6  502    0  0.27176312875E+03  0.76393200518E+03  0.28519311594E+03  0.85952453139E+03  0.00000000000E+00 0. -1.
          3    1    5    5  503    0  0.25307104319E+03 -0.52912559219E+02 -0.41636728244E+02  0.26187460542E+03  0.00000000000E+00 0. -1.
         -4    1    5    5    0  503  0.23531184808E+03 -0.41734421260E+02  0.38876355878E+02  0.24212558479E+03  0.00000000000E+00 0.  1.
         -3    1    6    6    0  502  0.37299560601E+02  0.67135647814E+02  0.42318356549E+01  0.76917883885E+02  0.00000000000E+00 0.  1.
<mgrwt>
<rscale>  0 0.26291601E+04</rscale>
<asrwt>0</asrwt>
<pdfrwt beam="1">  1        2 0.32789428E+00 0.26291601E+04</pdfrwt>
<pdfrwt beam="2">  1       -2 0.12474223E+00 0.26291601E+04</pdfrwt>
<totfact> 0.24001024E+00</totfact>
</mgrwt>
</event>
<event>
12    1  0.2404959E-007  0.1963838E+04  0.7818608E-02  0.8623717E-01
         -2   -1    0    0    0  501 -0.00000000000E+00  0.00000000000E+00  0.69460493580E+03  0.69460493580E+03  0.00000000000E+00 0.  1.
          2   -1    0    0  501    0  0.00000000000E+00 -0.00000000000E+00 -0.13880771661E+04  0.13880771661E+04  0.00000000000E+00 0. -1.
         23    2    1    2    0    0 -0.21798465249E+02  0.20639746246E+03  0.51755676717E+03  0.56482193002E+03  0.89909508851E+02 0.  0.
        254    2    1    2    0    0  0.21798465249E+02 -0.20639746246E+03 -0.12110289975E+04  0.15178601719E+04  0.89119761170E+03 0.  0.
        -24    2    4    4    0    0 -0.11178366981E+02 -0.50809209935E+03 -0.41028252155E+03  0.65785182311E+03  0.78452127909E+02 0.  0.
         24    2    4    4    0    0  0.32976832230E+02  0.30169463689E+03 -0.80074647596E+03  0.86000834881E+03  0.79450084158E+02 0.  0.
         11    1    3    3    0    0 -0.28009279021E+02  0.78349198269E+02  0.30906771520E+03  0.32007181875E+03  0.00000000000E+00 0.  1.
        -11    1    3    3    0    0  0.62108137722E+01  0.12804826419E+03  0.20848905197E+03  0.24475011126E+03  0.00000000000E+00 0. -1.
          2    1    6    6  502    0 -0.32787016116E+00  0.25969247003E+03 -0.64622133032E+03  0.69644977870E+03  0.00000000000E+00 0. -1.
          1    1    5    5  503    0  0.21480362013E+02 -0.39023922344E+03 -0.29361116353E+03  0.48883082228E+03  0.00000000000E+00 0. -1.
         -2    1    5    5    0  503 -0.32658728994E+02 -0.11785287591E+03 -0.11667135802E+03  0.16902100083E+03  0.00000000000E+00 0.  1.
         -1    1    6    6    0  502  0.33304702391E+02  0.42002166852E+02 -0.15452514564E+03  0.16355857011E+03  0.00000000000E+00 0.  1.
<mgrwt>
<rscale>  0 0.19638383E+04</rscale>
<asrwt>0</asrwt>
<pdfrwt beam="1">  1        2 0.21355033E+00 0.19638383E+04</pdfrwt>
<pdfrwt beam="2">  1       -2 0.10686230E+00 0.19638383E+04</pdfrwt>
<totfact> 0.96531216E+00</totfact>
</mgrwt>
</event>
<event>
12    1  0.2404959E-007  0.1733395E+04  0.7818608E-02  0.8742544E-01
         -2   -1    0    0    0  501 -0.00000000000E+00  0.00000000000E+00  0.12261729853E+04  0.12261729853E+04  0.00000000000E+00 0.  1.
          2   -1    0    0  501    0  0.00000000000E+00 -0.00000000000E+00 -0.61260930884E+03  0.61260930884E+03  0.00000000000E+00 0. -1.
         23    2    1    2    0    0  0.13987270762E+03  0.43992036328E+02 -0.42390162878E+03  0.45739619685E+03  0.89548960983E+02 0.  0.
        254    2    1    2    0    0 -0.13987270762E+03 -0.43992036328E+02  0.10374653053E+04  0.13813860973E+04  0.90021864937E+03 0.  0.
        -24    2    4    4    0    0 -0.42454761304E+03  0.22076776192E+03  0.39289214495E+03  0.62441936043E+03  0.80970486461E+02 0.  0.
         24    2    4    4    0    0  0.28467490542E+03 -0.26475979825E+03  0.64457316032E+03  0.75696673690E+03  0.79915763283E+02 0.  0.
         11    1    3    3    0    0  0.43209566549E+01 -0.78091323759E+01  0.43255661486E+00  0.89353410737E+01  0.00000000000E+00 0.  1.
        -11    1    3    3    0    0  0.13555175096E+03  0.51801168704E+02 -0.42433418539E+03  0.44846085577E+03  0.00000000000E+00 0. -1.
          2    1    6    6  502    0  0.72263183680E+02 -0.10530170422E+03  0.16378582182E+03  0.20769259028E+03  0.00000000000E+00 0. -1.
          1    1    5    5  503    0 -0.27920510805E+03  0.14961955257E+03  0.30739658213E+03  0.44140022834E+03  0.00000000000E+00 0. -1.
         -2    1    5    5    0  503 -0.14534250499E+03  0.71148209349E+02  0.85495562820E+02  0.18301913209E+03  0.00000000000E+00 0.  1.
         -1    1    6    6    0  502  0.21241172174E+03 -0.15945809403E+03  0.48078733850E+03  0.54927414662E+03  0.00000000000E+00 0.  1.
<mgrwt>
<rscale>  0 0.17333955E+04</rscale>
<asrwt>0</asrwt>
<pdfrwt beam="1">  1        2 0.94247586E-01 0.17333955E+04</pdfrwt>
<pdfrwt beam="2">  1       -2 0.18864200E+00 0.17333955E+04</pdfrwt>
<totfact> 0.72585866E+00</totfact>
</mgrwt>
</event>
<event>
12    1  0.2404959E-007  0.3699800E+04  0.7818608E-02  0.8068006E-01
          1   -1    0    0  501    0  0.00000000000E+00  0.00000000000E+00  0.46355740422E+04  0.46355740422E+04  0.00000000000E+00 0. -1.
         -1   -1    0    0    0  501 -0.00000000000E+00 -0.00000000000E+00 -0.73823217444E+03  0.73823217444E+03  0.00000000000E+00 0.  1.
         23    2    1    2    0    0 -0.10483606221E+04 -0.86103353871E+03  0.25472175646E+03  0.13837445776E+04  0.97093429354E+02 0.  0.
        254    2    1    2    0    0  0.10483606221E+04  0.86103353871E+03  0.36426201113E+04  0.39900616391E+04  0.90081732874E+03 0.  0.
        -24    2    4    4    0    0  0.73804662894E+03  0.72149631304E+03  0.34253426816E+04  0.35783811542E+04  0.81052093905E+02 0.  0.
         24    2    4    4    0    0  0.31031399312E+03  0.13953722567E+03  0.21727742963E+03  0.41168048485E+03  0.80659336119E+02 0.  0.
         11    1    3    3    0    0 -0.68653905637E+03 -0.53706010388E+03  0.12101948776E+03  0.88000860650E+03  0.00000000000E+00 0.  1.
        -11    1    3    3    0    0 -0.36182156569E+03 -0.32397343484E+03  0.13370226870E+03  0.50373597106E+03  0.00000000000E+00 0. -1.
          2    1    6    6  502    0  0.29329273182E+03  0.11472835605E+03  0.17654758990E+03  0.36104331280E+03  0.00000000000E+00 0. -1.
          3    1    5    5  503    0  0.68139596400E+03  0.63430828243E+03  0.30509777354E+04  0.31898452312E+04  0.00000000000E+00 0. -1.
         -4    1    5    5    0  503  0.56650664942E+02  0.87188030610E+02  0.37436494620E+03  0.38853592300E+03  0.00000000000E+00 0.  1.
         -1    1    6    6    0  502  0.17021261302E+02  0.24808869625E+02  0.40729839733E+02  0.50637172049E+02  0.00000000000E+00 0.  1.
<mgrwt>
<rscale>  0 0.36997999E+04</rscale>
<asrwt>0</asrwt>
<pdfrwt beam="1">  1        1 0.71316522E+00 0.36997999E+04</pdfrwt>
<pdfrwt beam="2">  1       -1 0.11357418E+00 0.36997999E+04</pdfrwt>
<totfact> 0.13080131E-02</totfact>
</mgrwt>
</event>
<event>
12    1  0.2404959E-007  0.1291082E+04  0.7818608E-02  0.9036667E-01
         -1   -1    0    0    0  501 -0.00000000000E+00  0.00000000000E+00  0.96878056924E+03  0.96878056924E+03  0.00000000000E+00 0.  1.
          1   -1    0    0  501    0  0.00000000000E+00 -0.00000000000E+00 -0.43015217476E+03  0.43015217476E+03  0.00000000000E+00 0. -1.
         23    2    1    2    0    0  0.75662648890E+02  0.11548608182E+03  0.45587425375E+03  0.48521466722E+03  0.92466569799E+02 0.  0.
        254    2    1    2    0    0 -0.75662648890E+02 -0.11548608182E+03  0.82754140739E+02  0.91371807678E+03  0.89942793180E+03 0.  0.
        -24    2    4    4    0    0  0.12981473325E+03  0.21699724593E+02 -0.36419886626E+03  0.39674720190E+03  0.86283167622E+02 0.  0.
         24    2    4    4    0    0 -0.20547738214E+03 -0.13718580641E+03  0.44695300700E+03  0.51697087488E+03  0.80318086082E+02 0.  0.
         13    1    3    3    0    0 -0.81000317812E+01 -0.23334523693E+01  0.17132626391E+01  0.86017895630E+01  0.00000000000E+00 0. -1.
        -13    1    3    3    0    0  0.83762680671E+02  0.11781953419E+03  0.45416099111E+03  0.47661287766E+03  0.00000000000E+00 0.  1.
          4    1    6    6  502    0 -0.38188814832E+02 -0.44886952274E+02  0.53564215421E+02  0.79638867624E+02  0.00000000000E+00 0. -1.
          3    1    5    5  503    0  0.24962028634E+02  0.34485963859E+02 -0.17454335890E+03  0.17966014781E+03  0.00000000000E+00 0. -1.
         -4    1    5    5    0  503  0.10485270462E+03 -0.12786239266E+02 -0.18965550736E+03  0.21708705409E+03  0.00000000000E+00 0.  1.
         -3    1    6    6    0  502 -0.16728856731E+03 -0.92298854138E+02  0.39338879158E+03  0.43733200725E+03  0.00000000000E+00 0.  1.
<mgrwt>
<rscale>  0 0.12910818E+04</rscale>
<asrwt>0</asrwt>
<pdfrwt beam="1">  1        1 0.66177258E-01 0.12910818E+04</pdfrwt>
<pdfrwt beam="2">  1       -1 0.14904316E+00 0.12910818E+04</pdfrwt>
<totfact> 0.18995853E+01</totfact>
</mgrwt>
</event>
<event>
12    1  0.2674078E-007  0.2266145E+04  0.7818608E-02  0.8491391E-01
         -2   -1    0    0    0  501 -0.00000000000E+00  0.00000000000E+00  0.73442353386E+03  0.73442353386E+03  0.00000000000E+00 0.  1.
          2   -1    0    0  501    0  0.00000000000E+00 -0.00000000000E+00 -0.17481102620E+04  0.17481102620E+04  0.00000000000E+00 0. -1.
         23    2    1    2    0    0  0.65891905118E+03  0.68106093202E+03 -0.52971411256E+03  0.10894605874E+04  0.91153833540E+02 0.  0.
        254    2    1    2    0    0 -0.65891905118E+03 -0.68106093202E+03 -0.48397261558E+03  0.13930732084E+04  0.89911354248E+03 0.  0.
        -24    2    4    4    0    0 -0.42068155721E+03 -0.87739978597E+03 -0.28739322671E+03  0.10176489363E+04  0.78810746708E+02 0.  0.
         24    2    4    4    0    0 -0.23823749397E+03  0.19633885395E+03 -0.19657938887E+03  0.37542427213E+03  0.83629413887E+02 0.  0.
         13    1    3    3    0    0  0.35492915341E+03  0.30166538716E+03 -0.25387713009E+03  0.53050005366E+03  0.00000000000E+00 0.  1.
        -13    1    3    3    0    0  0.30398989778E+03  0.37939554486E+03 -0.27583698247E+03  0.55896053377E+03  0.00000000000E+00 0. -1.
          4    1    6    6  502    0 -0.20072411431E+03  0.11896182650E+03 -0.15302869577E+03  0.27903381150E+03  0.00000000000E+00 0. -1.
          1    1    5    5  503    0 -0.17759602924E+03 -0.43282351633E+03 -0.10809902676E+03  0.48016866357E+03  0.00000000000E+00 0. -1.
         -2    1    5    5    0  503 -0.24308552797E+03 -0.44457626964E+03 -0.17929419995E+03  0.53748027273E+03  0.00000000000E+00 0.  1.
         -3    1    6    6    0  502 -0.37513379665E+02  0.77377027448E+02 -0.43550693100E+02  0.96390460629E+02  0.00000000000E+00 0.  1.
<mgrwt>
<rscale>  0 0.22661450E+04</rscale>
<asrwt>0</asrwt>
<pdfrwt beam="1">  1        2 0.26894004E+00 0.22661450E+04</pdfrwt>
<pdfrwt beam="2">  1       -2 0.11298824E+00 0.22661450E+04</pdfrwt>
<totfact> 0.51608192E+00</totfact>
</mgrwt>
</event>
<event>
12    1  0.2404959E-007  0.2555724E+04  0.7818608E-02  0.8383398E-01
         -2   -1    0    0    0  501 -0.00000000000E+00  0.00000000000E+00  0.16159567599E+04  0.16159567599E+04  0.00000000000E+00 0.  1.
          2   -1    0    0  501    0  0.00000000000E+00 -0.00000000000E+00 -0.10105044597E+04  0.10105044597E+04  0.00000000000E+00 0. -1.
         23    2    1    2    0    0  0.30801937648E+03  0.72839556432E+03  0.10695881132E+04  0.13334618863E+04  0.93090470714E+02 0.  0.
        254    2    1    2    0    0 -0.30801937648E+03 -0.72839556432E+03 -0.46413581310E+03  0.12929993333E+04  0.91158608401E+03 0.  0.
        -24    2    4    4    0    0  0.21423225244E+03 -0.55627327796E+03 -0.42383114373E+03  0.73582644457E+03  0.80450608338E+02 0.  0.
         24    2    4    4    0    0 -0.52225162892E+03 -0.17212228636E+03 -0.40304669375E+02  0.55717288875E+03  0.80276498512E+02 0.  0.
         13    1    3    3    0    0  0.19735701871E+03  0.55490115971E+03  0.82830548370E+03  0.10163439694E+04  0.00000000000E+00 0.  1.
        -13    1    3    3    0    0  0.11066235777E+03  0.17349440461E+03  0.24128262953E+03  0.31711791683E+03  0.00000000000E+00 0. -1.
          2    1    6    6  502    0 -0.18424831768E+03 -0.95966828790E+02  0.46329721394E+01  0.20779446390E+03  0.00000000000E+00 0. -1.
          1    1    5    5  503    0  0.71195105051E+02 -0.15757977018E+03 -0.16742903605E+03  0.24069193810E+03  0.00000000000E+00 0. -1.
         -2    1    5    5    0  503  0.14303714739E+03 -0.39869350778E+03 -0.25640210767E+03  0.49513450647E+03  0.00000000000E+00 0.  1.
         -1    1    6    6    0  502 -0.33800331124E+03 -0.76155457565E+02 -0.44937641514E+02  0.34937842485E+03  0.00000000000E+00 0.  1.
<mgrwt>
<rscale>  0 0.25557242E+04</rscale>
<asrwt>0</asrwt>
<pdfrwt beam="1">  1        2 0.15546222E+00 0.25557242E+04</pdfrwt>
<pdfrwt beam="2">  1       -2 0.24860873E+00 0.25557242E+04</pdfrwt>
<totfact> 0.14429304E+00</totfact>
</mgrwt>
</event>
<event>
12    1  0.2462950E-007  0.1808767E+04  0.7818608E-02  0.8701651E-01
         -2   -1    0    0    0  501 -0.00000000000E+00  0.00000000000E+00  0.71751818784E+03  0.71751818784E+03  0.00000000000E+00 0. -1.
          2   -1    0    0  501    0  0.00000000000E+00 -0.00000000000E+00 -0.11399144581E+04  0.11399144581E+04  0.00000000000E+00 0.  1.
         23    2    1    2    0    0  0.59178135108E+03 -0.32507410092E+03 -0.20252904512E+03  0.71096105714E+03  0.92570362798E+02 0.  0.
        254    2    1    2    0    0 -0.59178135108E+03  0.32507410092E+03 -0.21986722516E+03  0.11464715888E+04  0.90009842167E+03 0.  0.
        -24    2    4    4    0    0 -0.66805336508E+02  0.42213638609E+03  0.18384907981E+03  0.47204113382E+03  0.79751278510E+02 0.  0.
         24    2    4    4    0    0 -0.52497601457E+03 -0.97062285169E+02 -0.40371630497E+03  0.67443045500E+03  0.82756755920E+02 0.  0.
         11    1    3    3    0    0  0.21526185795E+03 -0.81878254525E+02 -0.37640240879E+02  0.23336345855E+03  0.00000000000E+00 0. -1.
        -11    1    3    3    0    0  0.37651949313E+03 -0.24319584640E+03 -0.16488880424E+03  0.47759759859E+03  0.00000000000E+00 0.  1.
          2    1    6    6  502    0 -0.11414806040E+03  0.15815943080E+01 -0.11926287776E+03  0.16509365568E+03  0.00000000000E+00 0. -1.
          3    1    5    5  503    0  0.12508118721E+01  0.69768740002E+01 -0.71013086335E+01  0.10033438367E+02  0.00000000000E+00 0. -1.
         -4    1    5    5    0  503 -0.68056148380E+02  0.41515951209E+03  0.19095038845E+03  0.46200769545E+03  0.00000000000E+00 0.  1.
         -1    1    6    6    0  502 -0.41082795418E+03 -0.98643879477E+02 -0.28445342721E+03  0.50933679932E+03  0.00000000000E+00 0.  1.
<mgrwt>
<rscale>  0 0.18087668E+04</rscale>
<asrwt>0</asrwt>
<pdfrwt beam="1">  1        2 0.17537145E+00 0.18087668E+04</pdfrwt>
<pdfrwt beam="2">  1       -2 0.11038741E+00 0.18087668E+04</pdfrwt>
<totfact> 0.12657069E+01</totfact>
</mgrwt>
</event>
<event>
12    1  0.2404959E-007  0.2883822E+04  0.7818608E-02  0.8277707E-01
         -2   -1    0    0    0  501 -0.00000000000E+00  0.00000000000E+00  0.11129377397E+04  0.11129377397E+04  0.00000000000E+00 0.  1.
          2   -1    0    0  501    0  0.00000000000E+00 -0.00000000000E+00 -0.18681258101E+04  0.18681258101E+04  0.00000000000E+00 0. -1.
         23    2    1    2    0    0  0.12201360153E+04  0.17586495857E+03 -0.76841500137E+03  0.14547074594E+04  0.77793306095E+02 0.  0.
        254    2    1    2    0    0 -0.12201360153E+04 -0.17586495857E+03  0.13226930985E+02  0.15263560903E+04  0.89995976755E+03 0.  0.
        -24    2    4    4    0    0  0.96934130258E+02 -0.41917569545E+02  0.14275154626E+03  0.19367967240E+03  0.77333713832E+02 0.  0.
         24    2    4    4    0    0 -0.13170701456E+04 -0.13394738903E+03 -0.12952461527E+03  0.13326764179E+04  0.81450214873E+02 0.  0.
         13    1    3    3    0    0  0.32400480712E+03  0.15104813228E+02 -0.21833798746E+03  0.39099711915E+03  0.00000000000E+00 0. -1.
        -13    1    3    3    0    0  0.89613120823E+03  0.16076014534E+03 -0.55007701390E+03  0.10637103402E+04  0.00000000000E+00 0.  1.
          2    1    6    6  502    0 -0.99312529181E+03 -0.68544636880E+02 -0.83098705728E+02  0.99895025270E+03  0.00000000000E+00 0. -1.
          3    1    5    5  503    0  0.68080008893E+02 -0.44665530500E+02  0.47833638846E+02  0.94434920612E+02  0.00000000000E+00 0. -1.
         -4    1    5    5    0  503  0.28854121365E+02  0.27479609550E+01  0.94917907414E+02  0.99244751785E+02  0.00000000000E+00 0.  1.
         -1    1    6    6    0  502 -0.32394485380E+03 -0.65402752146E+02 -0.46425909546E+02  0.33372616524E+03  0.00000000000E+00 0.  1.
<mgrwt>
<rscale>  0 0.28838223E+04</rscale>
<asrwt>0</asrwt>
<pdfrwt beam="1">  1        2 0.28740397E+00 0.28838223E+04</pdfrwt>
<pdfrwt beam="2">  1       -2 0.17122119E+00 0.28838223E+04</pdfrwt>
<totfact> 0.14281726E+00</totfact>
</mgrwt>
</event>
<event>
12    1  0.2404959E-007  0.3722843E+04  0.7818608E-02  0.8062918E-01
         -2   -1    0    0    0  501 -0.00000000000E+00  0.00000000000E+00  0.12513849693E+04  0.12513849693E+04  0.00000000000E+00 0.  1.
          2   -1    0    0  501    0  0.00000000000E+00 -0.00000000000E+00 -0.27688434930E+04  0.27688434930E+04  0.00000000000E+00 0. -1.
         23    2    1    2    0    0 -0.14618325077E+04  0.89639741575E+03 -0.32967895299E+03  0.17486182467E+04  0.92168069000E+02 0.  0.
        254    2    1    2    0    0  0.14618325077E+04 -0.89639741575E+03 -0.11877795708E+04  0.22716102156E+04  0.89939427126E+03 0.  0.
        -24    2    4    4    0    0  0.26149547045E+03 -0.64392599001E+03 -0.52785664586E+03  0.87650558517E+03  0.81294775893E+02 0.  0.
         24    2    4    4    0    0  0.12003370373E+04 -0.25247142574E+03 -0.65992292490E+03  0.13951046304E+04  0.79169685317E+02 0.  0.
         13    1    3    3    0    0 -0.11535285733E+04  0.73499680067E+03 -0.23351818735E+03  0.13875803437E+04  0.00000000000E+00 0. -1.
        -13    1    3    3    0    0 -0.30830393439E+03  0.16140061508E+03 -0.96160765638E+02  0.36103790294E+03  0.00000000000E+00 0.  1.
          2    1    6    6  502    0  0.61110323813E+02 -0.17595761358E+02 -0.15987197631E+02  0.65571891709E+02  0.00000000000E+00 0. -1.
          1    1    5    5  503    0  0.13196166088E+03 -0.22615339226E+03 -0.21385333852E+03  0.33807171898E+03  0.00000000000E+00 0. -1.
         -2    1    5    5    0  503  0.12953380957E+03 -0.41777259775E+03 -0.31400330734E+03  0.53843386620E+03  0.00000000000E+00 0.  1.
         -1    1    6    6    0  502  0.11392267135E+04 -0.23487566438E+03 -0.64393572727E+03  0.13295327387E+04  0.00000000000E+00 0.  1.
<mgrwt>
<rscale>  0 0.37228425E+04</rscale>
<asrwt>0</asrwt>
<pdfrwt beam="1">  1        2 0.42597592E+00 0.37228425E+04</pdfrwt>
<pdfrwt beam="2">  1       -2 0.19252077E+00 0.37228425E+04</pdfrwt>
<totfact> 0.29040953E-01</totfact>
</mgrwt>
</event>
<event>
12    1  0.2404959E-007  0.2022355E+04  0.7818608E-02  0.8596240E-01
         -2   -1    0    0    0  501 -0.00000000000E+00  0.00000000000E+00  0.54348989436E+03  0.54348989436E+03  0.00000000000E+00 0.  1.
          2   -1    0    0  501    0  0.00000000000E+00 -0.00000000000E+00 -0.18813223623E+04  0.18813223623E+04  0.00000000000E+00 0. -1.
         23    2    1    2    0    0 -0.46375535363E+03  0.65973328748E+03 -0.59824361853E+03  0.10082969676E+04  0.91925562519E+02 0.  0.
        254    2    1    2    0    0  0.46375535363E+03 -0.65973328748E+03 -0.73958884939E+03  0.14165152891E+04  0.89955925842E+03 0.  0.
        -24    2    4    4    0    0  0.43676375245E+03 -0.78352216977E+03 -0.84439772721E+03  0.12344843145E+04  0.79211331346E+02 0.  0.
         24    2    4    4    0    0  0.26991601181E+02  0.12378888229E+03  0.10480887783E+03  0.18203097458E+03  0.78090594333E+02 0.  0.
         11    1    3    3    0    0 -0.40550875101E+03  0.56902559707E+03 -0.55426334623E+03  0.89187181491E+03  0.00000000000E+00 0. -1.
        -11    1    3    3    0    0 -0.58246602623E+02  0.90707690416E+02 -0.43980272306E+02  0.11642515265E+03  0.00000000000E+00 0.  1.
          4    1    6    6  502    0 -0.21563697532E+01  0.33910207385E+02  0.75999685767E+02  0.83249650643E+02  0.00000000000E+00 0. -1.
          1    1    5    5  503    0  0.18323036796E+03 -0.40890380208E+03 -0.42925629174E+03  0.62051321589E+03  0.00000000000E+00 0. -1.
         -2    1    5    5    0  503  0.25353338449E+03 -0.37461836769E+03 -0.41514143547E+03  0.61397109859E+03  0.00000000000E+00 0.  1.
         -3    1    6    6    0  502  0.29147970935E+02  0.89878674905E+02  0.28809192060E+02  0.98781323941E+02  0.00000000000E+00 0.  1.
<mgrwt>
<rscale>  0 0.20223548E+04</rscale>
<asrwt>0</asrwt>
<pdfrwt beam="1">  1        2 0.28943421E+00 0.20223548E+04</pdfrwt>
<pdfrwt beam="2">  1       -2 0.83613830E-01 0.20223548E+04</pdfrwt>
<totfact> 0.90206223E+00</totfact>
</mgrwt>
</event>
<event>
12    1  0.2404959E-007  0.2404359E+04  0.7818608E-02  0.8437873E-01
          1   -1    0    0  501    0  0.00000000000E+00  0.00000000000E+00  0.22863815789E+04  0.22863815789E+04  0.00000000000E+00 0. -1.
         -1   -1    0    0    0  501 -0.00000000000E+00 -0.00000000000E+00 -0.63210618780E+03  0.63210618780E+03  0.00000000000E+00 0.  1.
         23    2    1    2    0    0 -0.99700314194E+03 -0.25447883794E+03  0.82445930071E+03  0.13216845707E+04  0.91335764105E+02 0.  0.
        254    2    1    2    0    0  0.99700314194E+03  0.25447883794E+03  0.82981609040E+03  0.15968031960E+04  0.89577394415E+03 0.  0.
        -24    2    4    4    0    0  0.17011058453E+02 -0.22492446761E+03  0.29288963008E+03  0.37823208634E+03  0.79967390177E+02 0.  0.
         24    2    4    4    0    0  0.97999208348E+03  0.47940330555E+03  0.53692646032E+03  0.12185711097E+04  0.80084408841E+02 0.  0.
         13    1    3    3    0    0 -0.78324602138E+03 -0.23761762295E+03  0.66057399510E+03  0.10518053374E+04  0.00000000000E+00 0. -1.
        -13    1    3    3    0    0 -0.21375712055E+03 -0.16861214986E+02  0.16388530560E+03  0.26987923327E+03  0.00000000000E+00 0.  1.
          2    1    6    6  502    0  0.86853833880E+03  0.44543550169E+03  0.46088676341E+03  0.10794388546E+04  0.00000000000E+00 0. -1.
          3    1    5    5  503    0  0.44040225882E+02 -0.94133046353E+02  0.15168827068E+03  0.18387469476E+03  0.00000000000E+00 0. -1.
         -4    1    5    5    0  503 -0.27029167428E+02 -0.13079142126E+03  0.14120135940E+03  0.19435739158E+03  0.00000000000E+00 0.  1.
         -1    1    6    6    0  502  0.11145374469E+03  0.33967803858E+02  0.76039696911E+02  0.13913225510E+03  0.00000000000E+00 0.  1.
<mgrwt>
<rscale>  0 0.24043593E+04</rscale>
<asrwt>0</asrwt>
<pdfrwt beam="1">  1        1 0.35175101E+00 0.24043593E+04</pdfrwt>
<pdfrwt beam="2">  1       -1 0.97247107E-01 0.24043593E+04</pdfrwt>
<totfact> 0.17297050E+00</totfact>
</mgrwt>
</event>
<event>
12    1  0.2404959E-007  0.2004981E+04  0.7818608E-02  0.8604295E-01
         -2   -1    0    0    0  501 -0.00000000000E+00  0.00000000000E+00  0.36215073800E+03  0.36215073800E+03  0.00000000000E+00 0.  1.
          2   -1    0    0  501    0  0.00000000000E+00 -0.00000000000E+00 -0.27750531233E+04  0.27750531233E+04  0.00000000000E+00 0. -1.
         23    2    1    2    0    0  0.60521644738E+03 -0.50774112756E+03 -0.79983615416E+03  0.11280568279E+04  0.93200497711E+02 0.  0.
        254    2    1    2    0    0 -0.60521644738E+03  0.50774112756E+03 -0.16130662311E+04  0.20091470333E+04  0.90033390184E+03 0.  0.
        -24    2    4    4    0    0 -0.53827379987E+03  0.61909078381E+03 -0.69354369363E+03  0.10771704579E+04  0.79254389263E+02 0.  0.
         24    2    4    4    0    0 -0.66942647502E+02 -0.11134965625E+03 -0.91952253750E+03  0.93197657542E+03  0.78603919540E+02 0.  0.
         11    1    3    3    0    0  0.25515185417E+03 -0.23342068253E+03 -0.28838538005E+03  0.45028192407E+03  0.00000000000E+00 0. -1.
        -11    1    3    3    0    0  0.35006459321E+03 -0.27432044503E+03 -0.51145077411E+03  0.67777490387E+03  0.00000000000E+00 0.  1.
          4    1    6    6  502    0 -0.20724642392E+02 -0.35120503543E+02 -0.10582386995E+03  0.11340922371E+03  0.00000000000E+00 0. -1.
          3    1    5    5  503    0 -0.79916432036E+02  0.80156115779E+02 -0.13221328964E+03  0.17404595073E+03  0.00000000000E+00 0. -1.
         -4    1    5    5    0  503 -0.45835736784E+03  0.53893466803E+03 -0.56133040398E+03  0.90312450719E+03  0.00000000000E+00 0.  1.
         -3    1    6    6    0  502 -0.46218005111E+02 -0.76229152708E+02 -0.81369866755E+03  0.81856735172E+03  0.00000000000E+00 0.  1.
<mgrwt>
<rscale>  0 0.20049813E+04</rscale>
<asrwt>0</asrwt>
<pdfrwt beam="1">  1        2 0.42693125E+00 0.20049813E+04</pdfrwt>
<pdfrwt beam="2">  1       -2 0.55715498E-01 0.20049813E+04</pdfrwt>
<totfact> 0.67380142E+00</totfact>
</mgrwt>
</event>
<event>
12    1  0.2482447E-007  0.2709024E+04  0.7818608E-02  0.8332083E-01
          2   -1    0    0  501    0  0.00000000000E+00  0.00000000000E+00  0.75927530704E+03  0.75927530704E+03  0.00000000000E+00 0. -1.
         -2   -1    0    0    0  501 -0.00000000000E+00 -0.00000000000E+00 -0.24163872975E+04  0.24163872975E+04  0.00000000000E+00 0.  1.
         23    2    1    2    0    0  0.60444311706E+03 -0.10257757925E+04 -0.52867778946E+03  0.13058949699E+04  0.91071449295E+02 0.  0.
        254    2    1    2    0    0 -0.60444311706E+03  0.10257757925E+04 -0.11284342010E+04  0.18697676347E+04  0.89727353875E+03 0.  0.
        -24    2    4    4    0    0 -0.21618182588E+03  0.10504908153E+04 -0.69045023752E+03  0.12785206519E+04  0.87338376580E+02 0.  0.
         24    2    4    4    0    0 -0.38826129118E+03 -0.24715022732E+02 -0.43798396347E+03  0.59124698276E+03  0.79908571443E+02 0.  0.
         11    1    3    3    0    0  0.28503212620E+03 -0.40624544734E+03 -0.24358012915E+03  0.55282000305E+03  0.00000000000E+00 0.  1.
        -11    1    3    3    0    0  0.31941099087E+03 -0.61953034521E+03 -0.28509766030E+03  0.75307496681E+03  0.00000000000E+00 0. -1.
          2    1    6    6  502    0 -0.74423689697E+02 -0.79519277909E+01 -0.13684911557E+03  0.15598012430E+03  0.00000000000E+00 0. -1.
          1    1    5    5  503    0 -0.74487820296E+02  0.21706605165E+03 -0.12330908440E+03  0.26052108637E+03  0.00000000000E+00 0. -1.
         -2    1    5    5    0  503 -0.14169400559E+03  0.83342476363E+03 -0.56714115312E+03  0.10179995655E+04  0.00000000000E+00 0.  1.
         -1    1    6    6    0  502 -0.31383760148E+03 -0.16763094941E+02 -0.30113484790E+03  0.43526685846E+03  0.00000000000E+00 0.  1.
<mgrwt>
<rscale>  0 0.27090243E+04</rscale>
<asrwt>0</asrwt>
<pdfrwt beam="1">  1        2 0.11681159E+00 0.27090243E+04</pdfrwt>
<pdfrwt beam="2">  1       -2 0.37175189E+00 0.27090243E+04</pdfrwt>
<totfact> 0.36601762E-01</totfact>
</mgrwt>
</event>
<event>
12    1  0.2404959E-007  0.1766704E+04  0.7818608E-02  0.8724209E-01
         -3   -1    0    0    0  501 -0.00000000000E+00  0.00000000000E+00  0.15709800673E+04  0.15709800673E+04  0.00000000000E+00 0.  1.
          3   -1    0    0  501    0  0.00000000000E+00 -0.00000000000E+00 -0.49670305959E+03  0.49670305959E+03  0.00000000000E+00 0. -1.
         23    2    1    2    0    0  0.21135101900E+02  0.59532454849E+03  0.69501905466E+03  0.92003017045E+03  0.92444673388E+02 0.  0.
        254    2    1    2    0    0 -0.21135101900E+02 -0.59532454849E+03  0.37925795309E+03  0.11476529565E+04  0.90466165109E+03 0.  0.
        -24    2    4    4    0    0  0.41524306043E+02  0.23077085523E+03  0.12529516740E+03  0.27723975754E+03  0.78635542709E+02 0.  0.
         24    2    4    4    0    0 -0.62659407943E+02 -0.82609540371E+03  0.25396278570E+03  0.87041319893E+03  0.82232736251E+02 0.  0.
         13    1    3    3    0    0 -0.32597160558E+02  0.20776683341E+03  0.27173215473E+03  0.34361023828E+03  0.00000000000E+00 0. -1.
        -13    1    3    3    0    0  0.53732262458E+02  0.38755771508E+03  0.42328689993E+03  0.57641993216E+03  0.00000000000E+00 0.  1.
          4    1    6    6  502    0 -0.64782382727E+02 -0.51078764048E+03  0.12564217803E+03  0.52998747880E+03  0.00000000000E+00 0. -1.
          1    1    5    5  503    0  0.71870807649E+01  0.58107968430E+02  0.73025585692E+02  0.93599819929E+02  0.00000000000E+00 0. -1.
         -2    1    5    5    0  503  0.34337225278E+02  0.17266288679E+03  0.52269581703E+02  0.18363993762E+03  0.00000000000E+00 0.  1.
         -3    1    6    6    0  502  0.21229747835E+01 -0.31530776323E+03  0.12832060767E+03  0.34042572013E+03  0.00000000000E+00 0.  1.
<mgrwt>
<rscale>  0 0.17667038E+04</rscale>
<asrwt>0</asrwt>
<pdfrwt beam="1">  1        3 0.76415856E-01 0.17667038E+04</pdfrwt>
<pdfrwt beam="2">  1       -3 0.24168924E+00 0.17667038E+04</pdfrwt>
<totfact> 0.32630897E-01</totfact>
</mgrwt>
</event>
<event>
12    1  0.2404959E-007  0.2876744E+04  0.7818608E-02  0.8279831E-01
          1   -1    0    0  501    0  0.00000000000E+00  0.00000000000E+00  0.29023351798E+04  0.29023351798E+04  0.00000000000E+00 0. -1.
         -1   -1    0    0    0  501 -0.00000000000E+00 -0.00000000000E+00 -0.71284475111E+03  0.71284475111E+03  0.00000000000E+00 0.  1.
         23    2    1    2    0    0 -0.10720399017E+04 -0.41276558556E+03  0.17422405555E+04  0.20889416624E+04  0.92898526197E+02 0.  0.
        254    2    1    2    0    0  0.10720399017E+04  0.41276558556E+03  0.44724987315E+03  0.15262382685E+04  0.89984766695E+03 0.  0.
        -24    2    4    4    0    0  0.60374567825E+03 -0.42549588368E+02 -0.15859435310E+03  0.63155206825E+03  0.85944951002E+02 0.  0.
         24    2    4    4    0    0  0.46829422344E+03  0.45531517393E+03  0.60584422625E+03  0.89468620024E+03  0.82491109176E+02 0.  0.
         13    1    3    3    0    0 -0.70523500388E+03 -0.22519001288E+03  0.11001681416E+04  0.13260606669E+04  0.00000000000E+00 0.  1.
        -13    1    3    3    0    0 -0.36680489781E+03 -0.18757557268E+03  0.64207241396E+03  0.76288099550E+03  0.00000000000E+00 0. -1.
          4    1    6    6  502    0  0.20998416471E+03  0.25802503443E+03  0.28675213055E+03  0.43920046926E+03  0.00000000000E+00 0. -1.
          1    1    5    5  503    0  0.14652399025E+03  0.22400312440E+02 -0.21195926930E+02  0.14973416790E+03  0.00000000000E+00 0. -1.
         -2    1    5    5    0  503  0.45722168799E+03 -0.64949900807E+02 -0.13739842617E+03  0.48181790035E+03  0.00000000000E+00 0.  1.
         -3    1    6    6    0  502  0.25831005873E+03  0.19729013950E+03  0.31909209570E+03  0.45548573098E+03  0.00000000000E+00 0.  1.
<mgrwt>
<rscale>  0 0.28767443E+04</rscale>
<asrwt>0</asrwt>
<pdfrwt beam="1">  1        1 0.44651310E+00 0.28767443E+04</pdfrwt>
<pdfrwt beam="2">  1       -1 0.10966842E+00 0.28767443E+04</pdfrwt>
<totfact> 0.46494241E-01</totfact>
</mgrwt>
</event>
<event>
12    1  0.2404959E-007  0.1209732E+04  0.7818608E-02  0.9104381E-01
         -2   -1    0    0    0  501 -0.00000000000E+00  0.00000000000E+00  0.16433971267E+03  0.16433971267E+03  0.00000000000E+00 0.  1.
          2   -1    0    0  501    0  0.00000000000E+00 -0.00000000000E+00 -0.22262597270E+04  0.22262597270E+04  0.00000000000E+00 0. -1.
         23    2    1    2    0    0  0.78736545005E+02  0.24421395370E+03 -0.41442947127E+03  0.49582122199E+03  0.90812988132E+02 0.  0.
        254    2    1    2    0    0 -0.78736545005E+02 -0.24421395370E+03 -0.16474905431E+04  0.18947782177E+04  0.90006638980E+03 0.  0.
        -24    2    4    4    0    0  0.56979217124E+02 -0.51679160866E+03 -0.58586803665E+03  0.78740725642E+03  0.80303381888E+02 0.  0.
         24    2    4    4    0    0 -0.13571576213E+03  0.27257765496E+03 -0.10616225065E+04  0.11073709613E+04  0.80689241161E+02 0.  0.
         11    1    3    3    0    0  0.72849750217E+02  0.10432585655E+03 -0.15073593389E+03  0.19726198878E+03  0.00000000000E+00 0. -1.
        -11    1    3    3    0    0  0.58867947875E+01  0.13988809715E+03 -0.26369353738E+03  0.29855923321E+03  0.00000000000E+00 0.  1.
          2    1    6    6  502    0 -0.92154910572E+01  0.97628463056E+02 -0.37481136793E+03  0.38742715909E+03  0.00000000000E+00 0. -1.
          3    1    5    5  503    0 -0.88243282418E+01 -0.27645740935E+03 -0.29469438111E+03  0.40416747298E+03  0.00000000000E+00 0. -1.
         -4    1    5    5    0  503  0.65803545366E+02 -0.24033419931E+03 -0.29117365553E+03  0.38323978344E+03  0.00000000000E+00 0.  1.
         -3    1    6    6    0  502 -0.12650027107E+03  0.17494919190E+03 -0.68681113853E+03  0.71994380221E+03  0.00000000000E+00 0.  1.
<mgrwt>
<rscale>  0 0.12097320E+04</rscale>
<asrwt>0</asrwt>
<pdfrwt beam="1">  1        2 0.34250149E+00 0.12097320E+04</pdfrwt>
<pdfrwt beam="2">  1       -2 0.25283033E-01 0.12097320E+04</pdfrwt>
<totfact> 0.69392371E+01</totfact>
</mgrwt>
</event>
<event>
12    1  0.2404959E-007  0.1875178E+04  0.7818608E-02  0.8667312E-01
          1   -1    0    0  501    0  0.00000000000E+00  0.00000000000E+00  0.11800565985E+04  0.11800565985E+04  0.00000000000E+00 0. -1.
         -1   -1    0    0    0  501 -0.00000000000E+00 -0.00000000000E+00 -0.74494117250E+03  0.74494117250E+03  0.00000000000E+00 0.  1.
         23    2    1    2    0    0  0.42434552628E+03 -0.56043648799E+03  0.18897915693E+02  0.70964291134E+03  0.95277214777E+02 0.  0.
        254    2    1    2    0    0 -0.42434552628E+03  0.56043648799E+03  0.41621751035E+03  0.12153548597E+04  0.89982900393E+03 0.  0.
        -24    2    4    4    0    0 -0.44998972057E+03  0.65198618419E+03  0.16240817235E+02  0.79638376798E+03  0.79916260980E+02 0.  0.
         24    2    4    4    0    0  0.25644194288E+02 -0.91549696199E+02  0.39997669311E+03  0.41897109171E+03  0.80724525881E+02 0.  0.
         11    1    3    3    0    0  0.32138439441E+02 -0.71186352639E+02 -0.22343078642E+02  0.81237856046E+02  0.00000000000E+00 0.  1.
        -11    1    3    3    0    0  0.39220708684E+03 -0.48925013535E+03  0.41240994334E+02  0.62840505530E+03  0.00000000000E+00 0. -1.
          2    1    6    6  502    0  0.91626741451E+01 -0.10376369724E+03  0.33801498639E+03  0.35370183840E+03  0.00000000000E+00 0. -1.
          3    1    5    5  503    0 -0.38372582053E+03  0.58150850337E+03 -0.76247128585E+01  0.69674656876E+03  0.00000000000E+00 0. -1.
         -4    1    5    5    0  503 -0.66263900041E+02  0.70477680822E+02  0.23865530094E+02  0.99637199225E+02  0.00000000000E+00 0.  1.
         -1    1    6    6    0  502  0.16481520143E+02  0.12214001039E+02  0.61961706721E+02  0.65269253308E+02  0.00000000000E+00 0.  1.
<mgrwt>
<rscale>  0 0.18751776E+04</rscale>
<asrwt>0</asrwt>
<pdfrwt beam="1">  1        1 0.18154717E+00 0.18751776E+04</pdfrwt>
<pdfrwt beam="2">  1       -1 0.11460633E+00 0.18751776E+04</pdfrwt>
<totfact> 0.71723706E+00</totfact>
</mgrwt>
</event>
<event>
12    1  0.2404959E-007  0.1331954E+04  0.7818608E-02  0.9004602E-01
         -2   -1    0    0    0  501 -0.00000000000E+00  0.00000000000E+00  0.15447817015E+03  0.15447817015E+03  0.00000000000E+00 0.  1.
          2   -1    0    0  501    0  0.00000000000E+00 -0.00000000000E+00 -0.28711195931E+04  0.28711195931E+04  0.00000000000E+00 0. -1.
         23    2    1    2    0    0  0.31299070399E+03  0.11967936593E+03 -0.50005457900E+03  0.60881465848E+03  0.91183194662E+02 0.  0.
        254    2    1    2    0    0 -0.31299070399E+03 -0.11967936593E+03 -0.22165868440E+04  0.24167831048E+04  0.90293798644E+03 0.  0.
        -24    2    4    4    0    0  0.29225005679E+02  0.56770763356E+02 -0.19237336547E+04  0.19264722205E+04  0.80417794195E+02 0.  0.
         24    2    4    4    0    0 -0.34221570967E+03 -0.17645012929E+03 -0.29285318927E+03  0.49031088429E+03  0.79972074606E+02 0.  0.
         13    1    3    3    0    0  0.10260800084E+03  0.81037153331E+02 -0.15434497303E+03  0.20228146914E+03  0.00000000000E+00 0.  1.
        -13    1    3    3    0    0  0.21038270316E+03  0.38642212603E+02 -0.34570960596E+03  0.40653318934E+03  0.00000000000E+00 0. -1.
          2    1    6    6  502    0 -0.19485779537E+03 -0.96090400165E+02 -0.11522476784E+03  0.24592615262E+03  0.00000000000E+00 0. -1.
          3    1    5    5  503    0 -0.32471432699E+01  0.39179603831E+02 -0.16234692687E+04  0.16239452120E+04  0.00000000000E+00 0. -1.
         -4    1    5    5    0  503  0.32472148949E+02  0.17591159525E+02 -0.30026438605E+03  0.30252700852E+03  0.00000000000E+00 0.  1.
         -1    1    6    6    0  502 -0.14735791430E+03 -0.80359729126E+02 -0.17762842143E+03  0.24438473167E+03  0.00000000000E+00 0.  1.
<mgrwt>
<rscale>  0 0.13319539E+04</rscale>
<asrwt>0</asrwt>
<pdfrwt beam="1">  1        2 0.44171071E+00 0.13319539E+04</pdfrwt>
<pdfrwt beam="2">  1       -2 0.23765872E-01 0.13319539E+04</pdfrwt>
<totfact> 0.32463923E+01</totfact>
</mgrwt>
</event>
<event>
12    1  0.2404959E-007  0.2125529E+04  0.7818608E-02  0.8550080E-01
          2   -1    0    0  501    0  0.00000000000E+00  0.00000000000E+00  0.39373035801E+03  0.39373035801E+03  0.00000000000E+00 0. -1.
         -2   -1    0    0    0  501 -0.00000000000E+00 -0.00000000000E+00 -0.28686337230E+04  0.28686337230E+04  0.00000000000E+00 0.  1.
         23    2    1    2    0    0  0.59743853661E+03 -0.49118824482E+03 -0.16255643829E+04  0.18025361661E+04  0.92078064454E+02 0.  0.
        254    2    1    2    0    0 -0.59743853661E+03  0.49118824482E+03 -0.84933898208E+03  0.14598279150E+04  0.90084523534E+03 0.  0.
        -24    2    4    4    0    0  0.49942480572E+02  0.43370933331E+03 -0.82334986245E+02  0.45121070147E+03  0.78828992130E+02 0.  0.
         24    2    4    4    0    0 -0.64738101718E+03  0.57478911510E+02 -0.76700399584E+03  0.10086172135E+04  0.81286819981E+02 0.  0.
         11    1    3    3    0    0  0.22965467418E+03 -0.15540742252E+03 -0.50064165387E+03  0.57230656289E+03  0.00000000000E+00 0.  1.
        -11    1    3    3    0    0  0.36778386243E+03 -0.33578082230E+03 -0.11249227291E+04  0.12302296032E+04  0.00000000000E+00 0. -1.
          4    1    6    6  502    0 -0.24319023412E+03  0.40152283300E+02 -0.23785929175E+03  0.34253574776E+03  0.00000000000E+00 0. -1.
          1    1    5    5  503    0  0.29385260031E+02  0.11677130631E+03  0.89626240599E+01  0.12074502107E+03  0.00000000000E+00 0. -1.
         -2    1    5    5    0  503  0.20557220541E+02  0.31693802700E+03 -0.91297610305E+02  0.33046568040E+03  0.00000000000E+00 0.  1.
         -3    1    6    6    0  502 -0.40419078306E+03  0.17326628211E+02 -0.52914470409E+03  0.66608146576E+03  0.00000000000E+00 0.  1.
<mgrwt>
<rscale>  0 0.21255288E+04</rscale>
<asrwt>0</asrwt>
<pdfrwt beam="1">  1        2 0.60573902E-01 0.21255288E+04</pdfrwt>
<pdfrwt beam="2">  1       -2 0.44132826E+00 0.21255288E+04</pdfrwt>
<totfact> 0.29522118E-01</totfact>
</mgrwt>
</event>
<event>
12    1  0.2404959E-007  0.2043108E+04  0.7818608E-02  0.8586727E-01
         -1   -1    0    0    0  501 -0.00000000000E+00  0.00000000000E+00  0.73669646552E+03  0.73669646552E+03  0.00000000000E+00 0.  1.
          1   -1    0    0  501    0  0.00000000000E+00 -0.00000000000E+00 -0.14165568827E+04  0.14165568827E+04  0.00000000000E+00 0. -1.
         23    2    1    2    0    0  0.50868884642E+03  0.58955511885E+03 -0.55457494228E+03  0.96028731652E+03  0.90877846788E+02 0.  0.
        254    2    1    2    0    0 -0.50868884642E+03 -0.58955511885E+03 -0.12528547487E+03  0.11929660317E+04  0.89505973089E+03 0.  0.
        -24    2    4    4    0    0 -0.74867392997E+03 -0.36301978272E+03 -0.15921085176E+03  0.85153316214E+03  0.86398002596E+02 0.  0.
         24    2    4    4    0    0  0.23998508355E+03 -0.22653533613E+03  0.33925376894E+02  0.34143286952E+03  0.80711674176E+02 0.  0.
         13    1    3    3    0    0  0.16448039916E+03  0.21094883144E+03 -0.14111984400E+03  0.30243680590E+03  0.00000000000E+00 0.  1.
        -13    1    3    3    0    0  0.34420844726E+03  0.37860628741E+03 -0.41345509828E+03  0.65785051062E+03  0.00000000000E+00 0. -1.
          4    1    6    6  502    0  0.87911848016E+01 -0.14983729505E+01 -0.12626658787E+02  0.15458414014E+02  0.00000000000E+00 0. -1.
          1    1    5    5  503    0 -0.61882219434E+02 -0.57857334923E+02 -0.97097185993E+01  0.85271090774E+02  0.00000000000E+00 0. -1.
         -2    1    5    5    0  503 -0.68679171053E+03 -0.30516244779E+03 -0.14950113316E+03  0.76626207137E+03  0.00000000000E+00 0.  1.
         -3    1    6    6    0  502  0.23119389875E+03 -0.22503696318E+03  0.46552035680E+02  0.32597445550E+03  0.00000000000E+00 0.  1.
<mgrwt>
<rscale>  0 0.20431079E+04</rscale>
<asrwt>0</asrwt>
<pdfrwt beam="1">  1        1 0.21793182E+00 0.20431079E+04</pdfrwt>
<pdfrwt beam="2">  1       -1 0.11333792E+00 0.20431079E+04</pdfrwt>
<totfact> 0.49136712E+00</totfact>
</mgrwt>
</event>
<event>
12    1  0.2404959E-007  0.1900543E+04  0.7818608E-02  0.8654586E-01
         -2   -1    0    0    0  501 -0.00000000000E+00  0.00000000000E+00  0.70270079771E+03  0.70270079771E+03  0.00000000000E+00 0.  1.
          2   -1    0    0  501    0  0.00000000000E+00 -0.00000000000E+00 -0.12850652376E+04  0.12850652376E+04  0.00000000000E+00 0. -1.
         23    2    1    2    0    0 -0.69538986403E+03  0.71722247086E+02  0.15120569639E+02  0.70393155295E+03  0.81116310797E+02 0.  0.
        254    2    1    2    0    0  0.69538986403E+03 -0.71722247086E+02 -0.59748500951E+03  0.12838344824E+04  0.89584122352E+03 0.  0.
        -24    2    4    4    0    0  0.87394578542E+03  0.44663074701E+02 -0.58460659686E+03  0.10559507731E+04  0.86551348979E+02 0.  0.
         24    2    4    4    0    0 -0.17855592138E+03 -0.11638532179E+03 -0.12878412648E+02  0.22788370926E+03  0.79607607957E+02 0.  0.
         11    1    3    3    0    0 -0.21090535444E+03 -0.14926928967E+02 -0.24257443506E+01  0.21144683959E+03  0.00000000000E+00 0. -1.
        -11    1    3    3    0    0 -0.48448450960E+03  0.86649176053E+02  0.17546313989E+02  0.49248471335E+03  0.00000000000E+00 0.  1.
          4    1    6    6  502    0 -0.86792511631E+02 -0.84058776349E+02 -0.39321983204E+02  0.12706311943E+03  0.00000000000E+00 0. -1.
          1    1    5    5  503    0  0.49114386469E+03  0.61840802317E+02 -0.30268835130E+03  0.58022997050E+03  0.00000000000E+00 0. -1.
         -2    1    5    5    0  503  0.38280192073E+03 -0.17177727616E+02 -0.28191824556E+03  0.47572080260E+03  0.00000000000E+00 0.  1.
         -3    1    6    6    0  502 -0.91763409753E+02 -0.32326545437E+02  0.26443570556E+02  0.10082058983E+03  0.00000000000E+00 0.  1.
<mgrwt>
<rscale>  0 0.19005435E+04</rscale>
<asrwt>0</asrwt>
<pdfrwt beam="1">  1        2 0.19770234E+00 0.19005435E+04</pdfrwt>
<pdfrwt beam="2">  1       -2 0.10810782E+00 0.19005435E+04</pdfrwt>
<totfact> 0.10825647E+01</totfact>
</mgrwt>
</event>
<event>
12    1  0.2404959E-007  0.2465494E+04  0.7818608E-02  0.8415383E-01
         -1   -1    0    0    0  501 -0.00000000000E+00  0.00000000000E+00  0.96992736255E+03  0.96992736255E+03  0.00000000000E+00 0.  1.
          1   -1    0    0  501    0  0.00000000000E+00 -0.00000000000E+00 -0.15667824750E+04  0.15667824750E+04  0.00000000000E+00 0. -1.
         23    2    1    2    0    0  0.13879924141E+03 -0.34076595339E+03  0.77347384247E+03  0.86117369179E+03  0.89284254142E+02 0.  0.
        254    2    1    2    0    0 -0.13879924141E+03  0.34076595339E+03 -0.13703289549E+04  0.16755361458E+04  0.89119765858E+03 0.  0.
        -24    2    4    4    0    0  0.15265096905E+03  0.17887327699E+03 -0.13025100445E+04  0.13261448928E+04  0.82643166627E+02 0.  0.
         24    2    4    4    0    0 -0.29145021046E+03  0.16189267641E+03 -0.67818910395E+02  0.34939125298E+03  0.79513390091E+02 0.  0.
         11    1    3    3    0    0  0.29885468110E+02 -0.13779249425E+02  0.87574044565E+02  0.93553312076E+02  0.00000000000E+00 0.  1.
        -11    1    3    3    0    0  0.10891377330E+03 -0.32698670397E+03  0.68589979790E+03  0.76762037971E+03  0.00000000000E+00 0. -1.
          4    1    6    6  502    0 -0.29603654233E+03  0.16302036755E+03 -0.66053521156E+02  0.34434915753E+03  0.00000000000E+00 0. -1.
          3    1    5    5  503    0  0.47844651348E+02  0.10055246171E+03 -0.44555336831E+03  0.45925778408E+03  0.00000000000E+00 0. -1.
         -4    1    5    5    0  503  0.10480631770E+03  0.78320815271E+02 -0.85695667623E+03  0.86688710872E+03  0.00000000000E+00 0.  1.
         -3    1    6    6    0  502  0.45863318750E+01 -0.11276911488E+01 -0.17653892383E+01  0.50420954531E+01  0.00000000000E+00 0.  1.
<mgrwt>
<rscale>  0 0.24654940E+04</rscale>
<asrwt>0</asrwt>
<pdfrwt beam="1">  1        1 0.24104346E+00 0.24654940E+04</pdfrwt>
<pdfrwt beam="2">  1       -1 0.14921960E+00 0.24654940E+04</pdfrwt>
<totfact> 0.18545357E+00</totfact>
</mgrwt>
</event>
<event>
12    1  0.2404959E-007  0.1021663E+04  0.7818608E-02  0.9285100E-01
         -2   -1    0    0    0  501 -0.00000000000E+00  0.00000000000E+00  0.27447625207E+03  0.27447625207E+03  0.00000000000E+00 0.  1.
          2   -1    0    0  501    0  0.00000000000E+00 -0.00000000000E+00 -0.95071465220E+03  0.95071465220E+03  0.00000000000E+00 0. -1.
         23    2    1    2    0    0  0.23452971919E+02  0.46982138561E+02 -0.42048552274E+01  0.10542435082E+03  0.91319492453E+02 0.  0.
        254    2    1    2    0    0 -0.23452971919E+02 -0.46982138561E+02 -0.67203354491E+03  0.11197665535E+04  0.89414243022E+03 0.  0.
        -24    2    4    4    0    0  0.14671750134E+03  0.37728821836E+03 -0.20251048495E+03  0.45965125489E+03  0.79977213599E+02 0.  0.
         24    2    4    4    0    0 -0.17017047326E+03 -0.42427035692E+03 -0.46952305995E+03  0.66011529856E+03  0.79605136985E+02 0.  0.
         13    1    3    3    0    0  0.18967723367E+02 -0.42222707622E+01 -0.38849557275E+02  0.43438349423E+02  0.00000000000E+00 0. -1.
        -13    1    3    3    0    0  0.44852485525E+01  0.51204409323E+02  0.34644702048E+02  0.61986001393E+02  0.00000000000E+00 0.  1.
          2    1    6    6  502    0 -0.23290322983E+02 -0.45188903801E+02 -0.93049286807E+02  0.10603134417E+03  0.00000000000E+00 0. -1.
          3    1    5    5  503    0  0.49113748431E+01  0.10681245376E+03 -0.44706027971E+02  0.11589499911E+03  0.00000000000E+00 0. -1.
         -4    1    5    5    0  503  0.14180612650E+03  0.27047576460E+03 -0.15780445698E+03  0.34375625579E+03  0.00000000000E+00 0.  1.
         -1    1    6    6    0  502 -0.14688015028E+03 -0.37908145312E+03 -0.37647377315E+03  0.55408395439E+03  0.00000000000E+00 0.  1.
<mgrwt>
<rscale>  0 0.10216626E+04</rscale>
<asrwt>0</asrwt>
<pdfrwt beam="1">  1        2 0.14626379E+00 0.10216626E+04</pdfrwt>
<pdfrwt beam="2">  1       -2 0.42227116E-01 0.10216626E+04</pdfrwt>
<totfact> 0.14366678E+02</totfact>
</mgrwt>
</event>
<event>
12    1  0.2404959E-007  0.1602340E+04  0.7818608E-02  0.8819112E-01
         -1   -1    0    0    0  501 -0.00000000000E+00  0.00000000000E+00  0.64594258583E+03  0.64594258583E+03  0.00000000000E+00 0. -1.
          1   -1    0    0  501    0  0.00000000000E+00 -0.00000000000E+00 -0.99370001481E+03  0.99370001481E+03  0.00000000000E+00 0.  1.
         23    2    1    2    0    0  0.36387759417E+03 -0.34008710699E+03  0.10038765050E+03  0.51661117895E+03  0.93505539765E+02 0.  0.
        254    2    1    2    0    0 -0.36387759417E+03  0.34008710699E+03 -0.44814507948E+03  0.11230314217E+04  0.90127654910E+03 0.  0.
        -24    2    4    4    0    0 -0.36265871578E+03 -0.16166597271E+03 -0.46234087596E+03  0.61470309711E+03  0.80271920085E+02 0.  0.
         24    2    4    4    0    0 -0.12188783907E+01  0.50175307970E+03  0.14195796480E+02  0.50832832458E+03  0.80240427933E+02 0.  0.
         13    1    3    3    0    0  0.16718453107E+03 -0.11876596491E+03  0.36238649525E+01  0.20510766501E+03  0.00000000000E+00 0.  1.
        -13    1    3    3    0    0  0.19669306310E+03 -0.22132114208E+03  0.96763785550E+02  0.31150351394E+03  0.00000000000E+00 0. -1.
          2    1    6    6  502    0  0.22264941420E+02  0.37902955849E+03  0.36388141912E+02  0.38142264051E+03  0.00000000000E+00 0. -1.
          1    1    5    5  503    0 -0.26483778229E+03 -0.15345022835E+03 -0.36661590900E+03  0.47759108895E+03  0.00000000000E+00 0. -1.
         -2    1    5    5    0  503 -0.97820933492E+02 -0.82157443648E+01 -0.95724966951E+02  0.13711200816E+03  0.00000000000E+00 0.  1.
         -1    1    6    6    0  502 -0.23483819811E+02  0.12272352122E+03 -0.22192345432E+02  0.12690568407E+03  0.00000000000E+00 0.  1.
<mgrwt>
<rscale>  0 0.16023397E+04</rscale>
<asrwt>0</asrwt>
<pdfrwt beam="1">  1        1 0.15287692E+00 0.16023397E+04</pdfrwt>
<pdfrwt beam="2">  1       -1 0.99375783E-01 0.16023397E+04</pdfrwt>
<totfact> 0.14198910E+01</totfact>
</mgrwt>
</event>
<event>
12    1  0.2404959E-007  0.2739112E+04  0.7818608E-02  0.8322425E-01
          1   -1    0    0  501    0  0.00000000000E+00  0.00000000000E+00  0.26527340954E+04  0.26527340954E+04  0.00000000000E+00 0. -1.
         -1   -1    0    0    0  501 -0.00000000000E+00 -0.00000000000E+00 -0.70707544215E+03  0.70707544215E+03  0.00000000000E+00 0.  1.
         23    2    1    2    0    0  0.10247098818E+04  0.43607645247E+03  0.14790885508E+04  0.18537001043E+04  0.91148895212E+02 0.  0.
        254    2    1    2    0    0 -0.10247098818E+04 -0.43607645247E+03  0.46657010236E+03  0.15061094332E+04  0.90026937644E+03 0.  0.
        -24    2    4    4    0    0 -0.99188400460E+02 -0.47761577697E+03  0.23795389170E+03  0.54853351314E+03  0.79446782626E+02 0.  0.
         24    2    4    4    0    0 -0.92552148135E+03  0.41539324498E+02  0.22861621066E+03  0.95757592008E+03  0.79816934485E+02 0.  0.
         11    1    3    3    0    0  0.77971451302E+03  0.36621081827E+03  0.11762514780E+04  0.14579549460E+04  0.00000000000E+00 0. -1.
        -11    1    3    3    0    0  0.24499536879E+03  0.69865634197E+02  0.30283707286E+03  0.39574515824E+03  0.00000000000E+00 0.  1.
          4    1    6    6  502    0 -0.44440553662E+03  0.18233075386E+02  0.15081541938E+03  0.46965308127E+03  0.00000000000E+00 0. -1.
          1    1    5    5  503    0 -0.76609764533E+02 -0.43904449576E+03  0.19474805738E+03  0.48637015855E+03  0.00000000000E+00 0. -1.
         -2    1    5    5    0  503 -0.22578635926E+02 -0.38571281209E+02  0.43205834319E+02  0.62163354588E+02  0.00000000000E+00 0.  1.
         -3    1    6    6    0  502 -0.48111594472E+03  0.23306249112E+02  0.77800791281E+02  0.48792283882E+03  0.00000000000E+00 0.  1.
<mgrwt>
<rscale>  0 0.27391116E+04</rscale>
<asrwt>0</asrwt>
<pdfrwt beam="1">  1        1 0.40811293E+00 0.27391116E+04</pdfrwt>
<pdfrwt beam="2">  1       -1 0.10878084E+00 0.27391116E+04</pdfrwt>
<totfact> 0.72216989E-01</totfact>
</mgrwt>
</event>
<event>
12    1  0.2404959E-007  0.1997770E+04  0.7818608E-02  0.8607664E-01
         -2   -1    0    0    0  501 -0.00000000000E+00  0.00000000000E+00  0.45757059270E+03  0.45757059270E+03  0.00000000000E+00 0.  1.
          2   -1    0    0  501    0  0.00000000000E+00 -0.00000000000E+00 -0.21805834049E+04  0.21805834049E+04  0.00000000000E+00 0. -1.
         23    2    1    2    0    0  0.57539170383E+03  0.49940606412E+03 -0.39724483823E+03  0.86371396286E+03  0.87842577489E+02 0.  0.
        254    2    1    2    0    0 -0.57539170383E+03 -0.49940606412E+03 -0.13257679740E+04  0.17744400347E+04  0.90027478382E+03 0.  0.
        -24    2    4    4    0    0  0.21950962175E+03 -0.10119784767E+03 -0.48539102075E+03  0.54824565640E+03  0.80891151087E+02 0.  0.
         24    2    4    4    0    0 -0.79490132557E+03 -0.39820821645E+03 -0.84037695323E+03  0.12261943783E+04  0.82953775840E+02 0.  0.
         13    1    3    3    0    0  0.30411460558E+03  0.25381526077E+03 -0.25505664124E+03  0.47112818868E+03  0.00000000000E+00 0.  1.
        -13    1    3    3    0    0  0.27127709825E+03  0.24559080335E+03 -0.14218819699E+03  0.39258577418E+03  0.00000000000E+00 0. -1.
          4    1    6    6  502    0 -0.70117853284E+03 -0.33987167181E+03 -0.69872086788E+03  0.10466016145E+04  0.00000000000E+00 0. -1.
          1    1    5    5  503    0  0.18320455778E+03 -0.54587659192E+02 -0.32161486974E+03  0.37413880708E+03  0.00000000000E+00 0. -1.
         -4    1    5    5    0  503  0.36305063966E+02 -0.46610188474E+02 -0.16377615101E+03  0.17410684931E+03  0.00000000000E+00 0.  1.
         -3    1    6    6    0  502 -0.93722792734E+02 -0.58336544641E+02 -0.14165608535E+03  0.17959276387E+03  0.00000000000E+00 0.  1.
<mgrwt>
<rscale>  0 0.19977696E+04</rscale>
<asrwt>0</asrwt>
<pdfrwt beam="1">  1        2 0.33547437E+00 0.19977696E+04</pdfrwt>
<pdfrwt beam="2">  1       -2 0.70395476E-01 0.19977696E+04</pdfrwt>
<totfact> 0.90350084E+00</totfact>
</mgrwt>
</event>
<event>
12    1  0.2404959E-007  0.3803252E+04  0.7818608E-02  0.8045457E-01
          1   -1    0    0  501    0  0.00000000000E+00  0.00000000000E+00  0.34535879938E+04  0.34535879938E+04  0.00000000000E+00 0. -1.
         -1   -1    0    0    0  501 -0.00000000000E+00 -0.00000000000E+00 -0.10470798327E+04  0.10470798327E+04  0.00000000000E+00 0.  1.
         23    2    1    2    0    0  0.74454005171E+03 -0.16159307862E+04  0.85998498143E+03  0.19783049415E+04  0.92434187495E+02 0.  0.
        254    2    1    2    0    0 -0.74454005171E+03  0.16159307862E+04  0.15465231796E+04  0.25223628850E+04  0.89722259454E+03 0.  0.
        -24    2    4    4    0    0 -0.15013310010E+03  0.11653457205E+03 -0.89013055407E+02  0.22394356558E+03  0.78148207281E+02 0.  0.
         24    2    4    4    0    0 -0.59440695160E+03  0.14993962141E+04  0.16355362350E+04  0.22984193194E+04  0.79018736392E+02 0.  0.
         11    1    3    3    0    0  0.27087832543E+03 -0.59446687000E+03  0.26667983787E+03  0.70560900125E+03  0.00000000000E+00 0.  1.
        -11    1    3    3    0    0  0.47366172627E+03 -0.10214639162E+04  0.59330514356E+03  0.12726959402E+04  0.00000000000E+00 0. -1.
          2    1    6    6  502    0 -0.98941735729E+02  0.20880517924E+03  0.20209532029E+03  0.30697164109E+03  0.00000000000E+00 0. -1.
          3    1    5    5  503    0 -0.12267613160E+02  0.88479542476E+01 -0.39252811109E+02  0.42066183651E+02  0.00000000000E+00 0. -1.
         -4    1    5    5    0  503 -0.13786548694E+03  0.10768661781E+03 -0.49760244298E+02  0.18187738193E+03  0.00000000000E+00 0.  1.
         -1    1    6    6    0  502 -0.49546521587E+03  0.12905910349E+04  0.14334409147E+04  0.19914476783E+04  0.00000000000E+00 0.  1.
<mgrwt>
<rscale>  0 0.38032525E+04</rscale>
<asrwt>0</asrwt>
<pdfrwt beam="1">  1        1 0.53132122E+00 0.38032525E+04</pdfrwt>
<pdfrwt beam="2">  1       -1 0.16108921E+00 0.38032525E+04</pdfrwt>
<totfact> 0.61898423E-02</totfact>
</mgrwt>
</event>
<event>
12    1  0.2404959E-007  0.1689786E+04  0.7818608E-02  0.8767211E-01
          1   -1    0    0  501    0  0.00000000000E+00  0.00000000000E+00  0.12299350355E+04  0.12299350355E+04  0.00000000000E+00 0. -1.
         -1   -1    0    0    0  501 -0.00000000000E+00 -0.00000000000E+00 -0.58039198706E+03  0.58039198706E+03  0.00000000000E+00 0.  1.
         23    2    1    2    0    0  0.43656194963E+03  0.41211525447E+03  0.26053935277E+03  0.66066282968E+03  0.90384187472E+02 0.  0.
        254    2    1    2    0    0 -0.43656194963E+03 -0.41211525447E+03  0.38900369569E+03  0.11496641929E+04  0.89998809011E+03 0.  0.
        -24    2    4    4    0    0  0.84943909591E+02 -0.26213830678E+03 -0.19590701500E+03  0.34782720567E+03  0.81683822272E+02 0.  0.
         24    2    4    4    0    0 -0.52150585922E+03 -0.14997694769E+03  0.58491071069E+03  0.80183698723E+03  0.79753172779E+02 0.  0.
         11    1    3    3    0    0  0.39954917244E+03  0.39118220487E+03  0.26329540884E+03  0.61805139828E+03  0.00000000000E+00 0. -1.
        -11    1    3    3    0    0  0.37012777186E+02  0.20933049600E+02 -0.27560560604E+01  0.42611431396E+02  0.00000000000E+00 0.  1.
          4    1    6    6  502    0 -0.17272538137E+03 -0.39082923429E+02  0.24538818255E+03  0.30261674178E+03  0.00000000000E+00 0. -1.
          1    1    5    5  503    0 -0.39350935196E+01 -0.68602715711E+02 -0.79644826813E+02  0.10519085513E+03  0.00000000000E+00 0. -1.
         -2    1    5    5    0  503  0.88879003110E+02 -0.19353559107E+03 -0.11626218819E+03  0.24263635055E+03  0.00000000000E+00 0.  1.
         -3    1    6    6    0  502 -0.34878047785E+03 -0.11089402426E+03  0.33952252814E+03  0.49922024544E+03  0.00000000000E+00 0.  1.
<mgrwt>
<rscale>  0 0.16897863E+04</rscale>
<asrwt>0</asrwt>
<pdfrwt beam="1">  1        1 0.18922077E+00 0.16897863E+04</pdfrwt>
<pdfrwt beam="2">  1       -1 0.89291075E-01 0.16897863E+04</pdfrwt>
<totfact> 0.11897635E+01</totfact>
</mgrwt>
</event>
<event>
12    1  0.2404959E-007  0.2052911E+04  0.7818608E-02  0.8582275E-01
         -1   -1    0    0    0  501 -0.00000000000E+00  0.00000000000E+00  0.16135671980E+04  0.16135671980E+04  0.00000000000E+00 0.  1.
          1   -1    0    0  501    0  0.00000000000E+00 -0.00000000000E+00 -0.65296981764E+03  0.65296981764E+03  0.00000000000E+00 0. -1.
         23    2    1    2    0    0  0.77234167190E+03  0.28295291185E+03  0.48161610202E+03  0.95767809214E+03  0.92839915811E+02 0.  0.
        254    2    1    2    0    0 -0.77234167190E+03 -0.28295291185E+03  0.47898127836E+03  0.13088589235E+04  0.89839557444E+03 0.  0.
        -24    2    4    4    0    0  0.20347592763E+02 -0.34963535655E+03  0.34520950739E+03  0.49819266990E+03  0.79796148179E+02 0.  0.
         24    2    4    4    0    0 -0.79268926466E+03  0.66682444700E+02  0.13377177097E+03  0.81066625362E+03  0.80511299256E+02 0.  0.
         11    1    3    3    0    0  0.57568032126E+03  0.21924401330E+03  0.31336460497E+03  0.69113902024E+03  0.00000000000E+00 0. -1.
        -11    1    3    3    0    0  0.19666135064E+03  0.63708898553E+02  0.16825149705E+03  0.26653907190E+03  0.00000000000E+00 0.  1.
          4    1    6    6  502    0 -0.69728994851E+03  0.33485704188E+02  0.10777066259E+03  0.70636327792E+03  0.00000000000E+00 0. -1.
          3    1    5    5  503    0  0.49959632270E+02 -0.18992923146E+03  0.17744276776E+03  0.26467907672E+03  0.00000000000E+00 0. -1.
         -4    1    5    5    0  503 -0.29612039506E+02 -0.15970612509E+03  0.16776673962E+03  0.23351359318E+03  0.00000000000E+00 0.  1.
         -3    1    6    6    0  502 -0.95399316153E+02  0.33196740512E+02  0.26001108384E+02  0.10430297570E+03  0.00000000000E+00 0.  1.
<mgrwt>
<rscale>  0 0.20529108E+04</rscale>
<asrwt>0</asrwt>
<pdfrwt beam="1">  1        1 0.10045689E+00 0.20529108E+04</pdfrwt>
<pdfrwt beam="2">  1       -1 0.24824111E+00 0.20529108E+04</pdfrwt>
<totfact> 0.19997924E+00</totfact>
</mgrwt>
</event>
<event>
12    1  0.2404959E-007  0.1662148E+04  0.7818608E-02  0.8783252E-01
          2   -1    0    0  501    0  0.00000000000E+00  0.00000000000E+00  0.70498397007E+03  0.70498397007E+03  0.00000000000E+00 0. -1.
         -2   -1    0    0    0  501 -0.00000000000E+00 -0.00000000000E+00 -0.97971539470E+03  0.97971539470E+03  0.00000000000E+00 0.  1.
         23    2    1    2    0    0  0.53197853295E+03  0.12087110265E+03 -0.30392057518E+03  0.63107414546E+03  0.90971853248E+02 0.  0.
        254    2    1    2    0    0 -0.53197853295E+03 -0.12087110265E+03  0.29189150551E+02  0.10536252193E+04  0.90092347803E+03 0.  0.
        -24    2    4    4    0    0 -0.26606386038E+03 -0.24655328091E+03 -0.38785922708E+03  0.53707465373E+03  0.80224095622E+02 0.  0.
         24    2    4    4    0    0 -0.26591467257E+03  0.12568217826E+03  0.41704837763E+03  0.51655056558E+03  0.79928183342E+02 0.  0.
         13    1    3    3    0    0  0.23972487547E+03  0.16062357305E+02 -0.10405481565E+03  0.26182708016E+03  0.00000000000E+00 0. -1.
        -13    1    3    3    0    0  0.29225365748E+03  0.10480874534E+03 -0.19986575952E+03  0.36924706531E+03  0.00000000000E+00 0.  1.
          4    1    6    6  502    0 -0.16242142445E+03  0.94290226466E+02  0.32101937835E+03  0.37192043128E+03  0.00000000000E+00 0. -1.
          3    1    5    5  503    0 -0.23518041357E+03 -0.24211822544E+03 -0.37115456798E+03  0.50168393969E+03  0.00000000000E+00 0. -1.
         -4    1    5    5    0  503 -0.30883446814E+02 -0.44350554669E+01 -0.16704659103E+02  0.35390714034E+02  0.00000000000E+00 0.  1.
         -3    1    6    6    0  502 -0.10349324812E+03  0.31391951799E+02  0.96028999281E+02  0.14463013430E+03  0.00000000000E+00 0.  1.
<mgrwt>
<rscale>  0 0.16621476E+04</rscale>
<asrwt>0</asrwt>
<pdfrwt beam="1">  1        2 0.10845907E+00 0.16621476E+04</pdfrwt>
<pdfrwt beam="2">  1       -2 0.15072544E+00 0.16621476E+04</pdfrwt>
<totfact> 0.11456624E+01</totfact>
</mgrwt>
</event>
<event>
12    1  0.2404959E-007  0.3100017E+04  0.7818608E-02  0.8215733E-01
         -2   -1    0    0    0  501 -0.00000000000E+00  0.00000000000E+00  0.99952498848E+03  0.99952498848E+03  0.00000000000E+00 0. -1.
          2   -1    0    0  501    0  0.00000000000E+00 -0.00000000000E+00 -0.24036683873E+04  0.24036683873E+04  0.00000000000E+00 0.  1.
         23    2    1    2    0    0 -0.14017089323E+04  0.34435972416E+02 -0.41548777793E+03  0.14649107235E+04  0.85787920596E+02 0.  0.
        254    2    1    2    0    0  0.14017089323E+04 -0.34435972416E+02 -0.98865562091E+03  0.19382826523E+04  0.90195672641E+03 0.  0.
        -24    2    4    4    0    0  0.98696710438E+03 -0.43619516053E+02 -0.15416954295E+03  0.10029387238E+04  0.78173578780E+02 0.  0.
         24    2    4    4    0    0  0.41474182789E+03  0.91835436373E+01 -0.83448607796E+03  0.93534392846E+03  0.80038296650E+02 0.  0.
         11    1    3    3    0    0 -0.11162202067E+04  0.41892625804E+02 -0.29777013014E+03  0.11560145295E+04  0.00000000000E+00 0.  1.
        -11    1    3    3    0    0 -0.28548872556E+03 -0.74566533881E+01 -0.11771764779E+03  0.30889619406E+03  0.00000000000E+00 0. -1.
          2    1    6    6  502    0  0.86718149116E+02  0.33575536892E+02 -0.20476256983E+03  0.22488900388E+03  0.00000000000E+00 0. -1.
          1    1    5    5  503    0  0.27570864145E+03 -0.39234236435E+02 -0.20719304432E+02  0.27925592179E+03  0.00000000000E+00 0. -1.
         -2    1    5    5    0  503  0.71125846293E+03 -0.43852796182E+01 -0.13345023852E+03  0.72368280201E+03  0.00000000000E+00 0.  1.
         -1    1    6    6    0  502  0.32802367877E+03 -0.24391993255E+02 -0.62972350813E+03  0.71045492458E+03  0.00000000000E+00 0.  1.
<mgrwt>
<rscale>  0 0.31000172E+04</rscale>
<asrwt>0</asrwt>
<pdfrwt beam="1">  1        2 0.36979513E+00 0.31000172E+04</pdfrwt>
<pdfrwt beam="2">  1       -2 0.15377308E+00 0.31000172E+04</pdfrwt>
<totfact> 0.94182462E-01</totfact>
</mgrwt>
</event>
<event>
12    1  0.2404959E-007  0.2221242E+04  0.7818608E-02  0.8509638E-01
         -2   -1    0    0    0  501 -0.00000000000E+00  0.00000000000E+00  0.13425085538E+04  0.13425085538E+04  0.00000000000E+00 0.  1.
          2   -1    0    0  501    0  0.00000000000E+00 -0.00000000000E+00 -0.91878668660E+03  0.91878668660E+03  0.00000000000E+00 0. -1.
         23    2    1    2    0    0  0.56785974552E+03 -0.43522630699E+03  0.77719812887E+03  0.10608200240E+04  0.97033823989E+02 0.  0.
        254    2    1    2    0    0 -0.56785974552E+03  0.43522630699E+03 -0.35347626167E+03  0.12004752164E+04  0.89683256446E+03 0.  0.
        -24    2    4    4    0    0 -0.77183018415E+03  0.49538053479E+03 -0.29114041749E+03  0.96558522340E+03  0.80426199421E+02 0.  0.
         24    2    4    4    0    0  0.20397043863E+03 -0.60154227801E+02 -0.62335844182E+02  0.23488999297E+03  0.77878625883E+02 0.  0.
         13    1    3    3    0    0  0.27374481266E+03 -0.26952403193E+03  0.42816208869E+03  0.57524099336E+03  0.00000000000E+00 0.  1.
        -13    1    3    3    0    0  0.29411493286E+03 -0.16570227506E+03  0.34903604018E+03  0.48557903067E+03  0.00000000000E+00 0. -1.
          2    1    6    6  502    0  0.90885864365E+02 -0.29072743295E+02  0.11792608977E+02  0.96148480855E+02  0.00000000000E+00 0. -1.
          1    1    5    5  503    0 -0.11134193110E+03  0.90825319265E+02 -0.71569529392E+02  0.16052557982E+03  0.00000000000E+00 0. -1.
         -2    1    5    5    0  503 -0.66048825305E+03  0.40455521552E+03 -0.21957088810E+03  0.80505964358E+03  0.00000000000E+00 0.  1.
         -3    1    6    6    0  502  0.11308457426E+03 -0.31081484506E+02 -0.74128453160E+02  0.13874151211E+03  0.00000000000E+00 0.  1.
<mgrwt>
<rscale>  0 0.22212420E+04</rscale>
<asrwt>0</asrwt>
<pdfrwt beam="1">  1        2 0.14135180E+00 0.22212420E+04</pdfrwt>
<pdfrwt beam="2">  1       -2 0.20653978E+00 0.22212420E+04</pdfrwt>
<totfact> 0.31316586E+00</totfact>
</mgrwt>
</event>
<event>
12    1  0.2404959E-007  0.3158381E+04  0.7818608E-02  0.8199896E-01
         -2   -1    0    0    0  501 -0.00000000000E+00  0.00000000000E+00  0.11496576752E+04  0.11496576752E+04  0.00000000000E+00 0.  1.
          2   -1    0    0  501    0  0.00000000000E+00 -0.00000000000E+00 -0.21692048020E+04  0.21692048020E+04  0.00000000000E+00 0. -1.
         23    2    1    2    0    0 -0.66634100388E+03 -0.67625635172E+02  0.88161723591E+03  0.11110828290E+04  0.93126485554E+02 0.  0.
        254    2    1    2    0    0  0.66634100388E+03  0.67625635172E+02 -0.19011643627E+04  0.22077796482E+04  0.90071165258E+03 0.  0.
        -24    2    4    4    0    0  0.48610058168E+03 -0.25239282702E+03 -0.16860914730E+04  0.17747158474E+04  0.81951016615E+02 0.  0.
         24    2    4    4    0    0  0.18024042220E+03  0.32001846219E+03 -0.21507288969E+03  0.43306380078E+03  0.79934233792E+02 0.  0.
         13    1    3    3    0    0 -0.30436692604E+03  0.42550092387E+01  0.34885171328E+03  0.46298471749E+03  0.00000000000E+00 0. -1.
        -13    1    3    3    0    0 -0.36197407784E+03 -0.71880644411E+02  0.53276552263E+03  0.64809811153E+03  0.00000000000E+00 0.  1.
          2    1    6    6  502    0  0.75234969289E+01  0.78790836576E+02 -0.48153959801E+02  0.92646655520E+02  0.00000000000E+00 0. -1.
          1    1    5    5  503    0 -0.15897735721E+01 -0.79297961596E+01 -0.30928542681E+02  0.31968481345E+02  0.00000000000E+00 0. -1.
         -2    1    5    5    0  503  0.48769035525E+03 -0.24446303086E+03 -0.16551629303E+04  0.17427473661E+04  0.00000000000E+00 0.  1.
         -1    1    6    6    0  502  0.17271692527E+03  0.24122762562E+03 -0.16691892988E+03  0.34041714526E+03  0.00000000000E+00 0.  1.
<mgrwt>
<rscale>  0 0.31583812E+04</rscale>
<asrwt>0</asrwt>
<pdfrwt beam="1">  1        2 0.33372381E+00 0.31583812E+04</pdfrwt>
<pdfrwt beam="2">  1       -2 0.17687041E+00 0.31583812E+04</pdfrwt>
<totfact> 0.86564421E-01</totfact>
</mgrwt>
</event>
<event>
12    1  0.2404959E-007  0.2008773E+04  0.7818608E-02  0.8602530E-01
          1   -1    0    0  501    0  0.00000000000E+00  0.00000000000E+00  0.32722955626E+04  0.32722955626E+04  0.00000000000E+00 0. -1.
         -1   -1    0    0    0  501 -0.00000000000E+00 -0.00000000000E+00 -0.30828285648E+03  0.30828285648E+03  0.00000000000E+00 0.  1.
         23    2    1    2    0    0 -0.35029536813E+03 -0.44699135777E+02 -0.91108741798E+02  0.37556097391E+03  0.89668191780E+02 0.  0.
        254    2    1    2    0    0  0.35029536813E+03  0.44699135777E+02  0.30551214479E+04  0.32050174451E+04  0.90203376023E+03 0.  0.
        -24    2    4    4    0    0  0.20215408563E+03  0.54873957819E+02  0.30201053655E+04  0.30284959739E+04  0.82909708520E+02 0.  0.
         24    2    4    4    0    0  0.14814128250E+03 -0.10174822042E+02  0.35016082420E+02  0.17652147124E+03  0.88793790306E+02 0.  0.
         13    1    3    3    0    0 -0.13361826094E+03 -0.30800199153E+02 -0.78660138992E+02  0.15808197048E+03  0.00000000000E+00 0.  1.
        -13    1    3    3    0    0 -0.21667710720E+03 -0.13898936625E+02 -0.12448602806E+02  0.21747900343E+03  0.00000000000E+00 0. -1.
          4    1    6    6  502    0  0.16198481102E+02  0.83078301365E+01 -0.24564612806E+02  0.30575006687E+02  0.00000000000E+00 0. -1.
          3    1    5    5  503    0  0.91983777007E+02  0.43116885598E+01  0.84207673381E+03  0.84709670730E+03  0.00000000000E+00 0. -1.
         -4    1    5    5    0  503  0.11017030862E+03  0.50562269260E+02  0.21780286317E+04  0.21813992666E+04  0.00000000000E+00 0.  1.
         -3    1    6    6    0  502  0.13194280140E+03 -0.18482652178E+02  0.59580695227E+02  0.14594646456E+03  0.00000000000E+00 0.  1.
<mgrwt>
<rscale>  0 0.20087734E+04</rscale>
<asrwt>0</asrwt>
<pdfrwt beam="1">  1        1 0.50343006E+00 0.20087734E+04</pdfrwt>
<pdfrwt beam="2">  1       -1 0.47428134E-01 0.20087734E+04</pdfrwt>
<totfact> 0.15465418E+00</totfact>
</mgrwt>
</event>
<event>
12    1  0.2404959E-007  0.1462069E+04  0.7818608E-02  0.8910076E-01
          2   -1    0    0  501    0  0.00000000000E+00  0.00000000000E+00  0.11154503149E+04  0.11154503149E+04  0.00000000000E+00 0. -1.
         -2   -1    0    0    0  501 -0.00000000000E+00 -0.00000000000E+00 -0.47909941040E+03  0.47909941040E+03  0.00000000000E+00 0.  1.
         23    2    1    2    0    0 -0.28969228448E+03  0.32765519809E+03  0.96411463484E+02  0.45586592252E+03  0.85082433537E+02 0.  0.
        254    2    1    2    0    0  0.28969228448E+03 -0.32765519809E+03  0.53993944099E+03  0.11386838027E+04  0.90210124386E+03 0.  0.
        -24    2    4    4    0    0  0.27168093381E+03  0.56415897122E+02 -0.16508905986E+03  0.33257778501E+03  0.79751502488E+02 0.  0.
         24    2    4    4    0    0  0.18011350672E+02 -0.38407109522E+03  0.70502850085E+03  0.80610601774E+03  0.70047911393E+02 0.  0.
         13    1    3    3    0    0 -0.45259265153E+02  0.16037898529E+02  0.22310226613E+02  0.52946779722E+02  0.00000000000E+00 0. -1.
        -13    1    3    3    0    0 -0.24443301933E+03  0.31161729957E+03  0.74101236872E+02  0.40291914280E+03  0.00000000000E+00 0.  1.
          4    1    6    6  502    0  0.19554708557E+01 -0.15203547253E+03  0.35089555232E+03  0.38242162258E+03  0.00000000000E+00 0. -1.
          1    1    5    5  503    0  0.15885269684E+03  0.10957490592E+02 -0.54841947629E+02  0.16840987237E+03  0.00000000000E+00 0. -1.
         -2    1    5    5    0  503  0.11282823697E+03  0.45458406530E+02 -0.11024711224E+03  0.16416791263E+03  0.00000000000E+00 0.  1.
         -3    1    6    6    0  502  0.16055879816E+02 -0.23203562269E+03  0.35413294853E+03  0.42368439516E+03  0.00000000000E+00 0.  1.
<mgrwt>
<rscale>  0 0.14620692E+04</rscale>
<asrwt>0</asrwt>
<pdfrwt beam="1">  1        2 0.17160774E+00 0.14620692E+04</pdfrwt>
<pdfrwt beam="2">  1       -2 0.73707602E-01 0.14620692E+04</pdfrwt>
<totfact> 0.34276202E+01</totfact>
</mgrwt>
</event>
<event>
12    1  0.2404959E-007  0.1309692E+04  0.7818608E-02  0.9021915E-01
          1   -1    0    0  501    0  0.00000000000E+00  0.00000000000E+00  0.60297530904E+03  0.60297530904E+03  0.00000000000E+00 0. -1.
         -1   -1    0    0    0  501 -0.00000000000E+00 -0.00000000000E+00 -0.71117855075E+03  0.71117855075E+03  0.00000000000E+00 0.  1.
         23    2    1    2    0    0 -0.26651986447E+03 -0.40521236759E+02 -0.22530518302E+03  0.36282139317E+03  0.90565606395E+02 0.  0.
        254    2    1    2    0    0  0.26651986447E+03  0.40521236759E+02  0.11710194131E+03  0.95133246662E+03  0.90479046669E+03 0.  0.
        -24    2    4    4    0    0  0.32125389713E+03  0.14387390179E+03 -0.32599324121E+03  0.48628608381E+03  0.79364954197E+02 0.  0.
         24    2    4    4    0    0 -0.54734032666E+02 -0.10335266503E+03  0.44309518252E+03  0.46504638281E+03  0.79102526486E+02 0.  0.
         11    1    3    3    0    0 -0.14385049905E+03 -0.34637339086E+02 -0.66894382535E+02  0.16238094023E+03  0.00000000000E+00 0. -1.
        -11    1    3    3    0    0 -0.12266936542E+03 -0.58838976723E+01 -0.15841080048E+03  0.20044045294E+03  0.00000000000E+00 0.  1.
          4    1    6    6  502    0 -0.73126543133E+02 -0.93998508540E+02  0.35051451939E+03  0.37019405617E+03  0.00000000000E+00 0. -1.
          3    1    5    5  503    0  0.25228869195E+03  0.10288796159E+03 -0.20438998463E+03  0.34060355627E+03  0.00000000000E+00 0. -1.
         -4    1    5    5    0  503  0.68965205179E+02  0.40985940196E+02 -0.12160325658E+03  0.14568252754E+03  0.00000000000E+00 0.  1.
         -3    1    6    6    0  502  0.18392510467E+02 -0.93541564886E+01  0.92580663129E+02  0.94852326647E+02  0.00000000000E+00 0.  1.
<mgrwt>
<rscale>  0 0.13096917E+04</rscale>
<asrwt>0</asrwt>
<pdfrwt beam="1">  1        1 0.92765432E-01 0.13096917E+04</pdfrwt>
<pdfrwt beam="2">  1       -1 0.10941208E+00 0.13096917E+04</pdfrwt>
<totfact> 0.25816497E+01</totfact>
</mgrwt>
</event>
<event>
12    1  0.2404959E-007  0.1564481E+04  0.7818608E-02  0.8842671E-01
          2   -1    0    0  501    0  0.00000000000E+00  0.00000000000E+00  0.11730092255E+04  0.11730092255E+04  0.00000000000E+00 0.  1.
         -2   -1    0    0    0  501 -0.00000000000E+00 -0.00000000000E+00 -0.52164968760E+03  0.52164968760E+03  0.00000000000E+00 0. -1.
         23    2    1    2    0    0  0.18342967411E+03  0.32182290907E+03 -0.17386368438E+03  0.41893846757E+03  0.89802164339E+02 0.  0.
        254    2    1    2    0    0 -0.18342967411E+03 -0.32182290907E+03  0.82522322229E+03  0.12757204455E+04  0.89958482558E+03 0.  0.
        -24    2    4    4    0    0  0.19833194852E+03 -0.49177125984E+03  0.36288523256E+03  0.64741394976E+03  0.79275447176E+02 0.  0.
         24    2    4    4    0    0 -0.38176162263E+03  0.16994835077E+03  0.46233798973E+03  0.62830649578E+03  0.79926575372E+02 0.  0.
         13    1    3    3    0    0  0.74141044954E+02  0.65168274196E+02 -0.71126423623E+02  0.12166662092E+03  0.00000000000E+00 0. -1.
        -13    1    3    3    0    0  0.10928862916E+03  0.25665463487E+03 -0.10273726076E+03  0.29727184665E+03  0.00000000000E+00 0.  1.
          2    1    6    6  502    0 -0.44546032634E+02 -0.55663422609E+01  0.57623631683E+02  0.73046670821E+02  0.00000000000E+00 0. -1.
          3    1    5    5  503    0  0.30328986753E+02 -0.28793315770E+02  0.43848625706E+02  0.60593765742E+02  0.00000000000E+00 0. -1.
         -4    1    5    5    0  503  0.16800296176E+03 -0.46297794407E+03  0.31903660686E+03  0.58682018402E+03  0.00000000000E+00 0.  1.
         -1    1    6    6    0  502 -0.33721558999E+03  0.17551469303E+03  0.40471435805E+03  0.55525982496E+03  0.00000000000E+00 0.  1.
<mgrwt>
<rscale>  0 0.15644806E+04</rscale>
<asrwt>0</asrwt>
<pdfrwt beam="1">  1        2 0.18046296E+00 0.15644806E+04</pdfrwt>
<pdfrwt beam="2">  1       -2 0.80253798E-01 0.15644806E+04</pdfrwt>
<totfact> 0.25950489E+01</totfact>
</mgrwt>
</event>
<event>
12    1  0.2404959E-007  0.1907073E+04  0.7818608E-02  0.8651344E-01
         -2   -1    0    0    0  501 -0.00000000000E+00  0.00000000000E+00  0.14465388591E+04  0.14465388591E+04  0.00000000000E+00 0.  1.
          2   -1    0    0  501    0  0.00000000000E+00 -0.00000000000E+00 -0.62855700650E+03  0.62855700650E+03  0.00000000000E+00 0. -1.
         23    2    1    2    0    0 -0.42331478600E+03  0.56975789828E+03  0.93507162516E+02  0.72275217282E+03  0.99033545700E+02 0.  0.
        254    2    1    2    0    0  0.42331478600E+03 -0.56975789828E+03  0.72447469009E+03  0.13523436928E+04  0.89451127223E+03 0.  0.
        -24    2    4    4    0    0  0.48150622103E+03  0.36757749964E+02  0.15237251551E+03  0.51279248510E+03  0.80866409689E+02 0.  0.
         24    2    4    4    0    0 -0.58191435030E+02 -0.60651564824E+03  0.57210217458E+03  0.83955120769E+03  0.79359041705E+02 0.  0.
         13    1    3    3    0    0 -0.33606045696E+03  0.47376782169E+03  0.39368747583E+02  0.58218766552E+03  0.00000000000E+00 0. -1.
        -13    1    3    3    0    0 -0.87254329044E+02  0.95990076595E+02  0.54138414933E+02  0.14056450730E+03  0.00000000000E+00 0.  1.
          2    1    6    6  502    0 -0.24755289988E+02 -0.47111014182E+03  0.47600583653E+03  0.67017844378E+03  0.00000000000E+00 0. -1.
          3    1    5    5  503    0  0.38823908426E+03  0.57300935731E+02  0.13912269369E+03  0.41637496044E+03  0.00000000000E+00 0. -1.
         -4    1    5    5    0  503  0.93267136777E+02 -0.20543185767E+02  0.13249821827E+02  0.96417524665E+02  0.00000000000E+00 0.  1.
         -1    1    6    6    0  502 -0.33436145042E+02 -0.13540550643E+03  0.96096338051E+02  0.16937276391E+03  0.00000000000E+00 0.  1.
<mgrwt>
<rscale>  0 0.19070733E+04</rscale>
<asrwt>0</asrwt>
<pdfrwt beam="1">  1        2 0.96701078E-01 0.19070733E+04</pdfrwt>
<pdfrwt beam="2">  1       -2 0.22254444E+00 0.19070733E+04</pdfrwt>
<totfact> 0.41750997E+00</totfact>
</mgrwt>
</event>
<event>
12    1  0.2404959E-007  0.1885848E+04  0.7818608E-02  0.8661933E-01
         -1   -1    0    0    0  501 -0.00000000000E+00  0.00000000000E+00  0.76134320850E+03  0.76134320850E+03  0.00000000000E+00 0.  1.
          1   -1    0    0  501    0  0.00000000000E+00 -0.00000000000E+00 -0.11678122265E+04  0.11678122265E+04  0.00000000000E+00 0. -1.
         23    2    1    2    0    0 -0.52542897274E+03  0.31954790390E+03  0.23468340741E+03  0.66434898582E+03  0.89982248072E+02 0.  0.
        254    2    1    2    0    0  0.52542897274E+03 -0.31954790390E+03 -0.64115242538E+03  0.12648064492E+04  0.90026243561E+03 0.  0.
        -24    2    4    4    0    0  0.30859622084E+03 -0.61927248967E+03 -0.51419420474E+03  0.86559593323E+03  0.78298119080E+02 0.  0.
         24    2    4    4    0    0  0.21683275190E+03  0.29972458577E+03 -0.12695822064E+03  0.39921051593E+03  0.79996103837E+02 0.  0.
         13    1    3    3    0    0 -0.44383301482E+03  0.24906678505E+03  0.16117296193E+03  0.53385272512E+03  0.00000000000E+00 0.  1.
        -13    1    3    3    0    0 -0.81595957924E+02  0.70481118855E+02  0.73510445477E+02  0.13049626071E+03  0.00000000000E+00 0. -1.
          2    1    6    6  502    0  0.64193417458E+02  0.42552823270E+02 -0.44686421699E+02  0.89041641368E+02  0.00000000000E+00 0. -1.
          3    1    5    5  503    0  0.19962163391E+03 -0.47681500546E+03 -0.37740543964E+03  0.64002829002E+03  0.00000000000E+00 0. -1.
         -4    1    5    5    0  503  0.10897458693E+03 -0.14245748421E+03 -0.13678876510E+03  0.22556764320E+03  0.00000000000E+00 0.  1.
         -1    1    6    6    0  502  0.15263933444E+03  0.25717176250E+03 -0.82271798944E+02  0.31016887456E+03  0.00000000000E+00 0.  1.
<mgrwt>
<rscale>  0 0.18858483E+04</rscale>
<asrwt>0</asrwt>
<pdfrwt beam="1">  1        1 0.17966342E+00 0.18858483E+04</pdfrwt>
<pdfrwt beam="2">  1       -1 0.11712972E+00 0.18858483E+04</pdfrwt>
<totfact> 0.69424827E+00</totfact>
</mgrwt>
</event>
<event>
12    1  0.2404959E-007  0.2817794E+04  0.7818608E-02  0.8297765E-01
         -2   -1    0    0    0  501 -0.00000000000E+00  0.00000000000E+00  0.56244187823E+03  0.56244187823E+03  0.00000000000E+00 0. -1.
          2   -1    0    0  501    0  0.00000000000E+00 -0.00000000000E+00 -0.35292377073E+04  0.35292377073E+04  0.00000000000E+00 0.  1.
         23    2    1    2    0    0  0.45807307879E+03  0.11078803117E+04 -0.75553347539E+03  0.14199462227E+04  0.90480453012E+02 0.  0.
        254    2    1    2    0    0 -0.45807307879E+03 -0.11078803117E+04 -0.22112623537E+04  0.26717333628E+04  0.90069319664E+03 0.  0.
        -24    2    4    4    0    0 -0.15337138371E+03 -0.10667680352E+04 -0.12155545787E+04  0.16264631962E+04  0.79326998594E+02 0.  0.
         24    2    4    4    0    0 -0.30470169509E+03 -0.41112276517E+02 -0.99570777500E+03  0.10452701666E+04  0.81378164314E+02 0.  0.
         13    1    3    3    0    0  0.64421057376E+02  0.90093164852E+02 -0.61580350855E+02  0.12672407268E+03  0.00000000000E+00 0.  1.
        -13    1    3    3    0    0  0.39365202142E+03  0.10177871469E+04 -0.69395312453E+03  0.12932221500E+04  0.00000000000E+00 0. -1.
          2    1    6    6  502    0 -0.98130718227E+02  0.10822078162E+02 -0.22574986880E+03  0.24639350336E+03  0.00000000000E+00 0. -1.
          3    1    5    5  503    0 -0.49427874726E+00 -0.22238090911E+03 -0.26145978783E+03  0.34324150930E+03  0.00000000000E+00 0. -1.
         -4    1    5    5    0  503 -0.15287710496E+03 -0.84438712609E+03 -0.95409479084E+03  0.12832216869E+04  0.00000000000E+00 0.  1.
         -1    1    6    6    0  502 -0.20657097686E+03 -0.51934354679E+02 -0.76995790620E+03  0.79887666320E+03  0.00000000000E+00 0.  1.
<mgrwt>
<rscale>  0 0.28177942E+04</rscale>
<asrwt>0</asrwt>
<pdfrwt beam="1">  1        2 0.54295965E+00 0.28177942E+04</pdfrwt>
<pdfrwt beam="2">  1       -2 0.86529520E-01 0.28177942E+04</pdfrwt>
<totfact> 0.77921511E-01</totfact>
</mgrwt>
</event>
<event>
12    1  0.2404959E-007  0.2730772E+04  0.7818608E-02  0.8325089E-01
          2   -1    0    0  501    0  0.00000000000E+00  0.00000000000E+00  0.38853856596E+04  0.38853856596E+04  0.00000000000E+00 0. -1.
         -2   -1    0    0    0  501 -0.00000000000E+00 -0.00000000000E+00 -0.47981813216E+03  0.47981813216E+03  0.00000000000E+00 0.  1.
         23    2    1    2    0    0 -0.43036351623E+03  0.11312537980E+04  0.13136603581E+04  0.17879946827E+04  0.79205665192E+02 0.  0.
        254    2    1    2    0    0  0.43036351623E+03 -0.11312537980E+04  0.20919071694E+04  0.25772091091E+04  0.89497668962E+03 0.  0.
        -24    2    4    4    0    0  0.51527054033E+03 -0.31216053547E+03  0.12854784095E+04  0.14219572280E+04  0.80991895246E+02 0.  0.
         24    2    4    4    0    0 -0.84907024097E+02 -0.81909326253E+03  0.80642875983E+03  0.11552518811E+04  0.78463932207E+02 0.  0.
         13    1    3    3    0    0 -0.36047618413E+03  0.99409820126E+03  0.11757703540E+04  0.15813317926E+04  0.00000000000E+00 0. -1.
        -13    1    3    3    0    0 -0.69887332100E+02  0.13715559674E+03  0.13789000411E+03  0.20666289009E+03  0.00000000000E+00 0.  1.
          2    1    6    6  502    0 -0.47986303293E+02 -0.67035472976E+03  0.68591888442E+03  0.96029311411E+03  0.00000000000E+00 0. -1.
          3    1    5    5  503    0  0.44156176509E+03 -0.25914510898E+03  0.10181793795E+04  0.11396588212E+04  0.00000000000E+00 0. -1.
         -4    1    5    5    0  503  0.73708775237E+02 -0.53015426486E+02  0.26729903009E+03  0.28229840680E+03  0.00000000000E+00 0.  1.
         -1    1    6    6    0  502 -0.36920720804E+02 -0.14873853277E+03  0.12050987541E+03  0.19495876699E+03  0.00000000000E+00 0.  1.
<mgrwt>
<rscale>  0 0.27307717E+04</rscale>
<asrwt>0</asrwt>
<pdfrwt beam="1">  1        2 0.59775162E+00 0.27307717E+04</pdfrwt>
<pdfrwt beam="2">  1       -2 0.73818177E-01 0.27307717E+04</pdfrwt>
<totfact> 0.61142550E-01</totfact>
</mgrwt>
</event>
<event>
12    1  0.2404959E-007  0.2186470E+04  0.7818608E-02  0.8524081E-01
         -1   -1    0    0    0  501 -0.00000000000E+00  0.00000000000E+00  0.27257083647E+04  0.27257083647E+04  0.00000000000E+00 0.  1.
          1   -1    0    0  501    0  0.00000000000E+00 -0.00000000000E+00 -0.43847791374E+03  0.43847791374E+03  0.00000000000E+00 0. -1.
         23    2    1    2    0    0 -0.25241827125E+03  0.86514217788E+03  0.10687168264E+04  0.14009559555E+04  0.91301492653E+02 0.  0.
        254    2    1    2    0    0  0.25241827125E+03 -0.86514217788E+03  0.12185136246E+04  0.17632303230E+04  0.90112138301E+03 0.  0.
        -24    2    4    4    0    0  0.18587636915E+03 -0.94239331425E+03  0.12938119281E+04  0.16136244537E+04  0.84731275374E+02 0.  0.
         24    2    4    4    0    0  0.66541902102E+02  0.77251136373E+02 -0.75298303541E+02  0.14960586922E+03  0.79476529760E+02 0.  0.
         11    1    3    3    0    0 -0.12268360635E+03  0.43725487805E+03  0.46825023383E+03  0.65230466588E+03  0.00000000000E+00 0. -1.
        -11    1    3    3    0    0 -0.12973466491E+03  0.42788729982E+03  0.60046659253E+03  0.74865128957E+03  0.00000000000E+00 0.  1.
          4    1    6    6  502    0  0.34154066128E+02 -0.43531742655E+01 -0.45144034398E+02  0.56775295693E+02  0.00000000000E+00 0. -1.
          3    1    5    5  503    0  0.63727554740E+02 -0.43065846995E+03  0.52480731943E+03  0.68187289248E+03  0.00000000000E+00 0. -1.
         -2    1    5    5    0  503  0.12214881441E+03 -0.51173484430E+03  0.76900460868E+03  0.93175156126E+03  0.00000000000E+00 0.  1.
         -3    1    6    6    0  502  0.32387835974E+02  0.81604310638E+02 -0.30154269142E+02  0.92830573527E+02  0.00000000000E+00 0.  1.
<mgrwt>
<rscale>  0 0.21864701E+04</rscale>
<asrwt>0</asrwt>
<pdfrwt beam="1">  1        1 0.67458142E-01 0.21864701E+04</pdfrwt>
<pdfrwt beam="2">  1       -1 0.41933974E+00 0.21864701E+04</pdfrwt>
<totfact> 0.25524203E-01</totfact>
</mgrwt>
</event>
<event>
12    1  0.2404959E-007  0.2757498E+04  0.7818608E-02  0.8316586E-01
          1   -1    0    0  501    0  0.00000000000E+00  0.00000000000E+00  0.23053356830E+04  0.23053356830E+04  0.00000000000E+00 0. -1.
         -1   -1    0    0    0  501 -0.00000000000E+00 -0.00000000000E+00 -0.82458632493E+03  0.82458632493E+03  0.00000000000E+00 0.  1.
         23    2    1    2    0    0  0.71478592038E+03  0.58591168179E+03 -0.25863836833E+03  0.96407217155E+03  0.91268480625E+02 0.  0.
        254    2    1    2    0    0 -0.71478592038E+03 -0.58591168179E+03  0.17393877264E+04  0.21658498364E+04  0.90067998761E+03 0.  0.
        -24    2    4    4    0    0 -0.35475123119E+03 -0.78464611277E+03  0.12718052661E+04  0.15380007346E+04  0.80247531401E+02 0.  0.
         24    2    4    4    0    0 -0.36003468919E+03  0.19873443098E+03  0.46758246030E+03  0.62784910180E+03  0.80254507550E+02 0.  0.
         13    1    3    3    0    0  0.53047351954E+03  0.39739816457E+03 -0.15436164168E+03  0.68055490048E+03  0.00000000000E+00 0.  1.
        -13    1    3    3    0    0  0.18431240084E+03  0.18851351722E+03 -0.10427672666E+03  0.28351727108E+03  0.00000000000E+00 0. -1.
          4    1    6    6  502    0 -0.65152291443E+02  0.74601290001E+02  0.11229240712E+03  0.14973228859E+03  0.00000000000E+00 0. -1.
          1    1    5    5  503    0 -0.11499456555E+03 -0.23912897213E+03  0.32889760389E+03  0.42258732738E+03  0.00000000000E+00 0. -1.
         -2    1    5    5    0  503 -0.23975666564E+03 -0.54551714064E+03  0.94290766220E+03  0.11154134072E+04  0.00000000000E+00 0.  1.
         -3    1    6    6    0  502 -0.29488239774E+03  0.12413314098E+03  0.35529005317E+03  0.47811681321E+03  0.00000000000E+00 0.  1.
<mgrwt>
<rscale>  0 0.27574976E+04</rscale>
<asrwt>0</asrwt>
<pdfrwt beam="1">  1        1 0.35466703E+00 0.27574976E+04</pdfrwt>
<pdfrwt beam="2">  1       -1 0.12685944E+00 0.27574976E+04</pdfrwt>
<totfact> 0.86460317E-01</totfact>
</mgrwt>
</event>
<event>
12    1  0.2404959E-007  0.1285656E+04  0.7818608E-02  0.9041018E-01
          1   -1    0    0  501    0  0.00000000000E+00  0.00000000000E+00  0.91567221021E+03  0.91567221021E+03  0.00000000000E+00 0. -1.
         -1   -1    0    0    0  501 -0.00000000000E+00 -0.00000000000E+00 -0.45128337639E+03  0.45128337639E+03  0.00000000000E+00 0.  1.
         23    2    1    2    0    0 -0.19530146795E+03  0.22083823762E+03 -0.89993980002E+00  0.31166672350E+03  0.10110957455E+03 0.  0.
        254    2    1    2    0    0  0.19530146795E+03 -0.22083823762E+03  0.46528877362E+03  0.10552888631E+04  0.90012707500E+03 0.  0.
        -24    2    4    4    0    0  0.14763037832E+03  0.29612121179E+03 -0.19414592902E+02  0.34065626066E+03  0.78659143390E+02 0.  0.
         24    2    4    4    0    0  0.47671089635E+02 -0.51695944941E+03  0.48470336652E+03  0.71463260243E+03  0.79011377835E+02 0.  0.
         13    1    3    3    0    0 -0.17893804086E+03  0.14098747557E+03  0.16197566607E+02  0.22838268739E+03  0.00000000000E+00 0. -1.
        -13    1    3    3    0    0 -0.16363427095E+02  0.79850762046E+02 -0.17097506407E+02  0.83284036111E+02  0.00000000000E+00 0.  1.
          2    1    6    6  502    0  0.32675226516E+01 -0.79184005861E+02  0.39037511627E+02  0.88344274305E+02  0.00000000000E+00 0. -1.
          1    1    5    5  503    0  0.75419066230E+02  0.83965330459E+02  0.15227111184E+02  0.11388624669E+03  0.00000000000E+00 0. -1.
         -2    1    5    5    0  503  0.72211312089E+02  0.21215588133E+03 -0.34641704086E+02  0.22677001397E+03  0.00000000000E+00 0.  1.
         -1    1    6    6    0  502  0.44403566984E+02 -0.43777544355E+03  0.44566585489E+03  0.62628832813E+03  0.00000000000E+00 0.  1.
<mgrwt>
<rscale>  0 0.12856557E+04</rscale>
<asrwt>0</asrwt>
<pdfrwt beam="1">  1        1 0.14087265E+00 0.12856557E+04</pdfrwt>
<pdfrwt beam="2">  1       -1 0.69428212E-01 0.12856557E+04</pdfrwt>
<totfact> 0.36470444E+01</totfact>
</mgrwt>
</event>
<event>
12    1  0.2404959E-007  0.1534362E+04  0.7818608E-02  0.8861919E-01
          2   -1    0    0  501    0  0.00000000000E+00  0.00000000000E+00  0.14750925445E+04  0.14750925445E+04  0.00000000000E+00 0. -1.
         -2   -1    0    0    0  501 -0.00000000000E+00 -0.00000000000E+00 -0.39900320278E+03  0.39900320278E+03  0.00000000000E+00 0.  1.
         23    2    1    2    0    0 -0.34342683243E+03 -0.22488970283E+03  0.10517821908E+02  0.41864972748E+03  0.81483753392E+02 0.  0.
        254    2    1    2    0    0  0.34342683243E+03  0.22488970283E+03  0.10655715198E+04  0.14554460198E+04  0.90242068077E+03 0.  0.
        -24    2    4    4    0    0  0.14301522721E+03 -0.31628866213E+03  0.19205360443E+03  0.40542108367E+03  0.83604994471E+02 0.  0.
         24    2    4    4    0    0  0.20041160521E+03  0.54117836496E+03  0.87351791538E+03  0.10500249361E+04  0.80498346737E+02 0.  0.
         13    1    3    3    0    0 -0.24225333869E+03 -0.18248721747E+03 -0.22388310226E+02  0.30412086590E+03  0.00000000000E+00 0.  1.
        -13    1    3    3    0    0 -0.10117349374E+03 -0.42402485366E+02  0.32906132134E+02  0.11452886157E+03  0.00000000000E+00 0. -1.
          4    1    6    6  502    0  0.20150259046E+03  0.48017700936E+03  0.76260802395E+03  0.92344152628E+03  0.00000000000E+00 0. -1.
          3    1    5    5  503    0  0.98611050238E+02 -0.28734778260E+03  0.16877991883E+03  0.34753352125E+03  0.00000000000E+00 0. -1.
         -4    1    5    5    0  503  0.44404176976E+02 -0.28940879530E+02  0.23273685604E+02  0.57887562416E+02  0.00000000000E+00 0.  1.
         -3    1    6    6    0  502 -0.10909852412E+01  0.61001355604E+02  0.11090989143E+03  0.12658340986E+03  0.00000000000E+00 0.  1.
<mgrwt>
<rscale>  0 0.15343620E+04</rscale>
<asrwt>0</asrwt>
<pdfrwt beam="1">  1        2 0.22693731E+00 0.15343620E+04</pdfrwt>
<pdfrwt beam="2">  1       -2 0.61385109E-01 0.15343620E+04</pdfrwt>
<totfact> 0.31177550E+01</totfact>
</mgrwt>
</event>
<event>
12    1  0.2404959E-007  0.2072726E+04  0.7818608E-02  0.8573354E-01
          2   -1    0    0  501    0  0.00000000000E+00  0.00000000000E+00  0.22368859032E+04  0.22368859032E+04  0.00000000000E+00 0. -1.
         -2   -1    0    0    0  501 -0.00000000000E+00 -0.00000000000E+00 -0.48015323951E+03  0.48015323951E+03  0.00000000000E+00 0.  1.
         23    2    1    2    0    0  0.24106033852E+03 -0.77166890531E+03  0.10079211942E+04  0.12952664214E+04  0.90702714997E+02 0.  0.
        254    2    1    2    0    0 -0.24106033852E+03  0.77166890531E+03  0.74881146943E+03  0.14217727212E+04  0.89840751771E+03 0.  0.
        -24    2    4    4    0    0 -0.19493337493E+02 -0.19637397358E+03  0.14915460762E+03  0.25902916464E+03  0.76852348419E+02 0.  0.
         24    2    4    4    0    0 -0.22156700102E+03  0.96804287889E+03  0.59965686181E+03  0.11627435566E+04  0.78646520493E+02 0.  0.
         13    1    3    3    0    0  0.16004069282E+03 -0.36321479258E+03  0.47772695098E+03  0.62109664996E+03  0.00000000000E+00 0. -1.
        -13    1    3    3    0    0  0.81019645696E+02 -0.40845411273E+03  0.53019424323E+03  0.67416977146E+03  0.00000000000E+00 0.  1.
          4    1    6    6  502    0 -0.23053462725E+02  0.33271563001E+02  0.27493346220E+02  0.48932025653E+02  0.00000000000E+00 0. -1.
          1    1    5    5  503    0  0.13006407558E+02 -0.27580473056E+02 -0.13991719518E+01  0.30525510868E+02  0.00000000000E+00 0. -1.
         -2    1    5    5    0  503 -0.32499745052E+02 -0.16879350052E+03  0.15055377957E+03  0.22850365377E+03  0.00000000000E+00 0.  1.
         -3    1    6    6    0  502 -0.19851353830E+03  0.93477131588E+03  0.57216351559E+03  0.11138115309E+04  0.00000000000E+00 0.  1.
<mgrwt>
<rscale>  0 0.20727258E+04</rscale>
<asrwt>0</asrwt>
<pdfrwt beam="1">  1        2 0.34413629E+00 0.20727258E+04</pdfrwt>
<pdfrwt beam="2">  1       -2 0.73869730E-01 0.20727258E+04</pdfrwt>
<totfact> 0.75079357E+00</totfact>
</mgrwt>
</event>
<event>
12    1  0.2404959E-007  0.3381441E+04  0.7818608E-02  0.8142476E-01
          2   -1    0    0  501    0  0.00000000000E+00  0.00000000000E+00  0.11296188767E+04  0.11296188767E+04  0.00000000000E+00 0. -1.
         -2   -1    0    0    0  501 -0.00000000000E+00 -0.00000000000E+00 -0.25305317302E+04  0.25305317302E+04  0.00000000000E+00 0.  1.
         23    2    1    2    0    0  0.26016036784E+03  0.15435056743E+04 -0.77349130491E+03  0.17484716306E+04  0.93653940587E+02 0.  0.
        254    2    1    2    0    0 -0.26016036784E+03 -0.15435056743E+04 -0.62742154865E+03  0.19116789763E+04  0.90042519133E+03 0.  0.
        -24    2    4    4    0    0  0.11205426127E+03 -0.48449848339E+02 -0.30082726464E+03  0.33468748053E+03  0.81333395342E+02 0.  0.
         24    2    4    4    0    0 -0.37221462911E+03 -0.14950558260E+04 -0.32659428401E+03  0.15769914958E+04  0.80639311588E+02 0.  0.
         13    1    3    3    0    0  0.10713333915E+03  0.56542303805E+03 -0.23603807494E+03  0.62200863108E+03  0.00000000000E+00 0. -1.
        -13    1    3    3    0    0  0.15302702868E+03  0.97808263624E+03 -0.53745322997E+03  0.11264629995E+04  0.00000000000E+00 0.  1.
          2    1    6    6  502    0 -0.28490234657E+02 -0.73630524538E+02 -0.18373361563E+01  0.78971662124E+02  0.00000000000E+00 0. -1.
          3    1    5    5  503    0  0.46797379150E+02 -0.54086744578E+02 -0.96476999387E+02  0.12009655301E+03  0.00000000000E+00 0. -1.
         -4    1    5    5    0  503  0.65256882125E+02  0.56368962396E+01 -0.20435026525E+03  0.21459092752E+03  0.00000000000E+00 0.  1.
         -1    1    6    6    0  502 -0.34372439445E+03 -0.14214253014E+04 -0.32475694785E+03  0.14980198337E+04  0.00000000000E+00 0.  1.
<mgrwt>
<rscale>  0 0.33814414E+04</rscale>
<asrwt>0</asrwt>
<pdfrwt beam="1">  1        2 0.17378752E+00 0.33814414E+04</pdfrwt>
<pdfrwt beam="2">  1       -2 0.38931257E+00 0.33814414E+04</pdfrwt>
<totfact> 0.15092664E-01</totfact>
</mgrwt>
</event>
<event>
12    1  0.2404959E-007  0.3725324E+04  0.7818608E-02  0.8062373E-01
          1   -1    0    0  501    0  0.00000000000E+00  0.00000000000E+00  0.20316935539E+04  0.20316935539E+04  0.00000000000E+00 0. -1.
         -1   -1    0    0    0  501 -0.00000000000E+00 -0.00000000000E+00 -0.17076930447E+04  0.17076930447E+04  0.00000000000E+00 0.  1.
         23    2    1    2    0    0 -0.10462319216E+04 -0.99139321727E+03 -0.84847645827E+03  0.16750433071E+04  0.91629882765E+02 0.  0.
        254    2    1    2    0    0  0.10462319216E+04  0.99139321727E+03  0.11724769675E+04  0.20643432915E+04  0.89963839432E+03 0.  0.
        -24    2    4    4    0    0  0.10954714210E+04  0.76164856853E+03  0.65163786529E+03  0.14874783144E+04  0.88281663784E+02 0.  0.
         24    2    4    4    0    0 -0.49239499444E+02  0.22974464874E+03  0.52083910225E+03  0.57686497702E+03  0.79326536242E+02 0.  0.
         13    1    3    3    0    0 -0.10043479464E+04 -0.92856316284E+03 -0.81690999011E+03  0.15932000115E+04  0.00000000000E+00 0.  1.
        -13    1    3    3    0    0 -0.41883975242E+02 -0.62830054428E+02 -0.31566468164E+02  0.81843295595E+02  0.00000000000E+00 0. -1.
          4    1    6    6  502    0 -0.32157182265E+02  0.20627317466E+03  0.49780250661E+03  0.53980555994E+03  0.00000000000E+00 0. -1.
          1    1    5    5  503    0  0.59429508857E+03  0.41898385550E+03  0.30638198688E+03  0.78905262521E+03  0.00000000000E+00 0. -1.
         -4    1    5    5    0  503  0.50117633248E+03  0.34266471303E+03  0.34525587841E+03  0.69842568923E+03  0.00000000000E+00 0.  1.
         -3    1    6    6    0  502 -0.17082317178E+02  0.23471474079E+02  0.23036595635E+02  0.37059417077E+02  0.00000000000E+00 0.  1.
<mgrwt>
<rscale>  0 0.37253236E+04</rscale>
<asrwt>0</asrwt>
<pdfrwt beam="1">  1        1 0.31256824E+00 0.37253236E+04</pdfrwt>
<pdfrwt beam="2">  1       -1 0.26272200E+00 0.37253236E+04</pdfrwt>
<totfact> 0.13080793E-01</totfact>
</mgrwt>
</event>
<event>
12    1  0.2404959E-007  0.1399200E+04  0.7818608E-02  0.8954398E-01
         -2   -1    0    0    0  501 -0.00000000000E+00  0.00000000000E+00  0.44465876768E+03  0.44465876768E+03  0.00000000000E+00 0.  1.
          2   -1    0    0  501    0  0.00000000000E+00 -0.00000000000E+00 -0.11007093910E+04  0.11007093910E+04  0.00000000000E+00 0. -1.
         23    2    1    2    0    0  0.32837330509E+03  0.16696513320E+03 -0.37585643914E+03  0.53433006504E+03  0.92380584322E+02 0.  0.
        254    2    1    2    0    0 -0.32837330509E+03 -0.16696513320E+03 -0.28019418416E+03  0.10110380936E+04  0.89887866963E+03 0.  0.
        -24    2    4    4    0    0 -0.43296603242E+03 -0.46817074222E+03 -0.19978165767E+03  0.67269199115E+03  0.77190511825E+02 0.  0.
         24    2    4    4    0    0  0.10459272733E+03  0.30120560902E+03 -0.80412526492E+02  0.33834610247E+03  0.79670905143E+02 0.  0.
         11    1    3    3    0    0  0.13044830090E+03  0.17878793234E+02 -0.11991560762E+03  0.17809032373E+03  0.00000000000E+00 0. -1.
        -11    1    3    3    0    0  0.19792500419E+03  0.14908633997E+03 -0.25594083152E+03  0.35623974131E+03  0.00000000000E+00 0.  1.
          2    1    6    6  502    0  0.12331589730E+02  0.10216014814E+03 -0.57205714376E+02  0.11773384276E+03  0.00000000000E+00 0. -1.
          1    1    5    5  503    0 -0.17994633140E+02 -0.35792904936E+02  0.26087867805E+01  0.40146539503E+02  0.00000000000E+00 0. -1.
         -2    1    5    5    0  503 -0.41497139928E+03 -0.43237783728E+03 -0.20239044445E+03  0.63254545164E+03  0.00000000000E+00 0.  1.
         -1    1    6    6    0  502  0.92261137598E+02  0.19904546087E+03 -0.23206812116E+02  0.22061225971E+03  0.00000000000E+00 0.  1.
<mgrwt>
<rscale>  0 0.13991999E+04</rscale>
<asrwt>0</asrwt>
<pdfrwt beam="1">  1        2 0.16933990E+00 0.13991999E+04</pdfrwt>
<pdfrwt beam="2">  1       -2 0.68409042E-01 0.13991999E+04</pdfrwt>
<totfact> 0.41411434E+01</totfact>
</mgrwt>
</event>
<event>
12    1  0.2404959E-007  0.2515020E+04  0.7818608E-02  0.8397654E-01
         -1   -1    0    0    0  501 -0.00000000000E+00  0.00000000000E+00  0.87621970600E+03  0.87621970600E+03  0.00000000000E+00 0.  1.
          1   -1    0    0  501    0  0.00000000000E+00 -0.00000000000E+00 -0.18047207250E+04  0.18047207250E+04  0.00000000000E+00 0. -1.
         23    2    1    2    0    0  0.37220211584E+03 -0.96168777894E+03 -0.13865962575E+02  0.10352710744E+04  0.90642889378E+02 0.  0.
        254    2    1    2    0    0 -0.37220211584E+03  0.96168777894E+03 -0.91463505642E+03  0.16456693566E+04  0.89905091381E+03 0.  0.
        -24    2    4    4    0    0  0.14501141085E+03  0.77966575767E+03 -0.66465341365E+03  0.10378589739E+04  0.80498983818E+02 0.  0.
         24    2    4    4    0    0 -0.51721352669E+03  0.18202202127E+03 -0.24998164277E+03  0.60781038273E+03  0.79377523345E+02 0.  0.
         11    1    3    3    0    0  0.62728518908E+02 -0.13895127592E+03 -0.33263620581E+02  0.15604099660E+03  0.00000000000E+00 0.  1.
        -11    1    3    3    0    0  0.30947359693E+03 -0.82273650301E+03  0.19397658006E+02  0.87923007781E+03  0.00000000000E+00 0. -1.
          2    1    6    6  502    0 -0.27474737059E+03  0.79729601292E+02 -0.16992344977E+03  0.33274149989E+03  0.00000000000E+00 0. -1.
          3    1    5    5  503    0  0.13887856709E+03  0.75804079226E+03 -0.62483844875E+03  0.99213718113E+03  0.00000000000E+00 0. -1.
         -4    1    5    5    0  503  0.61328437632E+01  0.21624965405E+02 -0.39814964901E+02  0.45721792741E+02  0.00000000000E+00 0.  1.
         -1    1    6    6    0  502 -0.24246615610E+03  0.10229241997E+03 -0.80058192999E+02  0.27506888283E+03  0.00000000000E+00 0.  1.
<mgrwt>
<rscale>  0 0.25150204E+04</rscale>
<asrwt>0</asrwt>
<pdfrwt beam="1">  1        1 0.27764934E+00 0.25150204E+04</pdfrwt>
<pdfrwt beam="2">  1       -1 0.13480303E+00 0.25150204E+04</pdfrwt>
<totfact> 0.16588978E+00</totfact>
</mgrwt>
</event>
<event>
12    1  0.2404959E-007  0.3113910E+04  0.7818608E-02  0.8211931E-01
          2   -1    0    0  501    0  0.00000000000E+00  0.00000000000E+00  0.20468841925E+04  0.20468841925E+04  0.00000000000E+00 0. -1.
         -2   -1    0    0    0  501 -0.00000000000E+00 -0.00000000000E+00 -0.11842922181E+04  0.11842922181E+04  0.00000000000E+00 0.  1.
         23    2    1    2    0    0 -0.91113796172E+03 -0.19491489473E+03 -0.72266563288E+03  0.11846808989E+04  0.11427604235E+03 0.  0.
        254    2    1    2    0    0  0.91113796172E+03  0.19491489473E+03  0.15852576072E+04  0.20464955117E+04  0.89829727635E+03 0.  0.
        -24    2    4    4    0    0  0.60908441115E+03  0.19987828939E+03  0.27954395083E+03  0.70393072314E+03  0.80240214704E+02 0.  0.
         24    2    4    4    0    0  0.30205355057E+03 -0.49633946609E+01  0.13057136564E+04  0.13425647886E+04  0.79568060789E+02 0.  0.
         13    1    3    3    0    0 -0.17740626505E+03 -0.56522290134E+02 -0.93877019949E+02  0.20852013580E+03  0.00000000000E+00 0. -1.
        -13    1    3    3    0    0 -0.73373169667E+03 -0.13839260460E+03 -0.62878861293E+03  0.97616076312E+03  0.00000000000E+00 0.  1.
          2    1    6    6  502    0  0.26636052917E+03 -0.17502005595E+02  0.12201995473E+04  0.12490561184E+04  0.00000000000E+00 0. -1.
          1    1    5    5  503    0  0.27655846941E+03  0.12587966311E+03  0.15596310491E+03  0.34154760529E+03  0.00000000000E+00 0. -1.
         -2    1    5    5    0  503  0.33252594175E+03  0.73998626284E+02  0.12358084592E+03  0.36238311785E+03  0.00000000000E+00 0.  1.
         -1    1    6    6    0  502  0.35693021402E+02  0.12538610934E+02  0.85514109154E+02  0.93508670215E+02  0.00000000000E+00 0.  1.
<mgrwt>
<rscale>  0 0.31139101E+04</rscale>
<asrwt>0</asrwt>
<pdfrwt beam="1">  1        2 0.31490526E+00 0.31139101E+04</pdfrwt>
<pdfrwt beam="2">  1       -2 0.18219880E+00 0.31139101E+04</pdfrwt>
<totfact> 0.93431297E-01</totfact>
</mgrwt>
</event>
<event>
12    1  0.2404959E-007  0.1993903E+04  0.7818608E-02  0.8609477E-01
          1   -1    0    0  501    0  0.00000000000E+00  0.00000000000E+00  0.15060666191E+04  0.15060666191E+04  0.00000000000E+00 0. -1.
         -1   -1    0    0    0  501 -0.00000000000E+00 -0.00000000000E+00 -0.65993914552E+03  0.65993914552E+03  0.00000000000E+00 0.  1.
         23    2    1    2    0    0 -0.57384372106E+03 -0.51457699918E+03  0.14400786306E+03  0.78849273189E+03  0.83044682739E+02 0.  0.
        254    2    1    2    0    0  0.57384372106E+03  0.51457699918E+03  0.70211961057E+03  0.13775130328E+04  0.90026890629E+03 0.  0.
        -24    2    4    4    0    0  0.47101575427E+02 -0.18403742477E+03  0.39685902933E+03  0.44732701746E+03  0.80721987477E+02 0.  0.
         24    2    4    4    0    0  0.52674214564E+03  0.69861442395E+03  0.30526058124E+03  0.93018601532E+03  0.80886335669E+02 0.  0.
         13    1    3    3    0    0 -0.85323110140E+02 -0.47393922158E+02  0.11522744152E+01  0.97609142593E+02  0.00000000000E+00 0.  1.
        -13    1    3    3    0    0 -0.48852061093E+03 -0.46718307702E+03  0.14285558864E+03  0.69088358930E+03  0.00000000000E+00 0. -1.
          4    1    6    6  502    0  0.50242814793E+03  0.66911713267E+03  0.30853052263E+03  0.89181997313E+03  0.00000000000E+00 0. -1.
          3    1    5    5  503    0  0.66876951999E+02 -0.16773103496E+03  0.34064828201E+03  0.38554828340E+03  0.00000000000E+00 0. -1.
         -4    1    5    5    0  503 -0.19775376572E+02 -0.16306389810E+02  0.56210747322E+02  0.61778734057E+02  0.00000000000E+00 0.  1.
         -3    1    6    6    0  502  0.24313997703E+02  0.29497291274E+02 -0.32699413896E+01  0.38366042192E+02  0.00000000000E+00 0.  1.
<mgrwt>
<rscale>  0 0.19939030E+04</rscale>
<asrwt>0</asrwt>
<pdfrwt beam="1">  1        1 0.23170255E+00 0.19939030E+04</pdfrwt>
<pdfrwt beam="2">  1       -1 0.10152910E+00 0.19939030E+04</pdfrwt>
<totfact> 0.55342597E+00</totfact>
</mgrwt>
</event>
<event>
12    1  0.2404959E-007  0.1245209E+04  0.7818608E-02  0.9074180E-01
         -2   -1    0    0    0  501 -0.00000000000E+00  0.00000000000E+00  0.18155688169E+03  0.18155688169E+03  0.00000000000E+00 0.  1.
          2   -1    0    0  501    0  0.00000000000E+00 -0.00000000000E+00 -0.21350697899E+04  0.21350697899E+04  0.00000000000E+00 0. -1.
         23    2    1    2    0    0  0.22975814724E+03  0.35114205849E+02 -0.15837965669E+03  0.29603508429E+03  0.92362556300E+02 0.  0.
        254    2    1    2    0    0 -0.22975814724E+03 -0.35114205849E+02 -0.17951332515E+04  0.20205915873E+04  0.89792269057E+03 0.  0.
        -24    2    4    4    0    0  0.48631379910E+02  0.37460506766E+03 -0.10826283653E+04  0.11492086626E+04  0.76827110975E+02 0.  0.
         24    2    4    4    0    0 -0.27838952715E+03 -0.40971927350E+03 -0.71250488624E+03  0.87138292473E+03  0.79210963128E+02 0.  0.
         13    1    3    3    0    0  0.46926025324E+02  0.38755151907E+02 -0.70534031762E+02  0.93161490374E+02  0.00000000000E+00 0. -1.
        -13    1    3    3    0    0  0.18283212191E+03 -0.36409460586E+01 -0.87845624925E+02  0.20287359392E+03  0.00000000000E+00 0.  1.
          2    1    6    6  502    0 -0.20341071311E+03 -0.23477568187E+03 -0.46344175145E+03  0.55791916618E+03  0.00000000000E+00 0. -1.
          3    1    5    5  503    0  0.60043346884E+02  0.36014957610E+03 -0.10005218106E+04  0.10650618828E+04  0.00000000000E+00 0. -1.
         -4    1    5    5    0  503 -0.11411966974E+02  0.14455491556E+02 -0.82106554691E+02  0.84146779793E+02  0.00000000000E+00 0.  1.
         -1    1    6    6    0  502 -0.74978814034E+02 -0.17494359164E+03 -0.24906313480E+03  0.31346375855E+03  0.00000000000E+00 0.  1.
<mgrwt>
<rscale>  0 0.12452094E+04</rscale>
<asrwt>0</asrwt>
<pdfrwt beam="1">  1        2 0.32847227E+00 0.12452094E+04</pdfrwt>
<pdfrwt beam="2">  1       -2 0.27931828E-01 0.12452094E+04</pdfrwt>
<totfact> 0.64829791E+01</totfact>
</mgrwt>
</event>
<event>
12    1  0.2404959E-007  0.2053457E+04  0.7818608E-02  0.8582028E-01
          2   -1    0    0  501    0  0.00000000000E+00  0.00000000000E+00  0.17634226724E+04  0.17634226724E+04  0.00000000000E+00 0. -1.
         -2   -1    0    0    0  501 -0.00000000000E+00 -0.00000000000E+00 -0.59779856702E+03  0.59779856702E+03  0.00000000000E+00 0.  1.
         23    2    1    2    0    0  0.25941212933E+03  0.68396811044E+03  0.32474193720E+02  0.73840760124E+03  0.95310982348E+02 0.  0.
        254    2    1    2    0    0 -0.25941212933E+03 -0.68396811044E+03  0.11331499117E+04  0.16228136382E+04  0.90243468078E+03 0.  0.
        -24    2    4    4    0    0  0.24304880655E+03 -0.22850206725E+03  0.57609646129E+02  0.34865870117E+03  0.83415235264E+02 0.  0.
         24    2    4    4    0    0 -0.50246093588E+03 -0.45546604320E+03  0.10755402656E+04  0.12741549370E+04  0.82265619604E+02 0.  0.
         11    1    3    3    0    0  0.11806887272E+03  0.26567280739E+03 -0.30850738074E+02  0.29235948305E+03  0.00000000000E+00 0.  1.
        -11    1    3    3    0    0  0.14134325661E+03  0.41829530306E+03  0.63324931794E+02  0.44604811818E+03  0.00000000000E+00 0. -1.
          2    1    6    6  502    0 -0.20698637167E+03 -0.18369636241E+03  0.36507776547E+03  0.45811514542E+03  0.00000000000E+00 0. -1.
          1    1    5    5  503    0  0.24959098588E+03 -0.21966680733E+03  0.52786480057E+02  0.33665349984E+03  0.00000000000E+00 0. -1.
         -2    1    5    5    0  503 -0.65421793292E+01 -0.88352599146E+01  0.48231660715E+01  0.12005201335E+02  0.00000000000E+00 0.  1.
         -1    1    6    6    0  502 -0.29547456421E+03 -0.27176968079E+03  0.71046250008E+03  0.81603979162E+03  0.00000000000E+00 0.  1.
<mgrwt>
<rscale>  0 0.20534571E+04</rscale>
<asrwt>0</asrwt>
<pdfrwt beam="1">  1        2 0.27129579E+00 0.20534571E+04</pdfrwt>
<pdfrwt beam="2">  1       -2 0.91969011E-01 0.20534571E+04</pdfrwt>
<totfact> 0.84072584E+00</totfact>
</mgrwt>
</event>
<event>
12    1  0.2404959E-007  0.2375184E+04  0.7818608E-02  0.8448853E-01
         -1   -1    0    0    0  501 -0.00000000000E+00  0.00000000000E+00  0.60791847402E+03  0.60791847402E+03  0.00000000000E+00 0.  1.
          1   -1    0    0  501    0  0.00000000000E+00 -0.00000000000E+00 -0.23200065198E+04  0.23200065198E+04  0.00000000000E+00 0. -1.
         23    2    1    2    0    0 -0.97298747187E+03  0.24407754090E+03 -0.93454378981E+03  0.13740137289E+04  0.90901957139E+02 0.  0.
        254    2    1    2    0    0  0.97298747187E+03 -0.24407754090E+03 -0.77754425601E+03  0.15539112649E+04  0.89654151207E+03 0.  0.
        -24    2    4    4    0    0  0.10673215740E+04 -0.22378874319E+03 -0.87101257848E+03  0.13981934121E+04  0.83816239546E+02 0.  0.
         24    2    4    4    0    0 -0.94334102095E+02 -0.20288797710E+02  0.93468322473E+02  0.15571785282E+03  0.78747471382E+02 0.  0.
         13    1    3    3    0    0 -0.25295675588E+03  0.52357225163E+02 -0.29454404366E+03  0.39177109775E+03  0.00000000000E+00 0. -1.
        -13    1    3    3    0    0 -0.72003071598E+03  0.19172031574E+03 -0.63999974615E+03  0.98224263117E+03  0.00000000000E+00 0.  1.
          4    1    6    6  502    0  0.10569429714E+01 -0.28220148349E+02  0.15192010481E+02  0.32066978088E+02  0.00000000000E+00 0. -1.
          1    1    5    5  503    0  0.79211447606E+03 -0.13332931853E+03 -0.66340504423E+03  0.10417909114E+04  0.00000000000E+00 0. -1.
         -2    1    5    5    0  503  0.27520709790E+03 -0.90459424659E+02 -0.20760753425E+03  0.35640250073E+03  0.00000000000E+00 0.  1.
         -1    1    6    6    0  502 -0.95391045066E+02  0.79313506385E+01  0.78276311992E+02  0.12365087473E+03  0.00000000000E+00 0.  1.
<mgrwt>
<rscale>  0 0.23751841E+04</rscale>
<asrwt>0</asrwt>
<pdfrwt beam="1">  1        1 0.35692408E+00 0.23751841E+04</pdfrwt>
<pdfrwt beam="2">  1       -1 0.93525919E-01 0.23751841E+04</pdfrwt>
<totfact> 0.17954916E+00</totfact>
</mgrwt>
</event>
<event>
12    1  0.2404959E-007  0.1179808E+04  0.7818608E-02  0.9130716E-01
          1   -1    0    0  501    0  0.00000000000E+00  0.00000000000E+00  0.27274642035E+04  0.27274642035E+04  0.00000000000E+00 0. -1.
         -1   -1    0    0    0  501 -0.00000000000E+00 -0.00000000000E+00 -0.12758617653E+03  0.12758617653E+03  0.00000000000E+00 0.  1.
         23    2    1    2    0    0 -0.22480523384E+03  0.58507084918E+02  0.60014383789E+03  0.65093782417E+03  0.97912984990E+02 0.  0.
        254    2    1    2    0    0  0.22480523384E+03 -0.58507084918E+02  0.19997341891E+04  0.22041125559E+04  0.89733765093E+03 0.  0.
        -24    2    4    4    0    0  0.22154409740E+03 -0.45407074113E+03  0.12829068628E+04  0.13813474262E+04  0.83717789826E+02 0.  0.
         24    2    4    4    0    0  0.32611364395E+01  0.39556365622E+03  0.71682732633E+03  0.82276512966E+03  0.81362163689E+02 0.  0.
         11    1    3    3    0    0 -0.17429254031E+03  0.23461499405E+02  0.52599761227E+03  0.55461862543E+03  0.00000000000E+00 0. -1.
        -11    1    3    3    0    0 -0.50512693534E+02  0.35045585513E+02  0.74146225618E+02  0.96319198737E+02  0.00000000000E+00 0.  1.
          4    1    6    6  502    0 -0.36152378177E+02  0.12319614848E+03  0.21439976703E+03  0.24990307231E+03  0.00000000000E+00 0. -1.
          3    1    5    5  503    0  0.53306670879E+02 -0.44831366214E+02  0.17491689071E+03  0.18827472271E+03  0.00000000000E+00 0. -1.
         -4    1    5    5    0  503  0.16823742652E+03 -0.40923937492E+03  0.11079899721E+04  0.11930727035E+04  0.00000000000E+00 0.  1.
         -3    1    6    6    0  502  0.39413514617E+02  0.27236750774E+03  0.50242755930E+03  0.57286205735E+03  0.00000000000E+00 0.  1.
<mgrwt>
<rscale>  0 0.11798080E+04</rscale>
<asrwt>0</asrwt>
<pdfrwt beam="1">  1        1 0.41960983E+00 0.11798080E+04</pdfrwt>
<pdfrwt beam="2">  1       -1 0.19628645E-01 0.11798080E+04</pdfrwt>
<totfact> 0.19824237E+01</totfact>
</mgrwt>
</event>
<event>
12    1  0.2404959E-007  0.1339842E+04  0.7818608E-02  0.8998554E-01
          1   -1    0    0  501    0  0.00000000000E+00  0.00000000000E+00  0.15788701670E+04  0.15788701670E+04  0.00000000000E+00 0. -1.
         -1   -1    0    0    0  501 -0.00000000000E+00 -0.00000000000E+00 -0.28425012450E+03  0.28425012450E+03  0.00000000000E+00 0.  1.
         23    2    1    2    0    0 -0.19023600767E+02 -0.33265396730E+03  0.18016816006E+03  0.38943900853E+03  0.90452286391E+02 0.  0.
        254    2    1    2    0    0  0.19023600767E+02  0.33265396730E+03  0.11144518825E+04  0.14736812830E+04  0.90482758922E+03 0.  0.
        -24    2    4    4    0    0 -0.38443035878E+03 -0.41984546241E+02  0.58067820026E+03  0.70226353904E+03  0.80234052257E+02 0.  0.
         24    2    4    4    0    0  0.40345395954E+03  0.37463851354E+03  0.53377368221E+03  0.77141774397E+03  0.83915901905E+02 0.  0.
         13    1    3    3    0    0  0.22079608262E+02 -0.16194268601E+03  0.50182494706E+02  0.17097141699E+03  0.00000000000E+00 0.  1.
        -13    1    3    3    0    0 -0.41103209029E+02 -0.17071128129E+03  0.12998566536E+03  0.21846759154E+03  0.00000000000E+00 0. -1.
          4    1    6    6  502    0  0.16716206100E+01 -0.26675824395E+01  0.12145812410E+02  0.12547153886E+02  0.00000000000E+00 0. -1.
          3    1    5    5  503    0 -0.17202231913E+03  0.20372274612E+02  0.26975738883E+03  0.32058658219E+03  0.00000000000E+00 0. -1.
         -4    1    5    5    0  503 -0.21240803965E+03 -0.62356820853E+02  0.31092081143E+03  0.38167695685E+03  0.00000000000E+00 0.  1.
         -3    1    6    6    0  502  0.40178233893E+03  0.37730609598E+03  0.52162786980E+03  0.75887059008E+03  0.00000000000E+00 0.  1.
<mgrwt>
<rscale>  0 0.13398418E+04</rscale>
<asrwt>0</asrwt>
<pdfrwt beam="1">  1        1 0.24290310E+00 0.13398418E+04</pdfrwt>
<pdfrwt beam="2">  1       -1 0.43730789E-01 0.13398418E+04</pdfrwt>
<totfact> 0.29198213E+01</totfact>
</mgrwt>
</event>
<event>
12    1  0.2404959E-007  0.1510708E+04  0.7818608E-02  0.8877363E-01
          3   -1    0    0  501    0  0.00000000000E+00  0.00000000000E+00  0.12016333311E+04  0.12016333311E+04  0.00000000000E+00 0. -1.
         -3   -1    0    0    0  501 -0.00000000000E+00 -0.00000000000E+00 -0.47481993593E+03  0.47481993593E+03  0.00000000000E+00 0.  1.
         23    2    1    2    0    0 -0.29853766896E+01  0.47692564304E+03  0.32275483073E+03  0.58122784137E+03  0.78664740225E+02 0.  0.
        254    2    1    2    0    0  0.29853766896E+01 -0.47692564304E+03  0.40405856440E+03  0.10952254256E+04  0.89932665256E+03 0.  0.
        -24    2    4    4    0    0 -0.32755367344E+03 -0.25448269571E+03  0.52226076589E+03  0.67171229193E+03  0.79926492069E+02 0.  0.
         24    2    4    4    0    0  0.33053905013E+03 -0.22244294733E+03 -0.11820220150E+03  0.42351313370E+03  0.81576255717E+02 0.  0.
         11    1    3    3    0    0 -0.21341350140E+02  0.20512433045E+03  0.99335474062E+02  0.22890823615E+03  0.00000000000E+00 0.  1.
        -11    1    3    3    0    0  0.18355973450E+02  0.27180131259E+03  0.22341935667E+03  0.35231960522E+03  0.00000000000E+00 0. -1.
          4    1    6    6  502    0  0.11637434118E+03 -0.81068171838E+02 -0.83436126970E+02  0.16454975859E+03  0.00000000000E+00 0. -1.
          3    1    5    5  503    0 -0.32536222339E+02 -0.51419012464E+02  0.10916532865E+03  0.12497835647E+03  0.00000000000E+00 0. -1.
         -4    1    5    5    0  503 -0.29501745110E+03 -0.20306368325E+03  0.41309543724E+03  0.54673393546E+03  0.00000000000E+00 0.  1.
         -3    1    6    6    0  502  0.21416470896E+03 -0.14137477549E+03 -0.34766074526E+02  0.25896337510E+03  0.00000000000E+00 0.  1.
<mgrwt>
<rscale>  0 0.15107077E+04</rscale>
<asrwt>0</asrwt>
<pdfrwt beam="1">  1        3 0.18486667E+00 0.15107077E+04</pdfrwt>
<pdfrwt beam="2">  1       -3 0.73049221E-01 0.15107077E+04</pdfrwt>
<totfact> 0.82896127E-01</totfact>
</mgrwt>
</event>
<event>
12    1  0.2404959E-007  0.2285088E+04  0.7818608E-02  0.8483824E-01
         -1   -1    0    0    0  501 -0.00000000000E+00  0.00000000000E+00  0.98939242196E+03  0.98939242196E+03  0.00000000000E+00 0.  1.
          1   -1    0    0  501    0  0.00000000000E+00 -0.00000000000E+00 -0.13194022621E+04  0.13194022621E+04  0.00000000000E+00 0. -1.
         23    2    1    2    0    0  0.67240345736E+03 -0.23577825389E+03  0.51591825965E+03  0.88456257198E+03  0.92528366638E+02 0.  0.
        254    2    1    2    0    0 -0.67240345736E+03  0.23577825389E+03 -0.84592809977E+03  0.14242321121E+04  0.89728755960E+03 0.  0.
        -24    2    4    4    0    0 -0.42833848273E+03  0.37931478553E+03 -0.95055607558E+03  0.11121559766E+04  0.77333700164E+02 0.  0.
         24    2    4    4    0    0 -0.24406497462E+03 -0.14353653164E+03  0.10462797580E+03  0.31207613547E+03  0.79208921550E+02 0.  0.
         13    1    3    3    0    0  0.46289690622E+03 -0.13319537006E+03  0.30535447881E+03  0.57031211641E+03  0.00000000000E+00 0. -1.
        -13    1    3    3    0    0  0.20950655113E+03 -0.10258288383E+03  0.21056378084E+03  0.31425045557E+03  0.00000000000E+00 0.  1.
          2    1    6    6  502    0 -0.15299737731E+03 -0.12871972928E+03  0.55282302357E+02  0.20744420725E+03  0.00000000000E+00 0. -1.
          1    1    5    5  503    0 -0.31401260234E+03  0.31901439144E+03 -0.75578018095E+03  0.87839500129E+03  0.00000000000E+00 0. -1.
         -2    1    5    5    0  503 -0.11432588039E+03  0.60300394094E+02 -0.19477589462E+03  0.23376097532E+03  0.00000000000E+00 0.  1.
         -1    1    6    6    0  502 -0.91067597320E+02 -0.14816802356E+02  0.49345673447E+02  0.10463192821E+03  0.00000000000E+00 0.  1.
<mgrwt>
<rscale>  0 0.22850878E+04</rscale>
<asrwt>0</asrwt>
<pdfrwt beam="1">  1        1 0.20298496E+00 0.22850878E+04</pdfrwt>
<pdfrwt beam="2">  1       -1 0.15221422E+00 0.22850878E+04</pdfrwt>
<totfact> 0.26591568E+00</totfact>
</mgrwt>
</event>
<event>
12    1  0.2404959E-007  0.1692921E+04  0.7818608E-02  0.8765412E-01
         -2   -1    0    0    0  501 -0.00000000000E+00  0.00000000000E+00  0.58013450025E+03  0.58013450025E+03  0.00000000000E+00 0.  1.
          2   -1    0    0  501    0  0.00000000000E+00 -0.00000000000E+00 -0.12350508522E+04  0.12350508522E+04  0.00000000000E+00 0. -1.
         23    2    1    2    0    0  0.30166436438E+03 -0.33332495808E+03  0.19490075439E+03  0.49879186162E+03  0.93274330570E+02 0.  0.
        254    2    1    2    0    0 -0.30166436438E+03  0.33332495808E+03 -0.84981710635E+03  0.13163934908E+04  0.89921954608E+03 0.  0.
        -24    2    4    4    0    0  0.26212098008E+03  0.13427124552E+03 -0.41600825020E+02  0.30807718797E+03  0.80279197392E+02 0.  0.
         24    2    4    4    0    0 -0.56378534446E+03  0.19905371256E+03 -0.80821628133E+03  0.10083163029E+04  0.77536533957E+02 0.  0.
         13    1    3    3    0    0  0.11927553071E+03 -0.10449258197E+03  0.25326033601E+02  0.16058256409E+03  0.00000000000E+00 0. -1.
        -13    1    3    3    0    0  0.18238883367E+03 -0.22883237611E+03  0.16957472079E+03  0.33820929753E+03  0.00000000000E+00 0.  1.
          2    1    6    6  502    0 -0.14836575644E+03  0.23270149697E+02 -0.17076780692E+03  0.22741051302E+03  0.00000000000E+00 0. -1.
          1    1    5    5  503    0  0.15874968458E+02  0.19475141526E+02 -0.25671437052E+02  0.35921002788E+02  0.00000000000E+00 0. -1.
         -2    1    5    5    0  503  0.24624601162E+03  0.11479610400E+03 -0.15929387969E+02  0.27215618519E+03  0.00000000000E+00 0.  1.
         -1    1    6    6    0  502 -0.41541958802E+03  0.17578356287E+03 -0.63744847441E+03  0.78090578984E+03  0.00000000000E+00 0.  1.
<mgrwt>
<rscale>  0 0.16929213E+04</rscale>
<asrwt>0</asrwt>
<pdfrwt beam="1">  1        2 0.19000782E+00 0.16929213E+04</pdfrwt>
<pdfrwt beam="2">  1       -2 0.89251463E-01 0.16929213E+04</pdfrwt>
<totfact> 0.18519078E+01</totfact>
</mgrwt>
</event>
<event>
12    1  0.2404959E-007  0.2754986E+04  0.7818608E-02  0.8317381E-01
          2   -1    0    0  501    0  0.00000000000E+00  0.00000000000E+00  0.12136017449E+04  0.12136017449E+04  0.00000000000E+00 0. -1.
         -2   -1    0    0    0  501 -0.00000000000E+00 -0.00000000000E+00 -0.15635164673E+04  0.15635164673E+04  0.00000000000E+00 0.  1.
         23    2    1    2    0    0 -0.12200869758E+04 -0.35142388448E+02 -0.14471056482E+02  0.12238905215E+04  0.88608020310E+02 0.  0.
        254    2    1    2    0    0  0.12200869758E+04  0.35142388448E+02 -0.33544366591E+03  0.15532276906E+04  0.90008143518E+03 0.  0.
        -24    2    4    4    0    0  0.84757933877E+03  0.12872781251E+01  0.21950671503E+03  0.87922758971E+03  0.80408730666E+02 0.  0.
         24    2    4    4    0    0  0.37250763701E+03  0.33855110323E+02 -0.55495038094E+03  0.67400010091E+03  0.79988140299E+02 0.  0.
         11    1    3    3    0    0 -0.74082699879E+03 -0.31712952073E+02 -0.50798701418E+02  0.74324347392E+03  0.00000000000E+00 0.  1.
        -11    1    3    3    0    0 -0.47925997700E+03 -0.34294363752E+01  0.36327644936E+02  0.48064704761E+03  0.00000000000E+00 0. -1.
          2    1    6    6  502    0  0.16636864153E+03 -0.24712079563E+02 -0.24626398087E+03  0.29821998598E+03  0.00000000000E+00 0. -1.
          3    1    5    5  503    0  0.82240292549E+03 -0.96018497465E+01  0.22138322181E+03  0.85173311446E+03  0.00000000000E+00 0. -1.
         -4    1    5    5    0  503  0.25176413286E+02  0.10889127872E+02 -0.18765067769E+01  0.27494475253E+02  0.00000000000E+00 0.  1.
         -1    1    6    6    0  502  0.20613899548E+03  0.58567189886E+02 -0.30868640007E+03  0.37578011493E+03  0.00000000000E+00 0.  1.
<mgrwt>
<rscale>  0 0.27549855E+04</rscale>
<asrwt>0</asrwt>
<pdfrwt beam="1">  1        2 0.18670796E+00 0.27549855E+04</pdfrwt>
<pdfrwt beam="2">  1       -2 0.24054099E+00 0.27549855E+04</pdfrwt>
<totfact> 0.11933956E+00</totfact>
</mgrwt>
</event>
<event>
12    1  0.2404959E-007  0.1785597E+04  0.7818608E-02  0.8713997E-01
         -1   -1    0    0    0  501 -0.00000000000E+00  0.00000000000E+00  0.81022628312E+03  0.81022628312E+03  0.00000000000E+00 0.  1.
          1   -1    0    0  501    0  0.00000000000E+00 -0.00000000000E+00 -0.98378571708E+03  0.98378571708E+03  0.00000000000E+00 0. -1.
         23    2    1    2    0    0  0.35131447399E+03  0.16587272333E+03 -0.60395391718E+03  0.72408833198E+03  0.92779084170E+02 0.  0.
        254    2    1    2    0    0 -0.35131447399E+03 -0.16587272333E+03  0.43039448322E+03  0.10699236682E+04  0.89920054752E+03 0.  0.
        -24    2    4    4    0    0 -0.56968940888E+03 -0.29493132219E+02  0.52950040872E+03  0.78254776106E+03  0.81206207023E+02 0.  0.
         24    2    4    4    0    0  0.21837493489E+03 -0.13637959111E+03 -0.99105925498E+02  0.28737590717E+03  0.80473116573E+02 0.  0.
         13    1    3    3    0    0  0.23075376373E+03  0.78700474314E+02 -0.43743132001E+03  0.50078660511E+03  0.00000000000E+00 0. -1.
        -13    1    3    3    0    0  0.12056071026E+03  0.87172249014E+02 -0.16652259717E+03  0.22330172688E+03  0.00000000000E+00 0.  1.
          4    1    6    6  502    0  0.34153625980E+02 -0.50701004871E+02 -0.48403931812E+02  0.77974371927E+02  0.00000000000E+00 0. -1.
          3    1    5    5  503    0 -0.89640685223E+02 -0.63837788606E+01  0.12745997643E+03  0.15595592541E+03  0.00000000000E+00 0. -1.
         -4    1    5    5    0  503 -0.48004872366E+03 -0.23109353358E+02  0.40204043229E+03  0.62659183564E+03  0.00000000000E+00 0.  1.
         -3    1    6    6    0  502  0.18422130891E+03 -0.85678586238E+02 -0.50701993686E+02  0.20940153524E+03  0.00000000000E+00 0.  1.
<mgrwt>
<rscale>  0 0.17855969E+04</rscale>
<asrwt>0</asrwt>
<pdfrwt beam="1">  1        1 0.15135165E+00 0.17855969E+04</pdfrwt>
<pdfrwt beam="2">  1       -1 0.12465020E+00 0.17855969E+04</pdfrwt>
<totfact> 0.82972778E+00</totfact>
</mgrwt>
</event>
<event>
12    1  0.2404959E-007  0.3997631E+04  0.7818608E-02  0.8005025E-01
         -1   -1    0    0    0  501 -0.00000000000E+00  0.00000000000E+00  0.32678710245E+04  0.32678710245E+04  0.00000000000E+00 0.  1.
          1   -1    0    0  501    0  0.00000000000E+00 -0.00000000000E+00 -0.12225893547E+04  0.12225893547E+04  0.00000000000E+00 0. -1.
         23    2    1    2    0    0  0.61739981678E+03 -0.17514535114E+04  0.14125832184E+04  0.23350639993E+04  0.91436292337E+02 0.  0.
        254    2    1    2    0    0 -0.61739981678E+03  0.17514535114E+04  0.63269845143E+03  0.21553963798E+04  0.89255492114E+03 0.  0.
        -24    2    4    4    0    0  0.21624508629E+03  0.54419278734E+03  0.19305298077E+03  0.62174822878E+03  0.79960486919E+02 0.  0.
         24    2    4    4    0    0 -0.83364490307E+03  0.12072607241E+04  0.43964547066E+03  0.15336481510E+04  0.79663234836E+02 0.  0.
         11    1    3    3    0    0  0.27075960926E+03 -0.86556658827E+03  0.72992842267E+03  0.11641785889E+04  0.00000000000E+00 0. -1.
        -11    1    3    3    0    0  0.34664020753E+03 -0.88588692315E+03  0.68265479570E+03  0.11708854104E+04  0.00000000000E+00 0.  1.
          2    1    6    6  502    0 -0.47882495160E+03  0.69098852843E+03  0.29293430375E+03  0.89025220416E+03  0.00000000000E+00 0. -1.
          1    1    5    5  503    0  0.20022139312E+03  0.43613987730E+03  0.13757473455E+03  0.49923281785E+03  0.00000000000E+00 0. -1.
         -2    1    5    5    0  503  0.16023693171E+02  0.10805291004E+03  0.55478246223E+02  0.12251541093E+03  0.00000000000E+00 0.  1.
         -1    1    6    6    0  502 -0.35481995147E+03  0.51627219564E+03  0.14671116691E+03  0.64339594687E+03  0.00000000000E+00 0.  1.
<mgrwt>
<rscale>  0 0.39976315E+04</rscale>
<asrwt>0</asrwt>
<pdfrwt beam="1">  1        1 0.18809067E+00 0.39976315E+04</pdfrwt>
<pdfrwt beam="2">  1       -1 0.50274938E+00 0.39976315E+04</pdfrwt>
<totfact> 0.11533705E-02</totfact>
</mgrwt>
</event>
<event>
12    1  0.2404959E-007  0.2251429E+04  0.7818608E-02  0.8497322E-01
         -1   -1    0    0    0  501 -0.00000000000E+00  0.00000000000E+00  0.19619502034E+04  0.19619502034E+04  0.00000000000E+00 0.  1.
          1   -1    0    0  501    0  0.00000000000E+00 -0.00000000000E+00 -0.64590499268E+03  0.64590499268E+03  0.00000000000E+00 0. -1.
         23    2    1    2    0    0 -0.25605625513E+03 -0.90837770042E+03  0.48559529547E+03  0.10629413042E+04  0.57676448441E+02 0.  0.
        254    2    1    2    0    0  0.25605625513E+03  0.90837770042E+03  0.83044991522E+03  0.15449138919E+04  0.89799611315E+03 0.  0.
        -24    2    4    4    0    0  0.14085321652E+03  0.25152167261E+03 -0.16698918214E+03  0.34244198301E+03  0.79236004303E+02 0.  0.
         24    2    4    4    0    0  0.11520303861E+03  0.65685602780E+03  0.99743909736E+03  0.12024719089E+04  0.79513252443E+02 0.  0.
         11    1    3    3    0    0 -0.12751631350E+03 -0.55555978991E+03  0.29672675770E+03  0.64261486063E+03  0.00000000000E+00 0. -1.
        -11    1    3    3    0    0 -0.12853994163E+03 -0.35281791051E+03  0.18886853777E+03  0.42032644353E+03  0.00000000000E+00 0.  1.
          4    1    6    6  502    0  0.50941826545E+01  0.25170478844E+03  0.37241638861E+03  0.44952777192E+03  0.00000000000E+00 0. -1.
          1    1    5    5  503    0  0.31302758507E+02  0.60176292071E+02 -0.34379524670E+01  0.67918100200E+02  0.00000000000E+00 0. -1.
         -2    1    5    5    0  503  0.10955045801E+03  0.19134538054E+03 -0.16355122967E+03  0.27452388281E+03  0.00000000000E+00 0.  1.
         -3    1    6    6    0  502  0.11010885596E+03  0.40515123936E+03  0.62502270875E+03  0.75294413695E+03  0.00000000000E+00 0.  1.
<mgrwt>
<rscale>  0 0.22514293E+04</rscale>
<asrwt>0</asrwt>
<pdfrwt beam="1">  1        1 0.99369999E-01 0.22514293E+04</pdfrwt>
<pdfrwt beam="2">  1       -1 0.30183849E+00 0.22514293E+04</pdfrwt>
<totfact> 0.89689514E-01</totfact>
</mgrwt>
</event>
<event>
12    1  0.2404959E-007  0.2521408E+04  0.7818608E-02  0.8395398E-01
         -2   -1    0    0    0  501 -0.00000000000E+00  0.00000000000E+00  0.71565135988E+03  0.71565135988E+03  0.00000000000E+00 0.  1.
          2   -1    0    0  501    0  0.00000000000E+00 -0.00000000000E+00 -0.22208788640E+04  0.22208788640E+04  0.00000000000E+00 0. -1.
         23    2    1    2    0    0  0.20001040462E+03 -0.44378397567E+03  0.48820612648E+03  0.69593197609E+03  0.95014285214E+02 0.  0.
        254    2    1    2    0    0 -0.20001040462E+03  0.44378397567E+03 -0.19934336306E+04  0.22405982478E+04  0.89975246004E+03 0.  0.
        -24    2    4    4    0    0  0.33549382616E+03  0.26871655450E+03 -0.10665328374E+04  0.11527885968E+04  0.81636766150E+02 0.  0.
         24    2    4    4    0    0 -0.53550423078E+03  0.17506742116E+03 -0.92690079316E+03  0.10878096510E+04  0.82288354097E+02 0.  0.
         13    1    3    3    0    0  0.95088955164E+02 -0.14363513230E+03  0.22369040487E+03  0.28233022837E+03  0.00000000000E+00 0. -1.
        -13    1    3    3    0    0  0.10492144945E+03 -0.30014884337E+03  0.26451572162E+03  0.41360174772E+03  0.00000000000E+00 0.  1.
          2    1    6    6  502    0 -0.17050858754E+03  0.68194137209E+02 -0.37508792978E+03  0.41762970900E+03  0.00000000000E+00 0. -1.
          3    1    5    5  503    0  0.15583210703E+03  0.74640812912E+02 -0.40172662896E+03  0.43730902226E+03  0.00000000000E+00 0. -1.
         -4    1    5    5    0  503  0.17966171913E+03  0.19407574159E+03 -0.66480620845E+03  0.71547957455E+03  0.00000000000E+00 0.  1.
         -1    1    6    6    0  502 -0.36499564324E+03  0.10687328395E+03 -0.55181286338E+03  0.67017994195E+03  0.00000000000E+00 0.  1.
<mgrwt>
<rscale>  0 0.25214083E+04</rscale>
<asrwt>0</asrwt>
<pdfrwt beam="1">  1        2 0.34167366E+00 0.25214083E+04</pdfrwt>
<pdfrwt beam="2">  1       -2 0.11010021E+00 0.25214083E+04</pdfrwt>
<totfact> 0.29330019E+00</totfact>
</mgrwt>
</event>
<event>
12    1  0.2404959E-007  0.1143041E+04  0.7818608E-02  0.9164228E-01
          1   -1    0    0  501    0  0.00000000000E+00  0.00000000000E+00  0.13353345657E+04  0.13353345657E+04  0.00000000000E+00 0. -1.
         -1   -1    0    0    0  501 -0.00000000000E+00 -0.00000000000E+00 -0.24460964134E+03  0.24460964134E+03  0.00000000000E+00 0.  1.
         23    2    1    2    0    0 -0.43132915017E+02  0.13292632597E+02  0.48128015373E+03  0.49198905592E+03  0.91572388514E+02 0.  0.
        254    2    1    2    0    0  0.43132915017E+02 -0.13292632597E+02  0.60944477065E+03  0.10879551511E+04  0.90010351625E+03 0.  0.
        -24    2    4    4    0    0 -0.27934980940E+02  0.16422158362E+03  0.79163141352E+03  0.81300373885E+03  0.80905456133E+02 0.  0.
         24    2    4    4    0    0  0.71067895957E+02 -0.17751421622E+03 -0.18218664287E+03  0.27495141228E+03  0.76448436716E+02 0.  0.
         13    1    3    3    0    0 -0.90135768864E+01 -0.30501313528E+02  0.31679924841E+03  0.31839180028E+03  0.00000000000E+00 0. -1.
        -13    1    3    3    0    0 -0.34119338131E+02  0.43793946125E+02  0.16448090532E+03  0.17359725564E+03  0.00000000000E+00 0.  1.
          4    1    6    6  502    0  0.84054163751E+02 -0.13872225255E+03 -0.16233473623E+03  0.22948100658E+03  0.00000000000E+00 0. -1.
          1    1    5    5  503    0 -0.44337783216E+02  0.14865794236E+03  0.74738212623E+03  0.76331190574E+03  0.00000000000E+00 0. -1.
         -2    1    5    5    0  503  0.16402802277E+02  0.15563641264E+02  0.44249287289E+02  0.49691833107E+02  0.00000000000E+00 0.  1.
         -3    1    6    6    0  502 -0.12986267794E+02 -0.38791963670E+02 -0.19851906646E+02  0.45470405695E+02  0.00000000000E+00 0.  1.
<mgrwt>
<rscale>  0 0.11430410E+04</rscale>
<asrwt>0</asrwt>
<pdfrwt beam="1">  1        1 0.20543608E+00 0.11430410E+04</pdfrwt>
<pdfrwt beam="2">  1       -1 0.37632253E-01 0.11430410E+04</pdfrwt>
<totfact> 0.57708672E+01</totfact>
</mgrwt>
</event>
<event>
12    1  0.2404959E-007  0.2594897E+04  0.7818608E-02  0.8369937E-01
          1   -1    0    0  501    0  0.00000000000E+00  0.00000000000E+00  0.22814499930E+04  0.22814499930E+04  0.00000000000E+00 0. -1.
         -1   -1    0    0    0  501 -0.00000000000E+00 -0.00000000000E+00 -0.73785204822E+03  0.73785204822E+03  0.00000000000E+00 0.  1.
         23    2    1    2    0    0 -0.59034031245E+03 -0.80125645805E+03  0.36588994886E+02  0.10012291636E+04  0.10299265718E+03 0.  0.
        254    2    1    2    0    0  0.59034031245E+03  0.80125645805E+03  0.15070089499E+04  0.20180728777E+04  0.90057124554E+03 0.  0.
        -24    2    4    4    0    0  0.88938188250E+02  0.38119003853E+03  0.28138859385E+02  0.39927311598E+03  0.73562075397E+02 0.  0.
         24    2    4    4    0    0  0.50140212420E+03  0.42006641952E+03  0.14788700905E+04  0.16187997617E+04  0.74806662342E+02 0.  0.
         13    1    3    3    0    0 -0.47151274240E+03 -0.69872194667E+03  0.17424712966E+02  0.84311342394E+03  0.00000000000E+00 0.  1.
        -13    1    3    3    0    0 -0.11882757005E+03 -0.10253451138E+03  0.19164281920E+02  0.15811573966E+03  0.00000000000E+00 0. -1.
          2    1    6    6  502    0  0.82701570940E+02  0.35976982434E+02  0.20272690281E+03  0.22188305529E+03  0.00000000000E+00 0. -1.
          1    1    5    5  503    0  0.20093079709E+02  0.85363950286E+02  0.37545816888E+02  0.95396143666E+02  0.00000000000E+00 0. -1.
         -2    1    5    5    0  503  0.68845108541E+02  0.29582608824E+03 -0.94069575026E+01  0.30387697232E+03  0.00000000000E+00 0.  1.
         -1    1    6    6    0  502  0.41870055326E+03  0.38408943709E+03  0.12761431877E+04  0.13969167064E+04  0.00000000000E+00 0.  1.
<mgrwt>
<rscale>  0 0.25948970E+04</rscale>
<asrwt>0</asrwt>
<pdfrwt beam="1">  1        1 0.35099230E+00 0.25948970E+04</pdfrwt>
<pdfrwt beam="2">  1       -1 0.11351570E+00 0.25948970E+04</pdfrwt>
<totfact> 0.11953693E+00</totfact>
</mgrwt>
</event>
<event>
12    1  0.2404959E-007  0.1361364E+04  0.7818608E-02  0.8982270E-01
          2   -1    0    0  501    0  0.00000000000E+00  0.00000000000E+00  0.15284116035E+04  0.15284116035E+04  0.00000000000E+00 0. -1.
         -2   -1    0    0    0  501 -0.00000000000E+00 -0.00000000000E+00 -0.30314356646E+03  0.30314356646E+03  0.00000000000E+00 0.  1.
         23    2    1    2    0    0  0.14101383853E+03  0.15040657999E+03  0.77073172346E+03  0.80285675404E+03  0.89691337404E+02 0.  0.
        254    2    1    2    0    0 -0.14101383853E+03 -0.15040657999E+03  0.45453631358E+03  0.10286984159E+04  0.89950549113E+03 0.  0.
        -24    2    4    4    0    0 -0.25862754764E+03  0.10021423559E+03 -0.17434601708E+03  0.33662622786E+03  0.77392391078E+02 0.  0.
         24    2    4    4    0    0  0.11761370911E+03 -0.25062081558E+03  0.62888233066E+03  0.69207218805E+03  0.82626568843E+02 0.  0.
         11    1    3    3    0    0  0.47388203518E+02 -0.19021360002E+00  0.17349063228E+03  0.17984626074E+03  0.00000000000E+00 0. -1.
        -11    1    3    3    0    0  0.93625635012E+02  0.15059679359E+03  0.59724109118E+03  0.62301049330E+03  0.00000000000E+00 0.  1.
          2    1    6    6  502    0  0.31219845405E+02 -0.41972026607E+02  0.20749256419E+03  0.21398479843E+03  0.00000000000E+00 0. -1.
          1    1    5    5  503    0 -0.88581933299E+02  0.22597881523E+01 -0.77815455948E+02  0.11792841360E+03  0.00000000000E+00 0. -1.
         -2    1    5    5    0  503 -0.17004561434E+03  0.97954447436E+02 -0.96530561135E+02  0.21869781426E+03  0.00000000000E+00 0.  1.
         -1    1    6    6    0  502  0.86393863708E+02 -0.20864878897E+03  0.42138976647E+03  0.47808738962E+03  0.00000000000E+00 0.  1.
<mgrwt>
<rscale>  0 0.13613642E+04</rscale>
<asrwt>0</asrwt>
<pdfrwt beam="1">  1        2 0.23514024E+00 0.13613642E+04</pdfrwt>
<pdfrwt beam="2">  1       -2 0.46637473E-01 0.13613642E+04</pdfrwt>
<totfact> 0.52027494E+01</totfact>
</mgrwt>
</event>
<event>
12    1  0.2404959E-007  0.1366839E+04  0.7818608E-02  0.8978178E-01
          2   -1    0    0  501    0  0.00000000000E+00  0.00000000000E+00  0.16040640543E+04  0.16040640543E+04  0.00000000000E+00 0. -1.
         -2   -1    0    0    0  501 -0.00000000000E+00 -0.00000000000E+00 -0.29117412099E+03  0.29117412099E+03  0.00000000000E+00 0.  1.
         23    2    1    2    0    0  0.33612567127E+02  0.33646581552E+03  0.13551907630E+03  0.37627448960E+03  0.94223255116E+02 0.  0.
        254    2    1    2    0    0 -0.33612567127E+02 -0.33646581552E+03  0.11773708570E+04  0.15189636856E+04  0.89817008066E+03 0.  0.
        -24    2    4    4    0    0  0.42272638964E+03 -0.15092473563E+03  0.63886002854E+03  0.78475964458E+03  0.78928368586E+02 0.  0.
         24    2    4    4    0    0 -0.45633895676E+03 -0.18554107988E+03  0.53851082842E+03  0.73420404106E+03  0.79943266141E+02 0.  0.
         13    1    3    3    0    0  0.10487941623E+02  0.17747516373E+03  0.12079170378E+03  0.21493735451E+03  0.00000000000E+00 0. -1.
        -13    1    3    3    0    0  0.23124625504E+02  0.15899065178E+03  0.14727372523E+02  0.16133713509E+03  0.00000000000E+00 0.  1.
          4    1    6    6  502    0 -0.26399512095E+03 -0.14931057722E+03  0.32270599356E+03  0.44286141245E+03  0.00000000000E+00 0. -1.
          1    1    5    5  503    0  0.30696229902E+03 -0.13229768932E+03  0.51704819673E+03  0.61568447224E+03  0.00000000000E+00 0. -1.
         -4    1    5    5    0  503  0.11576409062E+03 -0.18627046316E+02  0.12181183181E+03  0.16907517234E+03  0.00000000000E+00 0.  1.
         -3    1    6    6    0  502 -0.19234383582E+03 -0.36230502661E+02  0.21580483486E+03  0.29134262861E+03  0.00000000000E+00 0.  1.
<mgrwt>
<rscale>  0 0.13668386E+04</rscale>
<asrwt>0</asrwt>
<pdfrwt beam="1">  1        2 0.24677908E+00 0.13668386E+04</pdfrwt>
<pdfrwt beam="2">  1       -2 0.44796020E-01 0.13668386E+04</pdfrwt>
<totfact> 0.51137686E+01</totfact>
</mgrwt>
</event>
<event>
12    1  0.2404959E-007  0.3064000E+04  0.7818608E-02  0.8225688E-01
          1   -1    0    0  501    0  0.00000000000E+00  0.00000000000E+00  0.24098466208E+04  0.24098466208E+04  0.00000000000E+00 0. -1.
         -1   -1    0    0    0  501 -0.00000000000E+00 -0.00000000000E+00 -0.97393073823E+03  0.97393073823E+03  0.00000000000E+00 0.  1.
         23    2    1    2    0    0  0.90197999544E+03  0.31868199129E+03 -0.46834807105E+03  0.10699943462E+04  0.10203852921E+03 0.  0.
        254    2    1    2    0    0 -0.90197999544E+03 -0.31868199129E+03  0.19042639536E+04  0.23137830129E+04  0.90124608278E+03 0.  0.
        -24    2    4    4    0    0 -0.53329788923E+03 -0.24189029101E+03  0.29629826499E+03  0.66038945694E+03  0.73512049753E+02 0.  0.
         24    2    4    4    0    0 -0.36868210622E+03 -0.76791700285E+02  0.16079656886E+04  0.16533935559E+04  0.79580991669E+02 0.  0.
         11    1    3    3    0    0  0.70042301475E+03  0.26096932663E+03 -0.31955353475E+03  0.81290334641E+03  0.00000000000E+00 0. -1.
        -11    1    3    3    0    0  0.20155698069E+03  0.57712664661E+02 -0.14879453630E+03  0.25709099977E+03  0.00000000000E+00 0.  1.
          2    1    6    6  502    0 -0.91968773826E+02 -0.50773117385E+02  0.51844500612E+03  0.52898146392E+03  0.00000000000E+00 0. -1.
          3    1    5    5  503    0 -0.90981155710E+02 -0.41522663580E+02  0.20979046112E+02  0.10218523700E+03  0.00000000000E+00 0. -1.
         -4    1    5    5    0  503 -0.44231673352E+03 -0.20036762743E+03  0.27531921888E+03  0.55820421994E+03  0.00000000000E+00 0.  1.
         -1    1    6    6    0  502 -0.27671333239E+03 -0.26018582899E+02  0.10895206825E+04  0.11244120920E+04  0.00000000000E+00 0.  1.
<mgrwt>
<rscale>  0 0.30639998E+04</rscale>
<asrwt>0</asrwt>
<pdfrwt beam="1">  1        1 0.37074563E+00 0.30639998E+04</pdfrwt>
<pdfrwt beam="2">  1       -1 0.14983550E+00 0.30639998E+04</pdfrwt>
<totfact> 0.46312139E-01</totfact>
</mgrwt>
</event>
<event>
12    1  0.2404959E-007  0.4019791E+04  0.7818608E-02  0.8000566E-01
         -2   -1    0    0    0  501 -0.00000000000E+00  0.00000000000E+00  0.16383647181E+04  0.16383647181E+04  0.00000000000E+00 0.  1.
          2   -1    0    0  501    0  0.00000000000E+00 -0.00000000000E+00 -0.24656783093E+04  0.24656783093E+04  0.00000000000E+00 0. -1.
         23    2    1    2    0    0  0.24883766932E+03 -0.41923597685E+02  0.15372476132E+04  0.15613658695E+04  0.10514456817E+03 0.  0.
        254    2    1    2    0    0 -0.24883766932E+03  0.41923597685E+02 -0.23645612045E+04  0.25426771580E+04  0.90021090109E+03 0.  0.
        -24    2    4    4    0    0 -0.56671347841E+03 -0.82664398403E+02 -0.13221532141E+04  0.14430503486E+04  0.79420511206E+02 0.  0.
         24    2    4    4    0    0  0.31787580909E+03  0.12458799609E+03 -0.10424079903E+04  0.10996268094E+04  0.77443546233E+02 0.  0.
         11    1    3    3    0    0  0.17193871092E+03 -0.52187041573E+02  0.79386482944E+03  0.81394580596E+03  0.00000000000E+00 0. -1.
        -11    1    3    3    0    0  0.76898958397E+02  0.10263443888E+02  0.74338278379E+03  0.74742006349E+03  0.00000000000E+00 0.  1.
          4    1    6    6  502    0  0.13851832611E+03  0.57381306317E+02 -0.34037077615E+03  0.37193037821E+03  0.00000000000E+00 0. -1.
          3    1    5    5  503    0 -0.41784110156E+03 -0.43250428462E+02 -0.10394274738E+04  0.11211026978E+04  0.00000000000E+00 0. -1.
         -4    1    5    5    0  503 -0.14887237684E+03 -0.39413969941E+02 -0.28272574029E+03  0.32194765077E+03  0.00000000000E+00 0.  1.
         -3    1    6    6    0  502  0.17935748298E+03  0.67206689771E+02 -0.70203721419E+03  0.72769643118E+03  0.00000000000E+00 0.  1.
<mgrwt>
<rscale>  0 0.40197912E+04</rscale>
<asrwt>0</asrwt>
<pdfrwt beam="1">  1        2 0.37933512E+00 0.40197912E+04</pdfrwt>
<pdfrwt beam="2">  1       -2 0.25205611E+00 0.40197912E+04</pdfrwt>
<totfact> 0.17915148E-01</totfact>
</mgrwt>
</event>
<event>
12    1  0.2404959E-007  0.1158052E+04  0.7818608E-02  0.9150387E-01
          1   -1    0    0  501    0  0.00000000000E+00  0.00000000000E+00  0.32951557222E+03  0.32951557222E+03  0.00000000000E+00 0. -1.
         -1   -1    0    0    0  501 -0.00000000000E+00 -0.00000000000E+00 -0.10174674462E+04  0.10174674462E+04  0.00000000000E+00 0.  1.
         23    2    1    2    0    0  0.69886075856E+02  0.73948468735E+02  0.80359408705E+02  0.15833725927E+03  0.90887917116E+02 0.  0.
        254    2    1    2    0    0 -0.69886075856E+02 -0.73948468735E+02 -0.76831128272E+03  0.11886457592E+04  0.90123474969E+03 0.  0.
        -24    2    4    4    0    0  0.35759430845E+02  0.24552758353E+03 -0.80093734112E+03  0.84153198879E+03  0.71504773115E+02 0.  0.
         24    2    4    4    0    0 -0.10564550670E+03 -0.31947605227E+03  0.32626058401E+02  0.34711377040E+03  0.78724766466E+02 0.  0.
         11    1    3    3    0    0  0.67668590924E+02  0.94239117497E+02  0.68148925088E+02  0.13455231494E+03  0.00000000000E+00 0.  1.
        -11    1    3    3    0    0  0.22174849327E+01 -0.20290648762E+02  0.12210483617E+02  0.23784944330E+02  0.00000000000E+00 0. -1.
          4    1    6    6  502    0 -0.88741066548E+02 -0.31237575101E+03  0.21023528258E+02  0.32541600368E+03  0.00000000000E+00 0. -1.
          3    1    5    5  503    0  0.10233122290E+02  0.19203113292E+03 -0.52023698265E+03  0.55464149765E+03  0.00000000000E+00 0. -1.
         -2    1    5    5    0  503  0.25526308554E+02  0.53496450614E+02 -0.28070035848E+03  0.28689049114E+03  0.00000000000E+00 0.  1.
         -3    1    6    6    0  502 -0.16904440153E+02 -0.71003012583E+01  0.11602530144E+02  0.21697766719E+02  0.00000000000E+00 0.  1.
<mgrwt>
<rscale>  0 0.11580524E+04</rscale>
<asrwt>0</asrwt>
<pdfrwt beam="1">  1        1 0.50694704E-01 0.11580524E+04</pdfrwt>
<pdfrwt beam="2">  1       -1 0.15653345E+00 0.11580524E+04</pdfrwt>
<totfact> 0.23904045E+01</totfact>
</mgrwt>
</event>
<event>
12    1  0.2404959E-007  0.5360341E+04  0.7818608E-02  0.7775204E-01
          2   -1    0    0  501    0  0.00000000000E+00  0.00000000000E+00  0.32914968054E+04  0.32914968054E+04  0.00000000000E+00 0. -1.
         -2   -1    0    0    0  501 -0.00000000000E+00 -0.00000000000E+00 -0.21823850882E+04  0.21823850882E+04  0.00000000000E+00 0.  1.
         23    2    1    2    0    0 -0.25754403497E+04  0.30779715311E+03  0.76975764926E+03  0.27071139459E+04  0.91142717809E+02 0.  0.
        254    2    1    2    0    0  0.25754403497E+04 -0.30779715311E+03  0.33935406795E+03  0.27667679477E+04  0.90122783511E+03 0.  0.
        -24    2    4    4    0    0  0.29221450213E+03  0.69465075574E+02  0.32617953776E+03  0.45120274368E+03  0.83523128981E+02 0.  0.
         24    2    4    4    0    0  0.22832258476E+04 -0.37726222868E+03  0.13174530192E+02  0.23155652040E+04  0.78877028942E+02 0.  0.
         11    1    3    3    0    0 -0.96981394611E+03  0.85246701804E+02  0.25557567706E+03  0.10065411154E+04  0.00000000000E+00 0.  1.
        -11    1    3    3    0    0 -0.16056264036E+04  0.22255045130E+03  0.51418197220E+03  0.17005728305E+04  0.00000000000E+00 0. -1.
          4    1    6    6  502    0  0.30061726908E+03 -0.23990579708E+02  0.95899763864E+01  0.30172546799E+03  0.00000000000E+00 0. -1.
          1    1    5    5  503    0  0.97536451853E+01  0.68133074276E+01  0.49382301709E+02  0.50795339103E+02  0.00000000000E+00 0. -1.
         -2    1    5    5    0  503  0.28246085694E+03  0.62651768146E+02  0.27679723605E+03  0.40040740458E+03  0.00000000000E+00 0.  1.
         -3    1    6    6    0  502  0.19826085785E+04 -0.35327164897E+03  0.35845538052E+01  0.20138397360E+04  0.00000000000E+00 0.  1.
<mgrwt>
<rscale>  0 0.53603409E+04</rscale>
<asrwt>0</asrwt>
<pdfrwt beam="1">  1        2 0.50638412E+00 0.53603409E+04</pdfrwt>
<pdfrwt beam="2">  1       -2 0.33575155E+00 0.53603409E+04</pdfrwt>
<totfact> 0.15244566E-02</totfact>
</mgrwt>
</event>
<event>
12    1  0.2404959E-007  0.1603545E+04  0.7818608E-02  0.8818373E-01
         -1   -1    0    0    0  501 -0.00000000000E+00  0.00000000000E+00  0.54861729151E+03  0.54861729151E+03  0.00000000000E+00 0.  1.
          1   -1    0    0  501    0  0.00000000000E+00 -0.00000000000E+00 -0.11717440056E+04  0.11717440056E+04  0.00000000000E+00 0. -1.
         23    2    1    2    0    0  0.17183927408E+03 -0.51064179603E+03 -0.12986274808E+03  0.56222508675E+03  0.94598810037E+02 0.  0.
        254    2    1    2    0    0 -0.17183927408E+03  0.51064179603E+03 -0.49326396602E+03  0.11581362104E+04  0.89871372618E+03 0.  0.
        -24    2    4    4    0    0  0.10169110178E+03  0.66224345774E+03 -0.15967693319E+03  0.69386536624E+03  0.83934176451E+02 0.  0.
         24    2    4    4    0    0 -0.27353037587E+03 -0.15160166170E+03 -0.33358703283E+03  0.46427084413E+03  0.80406329874E+02 0.  0.
         13    1    3    3    0    0  0.75731202001E+02 -0.10143854850E+03 -0.34460477236E+02  0.13119648840E+03  0.00000000000E+00 0. -1.
        -13    1    3    3    0    0  0.96108072083E+02 -0.40920324753E+03 -0.95402270840E+02  0.43102859835E+03  0.00000000000E+00 0.  1.
          2    1    6    6  502    0 -0.11632252611E+03 -0.39384897364E+02 -0.84505071360E+02  0.14907450254E+03  0.00000000000E+00 0. -1.
          3    1    5    5  503    0  0.72057930117E+02  0.34430455738E+03 -0.12206482490E+03  0.37234096605E+03  0.00000000000E+00 0. -1.
         -4    1    5    5    0  503  0.29633171667E+02  0.31793890036E+03 -0.37612108286E+02  0.32152440019E+03  0.00000000000E+00 0.  1.
         -1    1    6    6    0  502 -0.15720784976E+03 -0.11221676434E+03 -0.24908196147E+03  0.31519634159E+03  0.00000000000E+00 0.  1.
<mgrwt>
<rscale>  0 0.16035449E+04</rscale>
<asrwt>0</asrwt>
<pdfrwt beam="1">  1        1 0.18026831E+00 0.16035449E+04</pdfrwt>
<pdfrwt beam="2">  1       -1 0.84402661E-01 0.16035449E+04</pdfrwt>
<totfact> 0.14949710E+01</totfact>
</mgrwt>
</event>
<event>
12    1  0.2404959E-007  0.1500376E+04  0.7818608E-02  0.8884203E-01
          2   -1    0    0  501    0  0.00000000000E+00  0.00000000000E+00  0.12556425688E+04  0.12556425688E+04  0.00000000000E+00 0. -1.
         -2   -1    0    0    0  501 -0.00000000000E+00 -0.00000000000E+00 -0.44820267099E+03  0.44820267099E+03  0.00000000000E+00 0.  1.
         23    2    1    2    0    0 -0.28201047318E+03  0.19761828051E+03 -0.10925555671E+03  0.37263541462E+03  0.91309823020E+02 0.  0.
        254    2    1    2    0    0  0.28201047318E+03 -0.19761828051E+03  0.91669545449E+03  0.13312098251E+04  0.90177943562E+03 0.  0.
        -24    2    4    4    0    0  0.58105474693E+03 -0.18940098759E+03  0.77629742104E+03  0.99115756441E+03  0.79109282343E+02 0.  0.
         24    2    4    4    0    0 -0.29904427375E+03 -0.82172929217E+01  0.14039803344E+03  0.34005226073E+03  0.80180612779E+02 0.  0.
         13    1    3    3    0    0 -0.19153936064E+03  0.84391145782E+02 -0.83929333066E+02  0.22550681833E+03  0.00000000000E+00 0.  1.
        -13    1    3    3    0    0 -0.90471112534E+02  0.11322713473E+03 -0.25326223639E+02  0.14712859629E+03  0.00000000000E+00 0. -1.
          2    1    6    6  502    0 -0.13122423715E+03 -0.38032818012E+02  0.84631528380E+02  0.16071338232E+03  0.00000000000E+00 0. -1.
          1    1    5    5  503    0  0.26720343807E+03 -0.46463874243E+02  0.33047305886E+03  0.42751492554E+03  0.00000000000E+00 0. -1.
         -2    1    5    5    0  503  0.31385130885E+03 -0.14293711335E+03  0.44582436218E+03  0.56364263887E+03  0.00000000000E+00 0.  1.
         -1    1    6    6    0  502 -0.16782003660E+03  0.29815525090E+02  0.55766505065E+02  0.17933887840E+03  0.00000000000E+00 0.  1.
<mgrwt>
<rscale>  0 0.15003764E+04</rscale>
<asrwt>0</asrwt>
<pdfrwt beam="1">  1        2 0.19317578E+00 0.15003764E+04</pdfrwt>
<pdfrwt beam="2">  1       -2 0.68954258E-01 0.15003764E+04</pdfrwt>
<totfact> 0.32579345E+01</totfact>
</mgrwt>
</event>
<event>
12    1  0.2404959E-007  0.1569345E+04  0.7818608E-02  0.8839605E-01
          2   -1    0    0  501    0  0.00000000000E+00  0.00000000000E+00  0.20744035494E+04  0.20744035494E+04  0.00000000000E+00 0. -1.
         -2   -1    0    0    0  501 -0.00000000000E+00 -0.00000000000E+00 -0.29681351961E+03  0.29681351961E+03  0.00000000000E+00 0.  1.
         23    2    1    2    0    0 -0.46047062774E+03  0.21364292837E+03  0.42204565127E+03  0.66645502928E+03  0.91450940053E+02 0.  0.
        254    2    1    2    0    0  0.46047062774E+03 -0.21364292837E+03  0.13555443786E+04  0.17047620398E+04  0.90057567708E+03 0.  0.
        -24    2    4    4    0    0  0.29500175258E+03  0.78921883626E+02  0.13202130380E+04  0.13574475903E+04  0.80291948515E+02 0.  0.
         24    2    4    4    0    0  0.16546887517E+03 -0.29256481200E+03  0.35331340533E+02  0.34731444944E+03  0.80030652235E+02 0.  0.
         11    1    3    3    0    0 -0.17234387653E+03  0.32354974325E+02  0.14633148401E+03  0.22839036616E+03  0.00000000000E+00 0. -1.
        -11    1    3    3    0    0 -0.28812675121E+03  0.18128795405E+03  0.27571416726E+03  0.43806466312E+03  0.00000000000E+00 0.  1.
          2    1    6    6  502    0  0.76545436539E+02 -0.10476775944E+03  0.49904554761E+02  0.13901781130E+03  0.00000000000E+00 0. -1.
          3    1    5    5  503    0  0.83612270471E+02  0.44686553814E+02  0.54577335978E+03  0.55394626103E+03  0.00000000000E+00 0. -1.
         -4    1    5    5    0  503  0.21138948211E+03  0.34235329812E+02  0.77443967825E+03  0.80350132930E+03  0.00000000000E+00 0.  1.
         -1    1    6    6    0  502  0.88923438628E+02 -0.18779705256E+03 -0.14573214228E+02  0.20829663814E+03  0.00000000000E+00 0.  1.
<mgrwt>
<rscale>  0 0.15693451E+04</rscale>
<asrwt>0</asrwt>
<pdfrwt beam="1">  1        2 0.31913900E+00 0.15693451E+04</pdfrwt>
<pdfrwt beam="2">  1       -2 0.45663620E-01 0.15693451E+04</pdfrwt>
<totfact> 0.26555914E+01</totfact>
</mgrwt>
</event>
<event>
12    1  0.2404959E-007  0.1631810E+04  0.7818608E-02  0.8801241E-01
          2   -1    0    0  501    0  0.00000000000E+00  0.00000000000E+00  0.40795590723E+03  0.40795590723E+03  0.00000000000E+00 0. -1.
         -2   -1    0    0    0  501 -0.00000000000E+00 -0.00000000000E+00 -0.16317962135E+04  0.16317962135E+04  0.00000000000E+00 0.  1.
         23    2    1    2    0    0 -0.52816960487E+03 -0.19223959893E+03 -0.48573274685E+03  0.74861675115E+03  0.92582632464E+02 0.  0.
        254    2    1    2    0    0  0.52816960487E+03  0.19223959893E+03 -0.73810755937E+03  0.12911353695E+04  0.89794686833E+03 0.  0.
        -24    2    4    4    0    0  0.48773636645E+02  0.42693422503E+03 -0.58489277995E+03  0.73050835686E+03  0.83013223524E+02 0.  0.
         24    2    4    4    0    0  0.47939596823E+03 -0.23469462609E+03 -0.15321477942E+03  0.56062701266E+03  0.76979327251E+02 0.  0.
         13    1    3    3    0    0 -0.36035805213E+03 -0.15916338531E+03 -0.29316346301E+03  0.49105572494E+03  0.00000000000E+00 0. -1.
        -13    1    3    3    0    0 -0.16781155275E+03 -0.33076213621E+02 -0.19256928384E+03  0.25756102621E+03  0.00000000000E+00 0.  1.
          2    1    6    6  502    0  0.17124241119E+03 -0.83752952491E+02 -0.93544260940E+02  0.21234182159E+03  0.00000000000E+00 0. -1.
          3    1    5    5  503    0  0.54221498277E+01  0.29979815423E+03 -0.35958486721E+03  0.46819825899E+03  0.00000000000E+00 0. -1.
         -4    1    5    5    0  503  0.43351486817E+02  0.12713607079E+03 -0.22530791274E+03  0.26231009788E+03  0.00000000000E+00 0.  1.
         -1    1    6    6    0  502  0.30815355704E+03 -0.15094167360E+03 -0.59670518480E+02  0.34828519108E+03  0.00000000000E+00 0.  1.
<mgrwt>
<rscale>  0 0.16318099E+04</rscale>
<asrwt>0</asrwt>
<pdfrwt beam="1">  1        2 0.62762447E-01 0.16318099E+04</pdfrwt>
<pdfrwt beam="2">  1       -2 0.25104557E+00 0.16318099E+04</pdfrwt>
<totfact> 0.47114287E+00</totfact>
</mgrwt>
</event>
<event>
12    1  0.2404959E-007  0.4575183E+04  0.7818608E-02  0.7897605E-01
         -2   -1    0    0    0  501 -0.00000000000E+00  0.00000000000E+00  0.13469040142E+04  0.13469040142E+04  0.00000000000E+00 0.  1.
          2   -1    0    0  501    0  0.00000000000E+00 -0.00000000000E+00 -0.38852620729E+04  0.38852620729E+04  0.00000000000E+00 0. -1.
         23    2    1    2    0    0 -0.17351231933E+04  0.10131335496E+04 -0.22396607650E+04  0.30103755355E+04  0.95856334325E+02 0.  0.
        254    2    1    2    0    0  0.17351231933E+04 -0.10131335496E+04 -0.29869729372E+03  0.22217905517E+04  0.90002283134E+03 0.  0.
        -24    2    4    4    0    0 -0.86322458825E+02 -0.14249893289E+02  0.16617994585E+02  0.11905741357E+03  0.79018248693E+02 0.  0.
         24    2    4    4    0    0  0.18214456522E+04 -0.99888365634E+03 -0.31531528831E+03  0.21027331381E+04  0.81425404392E+02 0.  0.
         13    1    3    3    0    0 -0.10239335352E+04  0.65202668301E+03 -0.13566393681E+04  0.18204529807E+04  0.00000000000E+00 0. -1.
        -13    1    3    3    0    0 -0.71118965816E+03  0.36110686662E+03 -0.88302139689E+03  0.11899225548E+04  0.00000000000E+00 0.  1.
          2    1    6    6  502    0  0.11832594501E+04 -0.60605799473E+03 -0.19069503211E+03  0.13430464678E+04  0.00000000000E+00 0. -1.
          1    1    5    5  503    0 -0.97082394146E+02 -0.11996467245E+02  0.29452361383E+02  0.10215844591E+03  0.00000000000E+00 0. -1.
         -2    1    5    5    0  503  0.10759935321E+02 -0.22534260439E+01 -0.12834366797E+02  0.16898967665E+02  0.00000000000E+00 0.  1.
         -1    1    6    6    0  502  0.63818620201E+03 -0.39282566161E+03 -0.12462025620E+03  0.75968667035E+03  0.00000000000E+00 0.  1.
<mgrwt>
<rscale>  0 0.45751831E+04</rscale>
<asrwt>0</asrwt>
<pdfrwt beam="1">  1        2 0.59773263E+00 0.45751831E+04</pdfrwt>
<pdfrwt beam="2">  1       -2 0.20721600E+00 0.45751831E+04</pdfrwt>
<totfact> 0.37804728E-02</totfact>
</mgrwt>
</event>
<event>
12    1  0.2404959E-007  0.2121961E+04  0.7818608E-02  0.8551631E-01
          1   -1    0    0  501    0  0.00000000000E+00  0.00000000000E+00  0.17011953272E+04  0.17011953272E+04  0.00000000000E+00 0. -1.
         -1   -1    0    0    0  501 -0.00000000000E+00 -0.00000000000E+00 -0.66169908731E+03  0.66169908731E+03  0.00000000000E+00 0.  1.
         23    2    1    2    0    0 -0.68656504856E+03 -0.29884202317E+03  0.91420936229E+03  0.11852453032E+04  0.91375872341E+02 0.  0.
        254    2    1    2    0    0  0.68656504856E+03  0.29884202317E+03  0.12528687760E+03  0.11776491113E+04  0.90026801944E+03 0.  0.
        -24    2    4    4    0    0 -0.20390861491E+03  0.14087068296E+03 -0.75472712305E+01  0.25940359019E+03  0.76223282167E+02 0.  0.
         24    2    4    4    0    0  0.89047366347E+03  0.15797134020E+03  0.13283414883E+03  0.91824552107E+03  0.87359236576E+02 0.  0.
         13    1    3    3    0    0 -0.53523547445E+03 -0.19445048153E+03  0.71710850260E+03  0.91571426077E+03  0.00000000000E+00 0. -1.
        -13    1    3    3    0    0 -0.15132957411E+03 -0.10439154164E+03  0.19710085969E+03  0.26953104247E+03  0.00000000000E+00 0.  1.
          4    1    6    6  502    0  0.89052087071E+03  0.15984236551E+03  0.13564941188E+03  0.91486488944E+03  0.00000000000E+00 0. -1.
          3    1    5    5  503    0 -0.71547578404E+02  0.10203226790E+02 -0.12500507890E+02  0.73344560193E+02  0.00000000000E+00 0. -1.
         -4    1    5    5    0  503 -0.13236103651E+03  0.13066745617E+03  0.49532366592E+01  0.18605902999E+03  0.00000000000E+00 0.  1.
         -3    1    6    6    0  502 -0.47207244701E-01 -0.18710253030E+01 -0.28152630465E+01  0.33806316317E+01  0.00000000000E+00 0.  1.
<mgrwt>
<rscale>  0 0.21219608E+04</rscale>
<asrwt>0</asrwt>
<pdfrwt beam="1">  1        1 0.26172236E+00 0.21219608E+04</pdfrwt>
<pdfrwt beam="2">  1       -1 0.10179986E+00 0.21219608E+04</pdfrwt>
<totfact> 0.39940853E+00</totfact>
</mgrwt>
</event>
<event>
12    1  0.2404959E-007  0.1648917E+04  0.7818608E-02  0.8791048E-01
         -1   -1    0    0    0  501 -0.00000000000E+00  0.00000000000E+00  0.11521983810E+04  0.11521983810E+04  0.00000000000E+00 0.  1.
          1   -1    0    0  501    0  0.00000000000E+00 -0.00000000000E+00 -0.58994320634E+03  0.58994320634E+03  0.00000000000E+00 0. -1.
         23    2    1    2    0    0  0.53889737244E+03 -0.15326069211E+03  0.77272175761E+02  0.57296374431E+03  0.91745546961E+02 0.  0.
        254    2    1    2    0    0 -0.53889737244E+03  0.15326069211E+03  0.48498299887E+03  0.11691778430E+04  0.90436115661E+03 0.  0.
        -24    2    4    4    0    0 -0.25851699159E+03 -0.36081439957E+03  0.32748825332E+03  0.55744285297E+03  0.80473053789E+02 0.  0.
         24    2    4    4    0    0 -0.28038038084E+03  0.51407509168E+03  0.15749474555E+03  0.61173499002E+03  0.80800651556E+02 0.  0.
         11    1    3    3    0    0  0.12331218473E+03 -0.38287202371E+01 -0.61270286072E+01  0.12352365960E+03  0.00000000000E+00 0. -1.
        -11    1    3    3    0    0  0.41558518771E+03 -0.14943197187E+03  0.83399204368E+02  0.44944008471E+03  0.00000000000E+00 0.  1.
          4    1    6    6  502    0  0.25217233279E+01  0.32222431026E+02  0.72190041126E+01  0.33117339418E+02  0.00000000000E+00 0. -1.
          3    1    5    5  503    0 -0.16025100870E+03 -0.16660120750E+03  0.19660951352E+03  0.30346605895E+03  0.00000000000E+00 0. -1.
         -4    1    5    5    0  503 -0.98265982897E+02 -0.19421319207E+03  0.13087873979E+03  0.25397679402E+03  0.00000000000E+00 0.  1.
         -3    1    6    6    0  502 -0.28290210417E+03  0.48185266065E+03  0.15027574144E+03  0.57861765060E+03  0.00000000000E+00 0.  1.
<mgrwt>
<rscale>  0 0.16489167E+04</rscale>
<asrwt>0</asrwt>
<pdfrwt beam="1">  1        1 0.90760494E-01 0.16489167E+04</pdfrwt>
<pdfrwt beam="2">  1       -1 0.17726129E+00 0.16489167E+04</pdfrwt>
<totfact> 0.73039469E+00</totfact>
</mgrwt>
</event>
<event>
12    1  0.2404959E-007  0.2025975E+04  0.7818608E-02  0.8594572E-01
          1   -1    0    0  501    0  0.00000000000E+00  0.00000000000E+00  0.14678571516E+04  0.14678571516E+04  0.00000000000E+00 0. -1.
         -1   -1    0    0    0  501 -0.00000000000E+00 -0.00000000000E+00 -0.69907615725E+03  0.69907615725E+03  0.00000000000E+00 0.  1.
         23    2    1    2    0    0 -0.20316613405E+03  0.77309832455E+03  0.16970888695E+03  0.82216664598E+03  0.90550483120E+02 0.  0.
        254    2    1    2    0    0  0.20316613405E+03 -0.77309832455E+03  0.59907210736E+03  0.13447666628E+04  0.90030688669E+03 0.  0.
        -24    2    4    4    0    0 -0.23441141339E+03 -0.12222853486E+03 -0.96412652126E+02  0.29358225763E+03  0.83705537702E+02 0.  0.
         24    2    4    4    0    0  0.43757754744E+03 -0.65086978969E+03  0.69548475949E+03  0.10511844052E+04  0.78638476066E+02 0.  0.
         11    1    3    3    0    0 -0.14922351033E+03  0.62534132940E+03  0.16951040702E+03  0.66487082383E+03  0.00000000000E+00 0. -1.
        -11    1    3    3    0    0 -0.53942623722E+02  0.14775699515E+03  0.19847992974E+00  0.15729582215E+03  0.00000000000E+00 0.  1.
          2    1    6    6  502    0  0.39076504014E+03 -0.59145975069E+03  0.65607248028E+03  0.96589494909E+03  0.00000000000E+00 0. -1.
          3    1    5    5  503    0 -0.15705059902E+03 -0.11936172330E+03 -0.87012090280E+02  0.21559966488E+03  0.00000000000E+00 0. -1.
         -4    1    5    5    0  503 -0.77360814375E+02 -0.28668115634E+01 -0.94005618463E+01  0.77982592752E+02  0.00000000000E+00 0.  1.
         -1    1    6    6    0  502  0.46812507302E+02 -0.59410039001E+02  0.39412279204E+02  0.85289456125E+02  0.00000000000E+00 0.  1.
<mgrwt>
<rscale>  0 0.20259753E+04</rscale>
<asrwt>0</asrwt>
<pdfrwt beam="1">  1        1 0.22582418E+00 0.20259753E+04</pdfrwt>
<pdfrwt beam="2">  1       -1 0.10755018E+00 0.20259753E+04</pdfrwt>
<totfact> 0.51303733E+00</totfact>
</mgrwt>
</event>
<event>
12    1  0.2404959E-007  0.3592568E+04  0.7818608E-02  0.8092196E-01
         -2   -1    0    0    0  501 -0.00000000000E+00  0.00000000000E+00  0.14964765984E+04  0.14964765984E+04  0.00000000000E+00 0.  1.
          2   -1    0    0  501    0  0.00000000000E+00 -0.00000000000E+00 -0.21561554824E+04  0.21561554824E+04  0.00000000000E+00 0. -1.
         23    2    1    2    0    0 -0.15073749537E+04  0.74824027999E+03 -0.34586107404E+03  0.17198391424E+04  0.78638574767E+02 0.  0.
        254    2    1    2    0    0  0.15073749537E+04 -0.74824027999E+03 -0.31381780998E+03  0.19327929385E+04  0.89730939898E+03 0.  0.
        -24    2    4    4    0    0  0.11629110761E+04 -0.41742069223E+03 -0.59397364399E+03  0.13735614733E+04  0.85230427617E+02 0.  0.
         24    2    4    4    0    0  0.34446387760E+03 -0.33081958776E+03  0.28015583401E+03  0.55923146524E+03  0.78457490155E+02 0.  0.
         11    1    3    3    0    0 -0.11847151633E+03  0.83350925258E+02 -0.29094595322E+02  0.14774766461E+03  0.00000000000E+00 0. -1.
        -11    1    3    3    0    0 -0.13889034374E+04  0.66488935473E+03 -0.31676647872E+03  0.15720914778E+04  0.00000000000E+00 0.  1.
          4    1    6    6  502    0  0.19294034755E+03 -0.22720149839E+03  0.14625938155E+03  0.33202154339E+03  0.00000000000E+00 0. -1.
          3    1    5    5  503    0  0.71261640358E+03 -0.24703165696E+03 -0.31705970462E+03  0.81815257409E+03  0.00000000000E+00 0. -1.
         -4    1    5    5    0  503  0.45029467253E+03 -0.17038903526E+03 -0.27691393936E+03  0.55540889916E+03  0.00000000000E+00 0.  1.
         -3    1    6    6    0  502  0.15152353005E+03 -0.10361808937E+03  0.13389645246E+03  0.22720992185E+03  0.00000000000E+00 0.  1.
<mgrwt>
<rscale>  0 0.35925680E+04</rscale>
<asrwt>0</asrwt>
<pdfrwt beam="1">  1        2 0.33171623E+00 0.35925680E+04</pdfrwt>
<pdfrwt beam="2">  1       -2 0.23022717E+00 0.35925680E+04</pdfrwt>
<totfact> 0.37985172E-01</totfact>
</mgrwt>
</event>
<event>
12    1  0.2404959E-007  0.2506390E+04  0.7818608E-02  0.8400713E-01
          1   -1    0    0  501    0  0.00000000000E+00  0.00000000000E+00  0.18866230857E+04  0.18866230857E+04  0.00000000000E+00 0. -1.
         -1   -1    0    0    0  501 -0.00000000000E+00 -0.00000000000E+00 -0.83243864464E+03  0.83243864464E+03  0.00000000000E+00 0.  1.
         23    2    1    2    0    0  0.62256692718E+03  0.76865255124E+03  0.95556224037E+03  0.13782490426E+04  0.89749121189E+02 0.  0.
        254    2    1    2    0    0 -0.62256692718E+03 -0.76865255124E+03  0.98622200647E+02  0.13408126877E+04  0.89979775605E+03 0.  0.
        -24    2    4    4    0    0 -0.73157038206E+03 -0.73945001686E+03  0.31253310829E+03  0.10890305355E+04  0.79555089082E+02 0.  0.
         24    2    4    4    0    0  0.10900345489E+03 -0.29202534377E+02 -0.21391090765E+03  0.25178215220E+03  0.70013102822E+02 0.  0.
         13    1    3    3    0    0  0.17222157319E+03  0.15271909666E+03  0.22524426703E+03  0.32205336916E+03  0.00000000000E+00 0.  1.
        -13    1    3    3    0    0  0.45034535399E+03  0.61593345458E+03  0.73031797334E+03  0.10561956734E+04  0.00000000000E+00 0. -1.
          2    1    6    6  502    0  0.60405429287E+02  0.19872018730E+02 -0.10844806902E+03  0.12571673194E+03  0.00000000000E+00 0. -1.
          3    1    5    5  503    0 -0.18830476563E+01  0.10491553420E+01  0.41048328218E+01  0.46364046310E+01  0.00000000000E+00 0. -1.
         -4    1    5    5    0  503 -0.72968733441E+03 -0.74049917220E+03  0.30842827547E+03  0.10843941309E+04  0.00000000000E+00 0.  1.
         -1    1    6    6    0  502  0.48598025599E+02 -0.49074553107E+02 -0.10546283863E+03  0.12606542026E+03  0.00000000000E+00 0.  1.
<mgrwt>
<rscale>  0 0.25063902E+04</rscale>
<asrwt>0</asrwt>
<pdfrwt beam="1">  1        1 0.29024970E+00 0.25063902E+04</pdfrwt>
<pdfrwt beam="2">  1       -1 0.12806748E+00 0.25063902E+04</pdfrwt>
<totfact> 0.16635266E+00</totfact>
</mgrwt>
</event>
<event>
12    1  0.2404959E-007  0.1425327E+04  0.7818608E-02  0.8935687E-01
         -2   -1    0    0    0  501 -0.00000000000E+00  0.00000000000E+00  0.15056173109E+03  0.15056173109E+03  0.00000000000E+00 0. -1.
          2   -1    0    0  501    0  0.00000000000E+00 -0.00000000000E+00 -0.33732940331E+04  0.33732940331E+04  0.00000000000E+00 0.  1.
         23    2    1    2    0    0 -0.17008902996E+03 -0.33438724426E+03 -0.49933869430E+03  0.63102820178E+03  0.90068599318E+02 0.  0.
        254    2    1    2    0    0  0.17008902996E+03  0.33438724426E+03 -0.27233936077E+04  0.28928275624E+04  0.90046291209E+03 0.  0.
        -24    2    4    4    0    0 -0.29139843888E+02  0.26877237363E+03 -0.16853611046E+03  0.32809402180E+03  0.78444549097E+02 0.  0.
         24    2    4    4    0    0  0.19922887385E+03  0.65614870628E+02 -0.25548574973E+04  0.25647335406E+04  0.81017575989E+02 0.  0.
         13    1    3    3    0    0 -0.64494070397E+02 -0.16330909700E+03 -0.16526295071E+03  0.24112484144E+03  0.00000000000E+00 0. -1.
        -13    1    3    3    0    0 -0.10559495957E+03 -0.17107814725E+03 -0.33407574359E+03  0.38990336034E+03  0.00000000000E+00 0.  1.
          2    1    6    6  502    0  0.15934038575E+03  0.66084355814E+02 -0.16489813448E+04  0.16579794860E+04  0.00000000000E+00 0. -1.
          3    1    5    5  503    0 -0.19410057986E+02  0.71604316641E+02 -0.99032625352E+01  0.74846530457E+02  0.00000000000E+00 0. -1.
         -4    1    5    5    0  503 -0.97297859023E+01  0.19716805699E+03 -0.15863284792E+03  0.25324749134E+03  0.00000000000E+00 0.  1.
         -1    1    6    6    0  502  0.39888488105E+02 -0.46948518536E+00 -0.90587615248E+03  0.90675405460E+03  0.00000000000E+00 0.  1.
<mgrwt>
<rscale>  0 0.14253266E+04</rscale>
<asrwt>0</asrwt>
<pdfrwt beam="1">  1        2 0.51896831E+00 0.14253266E+04</pdfrwt>
<pdfrwt beam="2">  1       -2 0.23163343E-01 0.14253266E+04</pdfrwt>
<totfact> 0.16131043E+01</totfact>
</mgrwt>
</event>
<event>
12    1  0.2404959E-007  0.2789592E+04  0.7818608E-02  0.8306507E-01
          1   -1    0    0  501    0  0.00000000000E+00  0.00000000000E+00  0.14117371154E+04  0.14117371154E+04  0.00000000000E+00 0. -1.
         -1   -1    0    0    0  501 -0.00000000000E+00 -0.00000000000E+00 -0.13780585457E+04  0.13780585457E+04  0.00000000000E+00 0.  1.
         23    2    1    2    0    0 -0.95927162473E+03 -0.73044656771E+03 -0.30393965307E+03  0.12467755149E+04  0.91190095542E+02 0.  0.
        254    2    1    2    0    0  0.95927162473E+03  0.73044656771E+03  0.33761822278E+03  0.15430201462E+04  0.90175987314E+03 0.  0.
        -24    2    4    4    0    0  0.24897095958E+03 -0.49620310277E+02  0.40304234305E+03  0.48298744982E+03  0.79906398308E+02 0.  0.
         24    2    4    4    0    0  0.71030066515E+03  0.78006687799E+03 -0.65424120262E+02  0.10600326963E+04  0.79734764971E+02 0.  0.
         13    1    3    3    0    0 -0.36943387411E+03 -0.32847091659E+03 -0.99108839408E+02  0.50417962318E+03  0.00000000000E+00 0.  1.
        -13    1    3    3    0    0 -0.58983775063E+03 -0.40197565112E+03 -0.20483081366E+03  0.74259589171E+03  0.00000000000E+00 0. -1.
          2    1    6    6  502    0  0.22337052906E+03  0.19724913366E+03 -0.33928077523E+02  0.29992120369E+03  0.00000000000E+00 0. -1.
          3    1    5    5  503    0  0.13440887681E+03  0.19374104134E+01  0.15667246435E+03  0.20643585156E+03  0.00000000000E+00 0. -1.
         -4    1    5    5    0  503  0.11456208277E+03 -0.51557720690E+02  0.24636987869E+03  0.27655159826E+03  0.00000000000E+00 0.  1.
         -1    1    6    6    0  502  0.48693013609E+03  0.58281774434E+03 -0.31496042739E+02  0.76011149265E+03  0.00000000000E+00 0.  1.
<mgrwt>
<rscale>  0 0.27895924E+04</rscale>
<asrwt>0</asrwt>
<pdfrwt beam="1">  1        1 0.21719033E+00 0.27895924E+04</pdfrwt>
<pdfrwt beam="2">  1       -1 0.21200901E+00 0.27895924E+04</pdfrwt>
<totfact> 0.81381406E-01</totfact>
</mgrwt>
</event>
<event>
12    1  0.2404959E-007  0.4526409E+04  0.7818608E-02  0.7906030E-01
         -2   -1    0    0    0  501 -0.00000000000E+00  0.00000000000E+00  0.19633798164E+04  0.19633798164E+04  0.00000000000E+00 0.  1.
          2   -1    0    0  501    0  0.00000000000E+00 -0.00000000000E+00 -0.26088150263E+04  0.26088150263E+04  0.00000000000E+00 0. -1.
         23    2    1    2    0    0  0.84082909545E+03  0.17494770474E+04  0.67507561616E+03  0.20576242104E+04  0.10211168621E+03 0.  0.
        254    2    1    2    0    0 -0.84082909545E+03 -0.17494770474E+04 -0.13205108260E+04  0.25145706324E+04  0.90091793004E+03 0.  0.
        -24    2    4    4    0    0 -0.31479290090E+03 -0.84449299838E+03 -0.10856503390E+03  0.91122105785E+03  0.79211456967E+02 0.  0.
         24    2    4    4    0    0 -0.52603619455E+03 -0.90498404899E+03 -0.12119457921E+04  0.16033495746E+04  0.78784822541E+02 0.  0.
         11    1    3    3    0    0  0.57860737297E+03  0.12922860311E+04  0.51763136598E+03  0.15075582606E+04  0.00000000000E+00 0.  1.
        -11    1    3    3    0    0  0.26222172248E+03  0.45719101631E+03  0.15744425018E+03  0.55006594973E+03  0.00000000000E+00 0. -1.
          4    1    6    6  502    0 -0.43182931630E+03 -0.67653251390E+03 -0.92447992151E+03  0.12242695480E+04  0.00000000000E+00 0. -1.
          1    1    5    5  503    0 -0.14973589402E+03 -0.51301221719E+03 -0.66352596841E+02  0.53852116026E+03  0.00000000000E+00 0. -1.
         -2    1    5    5    0  503 -0.16505700688E+03 -0.33148078120E+03 -0.42212437056E+02  0.37269989759E+03  0.00000000000E+00 0.  1.
         -3    1    6    6    0  502 -0.94206878249E+02 -0.22845153509E+03 -0.28746587061E+03  0.37908002659E+03  0.00000000000E+00 0.  1.
<mgrwt>
<rscale>  0 0.45264091E+04</rscale>
<asrwt>0</asrwt>
<pdfrwt beam="1">  1        2 0.40135616E+00 0.45264091E+04</pdfrwt>
<pdfrwt beam="2">  1       -2 0.30205844E+00 0.45264091E+04</pdfrwt>
<totfact> 0.70195137E-02</totfact>
</mgrwt>
</event>
<event>
12    1  0.2404959E-007  0.2192223E+04  0.7818608E-02  0.8521672E-01
          2   -1    0    0  501    0  0.00000000000E+00  0.00000000000E+00  0.10984821439E+04  0.10984821439E+04  0.00000000000E+00 0. -1.
         -2   -1    0    0    0  501 -0.00000000000E+00 -0.00000000000E+00 -0.10937456588E+04  0.10937456588E+04  0.00000000000E+00 0.  1.
         23    2    1    2    0    0  0.69866510546E+03  0.53812972305E+03  0.21481579250E+03  0.91257407230E+03  0.94493832098E+02 0.  0.
        254    2    1    2    0    0 -0.69866510546E+03 -0.53812972305E+03 -0.21007930744E+03  0.12796537304E+04  0.90314108865E+03 0.  0.
        -24    2    4    4    0    0 -0.54873942646E+03 -0.75808678489E+03 -0.30160345087E+03  0.98643846529E+03  0.79282234145E+02 0.  0.
         24    2    4    4    0    0 -0.14992567901E+03  0.21995706184E+03  0.91524143424E+02  0.29321526516E+03  0.82095703971E+02 0.  0.
         11    1    3    3    0    0  0.11418318766E+02  0.72668978487E+01  0.17347545603E+02  0.22002798600E+02  0.00000000000E+00 0. -1.
        -11    1    3    3    0    0  0.68724678670E+03  0.53086282520E+03  0.19746824689E+03  0.89057127370E+03  0.00000000000E+00 0.  1.
          2    1    6    6  502    0 -0.22035065809E+02  0.46852234382E+01 -0.77997050380E+01  0.23839690488E+02  0.00000000000E+00 0. -1.
          1    1    5    5  503    0 -0.38021522520E+01 -0.24006809257E+02 -0.21179743436E+01  0.24398136563E+02  0.00000000000E+00 0. -1.
         -2    1    5    5    0  503 -0.54493727421E+03 -0.73407997564E+03 -0.29948547652E+03  0.96204032873E+03  0.00000000000E+00 0.  1.
         -1    1    6    6    0  502 -0.12789061320E+03  0.21527183841E+03  0.99323848462E+02  0.26937557467E+03  0.00000000000E+00 0.  1.
<mgrwt>
<rscale>  0 0.21922227E+04</rscale>
<asrwt>0</asrwt>
<pdfrwt beam="1">  1        2 0.16899725E+00 0.21922227E+04</pdfrwt>
<pdfrwt beam="2">  1       -2 0.16826856E+00 0.21922227E+04</pdfrwt>
<totfact> 0.43788018E+00</totfact>
</mgrwt>
</event>
<event>
12    1  0.2404959E-007  0.1325519E+04  0.7818608E-02  0.9009570E-01
          1   -1    0    0  501    0  0.00000000000E+00  0.00000000000E+00  0.10816378745E+04  0.10816378745E+04  0.00000000000E+00 0. -1.
         -1   -1    0    0    0  501 -0.00000000000E+00 -0.00000000000E+00 -0.40609707092E+03  0.40609707092E+03  0.00000000000E+00 0.  1.
         23    2    1    2    0    0 -0.30971596416E+03 -0.28189755743E+02  0.36250099657E+03  0.48572724419E+03  0.88347849176E+02 0.  0.
        254    2    1    2    0    0  0.30971596416E+03  0.28189755743E+02  0.31303980702E+03  0.10020077012E+04  0.89961484636E+03 0.  0.
        -24    2    4    4    0    0  0.33871735343E+03  0.16610688560E+03  0.57558336195E+03  0.69338831743E+03  0.84677088044E+02 0.  0.
         24    2    4    4    0    0 -0.29001389269E+02 -0.13791712986E+03 -0.26254355493E+03  0.30861938381E+03  0.80340466367E+02 0.  0.
         11    1    3    3    0    0 -0.22775051163E+03 -0.57791973613E+02  0.28230245914E+03  0.36729400512E+03  0.00000000000E+00 0. -1.
        -11    1    3    3    0    0 -0.81965452532E+02  0.29602217870E+02  0.80198537427E+02  0.11843323907E+03  0.00000000000E+00 0.  1.
          2    1    6    6  502    0  0.27191044542E+00 -0.12105093395E+03 -0.15986060401E+03  0.20052135862E+03  0.00000000000E+00 0. -1.
          3    1    5    5  503    0  0.25896979133E+03  0.16257751228E+03  0.47616736010E+03  0.56589058585E+03  0.00000000000E+00 0. -1.
         -4    1    5    5    0  503  0.79747562095E+02  0.35293733218E+01  0.99416001850E+02  0.12749773159E+03  0.00000000000E+00 0.  1.
         -1    1    6    6    0  502 -0.29273299714E+02 -0.16866195910E+02 -0.10268295092E+03  0.10809802519E+03  0.00000000000E+00 0.  1.
<mgrwt>
<rscale>  0 0.13255187E+04</rscale>
<asrwt>0</asrwt>
<pdfrwt beam="1">  1        1 0.16640583E+00 0.13255187E+04</pdfrwt>
<pdfrwt beam="2">  1       -1 0.62476473E-01 0.13255187E+04</pdfrwt>
<totfact> 0.33359462E+01</totfact>
</mgrwt>
</event>
<event>
12    1  0.2404959E-007  0.2525766E+04  0.7818608E-02  0.8393863E-01
         -1   -1    0    0    0  501 -0.00000000000E+00  0.00000000000E+00  0.27264846782E+04  0.27264846782E+04  0.00000000000E+00 0.  1.
          1   -1    0    0  501    0  0.00000000000E+00 -0.00000000000E+00 -0.58495582456E+03  0.58495582456E+03  0.00000000000E+00 0. -1.
         23    2    1    2    0    0  0.61473687352E+03  0.63028503843E+03  0.69073339548E+02  0.88680662982E+03  0.80586718074E+02 0.  0.
        254    2    1    2    0    0 -0.61473687352E+03 -0.63028503843E+03  0.20724555141E+04  0.24246338729E+04  0.89923128645E+03 0.  0.
        -24    2    4    4    0    0 -0.38860304529E+03  0.13473953930E+03  0.10154730881E+04  0.10978613158E+04  0.70333531531E+02 0.  0.
         24    2    4    4    0    0 -0.22613382823E+03 -0.76502457773E+03  0.10569824259E+04  0.13267725572E+04  0.81941789529E+02 0.  0.
         13    1    3    3    0    0  0.30072776609E+03  0.26532890927E+03  0.58099128909E+02  0.40523095658E+03  0.00000000000E+00 0.  1.
        -13    1    3    3    0    0  0.31400910743E+03  0.36495612916E+03  0.10974210639E+02  0.48157567324E+03  0.00000000000E+00 0. -1.
          2    1    6    6  502    0 -0.11205541362E+03 -0.29019695240E+03  0.46333877916E+03  0.55808020139E+03  0.00000000000E+00 0. -1.
          1    1    5    5  503    0 -0.39089476309E+03  0.13138237682E+03  0.99651120040E+03  0.10784686445E+04  0.00000000000E+00 0. -1.
         -2    1    5    5    0  503  0.22917177950E+01  0.33571624791E+01  0.18961887732E+02  0.19392671212E+02  0.00000000000E+00 0.  1.
         -1    1    6    6    0  502 -0.11407841460E+03 -0.47482762533E+03  0.59364364678E+03  0.76869235577E+03  0.00000000000E+00 0.  1.
<mgrwt>
<rscale>  0 0.25257657E+04</rscale>
<asrwt>0</asrwt>
<pdfrwt beam="1">  1        1 0.89993205E-01 0.25257657E+04</pdfrwt>
<pdfrwt beam="2">  1       -1 0.41945917E+00 0.25257657E+04</pdfrwt>
<totfact> 0.16556899E-01</totfact>
</mgrwt>
</event>
<event>
12    1  0.2404959E-007  0.1510864E+04  0.7818608E-02  0.8877260E-01
         -2   -1    0    0    0  501 -0.00000000000E+00  0.00000000000E+00  0.20507799396E+03  0.20507799396E+03  0.00000000000E+00 0.  1.
          2   -1    0    0  501    0  0.00000000000E+00 -0.00000000000E+00 -0.27827352098E+04  0.27827352098E+04  0.00000000000E+00 0. -1.
         23    2    1    2    0    0 -0.10555112641E+03  0.29082312771E+03 -0.10605302797E+03  0.33978299816E+03  0.92120080312E+02 0.  0.
        254    2    1    2    0    0  0.10555112641E+03 -0.29082312771E+03 -0.24716041879E+04  0.26480302057E+04  0.89861981752E+03 0.  0.
        -24    2    4    4    0    0  0.25720790643E+03 -0.40433825400E+03 -0.23720176929E+04  0.24212490640E+04  0.79584945924E+02 0.  0.
         24    2    4    4    0    0 -0.15165678002E+03  0.11351512629E+03 -0.99586495014E+02  0.22678114167E+03  0.75011688464E+02 0.  0.
         13    1    3    3    0    0  0.57289006377E+01  0.49888245276E+02  0.81303425420E+01  0.50870028396E+02  0.00000000000E+00 0.  1.
        -13    1    3    3    0    0 -0.11128002705E+03  0.24093488243E+03 -0.11418337051E+03  0.28891296976E+03  0.00000000000E+00 0. -1.
          4    1    6    6  502    0 -0.10422484007E+03  0.10684610019E+03 -0.48957988042E+02  0.15708529851E+03  0.00000000000E+00 0. -1.
          3    1    5    5  503    0  0.21092371995E+03 -0.37478841660E+03 -0.20563049839E+04  0.21007963632E+04  0.00000000000E+00 0. -1.
         -4    1    5    5    0  503  0.46284186486E+02 -0.29549837404E+02 -0.31571270899E+03  0.32045270076E+03  0.00000000000E+00 0.  1.
         -3    1    6    6    0  502 -0.47431939948E+02  0.66690261002E+01 -0.50628506971E+02  0.69695843165E+02  0.00000000000E+00 0.  1.
<mgrwt>
<rscale>  0 0.15108643E+04</rscale>
<asrwt>0</asrwt>
<pdfrwt beam="1">  1        2 0.42811309E+00 0.15108643E+04</pdfrwt>
<pdfrwt beam="2">  1       -2 0.31550462E-01 0.15108643E+04</pdfrwt>
<totfact> 0.21440647E+01</totfact>
</mgrwt>
</event>
<event>
12    1  0.2404959E-007  0.2271405E+04  0.7818608E-02  0.8489282E-01
          1   -1    0    0  501    0  0.00000000000E+00  0.00000000000E+00  0.49054268205E+03  0.49054268205E+03  0.00000000000E+00 0. -1.
         -1   -1    0    0    0  501 -0.00000000000E+00 -0.00000000000E+00 -0.26293732311E+04  0.26293732311E+04  0.00000000000E+00 0.  1.
         23    2    1    2    0    0  0.21407545583E+03 -0.90177072707E+03 -0.59787779103E+03  0.11065117031E+04  0.88834402638E+02 0.  0.
        254    2    1    2    0    0 -0.21407545583E+03  0.90177072707E+03 -0.15409527580E+04  0.20134042100E+04  0.90567232797E+03 0.  0.
        -24    2    4    4    0    0  0.17115393359E+03  0.78573134693E+03 -0.13193846236E+04  0.15471980794E+04  0.79866723337E+02 0.  0.
         24    2    4    4    0    0 -0.38522938942E+03  0.11603938013E+03 -0.22156813442E+03  0.46620613062E+03  0.79930581266E+02 0.  0.
         13    1    3    3    0    0  0.13271850012E+03 -0.52216917235E+03 -0.39816063760E+03  0.66993039800E+03  0.00000000000E+00 0.  1.
        -13    1    3    3    0    0  0.81356955712E+02 -0.37960155471E+03 -0.19971715343E+03  0.43658130510E+03  0.00000000000E+00 0. -1.
          4    1    6    6  502    0 -0.34637019080E+03  0.12212373960E+03 -0.18009775800E+03  0.40904977605E+03  0.00000000000E+00 0. -1.
          3    1    5    5  503    0  0.39077505003E+02  0.89181219813E+02 -0.19510988714E+03  0.21805551913E+03  0.00000000000E+00 0. -1.
         -4    1    5    5    0  503  0.13207642859E+03  0.69655012712E+03 -0.11242747364E+04  0.13291425603E+04  0.00000000000E+00 0.  1.
         -3    1    6    6    0  502 -0.38859198619E+02 -0.60843594635E+01 -0.41470376419E+02  0.57156354570E+02  0.00000000000E+00 0.  1.
<mgrwt>
<rscale>  0 0.22714047E+04</rscale>
<asrwt>0</asrwt>
<pdfrwt beam="1">  1        1 0.75468106E-01 0.22714047E+04</pdfrwt>
<pdfrwt beam="2">  1       -1 0.40451895E+00 0.22714047E+04</pdfrwt>
<totfact> 0.27486708E-01</totfact>
</mgrwt>
</event>
<event>
12    1  0.2404959E-007  0.2556014E+04  0.7818608E-02  0.8383298E-01
          2   -1    0    0  501    0  0.00000000000E+00  0.00000000000E+00  0.11758058344E+04  0.11758058344E+04  0.00000000000E+00 0.  1.
         -2   -1    0    0    0  501 -0.00000000000E+00 -0.00000000000E+00 -0.13890912951E+04  0.13890912951E+04  0.00000000000E+00 0. -1.
         23    2    1    2    0    0 -0.33783696844E+02 -0.11005735708E+04  0.98618901869E+02  0.11093686854E+04  0.92572509483E+02 0.  0.
        254    2    1    2    0    0  0.33783696844E+02  0.11005735708E+04 -0.31190436261E+03  0.14555284441E+04  0.89937489251E+03 0.  0.
        -24    2    4    4    0    0 -0.23388475294E+03  0.90665201712E+03 -0.50270912519E+03  0.10656616424E+04  0.78729370250E+02 0.  0.
         24    2    4    4    0    0  0.26766844978E+03  0.19392155368E+03  0.19080476258E+03  0.38986680170E+03  0.79609658048E+02 0.  0.
         13    1    3    3    0    0 -0.61585580626E+02 -0.53725685978E+03  0.37746390286E+02  0.54209086609E+03  0.00000000000E+00 0. -1.
        -13    1    3    3    0    0  0.27801883782E+02 -0.56331671102E+03  0.60872511583E+02  0.56727781935E+03  0.00000000000E+00 0.  1.
          4    1    6    6  502    0  0.80652923491E+02  0.10432934245E+03  0.86858590994E+02  0.15790478331E+03  0.00000000000E+00 0. -1.
          3    1    5    5  503    0 -0.24188988659E+01  0.95119844099E+02 -0.62600457742E+02  0.11389667740E+03  0.00000000000E+00 0. -1.
         -4    1    5    5    0  503 -0.23146585407E+03  0.81153217302E+03 -0.44010866745E+03  0.95176496501E+03  0.00000000000E+00 0.  1.
         -3    1    6    6    0  502  0.18701552629E+03  0.89592211229E+02  0.10394617159E+03  0.23196201839E+03  0.00000000000E+00 0.  1.
<mgrwt>
<rscale>  0 0.25560138E+04</rscale>
<asrwt>0</asrwt>
<pdfrwt beam="1">  1        2 0.18089321E+00 0.25560138E+04</pdfrwt>
<pdfrwt beam="2">  1       -2 0.21370635E+00 0.25560138E+04</pdfrwt>
<totfact> 0.18846554E+00</totfact>
</mgrwt>
</event>
<event>
12    1  0.2404959E-007  0.2042626E+04  0.7818608E-02  0.8586947E-01
          2   -1    0    0  501    0  0.00000000000E+00  0.00000000000E+00  0.10874628453E+04  0.10874628453E+04  0.00000000000E+00 0. -1.
         -2   -1    0    0    0  501 -0.00000000000E+00 -0.00000000000E+00 -0.95918682146E+03  0.95918682146E+03  0.00000000000E+00 0.  1.
         23    2    1    2    0    0 -0.82493251597E+02  0.69918026704E+03  0.47252706927E+03  0.85272245866E+03  0.90529431319E+02 0.  0.
        254    2    1    2    0    0  0.82493251597E+02 -0.69918026704E+03 -0.34425104546E+03  0.11939272081E+04  0.90071927564E+03 0.  0.
        -24    2    4    4    0    0 -0.33124745754E+03 -0.26903759090E+02 -0.41392989012E+02  0.34463417973E+03  0.81305891052E+02 0.  0.
         24    2    4    4    0    0  0.41374070913E+03 -0.67227650795E+03 -0.30285805645E+03  0.84929302835E+03  0.80240688607E+02 0.  0.
         13    1    3    3    0    0 -0.25369192809E+01  0.31009690313E+03  0.24289296821E+03  0.39390800867E+03  0.00000000000E+00 0. -1.
        -13    1    3    3    0    0 -0.79956332316E+02  0.38908336391E+03  0.22963410106E+03  0.45881444999E+03  0.00000000000E+00 0.  1.
          2    1    6    6  502    0  0.23980008273E+03 -0.40267740187E+03 -0.13794865172E+03  0.48855194213E+03  0.00000000000E+00 0. -1.
          3    1    5    5  503    0 -0.26203000680E+03  0.12760573156E+02 -0.33398133515E+02  0.26445792107E+03  0.00000000000E+00 0. -1.
         -4    1    5    5    0  503 -0.69217450735E+02 -0.39664332246E+02 -0.79948554968E+01  0.80176258663E+02  0.00000000000E+00 0.  1.
         -1    1    6    6    0  502  0.17394062640E+03 -0.26959910608E+03 -0.16490940473E+03  0.36074108621E+03  0.00000000000E+00 0.  1.
<mgrwt>
<rscale>  0 0.20426258E+04</rscale>
<asrwt>0</asrwt>
<pdfrwt beam="1">  1        2 0.16730198E+00 0.20426258E+04</pdfrwt>
<pdfrwt beam="2">  1       -2 0.14756720E+00 0.20426258E+04</pdfrwt>
<totfact> 0.64247843E+00</totfact>
</mgrwt>
</event>
<event>
12    1  0.2404959E-007  0.2546444E+04  0.7818608E-02  0.8386624E-01
          1   -1    0    0  501    0  0.00000000000E+00  0.00000000000E+00  0.20243570614E+04  0.20243570614E+04  0.00000000000E+00 0. -1.
         -1   -1    0    0    0  501 -0.00000000000E+00 -0.00000000000E+00 -0.80079475420E+03  0.80079475420E+03  0.00000000000E+00 0.  1.
         23    2    1    2    0    0  0.95030663184E+03  0.43916362576E+03  0.12027853987E+03  0.10576423642E+04  0.90515515931E+02 0.  0.
        254    2    1    2    0    0 -0.95030663184E+03 -0.43916362576E+03  0.11032837673E+04  0.17675094515E+04  0.90050386171E+03 0.  0.
        -24    2    4    4    0    0 -0.37377276425E+03  0.23924237740E+03  0.18734242883E+03  0.48778301149E+03  0.76759925874E+02 0.  0.
         24    2    4    4    0    0 -0.57653386760E+03 -0.67840600316E+03  0.91594133852E+03  0.12797264400E+04  0.78263784183E+02 0.  0.
         11    1    3    3    0    0  0.28039567266E+03  0.86842334094E+02  0.21623326784E+02  0.29433126321E+03  0.00000000000E+00 0. -1.
        -11    1    3    3    0    0  0.66991095918E+03  0.35232129166E+03  0.98655213090E+02  0.76331110097E+03  0.00000000000E+00 0.  1.
          4    1    6    6  502    0 -0.50608923439E+03 -0.62499432182E+03  0.84348806254E+03  0.11654253846E+04  0.00000000000E+00 0. -1.
          3    1    5    5  503    0 -0.37157317360E+03  0.23773064548E+03  0.19302961086E+03  0.48150068932E+03  0.00000000000E+00 0. -1.
         -4    1    5    5    0  503 -0.21995906449E+01  0.15117319225E+01 -0.56871820342E+01  0.62823221742E+01  0.00000000000E+00 0.  1.
         -3    1    6    6    0  502 -0.70444633211E+02 -0.53411681338E+02  0.72453275981E+02  0.11430105534E+03  0.00000000000E+00 0.  1.
<mgrwt>
<rscale>  0 0.25464442E+04</rscale>
<asrwt>0</asrwt>
<pdfrwt beam="1">  1        1 0.31143955E+00 0.25464442E+04</pdfrwt>
<pdfrwt beam="2">  1       -1 0.12319919E+00 0.25464442E+04</pdfrwt>
<totfact> 0.14724079E+00</totfact>
</mgrwt>
</event>
<event>
12    1  0.2404959E-007  0.1669112E+04  0.7818608E-02  0.8779180E-01
         -1   -1    0    0    0  501 -0.00000000000E+00  0.00000000000E+00  0.83569786573E+03  0.83569786573E+03  0.00000000000E+00 0.  1.
          1   -1    0    0  501    0  0.00000000000E+00 -0.00000000000E+00 -0.83341535528E+03  0.83341535528E+03  0.00000000000E+00 0. -1.
         23    2    1    2    0    0 -0.30090197882E+03  0.31294020500E+03  0.39818261119E+03  0.59479147653E+03  0.82182333519E+02 0.  0.
        254    2    1    2    0    0  0.30090197882E+03 -0.31294020500E+03 -0.39590010074E+03  0.10743217445E+04  0.89942022888E+03 0.  0.
        -24    2    4    4    0    0 -0.19204135062E+03 -0.19233130072E+03  0.15501089595E+03  0.32072878099E+03  0.70479525452E+02 0.  0.
         24    2    4    4    0    0  0.49294332944E+03 -0.12060890428E+03 -0.55091099670E+03  0.75359296348E+03  0.82823876420E+02 0.  0.
         13    1    3    3    0    0 -0.16256258605E+03  0.22362900549E+03  0.23308700670E+03  0.36161592771E+03  0.00000000000E+00 0. -1.
        -13    1    3    3    0    0 -0.13833939277E+03  0.89311199514E+02  0.16509560449E+03  0.23317554883E+03  0.00000000000E+00 0.  1.
          2    1    6    6  502    0  0.38392175598E+03 -0.11006511403E+03 -0.38465021325E+03  0.55449619529E+03  0.00000000000E+00 0. -1.
          1    1    5    5  503    0 -0.13912778917E+03 -0.90627948308E+02  0.87581511154E+02  0.18772449982E+03  0.00000000000E+00 0. -1.
         -2    1    5    5    0  503 -0.52913561443E+02 -0.10170335241E+03  0.67429384800E+02  0.13300428118E+03  0.00000000000E+00 0.  1.
         -1    1    6    6    0  502  0.10902157345E+03 -0.10543790247E+02 -0.16626078345E+03  0.19909676819E+03  0.00000000000E+00 0.  1.
<mgrwt>
<rscale>  0 0.16691117E+04</rscale>
<asrwt>0</asrwt>
<pdfrwt beam="1">  1        1 0.12821775E+00 0.16691117E+04</pdfrwt>
<pdfrwt beam="2">  1       -1 0.12856890E+00 0.16691117E+04</pdfrwt>
<totfact> 0.10295746E+01</totfact>
</mgrwt>
</event>
<event>
12    1  0.2404959E-007  0.2260087E+04  0.7818608E-02  0.8493827E-01
         -4   -1    0    0    0  501 -0.00000000000E+00  0.00000000000E+00  0.13485538654E+04  0.13485538654E+04  0.00000000000E+00 0.  1.
          4   -1    0    0  501    0  0.00000000000E+00 -0.00000000000E+00 -0.94693877696E+03  0.94693877696E+03  0.00000000000E+00 0. -1.
         23    2    1    2    0    0  0.38894351513E+03  0.79705914211E+03  0.49823628937E+03  0.10212789703E+04  0.90504149513E+02 0.  0.
        254    2    1    2    0    0 -0.38894351513E+03 -0.79705914211E+03 -0.96621200908E+02  0.12742136721E+04  0.90978266184E+03 0.  0.
        -24    2    4    4    0    0  0.69026163911E+01 -0.22156120484E+03  0.36393436221E+03  0.43352201255E+03  0.79725163944E+02 0.  0.
         24    2    4    4    0    0 -0.39584613152E+03 -0.57549793727E+03 -0.46055556311E+03  0.84069165957E+03  0.82213162737E+02 0.  0.
         13    1    3    3    0    0  0.33497381295E+03  0.73331901336E+03  0.43179523140E+03  0.91455527585E+03  0.00000000000E+00 0.  1.
        -13    1    3    3    0    0  0.53969702178E+02  0.63740128743E+02  0.66441057963E+02  0.10672369441E+03  0.00000000000E+00 0. -1.
          2    1    6    6  502    0 -0.20892891183E+03 -0.37403546410E+03 -0.27503222916E+03  0.50911348998E+03  0.00000000000E+00 0. -1.
          1    1    5    5  503    0 -0.73937499756E+01 -0.10483276598E+03  0.24341605994E+03  0.26513384280E+03  0.00000000000E+00 0. -1.
         -2    1    5    5    0  503  0.14296366367E+02 -0.11672843885E+03  0.12051830226E+03  0.16838816974E+03  0.00000000000E+00 0.  1.
         -1    1    6    6    0  502 -0.18691721969E+03 -0.20146247317E+03 -0.18552333396E+03  0.33157816960E+03  0.00000000000E+00 0.  1.
<mgrwt>
<rscale>  0 0.22600867E+04</rscale>
<asrwt>0</asrwt>
<pdfrwt beam="1">  1        4 0.14568289E+00 0.22600867E+04</pdfrwt>
<pdfrwt beam="2">  1       -4 0.20746983E+00 0.22600867E+04</pdfrwt>
<totfact> 0.68750320E-02</totfact>
</mgrwt>
</event>
<event>
12    1  0.2404959E-007  0.1870028E+04  0.7818608E-02  0.8669921E-01
         -2   -1    0    0    0  501 -0.00000000000E+00  0.00000000000E+00  0.28300482683E+03  0.28300482683E+03  0.00000000000E+00 0.  1.
          2   -1    0    0  501    0  0.00000000000E+00 -0.00000000000E+00 -0.30891732484E+04  0.30891732484E+04  0.00000000000E+00 0. -1.
         23    2    1    2    0    0 -0.28714128402E+03 -0.30257033886E+03 -0.21292159038E+04  0.21716015205E+04  0.91070697407E+02 0.  0.
        254    2    1    2    0    0  0.28714128402E+03  0.30257033886E+03 -0.67695251773E+03  0.12005765547E+04  0.89951121474E+03 0.  0.
        -24    2    4    4    0    0 -0.98331599744E+02  0.13461357399E+03 -0.74567402440E+03  0.76808981815E+03  0.78372828649E+02 0.  0.
         24    2    4    4    0    0  0.38547288377E+03  0.16795676487E+03  0.68721506667E+02  0.43248673653E+03  0.74318993609E+02 0.  0.
         13    1    3    3    0    0 -0.15404611984E+03 -0.17424594911E+03 -0.14072205189E+04  0.14263104313E+04  0.00000000000E+00 0. -1.
        -13    1    3    3    0    0 -0.13309516418E+03 -0.12832438975E+03 -0.72199538498E+03  0.74529108922E+03  0.00000000000E+00 0.  1.
          4    1    6    6  502    0  0.23588928755E+03  0.80074714654E+02  0.70833216290E+02  0.25898467221E+03  0.00000000000E+00 0. -1.
          3    1    5    5  503    0 -0.87591438886E+02  0.12072583079E+03 -0.72820454405E+03  0.74332283993E+03  0.00000000000E+00 0. -1.
         -4    1    5    5    0  503 -0.10740160858E+02  0.13887743204E+02 -0.17469480354E+02  0.24766978225E+02  0.00000000000E+00 0.  1.
         -3    1    6    6    0  502  0.14958359622E+03  0.87882050214E+02 -0.21117096226E+01  0.17350206432E+03  0.00000000000E+00 0.  1.
<mgrwt>
<rscale>  0 0.18700277E+04</rscale>
<asrwt>0</asrwt>
<pdfrwt beam="1">  1        2 0.47525741E+00 0.18700277E+04</pdfrwt>
<pdfrwt beam="2">  1       -2 0.43539205E-01 0.18700277E+04</pdfrwt>
<totfact> 0.72081497E+00</totfact>
</mgrwt>
</event>
<event>
12    1  0.2404959E-007  0.1874795E+04  0.7818608E-02  0.8667505E-01
          2   -1    0    0  501    0  0.00000000000E+00  0.00000000000E+00  0.43623477960E+03  0.43623477960E+03  0.00000000000E+00 0. -1.
         -2   -1    0    0    0  501 -0.00000000000E+00 -0.00000000000E+00 -0.20143138581E+04  0.20143138581E+04  0.00000000000E+00 0.  1.
         23    2    1    2    0    0 -0.64515671212E+03 -0.26914653027E+03 -0.42688759217E+03  0.82431167201E+03  0.92680517370E+02 0.  0.
        254    2    1    2    0    0  0.64515671212E+03  0.26914653027E+03 -0.11511914863E+04  0.16262369657E+04  0.91144818417E+03 0.  0.
        -24    2    4    4    0    0  0.85851357409E+03  0.25714390644E+03 -0.10312820048E+04  0.13685830940E+04  0.79426483503E+02 0.  0.
         24    2    4    4    0    0 -0.21335686197E+03  0.12002623830E+02 -0.11990948156E+03  0.25765387170E+03  0.79636802456E+02 0.  0.
         11    1    3    3    0    0 -0.27375774198E+03 -0.70981735497E+02 -0.14630127498E+03  0.31841132381E+03  0.00000000000E+00 0.  1.
        -11    1    3    3    0    0 -0.37139897014E+03 -0.19816479478E+03 -0.28058631719E+03  0.50590034819E+03  0.00000000000E+00 0. -1.
          4    1    6    6  502    0 -0.11507470227E+03 -0.33211721533E+02 -0.59272124251E+02  0.13363528824E+03  0.00000000000E+00 0. -1.
          1    1    5    5  503    0  0.15883405937E+03  0.74967645038E+02 -0.17588759086E+03  0.24856558659E+03  0.00000000000E+00 0. -1.
         -2    1    5    5    0  503  0.69967951472E+03  0.18217626141E+03 -0.85539441391E+03  0.11200175074E+04  0.00000000000E+00 0.  1.
         -3    1    6    6    0  502 -0.98282159696E+02  0.45214345364E+02 -0.60637357308E+02  0.12401858346E+03  0.00000000000E+00 0.  1.
<mgrwt>
<rscale>  0 0.18747947E+04</rscale>
<asrwt>0</asrwt>
<pdfrwt beam="1">  1        2 0.67113042E-01 0.18747947E+04</pdfrwt>
<pdfrwt beam="2">  1       -2 0.30989444E+00 0.18747947E+04</pdfrwt>
<totfact> 0.18723067E+00</totfact>
</mgrwt>
</event>
<event>
12    1  0.2404959E-007  0.3660872E+04  0.7818608E-02  0.8076689E-01
          1   -1    0    0  501    0  0.00000000000E+00  0.00000000000E+00  0.19515895573E+04  0.19515895573E+04  0.00000000000E+00 0. -1.
         -1   -1    0    0    0  501 -0.00000000000E+00 -0.00000000000E+00 -0.17168038732E+04  0.17168038732E+04  0.00000000000E+00 0.  1.
         23    2    1    2    0    0 -0.70148471496E+03 -0.14992741046E+04 -0.35436372379E+03  0.16948919531E+04  0.84743363857E+02 0.  0.
        254    2    1    2    0    0  0.70148471496E+03  0.14992741046E+04  0.58914940791E+03  0.19735014774E+04  0.89872543665E+03 0.  0.
        -24    2    4    4    0    0  0.12611702028E+03  0.10577598245E+04  0.63398040329E+03  0.12421962635E+04  0.79743690545E+02 0.  0.
         24    2    4    4    0    0  0.57536769468E+03  0.44151428015E+03 -0.44830995386E+02  0.73130521395E+03  0.82550918467E+02 0.  0.
         13    1    3    3    0    0 -0.31717287408E+03 -0.77595473924E+03 -0.18766419387E+03  0.85902400378E+03  0.00000000000E+00 0.  1.
        -13    1    3    3    0    0 -0.38431184087E+03 -0.72331936539E+03 -0.16669952992E+03  0.83586794929E+03  0.00000000000E+00 0. -1.
          2    1    6    6  502    0  0.28407938805E+03  0.25721034432E+03  0.34889147430E+01  0.38323678381E+03  0.00000000000E+00 0. -1.
          1    1    5    5  503    0 -0.23820170038E+01  0.77640669058E+02  0.27139402038E+02  0.82281800174E+02  0.00000000000E+00 0. -1.
         -2    1    5    5    0  503  0.12849903728E+03  0.98011915542E+03  0.60684100125E+03  0.11599144633E+04  0.00000000000E+00 0.  1.
         -3    1    6    6    0  502  0.29128830663E+03  0.18430393583E+03 -0.48319910129E+02  0.34806843013E+03  0.00000000000E+00 0.  1.
<mgrwt>
<rscale>  0 0.36608723E+04</rscale>
<asrwt>0</asrwt>
<pdfrwt beam="1">  1        1 0.30024455E+00 0.36608723E+04</pdfrwt>
<pdfrwt beam="2">  1       -1 0.26412367E+00 0.36608723E+04</pdfrwt>
<totfact> 0.14596276E-01</totfact>
</mgrwt>
</event>
<event>
12    1  0.2404959E-007  0.2454654E+04  0.7818608E-02  0.8419321E-01
          2   -1    0    0  501    0  0.00000000000E+00  0.00000000000E+00  0.18597624750E+04  0.18597624750E+04  0.00000000000E+00 0. -1.
         -2   -1    0    0    0  501 -0.00000000000E+00 -0.00000000000E+00 -0.80995883919E+03  0.80995883919E+03  0.00000000000E+00 0.  1.
         23    2    1    2    0    0 -0.36649967547E+03  0.99283430888E+03  0.48539779989E+03  0.11681194111E+04  0.94074212437E+02 0.  0.
        254    2    1    2    0    0  0.36649967547E+03 -0.99283430888E+03  0.56440583595E+03  0.15016019031E+04  0.90344471372E+03 0.  0.
        -24    2    4    4    0    0  0.46706721034E+03 -0.55355405209E+03  0.71393141697E+03  0.10199716183E+04  0.77911273138E+02 0.  0.
         24    2    4    4    0    0 -0.10056753486E+03 -0.43928025680E+03 -0.14952558103E+03  0.48163028479E+03  0.80801353743E+02 0.  0.
         13    1    3    3    0    0 -0.17406803137E+03  0.56021878080E+03  0.22970714006E+03  0.63000804129E+03  0.00000000000E+00 0. -1.
        -13    1    3    3    0    0 -0.19243164411E+03  0.43261552809E+03  0.25569065983E+03  0.53811136981E+03  0.00000000000E+00 0.  1.
          4    1    6    6  502    0 -0.13825494849E+02 -0.47821299488E+02 -0.45406560148E+02  0.67377865038E+02  0.00000000000E+00 0. -1.
          3    1    5    5  503    0  0.12373545164E+03 -0.19831258204E+03  0.20915265919E+03  0.31366092685E+03  0.00000000000E+00 0. -1.
         -4    1    5    5    0  503  0.34333175870E+03 -0.35524147005E+03  0.50477875778E+03  0.70631069147E+03  0.00000000000E+00 0.  1.
         -3    1    6    6    0  502 -0.86742040014E+02 -0.39145895731E+03 -0.10411902088E+03  0.41425241975E+03  0.00000000000E+00 0.  1.
<mgrwt>
<rscale>  0 0.24546536E+04</rscale>
<asrwt>0</asrwt>
<pdfrwt beam="1">  1        2 0.28611730E+00 0.24546536E+04</pdfrwt>
<pdfrwt beam="2">  1       -2 0.12460905E+00 0.24546536E+04</pdfrwt>
<totfact> 0.34587513E+00</totfact>
</mgrwt>
</event>
<event>
12    1  0.2404959E-007  0.4347900E+04  0.7818608E-02  0.7937820E-01
         -2   -1    0    0    0  501 -0.00000000000E+00  0.00000000000E+00  0.11762281393E+04  0.11762281393E+04  0.00000000000E+00 0.  1.
          2   -1    0    0  501    0  0.00000000000E+00 -0.00000000000E+00 -0.40179787480E+04  0.40179787480E+04  0.00000000000E+00 0. -1.
         23    2    1    2    0    0 -0.14179154515E+04 -0.14745404945E+04 -0.18033909492E+04  0.27285980350E+04  0.90963856830E+02 0.  0.
        254    2    1    2    0    0  0.14179154515E+04  0.14745404945E+04 -0.10383596595E+04  0.24656088524E+04  0.90348344348E+03 0.  0.
        -24    2    4    4    0    0  0.12883490293E+04  0.14293725700E+04 -0.62873037475E+03  0.20260059771E+04  0.80306724265E+02 0.  0.
         24    2    4    4    0    0  0.12956642220E+03  0.45167924514E+02 -0.40962928477E+03  0.43960287523E+03  0.81406005926E+02 0.  0.
         11    1    3    3    0    0 -0.12540183139E+04 -0.13118647848E+04 -0.15607603331E+04  0.23936424049E+04  0.00000000000E+00 0.  1.
        -11    1    3    3    0    0 -0.16389713762E+03 -0.16267570973E+03 -0.24263061612E+03  0.33495563010E+03  0.00000000000E+00 0. -1.
          2    1    6    6  502    0  0.12928072602E+03  0.46347488234E+02 -0.41341358041E+03  0.43562872294E+03  0.00000000000E+00 0. -1.
          3    1    5    5  503    0  0.12445730291E+04  0.13907774493E+04 -0.59654813745E+03  0.19593605126E+04  0.00000000000E+00 0. -1.
         -4    1    5    5    0  503  0.43776000274E+02  0.38595120763E+02 -0.32182237298E+02  0.66645464544E+02  0.00000000000E+00 0.  1.
         -1    1    6    6    0  502  0.28569617845E+00 -0.11795637204E+01  0.37842956406E+01  0.39741522835E+01  0.00000000000E+00 0.  1.
<mgrwt>
<rscale>  0 0.43479005E+04</rscale>
<asrwt>0</asrwt>
<pdfrwt beam="1">  1        2 0.61815058E+00 0.43479005E+04</pdfrwt>
<pdfrwt beam="2">  1       -2 0.18095817E+00 0.43479005E+04</pdfrwt>
<totfact> 0.45126844E-02</totfact>
</mgrwt>
</event>
<event>
12    1  0.2404959E-007  0.2506587E+04  0.7818608E-02  0.8400643E-01
          1   -1    0    0  501    0  0.00000000000E+00  0.00000000000E+00  0.18810540557E+04  0.18810540557E+04  0.00000000000E+00 0. -1.
         -1   -1    0    0    0  501 -0.00000000000E+00 -0.00000000000E+00 -0.83503429385E+03  0.83503429385E+03  0.00000000000E+00 0.  1.
         23    2    1    2    0    0 -0.80117119087E+03  0.29693045853E+03 -0.27999700292E+03  0.90354315380E+03  0.89156799246E+02 0.  0.
        254    2    1    2    0    0  0.80117119087E+03 -0.29693045853E+03  0.13260167647E+04  0.18125451957E+04  0.89272428658E+03 0.  0.
        -24    2    4    4    0    0  0.46135767397E+03 -0.57050607105E+03  0.55687241465E+03  0.92482761174E+03  0.82892368796E+02 0.  0.
         24    2    4    4    0    0  0.33981351691E+03  0.27357561252E+03  0.76914435007E+03  0.88771758396E+03  0.78374967866E+02 0.  0.
         11    1    3    3    0    0 -0.21949847262E+03  0.60043213248E+02 -0.11073648612E+03  0.25307575209E+03  0.00000000000E+00 0.  1.
        -11    1    3    3    0    0 -0.58167271826E+03  0.23688724529E+03 -0.16926051679E+03  0.65046740171E+03  0.00000000000E+00 0. -1.
          4    1    6    6  502    0  0.77666447076E+02  0.65411565430E+02  0.25199953837E+03  0.27168827216E+03  0.00000000000E+00 0. -1.
          1    1    5    5  503    0  0.34501230681E+03 -0.43081300087E+03  0.37233779069E+03  0.66578432239E+03  0.00000000000E+00 0. -1.
         -2    1    5    5    0  503  0.11634536716E+03 -0.13969307018E+03  0.18453462396E+03  0.25904328935E+03  0.00000000000E+00 0.  1.
         -3    1    6    6    0  502  0.26214706983E+03  0.20816404709E+03  0.51714481170E+03  0.61602931180E+03  0.00000000000E+00 0.  1.
<mgrwt>
<rscale>  0 0.25065870E+04</rscale>
<asrwt>0</asrwt>
<pdfrwt beam="1">  1        1 0.28939293E+00 0.25065870E+04</pdfrwt>
<pdfrwt beam="2">  1       -1 0.12846681E+00 0.25065870E+04</pdfrwt>
<totfact> 0.16649522E+00</totfact>
</mgrwt>
</event>
<event>
12    1  0.2404959E-007  0.2557441E+04  0.7818608E-02  0.8382803E-01
         -2   -1    0    0    0  501 -0.00000000000E+00  0.00000000000E+00  0.86293263385E+03  0.86293263385E+03  0.00000000000E+00 0.  1.
          2   -1    0    0  501    0  0.00000000000E+00 -0.00000000000E+00 -0.18948475709E+04  0.18948475709E+04  0.00000000000E+00 0. -1.
         23    2    1    2    0    0 -0.10965010760E+04 -0.21918939758E+03 -0.42873866592E+03  0.12012618786E+04  0.94099179281E+02 0.  0.
        254    2    1    2    0    0  0.10965010760E+04  0.21918939758E+03 -0.60317627111E+03  0.15565183262E+04  0.89920469529E+03 0.  0.
        -24    2    4    4    0    0  0.58038625155E+03 -0.17631965696E+03 -0.65886846599E+03  0.89910945121E+03  0.79707762172E+02 0.  0.
         24    2    4    4    0    0  0.51611482444E+03  0.39550905454E+03  0.55692194878E+02  0.65740887497E+03  0.79264645951E+02 0.  0.
         11    1    3    3    0    0 -0.96441600763E+03 -0.22213722077E+03 -0.38795818990E+03  0.10629932915E+04  0.00000000000E+00 0.  1.
        -11    1    3    3    0    0 -0.13208506836E+03  0.29478231901E+01 -0.40780476026E+02  0.13826858707E+03  0.00000000000E+00 0. -1.
          2    1    6    6  502    0  0.31114086072E+03  0.25911179636E+03 -0.34268808727E+00  0.40490452660E+03  0.00000000000E+00 0. -1.
          1    1    5    5  503    0  0.19422753621E+03 -0.73971245442E+02 -0.17550627561E+03  0.27202671515E+03  0.00000000000E+00 0. -1.
         -2    1    5    5    0  503  0.38615871534E+03 -0.10234841151E+03 -0.48336219038E+03  0.62708273606E+03  0.00000000000E+00 0.  1.
         -1    1    6    6    0  502  0.20497396372E+03  0.13639725817E+03  0.56034882965E+02  0.25250434838E+03  0.00000000000E+00 0.  1.
<mgrwt>
<rscale>  0 0.25574408E+04</rscale>
<asrwt>0</asrwt>
<pdfrwt beam="1">  1        2 0.29151501E+00 0.25574408E+04</pdfrwt>
<pdfrwt beam="2">  1       -2 0.13275887E+00 0.25574408E+04</pdfrwt>
<totfact> 0.27938674E+00</totfact>
</mgrwt>
</event>
<event>
12    1  0.2404959E-007  0.1527244E+04  0.7818608E-02  0.8866535E-01
          2   -1    0    0  501    0  0.00000000000E+00  0.00000000000E+00  0.12062493506E+04  0.12062493506E+04  0.00000000000E+00 0. -1.
         -2   -1    0    0    0  501 -0.00000000000E+00 -0.00000000000E+00 -0.48341461104E+03  0.48341461104E+03  0.00000000000E+00 0.  1.
         23    2    1    2    0    0 -0.29690048314E+02  0.33034380463E+03  0.63999362103E+03  0.72731003138E+03  0.96847914567E+02 0.  0.
        254    2    1    2    0    0  0.29690048314E+02 -0.33034380463E+03  0.82841118540E+02  0.96235393028E+03  0.89958540894E+03 0.  0.
        -24    2    4    4    0    0 -0.32546511734E+02  0.42119204705E+02 -0.36147346594E+03  0.37394513315E+03  0.79615282430E+02 0.  0.
         24    2    4    4    0    0  0.62236560047E+02 -0.37246300934E+03  0.44431458448E+03  0.58840879712E+03  0.78786926690E+02 0.  0.
         13    1    3    3    0    0 -0.27540519005E+02  0.22734817536E+03  0.52584086668E+03  0.57354536883E+03  0.00000000000E+00 0. -1.
        -13    1    3    3    0    0 -0.21495293089E+01  0.10299562927E+03  0.11415275435E+03  0.15376466255E+03  0.00000000000E+00 0.  1.
          2    1    6    6  502    0  0.43513795236E+02 -0.10632401355E+03  0.17481345944E+03  0.20918410990E+03  0.00000000000E+00 0. -1.
          3    1    5    5  503    0  0.13431242356E+02 -0.14274904925E+02 -0.42861441945E+02  0.47130397701E+02  0.00000000000E+00 0. -1.
         -4    1    5    5    0  503 -0.45977754089E+02  0.56394109630E+02 -0.31861202400E+03  0.32681473545E+03  0.00000000000E+00 0.  1.
         -1    1    6    6    0  502  0.18722764812E+02 -0.26613899579E+03  0.26950112505E+03  0.37922468722E+03  0.00000000000E+00 0.  1.
<mgrwt>
<rscale>  0 0.15272440E+04</rscale>
<asrwt>0</asrwt>
<pdfrwt beam="1">  1        2 0.18557682E+00 0.15272440E+04</pdfrwt>
<pdfrwt beam="2">  1       -2 0.74371479E-01 0.15272440E+04</pdfrwt>
<totfact> 0.29460558E+01</totfact>
</mgrwt>
</event>
<event>
12    1  0.2404959E-007  0.1544404E+04  0.7818608E-02  0.8855450E-01
         -4   -1    0    0    0  501 -0.00000000000E+00  0.00000000000E+00  0.41698309944E+03  0.41698309944E+03  0.00000000000E+00 0.  1.
          4   -1    0    0  501    0  0.00000000000E+00 -0.00000000000E+00 -0.14300246639E+04  0.14300246639E+04  0.00000000000E+00 0. -1.
         23    2    1    2    0    0 -0.37311639789E+03  0.54567879639E+02  0.64693535895E+02  0.39331467477E+03  0.91201315454E+02 0.  0.
        254    2    1    2    0    0  0.37311639789E+03 -0.54567879639E+02 -0.10777351003E+04  0.14536930885E+04  0.89973170964E+03 0.  0.
        -24    2    4    4    0    0  0.37008075483E+02 -0.42229738731E+03 -0.70379728478E+03  0.82558185930E+03  0.80932733549E+02 0.  0.
         24    2    4    4    0    0  0.33610832241E+03  0.36772950767E+03 -0.37393781553E+03  0.62811122923E+03  0.80625251588E+02 0.  0.
         11    1    3    3    0    0 -0.25754029374E+03  0.13012515721E+02  0.78916546725E+02  0.26967415489E+03  0.00000000000E+00 0.  1.
        -11    1    3    3    0    0 -0.11557610415E+03  0.41555363918E+02 -0.14223010830E+02  0.12364051989E+03  0.00000000000E+00 0. -1.
          2    1    6    6  502    0  0.17562683379E+03  0.15744895581E+03 -0.13569935476E+03  0.27211996125E+03  0.00000000000E+00 0. -1.
          3    1    5    5  503    0 -0.98650752506E+01 -0.24444469308E+03 -0.44919124826E+03  0.51149125623E+03  0.00000000000E+00 0. -1.
         -4    1    5    5    0  503  0.46873150733E+02 -0.17785269423E+03 -0.25460603652E+03  0.31409060307E+03  0.00000000000E+00 0.  1.
         -1    1    6    6    0  502  0.16048148862E+03  0.21028055186E+03 -0.23823846078E+03  0.35599126798E+03  0.00000000000E+00 0.  1.
<mgrwt>
<rscale>  0 0.15444042E+04</rscale>
<asrwt>0</asrwt>
<pdfrwt beam="1">  1        4 0.22000380E+00 0.15444042E+04</pdfrwt>
<pdfrwt beam="2">  1       -4 0.64151246E-01 0.15444042E+04</pdfrwt>
<totfact> 0.42643576E-01</totfact>
</mgrwt>
</event>
<event>
12    1  0.2404959E-007  0.1459744E+04  0.7818608E-02  0.8911673E-01
          2   -1    0    0  501    0  0.00000000000E+00  0.00000000000E+00  0.24390133736E+04  0.24390133736E+04  0.00000000000E+00 0.  1.
         -2   -1    0    0    0  501 -0.00000000000E+00 -0.00000000000E+00 -0.21841342755E+03  0.21841342755E+03  0.00000000000E+00 0. -1.
         23    2    1    2    0    0 -0.20177544541E+03 -0.38956463084E+03  0.82967475561E+03  0.94305342970E+03  0.92280221120E+02 0.  0.
        254    2    1    2    0    0  0.20177544541E+03  0.38956463084E+03  0.13909251904E+04  0.17143733714E+04  0.90107116219E+03 0.  0.
        -24    2    4    4    0    0  0.53306324506E+03  0.36589253598E+03  0.10184367950E+04  0.12090319259E+04  0.80690280768E+02 0.  0.
         24    2    4    4    0    0 -0.33128779965E+03  0.23672094863E+02  0.37248839546E+03  0.50534144552E+03  0.79438010614E+02 0.  0.
         11    1    3    3    0    0 -0.60728543835E+02 -0.21269966017E+03  0.44005304219E+03  0.49251982845E+03  0.00000000000E+00 0.  1.
        -11    1    3    3    0    0 -0.14104690158E+03 -0.17686497067E+03  0.38962171342E+03  0.45053360125E+03  0.00000000000E+00 0. -1.
          4    1    6    6  502    0 -0.16645091505E+03 -0.65580853837E+01  0.13362357410E+03  0.21355134081E+03  0.00000000000E+00 0. -1.
          1    1    5    5  503    0  0.48643920756E+02  0.37074823160E+02  0.14663105139E+03  0.15887554491E+03  0.00000000000E+00 0. -1.
         -2    1    5    5    0  503  0.48441932431E+03  0.32881771282E+03  0.87180574357E+03  0.10501563810E+04  0.00000000000E+00 0.  1.
         -3    1    6    6    0  502 -0.16483688460E+03  0.30230180246E+02  0.23886482136E+03  0.29179010471E+03  0.00000000000E+00 0.  1.
<mgrwt>
<rscale>  0 0.14597442E+04</rscale>
<asrwt>0</asrwt>
<pdfrwt beam="1">  1        2 0.37523281E+00 0.14597442E+04</pdfrwt>
<pdfrwt beam="2">  1       -2 0.33602068E-01 0.14597442E+04</pdfrwt>
<totfact> 0.30378597E+01</totfact>
</mgrwt>
</event>
<event>
12    1  0.2404959E-007  0.2164207E+04  0.7818608E-02  0.8533475E-01
         -3   -1    0    0    0  501 -0.00000000000E+00  0.00000000000E+00  0.16675803099E+04  0.16675803099E+04  0.00000000000E+00 0.  1.
          3   -1    0    0  501    0  0.00000000000E+00 -0.00000000000E+00 -0.70218375147E+03  0.70218375147E+03  0.00000000000E+00 0. -1.
         23    2    1    2    0    0 -0.70544911325E+03  0.14982415659E+03 -0.17600499529E+03  0.74780184471E+03  0.90133852205E+02 0.  0.
        254    2    1    2    0    0  0.70544911325E+03 -0.14982415659E+03  0.11414015537E+04  0.16219622166E+04  0.89880932134E+03 0.  0.
        -24    2    4    4    0    0  0.48979202722E+03  0.60940029611E+02  0.68710572480E+02  0.50488646990E+03  0.81112807743E+02 0.  0.
         24    2    4    4    0    0  0.21565708602E+03 -0.21076418620E+03  0.10726909812E+04  0.11170757467E+04  0.79137613167E+02 0.  0.
         11    1    3    3    0    0 -0.51036582830E+03  0.14427395361E+03 -0.10894738319E+03  0.54144047198E+03  0.00000000000E+00 0.  1.
        -11    1    3    3    0    0 -0.19508328494E+03  0.55502029737E+01 -0.67057612100E+02  0.20636137274E+03  0.00000000000E+00 0. -1.
          4    1    6    6  502    0  0.12464195876E+03 -0.72253716970E+02  0.56151063617E+03  0.57969855273E+03  0.00000000000E+00 0. -1.
          3    1    5    5  503    0  0.32619767151E+02 -0.10248587661E+02  0.20090133726E+02  0.39657234286E+02  0.00000000000E+00 0. -1.
         -2    1    5    5    0  503  0.45717226007E+03  0.71188617272E+02  0.48620438755E+02  0.46522923562E+03  0.00000000000E+00 0.  1.
         -3    1    6    6    0  502  0.91015127260E+02 -0.13851046923E+03  0.51118034504E+03  0.53737719400E+03  0.00000000000E+00 0.  1.
<mgrwt>
<rscale>  0 0.21642068E+04</rscale>
<asrwt>0</asrwt>
<pdfrwt beam="1">  1        3 0.10802827E+00 0.21642068E+04</pdfrwt>
<pdfrwt beam="2">  1       -3 0.25655082E+00 0.21642068E+04</pdfrwt>
<totfact> 0.11693121E-01</totfact>
</mgrwt>
</event>
<event>
12    1  0.2404959E-007  0.2639707E+04  0.7818608E-02  0.8354838E-01
         -2   -1    0    0    0  501 -0.00000000000E+00  0.00000000000E+00  0.57140359151E+03  0.57140359151E+03  0.00000000000E+00 0.  1.
          2   -1    0    0  501    0  0.00000000000E+00 -0.00000000000E+00 -0.30486555133E+04  0.30486555133E+04  0.00000000000E+00 0. -1.
         23    2    1    2    0    0 -0.13689876612E+02 -0.11165217598E+04 -0.64518403526E+03  0.12932589680E+04  0.97201163450E+02 0.  0.
        254    2    1    2    0    0  0.13689876612E+02  0.11165217598E+04 -0.18320678865E+04  0.23268001368E+04  0.90039873561E+03 0.  0.
        -24    2    4    4    0    0  0.40070699092E+02  0.21722642329E+03 -0.12034861981E+04  0.12264449730E+04  0.83637688598E+02 0.  0.
         24    2    4    4    0    0 -0.26380822480E+02  0.89929533648E+03 -0.62858168842E+03  0.11003551638E+04  0.78984159436E+02 0.  0.
         11    1    3    3    0    0  0.39062981111E+02 -0.66619045250E+03 -0.39188769219E+03  0.77389379038E+03  0.00000000000E+00 0. -1.
        -11    1    3    3    0    0 -0.52752857724E+02 -0.45033130727E+03 -0.25329634307E+03  0.51936517761E+03  0.00000000000E+00 0.  1.
          2    1    6    6  502    0 -0.32397146299E+02  0.29438104226E+03 -0.17234599446E+03  0.34265567986E+03  0.00000000000E+00 0. -1.
          3    1    5    5  503    0  0.39766248756E+02  0.32508255878E+02 -0.24643424533E+03  0.25172997143E+03  0.00000000000E+00 0. -1.
         -4    1    5    5    0  503  0.30445033665E+00  0.18471816741E+03 -0.95705195274E+03  0.97471500158E+03  0.00000000000E+00 0.  1.
         -1    1    6    6    0  502  0.60163238193E+01  0.60491429421E+03 -0.45623569396E+03  0.75769948393E+03  0.00000000000E+00 0.  1.
<mgrwt>
<rscale>  0 0.26397066E+04</rscale>
<asrwt>0</asrwt>
<pdfrwt beam="1">  1        2 0.46902392E+00 0.26397066E+04</pdfrwt>
<pdfrwt beam="2">  1       -2 0.87908246E-01 0.26397066E+04</pdfrwt>
<totfact> 0.15956431E+00</totfact>
</mgrwt>
</event>
<event>
12    1  0.2404959E-007  0.1100972E+04  0.7818608E-02  0.9204245E-01
          2   -1    0    0  501    0  0.00000000000E+00  0.00000000000E+00  0.14178395508E+03  0.14178395508E+03  0.00000000000E+00 0. -1.
         -2   -1    0    0    0  501 -0.00000000000E+00 -0.00000000000E+00 -0.21372995841E+04  0.21372995841E+04  0.00000000000E+00 0.  1.
         23    2    1    2    0    0 -0.15733018393E+02 -0.16047308934E+03 -0.28088078485E+03  0.33617569283E+03  0.90116263132E+02 0.  0.
        254    2    1    2    0    0  0.15733018393E+02  0.16047308934E+03 -0.17146348441E+04  0.19429078463E+04  0.89939930525E+03 0.  0.
        -24    2    4    4    0    0 -0.26527802844E+03 -0.15436981347E+03 -0.13267405278E+04  0.13641194376E+04  0.79868268754E+02 0.  0.
         24    2    4    4    0    0  0.28101104684E+03  0.31484290281E+03 -0.38789431639E+03  0.57878840872E+03  0.80254342543E+02 0.  0.
         13    1    3    3    0    0  0.42578691268E+01 -0.55089352404E+02 -0.28988257601E+02  0.62396196010E+02  0.00000000000E+00 0. -1.
        -13    1    3    3    0    0 -0.19990887519E+02 -0.10538373694E+03 -0.25189252725E+03  0.27377949682E+03  0.00000000000E+00 0.  1.
          4    1    6    6  502    0  0.15417254893E+03  0.21515015725E+03 -0.20413610890E+03  0.33426085018E+03  0.00000000000E+00 0. -1.
          3    1    5    5  503    0 -0.26320259529E+03 -0.13338588009E+03 -0.12617661349E+04  0.12958090826E+04  0.00000000000E+00 0. -1.
         -4    1    5    5    0  503 -0.20754331497E+01 -0.20983933376E+02 -0.64974392815E+02  0.68310355030E+02  0.00000000000E+00 0.  1.
         -3    1    6    6    0  502  0.12683849791E+03  0.99692745558E+02 -0.18375820748E+03  0.24452755854E+03  0.00000000000E+00 0.  1.
<mgrwt>
<rscale>  0 0.11009719E+04</rscale>
<asrwt>0</asrwt>
<pdfrwt beam="1">  1        2 0.21812917E-01 0.11009719E+04</pdfrwt>
<pdfrwt beam="2">  1       -2 0.32881531E+00 0.11009719E+04</pdfrwt>
<totfact> 0.54714190E+00</totfact>
</mgrwt>
</event>
<event>
12    1  0.2404959E-007  0.1916651E+04  0.7818608E-02  0.8646612E-01
         -2   -1    0    0    0  501 -0.00000000000E+00  0.00000000000E+00  0.19286660135E+04  0.19286660135E+04  0.00000000000E+00 0.  1.
          2   -1    0    0  501    0  0.00000000000E+00 -0.00000000000E+00 -0.47617794956E+03  0.47617794956E+03  0.00000000000E+00 0. -1.
         23    2    1    2    0    0  0.42066494297E+03 -0.54735382286E+03  0.91177109929E+03  0.11473197073E+04  0.91982453021E+02 0.  0.
        254    2    1    2    0    0 -0.42066494297E+03  0.54735382286E+03  0.54071696461E+03  0.12575242557E+04  0.90135299203E+03 0.  0.
        -24    2    4    4    0    0 -0.56413298567E+03  0.53735599298E+03  0.10275326695E+03  0.78993818875E+03  0.80290842926E+02 0.  0.
         24    2    4    4    0    0  0.14346804270E+03  0.99978298784E+01  0.43796369766E+03  0.46758606696E+03  0.78367682567E+02 0.  0.
         11    1    3    3    0    0  0.24984747173E+03 -0.34476534651E+03  0.63130394002E+03  0.76146672151E+03  0.00000000000E+00 0. -1.
        -11    1    3    3    0    0  0.17081747123E+03 -0.20258847635E+03  0.28046715927E+03  0.38585298581E+03  0.00000000000E+00 0.  1.
          4    1    6    6  502    0  0.99089728353E+02  0.17151996243E+02  0.18412035433E+03  0.20979339865E+03  0.00000000000E+00 0. -1.
          3    1    5    5  503    0 -0.14495443377E+03  0.14825679425E+03  0.62634281052E+02  0.21659851817E+03  0.00000000000E+00 0. -1.
         -4    1    5    5    0  503 -0.41917855190E+03  0.38909919873E+03  0.40118985896E+02  0.57333967058E+03  0.00000000000E+00 0.  1.
         -3    1    6    6    0  502  0.44378314349E+02 -0.71541663645E+01  0.25384334333E+03  0.25779266831E+03  0.00000000000E+00 0.  1.
<mgrwt>
<rscale>  0 0.19166515E+04</rscale>
<asrwt>0</asrwt>
<pdfrwt beam="1">  1        2 0.73258147E-01 0.19166515E+04</pdfrwt>
<pdfrwt beam="2">  1       -2 0.29671784E+00 0.19166515E+04</pdfrwt>
<totfact> 0.20313761E+00</totfact>
</mgrwt>
</event>
<event>
12    1  0.2404959E-007  0.1443247E+04  0.7818608E-02  0.8923095E-01
          1   -1    0    0  501    0  0.00000000000E+00  0.00000000000E+00  0.17212854722E+04  0.17212854722E+04  0.00000000000E+00 0. -1.
         -1   -1    0    0    0  501 -0.00000000000E+00 -0.00000000000E+00 -0.30253007487E+03  0.30253007487E+03  0.00000000000E+00 0.  1.
         23    2    1    2    0    0 -0.23168984860E+03 -0.23286003830E+03  0.37716572545E+02  0.34299237174E+03  0.91198924571E+02 0.  0.
        254    2    1    2    0    0  0.23168984860E+03  0.23286003830E+03  0.13810388248E+04  0.16808231754E+04  0.89999684879E+03 0.  0.
        -24    2    4    4    0    0  0.36357906808E+03  0.50528308685E+03  0.76479569398E+03  0.98926881650E+03  0.78991146097E+02 0.  0.
         24    2    4    4    0    0 -0.13188921948E+03 -0.27242304854E+03  0.61624313085E+03  0.69155435888E+03  0.82962349186E+02 0.  0.
         11    1    3    3    0    0 -0.21830761094E+03 -0.18084878032E+03  0.50096442787E+02  0.28787870348E+03  0.00000000000E+00 0. -1.
        -11    1    3    3    0    0 -0.13382237661E+02 -0.52011257979E+02 -0.12379870242E+02  0.55113668255E+02  0.00000000000E+00 0.  1.
          4    1    6    6  502    0  0.90071313484E+01 -0.33543564270E+02  0.48034274587E+02  0.59275548535E+02  0.00000000000E+00 0. -1.
          3    1    5    5  503    0  0.19616661126E+03  0.30799977071E+03  0.49888201833E+03  0.61824628292E+03  0.00000000000E+00 0. -1.
         -4    1    5    5    0  503  0.16741245682E+03  0.19728331614E+03  0.26591367566E+03  0.37102253358E+03  0.00000000000E+00 0.  1.
         -3    1    6    6    0  502 -0.14089635083E+03 -0.23887948427E+03  0.56820885626E+03  0.63227881035E+03  0.00000000000E+00 0.  1.
<mgrwt>
<rscale>  0 0.14432472E+04</rscale>
<asrwt>0</asrwt>
<pdfrwt beam="1">  1        1 0.26481314E+00 0.14432472E+04</pdfrwt>
<pdfrwt beam="2">  1       -1 0.46543089E-01 0.14432472E+04</pdfrwt>
<totfact> 0.20594068E+01</totfact>
</mgrwt>
</event>
<event>
12    1  0.2404959E-007  0.3007301E+04  0.7818608E-02  0.8241649E-01
          2   -1    0    0  501    0  0.00000000000E+00  0.00000000000E+00  0.36174274213E+04  0.36174274213E+04  0.00000000000E+00 0. -1.
         -2   -1    0    0    0  501 -0.00000000000E+00 -0.00000000000E+00 -0.62502008155E+03  0.62502008155E+03  0.00000000000E+00 0.  1.
         23    2    1    2    0    0 -0.84239206867E+03  0.74982207204E+03  0.27243319735E+03  0.11639362509E+04  0.93113973868E+02 0.  0.
        254    2    1    2    0    0  0.84239206867E+03 -0.74982207204E+03  0.27199741424E+04  0.30785112519E+04  0.89839560094E+03 0.  0.
        -24    2    4    4    0    0 -0.10418211390E+03 -0.17408312876E+03  0.10526836144E+04  0.10750259329E+04  0.79869367093E+02 0.  0.
         24    2    4    4    0    0  0.94657418257E+03 -0.57573894328E+03  0.16672905280E+04  0.20034853190E+04  0.81349276936E+02 0.  0.
         11    1    3    3    0    0 -0.39302683410E+03  0.34330052598E+03  0.78635545907E+02  0.52773941727E+03  0.00000000000E+00 0.  1.
        -11    1    3    3    0    0 -0.44936523458E+03  0.40652154606E+03  0.19379765144E+03  0.63619683366E+03  0.00000000000E+00 0. -1.
          2    1    6    6  502    0  0.13522703321E+02 -0.63538546885E+01  0.92775063339E+01  0.17587128767E+02  0.00000000000E+00 0. -1.
          1    1    5    5  503    0 -0.73650343005E+02 -0.82339703740E+02  0.39069609284E+03  0.40601433078E+03  0.00000000000E+00 0. -1.
         -2    1    5    5    0  503 -0.30531770891E+02 -0.91743425022E+02  0.66198752158E+03  0.66901160214E+03  0.00000000000E+00 0.  1.
         -1    1    6    6    0  502  0.93305147925E+03 -0.56938508859E+03  0.16580130217E+04  0.19858981902E+04  0.00000000000E+00 0.  1.
<mgrwt>
<rscale>  0 0.30073010E+04</rscale>
<asrwt>0</asrwt>
<pdfrwt beam="1">  1        2 0.55652728E+00 0.30073010E+04</pdfrwt>
<pdfrwt beam="2">  1       -2 0.96156938E-01 0.30073010E+04</pdfrwt>
<totfact> 0.51941045E-01</totfact>
</mgrwt>
</event>
<event>
12    1  0.2404959E-007  0.1557664E+04  0.7818608E-02  0.8846987E-01
          1   -1    0    0  501    0  0.00000000000E+00  0.00000000000E+00  0.61481825832E+03  0.61481825832E+03  0.00000000000E+00 0. -1.
         -1   -1    0    0    0  501 -0.00000000000E+00 -0.00000000000E+00 -0.98659956310E+03  0.98659956310E+03  0.00000000000E+00 0.  1.
         23    2    1    2    0    0 -0.44012953424E+03 -0.26383454804E+03 -0.10866012209E+03  0.53257212887E+03  0.92213744428E+02 0.  0.
        254    2    1    2    0    0  0.44012953424E+03  0.26383454804E+03 -0.26312118268E+03  0.10688456926E+04  0.89993093184E+03 0.  0.
        -24    2    4    4    0    0  0.16369941129E+03  0.57582997960E+03 -0.22345509933E+03  0.64391742970E+03  0.79497246488E+02 0.  0.
         24    2    4    4    0    0  0.27643012295E+03 -0.31199543156E+03 -0.39666083347E+02  0.42492826286E+03  0.72359299454E+02 0.  0.
         11    1    3    3    0    0 -0.21821747296E+03 -0.11156288785E+03 -0.79370248954E+01  0.24521039908E+03  0.00000000000E+00 0. -1.
        -11    1    3    3    0    0 -0.22191206128E+03 -0.15227166019E+03 -0.10072309720E+03  0.28736172979E+03  0.00000000000E+00 0.  1.
          4    1    6    6  502    0  0.90498604202E+02 -0.14942547780E+03 -0.33460253699E+02  0.17786950092E+03  0.00000000000E+00 0. -1.
          3    1    5    5  503    0  0.11337438036E+02  0.94417561474E+02 -0.96985124875E+01  0.95589092266E+02  0.00000000000E+00 0. -1.
         -4    1    5    5    0  503  0.15236197325E+03  0.48141241812E+03 -0.21375658684E+03  0.54832833744E+03  0.00000000000E+00 0.  1.
         -3    1    6    6    0  502  0.18593151875E+03 -0.16256995375E+03 -0.62058296483E+01  0.24705876194E+03  0.00000000000E+00 0.  1.
<mgrwt>
<rscale>  0 0.15576642E+04</rscale>
<asrwt>0</asrwt>
<pdfrwt beam="1">  1        1 0.94587425E-01 0.15576642E+04</pdfrwt>
<pdfrwt beam="2">  1       -1 0.15178455E+00 0.15576642E+04</pdfrwt>
<totfact> 0.10755217E+01</totfact>
</mgrwt>
</event>
<event>
12    1  0.2404959E-007  0.1430467E+04  0.7818608E-02  0.8932056E-01
         -2   -1    0    0    0  501 -0.00000000000E+00  0.00000000000E+00  0.61480271967E+03  0.61480271967E+03  0.00000000000E+00 0.  1.
          2   -1    0    0  501    0  0.00000000000E+00 -0.00000000000E+00 -0.83206957356E+03  0.83206957356E+03  0.00000000000E+00 0. -1.
         23    2    1    2    0    0  0.34671651554E+03  0.81511703111E+02 -0.30020313291E+03  0.47524232679E+03  0.94217027502E+02 0.  0.
        254    2    1    2    0    0 -0.34671651554E+03 -0.81511703111E+02  0.82936279023E+02  0.97162996644E+03  0.90018323990E+03 0.  0.
        -24    2    4    4    0    0 -0.25849439592E+03 -0.14954785720E+03 -0.38020289490E+03  0.48886100249E+03  0.72435655249E+02 0.  0.
         24    2    4    4    0    0 -0.88222119621E+02  0.68036154089E+02  0.46313917392E+03  0.48276896395E+03  0.78459655093E+02 0.  0.
         11    1    3    3    0    0  0.53110335355E+02  0.36287496994E+02 -0.92892390250E+02  0.11298887700E+03  0.00000000000E+00 0. -1.
        -11    1    3    3    0    0  0.29360618019E+03  0.45224206118E+02 -0.20731074266E+03  0.36225344979E+03  0.00000000000E+00 0.  1.
          4    1    6    6  502    0 -0.81590085931E+02  0.76115988138E+02  0.31350551308E+03  0.33277063047E+03  0.00000000000E+00 0. -1.
          1    1    5    5  503    0 -0.89595676603E+02 -0.79051485862E+02 -0.19347421568E+03  0.22739567897E+03  0.00000000000E+00 0. -1.
         -2    1    5    5    0  503 -0.16889871932E+03 -0.70496371338E+02 -0.18672867922E+03  0.26146532352E+03  0.00000000000E+00 0.  1.
         -3    1    6    6    0  502 -0.66320336905E+01 -0.80798340495E+01  0.14963366084E+03  0.14999833348E+03  0.00000000000E+00 0.  1.
<mgrwt>
<rscale>  0 0.14304665E+04</rscale>
<asrwt>0</asrwt>
<pdfrwt beam="1">  1        2 0.12801070E+00 0.14304665E+04</pdfrwt>
<pdfrwt beam="2">  1       -2 0.94585034E-01 0.14304665E+04</pdfrwt>
<totfact> 0.29886394E+01</totfact>
</mgrwt>
</event>
<event>
12    1  0.2404959E-007  0.1247565E+04  0.7818608E-02  0.9072213E-01
         -2   -1    0    0    0  501 -0.00000000000E+00  0.00000000000E+00  0.27365416111E+03  0.27365416111E+03  0.00000000000E+00 0.  1.
          2   -1    0    0  501    0  0.00000000000E+00 -0.00000000000E+00 -0.14218835583E+04  0.14218835583E+04  0.00000000000E+00 0. -1.
         23    2    1    2    0    0  0.17237076605E+03  0.10654238234E+03 -0.56447076383E+03  0.60744546588E+03  0.96435421805E+02 0.  0.
        254    2    1    2    0    0 -0.17237076605E+03 -0.10654238234E+03 -0.58375863334E+03  0.10880922535E+04  0.89560462812E+03 0.  0.
        -24    2    4    4    0    0 -0.18439618320E+03  0.24502037571E+03  0.84778003104E+02  0.32764519626E+03  0.78275972867E+02 0.  0.
         24    2    4    4    0    0  0.12025417151E+02 -0.35156275805E+03 -0.66853663645E+03  0.76044705724E+03  0.87163691319E+02 0.  0.
         13    1    3    3    0    0  0.11092159408E+03  0.42849206208E+02 -0.43247856700E+03  0.44852799848E+03  0.00000000000E+00 0. -1.
        -13    1    3    3    0    0  0.61449171969E+02  0.63693176130E+02 -0.13199219683E+03  0.15891746740E+03  0.00000000000E+00 0.  1.
          2    1    6    6  502    0 -0.21820968316E+02 -0.12460990253E+03 -0.30940076691E+03  0.33426429219E+03  0.00000000000E+00 0. -1.
          3    1    5    5  503    0 -0.13460878124E+03  0.17578167321E+03  0.96583322612E+02  0.24155135858E+03  0.00000000000E+00 0. -1.
         -4    1    5    5    0  503 -0.49787401966E+02  0.69238702505E+02 -0.11805319508E+02  0.86093837688E+02  0.00000000000E+00 0.  1.
         -1    1    6    6    0  502  0.33846385467E+02 -0.22695285552E+03 -0.35913586954E+03  0.42618276505E+03  0.00000000000E+00 0.  1.
<mgrwt>
<rscale>  0 0.12475646E+04</rscale>
<asrwt>0</asrwt>
<pdfrwt beam="1">  1        2 0.21875132E+00 0.12475646E+04</pdfrwt>
<pdfrwt beam="2">  1       -2 0.42100639E-01 0.12475646E+04</pdfrwt>
<totfact> 0.73913021E+01</totfact>
</mgrwt>
</event>
<event>
12    1  0.2404959E-007  0.2706138E+04  0.7818608E-02  0.8333016E-01
          2   -1    0    0  501    0  0.00000000000E+00  0.00000000000E+00  0.75387453681E+03  0.75387453681E+03  0.00000000000E+00 0. -1.
         -2   -1    0    0    0  501 -0.00000000000E+00 -0.00000000000E+00 -0.24285158564E+04  0.24285158564E+04  0.00000000000E+00 0.  1.
         23    2    1    2    0    0 -0.18936526532E+03  0.11560727856E+04 -0.10692399394E+04  0.15887082932E+04  0.91413913015E+02 0.  0.
        254    2    1    2    0    0  0.18936526532E+03 -0.11560727856E+04 -0.60540138026E+03  0.15936821001E+04  0.89495715859E+03 0.  0.
        -24    2    4    4    0    0  0.17811317820E+03 -0.82507496054E+03  0.55853217981E+02  0.84975002200E+03  0.80514117777E+02 0.  0.
         24    2    4    4    0    0  0.11252087114E+02 -0.33099782503E+03 -0.66125459824E+03  0.74393207810E+03  0.80567508980E+02 0.  0.
         11    1    3    3    0    0 -0.12705446261E+03  0.90299703942E+03 -0.87353076705E+03  0.12627757088E+04  0.00000000000E+00 0.  1.
        -11    1    3    3    0    0 -0.62310802710E+02  0.25307574616E+03 -0.19570917233E+03  0.32593258438E+03  0.00000000000E+00 0. -1.
          4    1    6    6  502    0  0.41304699093E+02 -0.12528355989E+03 -0.28536029480E+03  0.31437644058E+03  0.00000000000E+00 0. -1.
          1    1    5    5  503    0  0.13246480794E+02 -0.22867938227E+03  0.97227234000E+01  0.22926896972E+03  0.00000000000E+00 0. -1.
         -2    1    5    5    0  503  0.16486669741E+03 -0.59639557828E+03  0.46130494581E+02  0.62048105227E+03  0.00000000000E+00 0.  1.
         -3    1    6    6    0  502 -0.30052611978E+02 -0.20571426514E+03 -0.37589430344E+03  0.42955563752E+03  0.00000000000E+00 0.  1.
<mgrwt>
<rscale>  0 0.27061384E+04</rscale>
<asrwt>0</asrwt>
<pdfrwt beam="1">  1        2 0.11598070E+00 0.27061384E+04</pdfrwt>
<pdfrwt beam="2">  1       -2 0.37361783E+00 0.27061384E+04</pdfrwt>
<totfact> 0.35947540E-01</totfact>
</mgrwt>
</event>
<event>
12    1  0.2404959E-007  0.1957653E+04  0.7818608E-02  0.8626679E-01
         -1   -1    0    0    0  501 -0.00000000000E+00  0.00000000000E+00  0.73665434650E+03  0.73665434650E+03  0.00000000000E+00 0.  1.
          1   -1    0    0  501    0  0.00000000000E+00 -0.00000000000E+00 -0.13006124233E+04  0.13006124233E+04  0.00000000000E+00 0. -1.
         23    2    1    2    0    0  0.72468859280E+02 -0.64681742196E+03 -0.64809623615E+03  0.92317811422E+03  0.92760909578E+02 0.  0.
        254    2    1    2    0    0 -0.72468859280E+02  0.64681742196E+03  0.84138159338E+02  0.11140886556E+04  0.90027206428E+03 0.  0.
        -24    2    4    4    0    0  0.15009765634E+03 -0.16439139602E+03  0.12635223232E+03  0.26783937003E+03  0.78861929991E+02 0.  0.
         24    2    4    4    0    0 -0.22256651562E+03  0.81120881799E+03 -0.42214072983E+02  0.84624928555E+03  0.82220587939E+02 0.  0.
         13    1    3    3    0    0 -0.15744234900E+02 -0.78193152564E+02 -0.55493706207E+02  0.97167903492E+02  0.00000000000E+00 0.  1.
        -13    1    3    3    0    0  0.88213094180E+02 -0.56862426940E+03 -0.59260252994E+03  0.82601021073E+03  0.00000000000E+00 0. -1.
          2    1    6    6  502    0 -0.11568556664E+03  0.53570519522E+03 -0.52485468514E+02  0.55056146879E+03  0.00000000000E+00 0. -1.
          1    1    5    5  503    0  0.37030589031E+02 -0.43923597519E+02  0.75700956695E+02  0.95032530154E+02  0.00000000000E+00 0. -1.
         -2    1    5    5    0  503  0.11306706731E+03 -0.12046779851E+03  0.50651275626E+02  0.17280683988E+03  0.00000000000E+00 0.  1.
         -1    1    6    6    0  502 -0.10688094898E+03  0.27550362277E+03  0.10271395532E+02  0.29568781676E+03  0.00000000000E+00 0.  1.
<mgrwt>
<rscale>  0 0.19576535E+04</rscale>
<asrwt>0</asrwt>
<pdfrwt beam="1">  1        1 0.20009422E+00 0.19576535E+04</pdfrwt>
<pdfrwt beam="2">  1       -1 0.11333144E+00 0.19576535E+04</pdfrwt>
<totfact> 0.59810963E+00</totfact>
</mgrwt>
</event>
<event>
12    1  0.2404959E-007  0.3730070E+04  0.7818608E-02  0.8061331E-01
         -2   -1    0    0    0  501 -0.00000000000E+00  0.00000000000E+00  0.27568922383E+04  0.27568922383E+04  0.00000000000E+00 0. -1.
          2   -1    0    0  501    0  0.00000000000E+00 -0.00000000000E+00 -0.12616941889E+04  0.12616941889E+04  0.00000000000E+00 0.  1.
         23    2    1    2    0    0  0.50335782452E+03  0.11426551977E+04  0.20335963000E+04  0.23880578740E+04  0.90975259224E+02 0.  0.
        254    2    1    2    0    0 -0.50335782452E+03 -0.11426551977E+04 -0.53839825053E+03  0.16305285532E+04  0.89984481238E+03 0.  0.
        -24    2    4    4    0    0 -0.43356577956E+03 -0.12821671729E+04 -0.52738292518E+03  0.14547718567E+04  0.79350240860E+02 0.  0.
         24    2    4    4    0    0 -0.69792044957E+02  0.13951197527E+03 -0.11015325351E+02  0.17575669650E+03  0.80215697900E+02 0.  0.
         11    1    3    3    0    0  0.15994200903E+03  0.32215947747E+03  0.51542913174E+03  0.62851838877E+03  0.00000000000E+00 0.  1.
        -11    1    3    3    0    0  0.34341581549E+03  0.82049572021E+03  0.15181671683E+04  0.17595394852E+04  0.00000000000E+00 0. -1.
          2    1    6    6  502    0 -0.43421166437E+02  0.21456732214E+02  0.17462142458E+02  0.51485099508E+02  0.00000000000E+00 0. -1.
          3    1    5    5  503    0 -0.41488748498E+02 -0.12102080001E+03 -0.25597791522E+02  0.13047067570E+03  0.00000000000E+00 0. -1.
         -4    1    5    5    0  503 -0.39207703107E+03 -0.11611463729E+04 -0.50178513366E+03  0.13243011810E+04  0.00000000000E+00 0.  1.
         -1    1    6    6    0  502 -0.26370878520E+02  0.11805524305E+03 -0.28477467809E+02  0.12427159699E+03  0.00000000000E+00 0.  1.
<mgrwt>
<rscale>  0 0.37300697E+04</rscale>
<asrwt>0</asrwt>
<pdfrwt beam="1">  1        2 0.19410680E+00 0.37300697E+04</pdfrwt>
<pdfrwt beam="2">  1       -2 0.42413727E+00 0.37300697E+04</pdfrwt>
<totfact> 0.72222327E-02</totfact>
</mgrwt>
</event>
<event>
12    1  0.2404959E-007  0.1916612E+04  0.7818608E-02  0.8646631E-01
          2   -1    0    0  501    0  0.00000000000E+00  0.00000000000E+00  0.20502839132E+04  0.20502839132E+04  0.00000000000E+00 0. -1.
         -2   -1    0    0    0  501 -0.00000000000E+00 -0.00000000000E+00 -0.44791392743E+03  0.44791392743E+03  0.00000000000E+00 0.  1.
         23    2    1    2    0    0  0.21927785981E+03  0.42480867973E+03 -0.11594823820E+03  0.50036636601E+03  0.91527657670E+02 0.  0.
        254    2    1    2    0    0 -0.21927785981E+03 -0.42480867973E+03  0.17183182240E+04  0.19978314746E+04  0.90009326626E+03 0.  0.
        -24    2    4    4    0    0 -0.48840925838E+03 -0.39675239458E+03  0.71635293701E+03  0.95683752015E+03  0.80127668802E+02 0.  0.
         24    2    4    4    0    0  0.26913139857E+03 -0.28056285145E+02  0.10019652870E+04  0.10409939545E+04  0.80716244636E+02 0.  0.
         13    1    3    3    0    0  0.12605418382E+03  0.27711381168E+03 -0.30593041020E+02  0.30597002474E+03  0.00000000000E+00 0. -1.
        -13    1    3    3    0    0  0.93223675994E+02  0.14769486805E+03 -0.85355197180E+02  0.19439634127E+03  0.00000000000E+00 0.  1.
          2    1    6    6  502    0  0.23407954778E+01  0.11402802693E+02  0.62939977037E+02  0.64007374123E+02  0.00000000000E+00 0. -1.
          1    1    5    5  503    0 -0.14597073537E+03 -0.75444388265E+02  0.20153611613E+03  0.26003099318E+03  0.00000000000E+00 0. -1.
         -2    1    5    5    0  503 -0.34243852301E+03 -0.32130800632E+03  0.51481682088E+03  0.69680652697E+03  0.00000000000E+00 0.  1.
         -1    1    6    6    0  502  0.26679060309E+03 -0.39459087838E+02  0.93902530992E+03  0.97698658035E+03  0.00000000000E+00 0.  1.
<mgrwt>
<rscale>  0 0.19166123E+04</rscale>
<asrwt>0</asrwt>
<pdfrwt beam="1">  1        2 0.31542829E+00 0.19166123E+04</pdfrwt>
<pdfrwt beam="2">  1       -2 0.68909836E-01 0.19166123E+04</pdfrwt>
<totfact> 0.11269972E+01</totfact>
</mgrwt>
</event>
<event>
12    1  0.2404959E-007  0.3669727E+04  0.7818608E-02  0.8074704E-01
         -2   -1    0    0    0  501 -0.00000000000E+00  0.00000000000E+00  0.26162753912E+04  0.26162753912E+04  0.00000000000E+00 0.  1.
          2   -1    0    0  501    0  0.00000000000E+00 -0.00000000000E+00 -0.12868385136E+04  0.12868385136E+04  0.00000000000E+00 0. -1.
         23    2    1    2    0    0 -0.70414433460E+03  0.12910048618E+04 -0.33060062994E+03  0.15099521337E+04  0.90254487302E+02 0.  0.
        254    2    1    2    0    0  0.70414433460E+03 -0.12910048618E+04  0.16600375075E+04  0.23931617712E+04  0.89943645664E+03 0.  0.
        -24    2    4    4    0    0 -0.98272344584E+02 -0.60424341849E+03  0.35326979029E+03  0.71111995535E+03  0.78259080404E+02 0.  0.
         24    2    4    4    0    0  0.80241667918E+03 -0.68676144326E+03  0.13067677173E+04  0.16820418158E+04  0.78160068685E+02 0.  0.
         13    1    3    3    0    0 -0.49172060197E+03  0.87746929808E+03 -0.26725217599E+03  0.10407522496E+04  0.00000000000E+00 0. -1.
        -13    1    3    3    0    0 -0.21242373263E+03  0.41353556368E+03 -0.63348453956E+02  0.46919988409E+03  0.00000000000E+00 0.  1.
          4    1    6    6  502    0  0.42895040668E+03 -0.33171580942E+03  0.71498036592E+03  0.89734650679E+03  0.00000000000E+00 0. -1.
          3    1    5    5  503    0 -0.52575911131E+02 -0.45425449100E+03  0.23120833665E+03  0.51241454308E+03  0.00000000000E+00 0. -1.
         -4    1    5    5    0  503 -0.45696433454E+02 -0.14998892749E+03  0.12206145364E+03  0.19870541227E+03  0.00000000000E+00 0.  1.
         -3    1    6    6    0  502  0.37346627250E+03 -0.35504563384E+03  0.59178735133E+03  0.78469530902E+03  0.00000000000E+00 0.  1.
<mgrwt>
<rscale>  0 0.36697269E+04</rscale>
<asrwt>0</asrwt>
<pdfrwt beam="1">  1        2 0.19797516E+00 0.36697269E+04</pdfrwt>
<pdfrwt beam="2">  1       -2 0.40250390E+00 0.36697269E+04</pdfrwt>
<totfact> 0.97390620E-02</totfact>
</mgrwt>
</event>
<event>
12    1  0.2404959E-007  0.1770933E+04  0.7818608E-02  0.8721911E-01
          2   -1    0    0  501    0  0.00000000000E+00  0.00000000000E+00  0.58451752142E+03  0.58451752142E+03  0.00000000000E+00 0. -1.
         -2   -1    0    0    0  501 -0.00000000000E+00 -0.00000000000E+00 -0.13413648388E+04  0.13413648388E+04  0.00000000000E+00 0.  1.
         23    2    1    2    0    0  0.66106672402E+03  0.18658739169E+02 -0.30506904029E+03  0.73510183269E+03  0.99750804134E+02 0.  0.
        254    2    1    2    0    0 -0.66106672402E+03 -0.18658739169E+02 -0.45177827709E+03  0.11907805275E+04  0.88119083685E+03 0.  0.
        -24    2    4    4    0    0 -0.34087352268E+03 -0.41619578197E+03 -0.70283863276E+02  0.54846731922E+03  0.80392110455E+02 0.  0.
         24    2    4    4    0    0 -0.32019320134E+03  0.39753704280E+03 -0.38149441381E+03  0.64231320831E+03  0.80429367910E+02 0.  0.
         11    1    3    3    0    0  0.47458289163E+03 -0.28570516013E+02 -0.23517293506E+03  0.53042577690E+03  0.00000000000E+00 0.  1.
        -11    1    3    3    0    0  0.18648383239E+03  0.47229255182E+02 -0.69896105233E+02  0.20467605579E+03  0.00000000000E+00 0. -1.
          4    1    6    6  502    0 -0.90347648164E+02  0.16653594605E+03 -0.11763294740E+03  0.22301217270E+03  0.00000000000E+00 0. -1.
          3    1    5    5  503    0 -0.27570364619E+03 -0.29461170771E+03 -0.75145249105E+02  0.41043314596E+03  0.00000000000E+00 0. -1.
         -4    1    5    5    0  503 -0.65169876495E+02 -0.12158407426E+03  0.48613858292E+01  0.13803417326E+03  0.00000000000E+00 0.  1.
         -3    1    6    6    0  502 -0.22984555317E+03  0.23100109674E+03 -0.26386146641E+03  0.41930103561E+03  0.00000000000E+00 0.  1.
<mgrwt>
<rscale>  0 0.17709334E+04</rscale>
<asrwt>0</asrwt>
<pdfrwt beam="1">  1        2 0.89925772E-01 0.17709334E+04</pdfrwt>
<pdfrwt beam="2">  1       -2 0.20636382E+00 0.17709334E+04</pdfrwt>
<totfact> 0.58497666E+00</totfact>
</mgrwt>
</event>
<event>
12    1  0.2404959E-007  0.1967570E+04  0.7818608E-02  0.8621935E-01
         -2   -1    0    0    0  501 -0.00000000000E+00  0.00000000000E+00  0.63882092387E+03  0.63882092387E+03  0.00000000000E+00 0. -1.
          2   -1    0    0  501    0  0.00000000000E+00 -0.00000000000E+00 -0.15150302111E+04  0.15150302111E+04  0.00000000000E+00 0.  1.
         23    2    1    2    0    0  0.14793658794E+03  0.73908838416E+03 -0.55159522819E+03  0.93756791918E+03  0.81482720064E+02 0.  0.
        254    2    1    2    0    0 -0.14793658794E+03 -0.73908838416E+03 -0.32461405901E+03  0.12162832158E+04  0.89768240486E+03 0.  0.
        -24    2    4    4    0    0  0.36902272056E+03 -0.38279644800E+03 -0.17384330686E+03  0.56517692801E+03  0.80576520891E+02 0.  0.
         24    2    4    4    0    0 -0.51695930849E+03 -0.35629193615E+03 -0.15077075214E+03  0.65110628775E+03  0.83765791628E+02 0.  0.
         11    1    3    3    0    0  0.13722949894E+03  0.53017088524E+03 -0.37410525721E+03  0.66322533607E+03  0.00000000000E+00 0. -1.
        -11    1    3    3    0    0  0.10707088998E+02  0.20891749892E+03 -0.17748997098E+03  0.27434258311E+03  0.00000000000E+00 0.  1.
          2    1    6    6  502    0 -0.26770673385E+03 -0.19010702511E+03 -0.36032907619E+02  0.33031189318E+03  0.00000000000E+00 0. -1.
          1    1    5    5  503    0  0.19210612744E+03 -0.24732601277E+03 -0.12412584217E+03  0.33687111109E+03  0.00000000000E+00 0. -1.
         -2    1    5    5    0  503  0.17691659312E+03 -0.13547043524E+03 -0.49717464689E+02  0.22830581692E+03  0.00000000000E+00 0.  1.
         -1    1    6    6    0  502 -0.24925257464E+03 -0.16618491104E+03 -0.11473784453E+03  0.32079439458E+03  0.00000000000E+00 0.  1.
<mgrwt>
<rscale>  0 0.19675701E+04</rscale>
<asrwt>0</asrwt>
<pdfrwt beam="1">  1        2 0.23308157E+00 0.19675701E+04</pdfrwt>
<pdfrwt beam="2">  1       -2 0.98280143E-01 0.19675701E+04</pdfrwt>
<totfact> 0.99797680E+00</totfact>
</mgrwt>
</event>
<event>
12    1  0.2404959E-007  0.2021782E+04  0.7818608E-02  0.8596504E-01
         -1   -1    0    0    0  501 -0.00000000000E+00  0.00000000000E+00  0.48441215353E+03  0.48441215353E+03  0.00000000000E+00 0.  1.
          1   -1    0    0  501    0  0.00000000000E+00 -0.00000000000E+00 -0.21095689888E+04  0.21095689888E+04  0.00000000000E+00 0. -1.
         23    2    1    2    0    0 -0.75502989519E+03  0.17740883048E+02 -0.28732827153E+03  0.81334711750E+03  0.92688275277E+02 0.  0.
        254    2    1    2    0    0  0.75502989519E+03 -0.17740883048E+02 -0.13378285637E+04  0.17806340248E+04  0.90027072753E+03 0.  0.
        -24    2    4    4    0    0 -0.17470586218E+03  0.84697580268E+02 -0.11802599911E+03  0.24140984606E+03  0.81564446452E+02 0.  0.
         24    2    4    4    0    0  0.92973575736E+03 -0.10243846332E+03 -0.12198025646E+04  0.15392241787E+04  0.79940969078E+02 0.  0.
         11    1    3    3    0    0 -0.30158240309E+03 -0.21342168918E+02 -0.15278274267E+03  0.33874769443E+03  0.00000000000E+00 0. -1.
        -11    1    3    3    0    0 -0.45344749210E+03  0.39083051966E+02 -0.13454552886E+03  0.47459942307E+03  0.00000000000E+00 0.  1.
          2    1    6    6  502    0  0.94032291841E+02 -0.34575846122E+02 -0.13824238817E+03  0.17072937337E+03  0.00000000000E+00 0. -1.
          1    1    5    5  503    0 -0.85947633275E+02  0.81174862641E+02 -0.45284279543E+02  0.12659786714E+03  0.00000000000E+00 0. -1.
         -2    1    5    5    0  503 -0.88758228904E+02  0.35227176266E+01 -0.72741719571E+02  0.11481197892E+03  0.00000000000E+00 0.  1.
         -1    1    6    6    0  502  0.83570346552E+03 -0.67862617194E+02 -0.10815601764E+04  0.13684948054E+04  0.00000000000E+00 0.  1.
<mgrwt>
<rscale>  0 0.20217822E+04</rscale>
<asrwt>0</asrwt>
<pdfrwt beam="1">  1        1 0.32454908E+00 0.20217822E+04</pdfrwt>
<pdfrwt beam="2">  1       -1 0.74524946E-01 0.20217822E+04</pdfrwt>
<totfact> 0.42115894E+00</totfact>
</mgrwt>
</event>
<event>
12    1  0.2404959E-007  0.2421634E+04  0.7818608E-02  0.8431448E-01
         -1   -1    0    0    0  501 -0.00000000000E+00  0.00000000000E+00  0.15819476325E+04  0.15819476325E+04  0.00000000000E+00 0.  1.
          1   -1    0    0  501    0  0.00000000000E+00 -0.00000000000E+00 -0.92675513826E+03  0.92675513826E+03  0.00000000000E+00 0. -1.
         23    2    1    2    0    0 -0.67237321736E+03  0.62334924995E+03  0.79329378246E+03  0.12158790190E+04  0.91633688023E+02 0.  0.
        254    2    1    2    0    0  0.67237321736E+03 -0.62334924995E+03 -0.13810128825E+03  0.12928237517E+04  0.90092799731E+03 0.  0.
        -24    2    4    4    0    0  0.67106405582E+02 -0.65143774682E+03  0.25618797443E+02  0.65970756818E+03  0.75387963765E+02 0.  0.
         24    2    4    4    0    0  0.60526681178E+03  0.28088496867E+02 -0.16372008570E+03  0.63311618353E+03  0.83035885590E+02 0.  0.
         13    1    3    3    0    0 -0.13035379042E+03  0.16998996334E+03  0.20328647883E+03  0.29532031896E+03  0.00000000000E+00 0.  1.
        -13    1    3    3    0    0 -0.54201942694E+03  0.45335928661E+03  0.59000730363E+03  0.92055870007E+03  0.00000000000E+00 0. -1.
          2    1    6    6  502    0  0.50574408146E+03  0.51613845950E+02 -0.12298018438E+03  0.52303459807E+03  0.00000000000E+00 0. -1.
          3    1    5    5  503    0  0.26994750617E+02 -0.69230358396E+02 -0.10290282376E+02  0.75016324863E+02  0.00000000000E+00 0. -1.
         -4    1    5    5    0  503  0.40111654965E+02 -0.58220738842E+03  0.35909079819E+02  0.58469124331E+03  0.00000000000E+00 0.  1.
         -1    1    6    6    0  502  0.99522730313E+02 -0.23525349083E+02 -0.40739901316E+02  0.11008158546E+03  0.00000000000E+00 0.  1.
<mgrwt>
<rscale>  0 0.24216342E+04</rscale>
<asrwt>0</asrwt>
<pdfrwt beam="1">  1        1 0.14257771E+00 0.24216342E+04</pdfrwt>
<pdfrwt beam="2">  1       -1 0.24337656E+00 0.24216342E+04</pdfrwt>
<totfact> 0.11923615E+00</totfact>
</mgrwt>
</event>
<event>
12    1  0.2404959E-007  0.2412944E+04  0.7818608E-02  0.8434673E-01
         -2   -1    0    0    0  501 -0.00000000000E+00  0.00000000000E+00  0.47194282563E+03  0.47194282563E+03  0.00000000000E+00 0.  1.
          2   -1    0    0  501    0  0.00000000000E+00 -0.00000000000E+00 -0.30842195500E+04  0.30842195500E+04  0.00000000000E+00 0. -1.
         23    2    1    2    0    0 -0.13844132583E+02 -0.10343407752E+04 -0.12115997985E+04  0.15958112410E+04  0.92665775163E+02 0.  0.
        254    2    1    2    0    0  0.13844132583E+02  0.10343407752E+04 -0.14006769258E+04  0.19603511346E+04  0.90057105288E+03 0.  0.
        -24    2    4    4    0    0  0.20333861588E+03  0.22926684128E+03  0.16548422141E+02  0.31746821111E+03  0.81254769533E+02 0.  0.
         24    2    4    4    0    0 -0.18949448329E+03  0.80507393390E+03 -0.14172253480E+04  0.16428829235E+04  0.80525866761E+02 0.  0.
         11    1    3    3    0    0 -0.43537117707E+02 -0.83365464608E+03 -0.94751276996E+03  0.12627968953E+04  0.00000000000E+00 0.  1.
        -11    1    3    3    0    0  0.29692985124E+02 -0.20068612909E+03 -0.26408702857E+03  0.33301434569E+03  0.00000000000E+00 0. -1.
          2    1    6    6  502    0 -0.31484146074E+02  0.13123359364E+03 -0.29478227792E+03  0.32420687675E+03  0.00000000000E+00 0. -1.
          3    1    5    5  503    0  0.67404187544E+01  0.44123957353E+02 -0.11123445956E+02  0.46000955505E+02  0.00000000000E+00 0. -1.
         -4    1    5    5    0  503  0.19659819712E+03  0.18514288393E+03  0.27671868097E+02  0.27146725560E+03  0.00000000000E+00 0.  1.
         -1    1    6    6    0  502 -0.15801033722E+03  0.67384034026E+03 -0.11224430701E+04  0.13186760468E+04  0.00000000000E+00 0.  1.
<mgrwt>
<rscale>  0 0.24129445E+04</rscale>
<asrwt>0</asrwt>
<pdfrwt beam="1">  1        2 0.47449532E+00 0.24129445E+04</pdfrwt>
<pdfrwt beam="2">  1       -2 0.72606588E-01 0.24129445E+04</pdfrwt>
<totfact> 0.23749099E+00</totfact>
</mgrwt>
</event>
<event>
12    1  0.2404959E-007  0.1856069E+04  0.7818608E-02  0.8677038E-01
         -1   -1    0    0    0  501 -0.00000000000E+00  0.00000000000E+00  0.58559660310E+03  0.58559660310E+03  0.00000000000E+00 0.  1.
          1   -1    0    0  501    0  0.00000000000E+00 -0.00000000000E+00 -0.14707184065E+04  0.14707184065E+04  0.00000000000E+00 0. -1.
         23    2    1    2    0    0 -0.40970829054E+03  0.47838758961E+03  0.16044745253E+02  0.63613925101E+03  0.87750462034E+02 0.  0.
        254    2    1    2    0    0  0.40970829054E+03 -0.47838758961E+03 -0.90116654868E+03  0.14201757586E+04  0.89893407305E+03 0.  0.
        -24    2    4    4    0    0  0.52497043211E+03 -0.66617055441E+03 -0.79369028993E+03  0.11643473582E+04  0.79895758015E+02 0.  0.
         24    2    4    4    0    0 -0.11526214157E+03  0.18778296479E+03 -0.10747625875E+03  0.25582840039E+03  0.73138369580E+02 0.  0.
         13    1    3    3    0    0 -0.21530867840E+03  0.20039581246E+03  0.36004201061E+02  0.29633192730E+03  0.00000000000E+00 0.  1.
        -13    1    3    3    0    0 -0.19439961214E+03  0.27799177716E+03 -0.19959455808E+02  0.33980732371E+03  0.00000000000E+00 0. -1.
          4    1    6    6  502    0 -0.11629227291E+02  0.86297215042E+02 -0.38286369770E+02  0.95122522893E+02  0.00000000000E+00 0. -1.
          1    1    5    5  503    0  0.42687051470E+02 -0.95114845519E+02 -0.10551132280E+03  0.14832955687E+03  0.00000000000E+00 0. -1.
         -2    1    5    5    0  503  0.48228338064E+03 -0.57105570889E+03 -0.68817896713E+03  0.10160178014E+04  0.00000000000E+00 0.  1.
         -3    1    6    6    0  502 -0.10363291428E+03  0.10148574975E+03 -0.69189888978E+02  0.16070587749E+03  0.00000000000E+00 0.  1.
<mgrwt>
<rscale>  0 0.18560686E+04</rscale>
<asrwt>0</asrwt>
<pdfrwt beam="1">  1        1 0.22626437E+00 0.18560686E+04</pdfrwt>
<pdfrwt beam="2">  1       -1 0.90091787E-01 0.18560686E+04</pdfrwt>
<totfact> 0.77591432E+00</totfact>
</mgrwt>
</event>
<event>
12    1  0.2404959E-007  0.2242705E+04  0.7818608E-02  0.8500861E-01
         -1   -1    0    0    0  501 -0.00000000000E+00  0.00000000000E+00  0.16685041744E+04  0.16685041744E+04  0.00000000000E+00 0.  1.
          1   -1    0    0  501    0  0.00000000000E+00 -0.00000000000E+00 -0.75362787079E+03  0.75362787079E+03  0.00000000000E+00 0. -1.
         23    2    1    2    0    0 -0.26288747295E+03 -0.56742546527E+03  0.11402865871E+04  0.13036117577E+04  0.89825564440E+02 0.  0.
        254    2    1    2    0    0  0.26288747295E+03  0.56742546527E+03 -0.22541028355E+03  0.11185202874E+04  0.89955341998E+03 0.  0.
        -24    2    4    4    0    0 -0.24058249710E+03  0.22904326886E+03 -0.35572753419E+03  0.49315683264E+03  0.79503623031E+02 0.  0.
         24    2    4    4    0    0  0.50346997005E+03  0.33838219641E+03  0.13031725064E+03  0.62536345480E+03  0.78181476014E+02 0.  0.
         11    1    3    3    0    0 -0.23400741773E+03 -0.42317186825E+03  0.84064364425E+03  0.96980185515E+03  0.00000000000E+00 0. -1.
        -11    1    3    3    0    0 -0.28880055219E+02 -0.14425359702E+03  0.29964294286E+03  0.33380990257E+03  0.00000000000E+00 0.  1.
          4    1    6    6  502    0  0.87165012546E+02  0.44818291233E+02  0.48772107200E+02  0.10947665085E+03  0.00000000000E+00 0. -1.
          1    1    5    5  503    0 -0.14767074902E+03  0.10160199157E+03 -0.14869287905E+03  0.23289308081E+03  0.00000000000E+00 0. -1.
         -2    1    5    5    0  503 -0.92911748077E+02  0.12744127729E+03 -0.20703465514E+03  0.26026375183E+03  0.00000000000E+00 0.  1.
         -3    1    6    6    0  502  0.41630495750E+03  0.29356390518E+03  0.81545143443E+02  0.51588680394E+03  0.00000000000E+00 0.  1.
<mgrwt>
<rscale>  0 0.22427048E+04</rscale>
<asrwt>0</asrwt>
<pdfrwt beam="1">  1        1 0.11594275E+00 0.22427048E+04</pdfrwt>
<pdfrwt beam="2">  1       -1 0.25669295E+00 0.22427048E+04</pdfrwt>
<totfact> 0.13921398E+00</totfact>
</mgrwt>
</event>
<event>
12    1  0.2404959E-007  0.2506411E+04  0.7818608E-02  0.8400705E-01
          2   -1    0    0  501    0  0.00000000000E+00  0.00000000000E+00  0.30157625474E+04  0.30157625474E+04  0.00000000000E+00 0.  1.
         -2   -1    0    0    0  501 -0.00000000000E+00 -0.00000000000E+00 -0.52077172334E+03  0.52077172334E+03  0.00000000000E+00 0. -1.
         23    2    1    2    0    0  0.10090094934E+04  0.39345413304E+03  0.93555185821E+03  0.14340276825E+04  0.90949449362E+02 0.  0.
        254    2    1    2    0    0 -0.10090094934E+04 -0.39345413304E+03  0.15594389658E+04  0.21025065881E+04  0.90320415885E+03 0.  0.
        -24    2    4    4    0    0 -0.27014814732E+03 -0.56761613226E+03  0.56323038970E+03  0.84770105522E+03  0.78743330116E+02 0.  0.
         24    2    4    4    0    0 -0.73886134607E+03  0.17416199922E+03  0.99620857610E+03  0.12548055329E+04  0.76530436230E+02 0.  0.
         11    1    3    3    0    0  0.41212580754E+03  0.11392563184E+03  0.35679262683E+03  0.55689111089E+03  0.00000000000E+00 0.  1.
        -11    1    3    3    0    0  0.59688368585E+03  0.27952850120E+03  0.57875923139E+03  0.87713657165E+03  0.00000000000E+00 0. -1.
          2    1    6    6  502    0 -0.48223020446E+03  0.14337926250E+03  0.69341945284E+03  0.85669955094E+03  0.00000000000E+00 0. -1.
          1    1    5    5  503    0 -0.26039809706E+03 -0.50451874773E+03  0.52498717844E+03  0.77327735858E+03  0.00000000000E+00 0. -1.
         -2    1    5    5    0  503 -0.97500502604E+01 -0.63097384522E+02  0.38243211259E+02  0.74423696636E+02  0.00000000000E+00 0.  1.
         -1    1    6    6    0  502 -0.25663114161E+03  0.30782736723E+02  0.30278912327E+03  0.39810598199E+03  0.00000000000E+00 0.  1.
<mgrwt>
<rscale>  0 0.25064109E+04</rscale>
<asrwt>0</asrwt>
<pdfrwt beam="1">  1        2 0.46396346E+00 0.25064109E+04</pdfrwt>
<pdfrwt beam="2">  1       -2 0.80118728E-01 0.25064109E+04</pdfrwt>
<totfact> 0.20904353E+00</totfact>
</mgrwt>
</event>
<event>
12    1  0.2404959E-007  0.2465430E+04  0.7818608E-02  0.8415406E-01
          1   -1    0    0  501    0  0.00000000000E+00  0.00000000000E+00  0.24403593497E+04  0.24403593497E+04  0.00000000000E+00 0. -1.
         -1   -1    0    0    0  501 -0.00000000000E+00 -0.00000000000E+00 -0.62268979784E+03  0.62268979784E+03  0.00000000000E+00 0.  1.
         23    2    1    2    0    0 -0.56206675085E+03 -0.82054020153E+03  0.31331835359E+03  0.10467483731E+04  0.91151034629E+02 0.  0.
        254    2    1    2    0    0  0.56206675085E+03  0.82054020153E+03  0.15043511983E+04  0.20163007745E+04  0.90177105220E+03 0.  0.
        -24    2    4    4    0    0  0.37891681571E+03  0.64991901703E+03  0.35232690545E+03  0.83453811457E+03  0.79667649891E+02 0.  0.
         24    2    4    4    0    0  0.18314993514E+03  0.17062118450E+03  0.11520242928E+04  0.11817626599E+04  0.82143324177E+02 0.  0.
         11    1    3    3    0    0 -0.84642785676E+02 -0.75279636318E+02  0.45182820054E+02  0.12195454907E+03  0.00000000000E+00 0.  1.
        -11    1    3    3    0    0 -0.47742396518E+03 -0.74526056521E+03  0.26813553354E+03  0.92479382401E+03  0.00000000000E+00 0. -1.
          2    1    6    6  502    0  0.11955713508E+03  0.13907450158E+03  0.67443384037E+03  0.69892533977E+03  0.00000000000E+00 0. -1.
          3    1    5    5  503    0  0.19463214838E+03  0.27648637853E+03  0.12806246748E+03  0.36156104086E+03  0.00000000000E+00 0. -1.
         -2    1    5    5    0  503  0.18428466734E+03  0.37343263850E+03  0.22426443798E+03  0.47297707371E+03  0.00000000000E+00 0.  1.
         -1    1    6    6    0  502  0.63592800066E+02  0.31546682921E+02  0.47759045245E+03  0.48283732011E+03  0.00000000000E+00 0.  1.
<mgrwt>
<rscale>  0 0.24654305E+04</rscale>
<asrwt>0</asrwt>
<pdfrwt beam="1">  1        1 0.37543990E+00 0.24654305E+04</pdfrwt>
<pdfrwt beam="2">  1       -1 0.95798432E-01 0.24654305E+04</pdfrwt>
<totfact> 0.13946458E+00</totfact>
</mgrwt>
</event>
<event>
12    1  0.2404959E-007  0.2579544E+04  0.7818608E-02  0.8375183E-01
         -1   -1    0    0    0  501 -0.00000000000E+00  0.00000000000E+00  0.16292522326E+04  0.16292522326E+04  0.00000000000E+00 0.  1.
          1   -1    0    0  501    0  0.00000000000E+00 -0.00000000000E+00 -0.10210276029E+04  0.10210276029E+04  0.00000000000E+00 0. -1.
         23    2    1    2    0    0  0.99995290865E+03 -0.18636168727E+03 -0.24067601671E+03  0.10492533567E+04  0.91494063214E+02 0.  0.
        254    2    1    2    0    0 -0.99995290865E+03  0.18636168727E+03  0.84890064641E+03  0.16010264787E+04  0.89889764721E+03 0.  0.
        -24    2    4    4    0    0  0.82464011187E+02 -0.70561564168E+02 -0.73190095819E+02  0.15384612133E+03  0.80824448300E+02 0.  0.
         24    2    4    4    0    0 -0.10824169198E+04  0.25692325143E+03  0.92209074223E+03  0.14471803574E+04  0.80272688403E+02 0.  0.
         11    1    3    3    0    0  0.42362206986E+03 -0.10634075546E+03 -0.14068906288E+03  0.45886536888E+03  0.00000000000E+00 0. -1.
        -11    1    3    3    0    0  0.57633083878E+03 -0.80020931805E+02 -0.99986953831E+02  0.59038798785E+03  0.00000000000E+00 0.  1.
          4    1    6    6  502    0 -0.31176184222E+03  0.68748722543E+02  0.21892692592E+03  0.38710571168E+03  0.00000000000E+00 0. -1.
          3    1    5    5  503    0  0.72415189918E+02 -0.76080170279E+02 -0.30107094751E+02  0.10926385127E+03  0.00000000000E+00 0. -1.
         -4    1    5    5    0  503  0.10048821269E+02  0.55186061107E+01 -0.43083001069E+02  0.44582270056E+02  0.00000000000E+00 0.  1.
         -3    1    6    6    0  502 -0.77065507761E+03  0.18817452889E+03  0.70316381631E+03  0.10600746457E+04  0.00000000000E+00 0.  1.
<mgrwt>
<rscale>  0 0.25795438E+04</rscale>
<asrwt>0</asrwt>
<pdfrwt beam="1">  1        1 0.15708117E+00 0.25795438E+04</pdfrwt>
<pdfrwt beam="2">  1       -1 0.25065419E+00 0.25795438E+04</pdfrwt>
<totfact> 0.88745868E-01</totfact>
</mgrwt>
</event>
<event>
12    1  0.2404959E-007  0.1714133E+04  0.7818608E-02  0.8753344E-01
          3   -1    0    0  501    0  0.00000000000E+00  0.00000000000E+00  0.59863052805E+03  0.59863052805E+03  0.00000000000E+00 0. -1.
         -3   -1    0    0    0  501 -0.00000000000E+00 -0.00000000000E+00 -0.12270729183E+04  0.12270729183E+04  0.00000000000E+00 0.  1.
         23    2    1    2    0    0  0.57313439659E+03  0.22593083789E+03 -0.20921989042E+03  0.65741877441E+03  0.94332933513E+02 0.  0.
        254    2    1    2    0    0 -0.57313439659E+03 -0.22593083789E+03 -0.41922249979E+03  0.11682846719E+04  0.89978541341E+03 0.  0.
        -24    2    4    4    0    0 -0.45540599900E+03 -0.55946161062E+03 -0.31388641496E+03  0.79073485162E+03  0.79655548393E+02 0.  0.
         24    2    4    4    0    0 -0.11772839759E+03  0.33353077273E+03 -0.10533608483E+03  0.37754982028E+03  0.79658170113E+02 0.  0.
         13    1    3    3    0    0  0.18913178675E+03  0.11738548453E+03 -0.97580625475E+02  0.24304765625E+03  0.00000000000E+00 0.  1.
        -13    1    3    3    0    0  0.38400260983E+03  0.10854535336E+03 -0.11163926495E+03  0.41437111817E+03  0.00000000000E+00 0. -1.
          2    1    6    6  502    0 -0.84108010377E+01  0.12656467743E+03 -0.54355545765E+02  0.13799958153E+03  0.00000000000E+00 0. -1.
          3    1    5    5  503    0 -0.12277665379E+02 -0.44925878123E+02 -0.16357849060E+02  0.49362483914E+02  0.00000000000E+00 0. -1.
         -4    1    5    5    0  503 -0.44312833362E+03 -0.51453573250E+03 -0.29752856590E+03  0.74137236770E+03  0.00000000000E+00 0.  1.
         -1    1    6    6    0  502 -0.10931759655E+03  0.20696609530E+03 -0.50980539068E+02  0.23955023874E+03  0.00000000000E+00 0.  1.
<mgrwt>
<rscale>  0 0.17141334E+04</rscale>
<asrwt>0</asrwt>
<pdfrwt beam="1">  1        3 0.92097005E-01 0.17141334E+04</pdfrwt>
<pdfrwt beam="2">  1       -3 0.18878045E+00 0.17141334E+04</pdfrwt>
<totfact> 0.45518056E-01</totfact>
</mgrwt>
</event>
<event>
12    1  0.2404959E-007  0.4924253E+04  0.7818608E-02  0.7840299E-01
         -2   -1    0    0    0  501 -0.00000000000E+00  0.00000000000E+00  0.21209039369E+04  0.21209039369E+04  0.00000000000E+00 0.  1.
          2   -1    0    0  501    0  0.00000000000E+00 -0.00000000000E+00 -0.28582467284E+04  0.28582467284E+04  0.00000000000E+00 0. -1.
         23    2    1    2    0    0 -0.16760625005E+03 -0.23645081601E+04 -0.56216123693E+03  0.24378922122E+04  0.91117987560E+02 0.  0.
        254    2    1    2    0    0  0.16760625005E+03  0.23645081601E+04 -0.17518155461E+03  0.25412584531E+04  0.89906354295E+03 0.  0.
        -24    2    4    4    0    0  0.31550861344E+03  0.45212531780E+03 -0.27044983117E+03  0.61942032172E+03  0.81089059900E+02 0.  0.
         24    2    4    4    0    0 -0.14790236338E+03  0.19123828423E+04  0.95268276561E+02  0.19218381314E+04  0.72818364258E+02 0.  0.
         13    1    3    3    0    0  0.20533705852E+01 -0.41546392463E+03 -0.11345418662E+03  0.43068125274E+03  0.00000000000E+00 0.  1.
        -13    1    3    3    0    0 -0.16965962064E+03 -0.19490442354E+04 -0.44870705032E+03  0.20072109594E+04  0.00000000000E+00 0. -1.
          2    1    6    6  502    0  0.61044532119E+01  0.77722490597E+02  0.11648730723E+02  0.78827297436E+02  0.00000000000E+00 0. -1.
          3    1    5    5  503    0  0.84611756010E+02  0.16157558109E+03 -0.55997280071E+02  0.19079180547E+03  0.00000000000E+00 0. -1.
         -4    1    5    5    0  503  0.23089685743E+03  0.29054973671E+03 -0.21445255110E+03  0.42862851625E+03  0.00000000000E+00 0.  1.
         -1    1    6    6    0  502 -0.15400681660E+03  0.18346603517E+04  0.83619545837E+02  0.18430108339E+04  0.00000000000E+00 0.  1.
<mgrwt>
<rscale>  0 0.49242529E+04</rscale>
<asrwt>0</asrwt>
<pdfrwt beam="1">  1        2 0.43973026E+00 0.49242529E+04</pdfrwt>
<pdfrwt beam="2">  1       -2 0.32629291E+00 0.49242529E+04</pdfrwt>
<totfact> 0.34157891E-02</totfact>
</mgrwt>
</event>
<event>
12    1  0.2404959E-007  0.3513723E+04  0.7818608E-02  0.8110546E-01
          1   -1    0    0  501    0  0.00000000000E+00  0.00000000000E+00  0.12502217349E+04  0.12502217349E+04  0.00000000000E+00 0. -1.
         -1   -1    0    0    0  501 -0.00000000000E+00 -0.00000000000E+00 -0.24688114400E+04  0.24688114400E+04  0.00000000000E+00 0.  1.
         23    2    1    2    0    0 -0.56559370621E+03 -0.13482513343E+04  0.21906254756E+03  0.14811401071E+04  0.90053963187E+02 0.  0.
        254    2    1    2    0    0  0.56559370621E+03  0.13482513343E+04 -0.14376522527E+04  0.22378930677E+04  0.89646164567E+03 0.  0.
        -24    2    4    4    0    0  0.58513954754E+03  0.40404755851E+03 -0.89490116123E+03  0.11456851803E+04  0.78126336372E+02 0.  0.
         24    2    4    4    0    0 -0.19545841333E+02  0.94420377576E+03 -0.54275109143E+03  0.10922078874E+04  0.80227875294E+02 0.  0.
         13    1    3    3    0    0 -0.73605099998E+02 -0.24213171741E+03  0.60465428060E+02  0.26019521001E+03  0.00000000000E+00 0. -1.
        -13    1    3    3    0    0 -0.49198860621E+03 -0.11061196169E+04  0.15859711950E+03  0.12209448971E+04  0.00000000000E+00 0.  1.
          4    1    6    6  502    0 -0.40965956147E+02  0.55818108618E+03 -0.35113211635E+03  0.66071029784E+03  0.00000000000E+00 0. -1.
          3    1    5    5  503    0  0.41936859821E+03  0.28057670127E+03 -0.57707453669E+03  0.76655614755E+03  0.00000000000E+00 0. -1.
         -4    1    5    5    0  503  0.16577094933E+03  0.12347085724E+03 -0.31782662454E+03  0.37912903278E+03  0.00000000000E+00 0.  1.
         -1    1    6    6    0  502  0.21420114815E+02  0.38602268957E+03 -0.19161897508E+03  0.43149758956E+03  0.00000000000E+00 0.  1.
<mgrwt>
<rscale>  0 0.35137227E+04</rscale>
<asrwt>0</asrwt>
<pdfrwt beam="1">  1        1 0.19234181E+00 0.35137227E+04</pdfrwt>
<pdfrwt beam="2">  1       -1 0.37981714E+00 0.35137227E+04</pdfrwt>
<totfact> 0.78488980E-02</totfact>
</mgrwt>
</event>
<event>
12    1  0.2404959E-007  0.2325249E+04  0.7818608E-02  0.8468032E-01
          2   -1    0    0  501    0  0.00000000000E+00  0.00000000000E+00  0.14012298697E+04  0.14012298697E+04  0.00000000000E+00 0. -1.
         -2   -1    0    0    0  501 -0.00000000000E+00 -0.00000000000E+00 -0.96464950626E+03  0.96464950626E+03  0.00000000000E+00 0.  1.
         23    2    1    2    0    0 -0.22610448552E+03 -0.89329693207E+03  0.54169593938E+03  0.10727818321E+04  0.91234430982E+02 0.  0.
        254    2    1    2    0    0  0.22610448552E+03  0.89329693207E+03 -0.10511557593E+03  0.12930975438E+04  0.90108230833E+03 0.  0.
        -24    2    4    4    0    0 -0.27647954002E+03  0.14129535617E+03  0.14434583978E+03  0.35186971478E+03  0.81063314703E+02 0.  0.
         24    2    4    4    0    0  0.50258402555E+03  0.75200157590E+03 -0.24946141571E+03  0.94122782907E+03  0.74711146317E+02 0.  0.
         11    1    3    3    0    0 -0.72829371429E+02 -0.19644527888E+03  0.87990716966E+02  0.22723826968E+03  0.00000000000E+00 0.  1.
        -11    1    3    3    0    0 -0.15327511409E+03 -0.69685165320E+03  0.45370522241E+03  0.84554356245E+03  0.00000000000E+00 0. -1.
          4    1    6    6  502    0  0.49458994054E+03  0.74032208145E+03 -0.25483801708E+03  0.92608768943E+03  0.00000000000E+00 0. -1.
          3    1    5    5  503    0 -0.11920850363E+03  0.66080841479E+02  0.10773423993E+03  0.17373546385E+03  0.00000000000E+00 0. -1.
         -4    1    5    5    0  503 -0.15727103640E+03  0.75214514687E+02  0.36611599854E+02  0.17813425093E+03  0.00000000000E+00 0.  1.
         -3    1    6    6    0  502  0.79940850099E+01  0.11679494452E+02  0.53766013751E+01  0.15140139635E+02  0.00000000000E+00 0.  1.
<mgrwt>
<rscale>  0 0.23252490E+04</rscale>
<asrwt>0</asrwt>
<pdfrwt beam="1">  1        2 0.21557383E+00 0.23252490E+04</pdfrwt>
<pdfrwt beam="2">  1       -2 0.14840762E+00 0.23252490E+04</pdfrwt>
<totfact> 0.40292976E+00</totfact>
</mgrwt>
</event>
<event>
12    1  0.2404959E-007  0.1312432E+04  0.7818608E-02  0.9019764E-01
         -2   -1    0    0    0  501 -0.00000000000E+00  0.00000000000E+00  0.15541969009E+03  0.15541969009E+03  0.00000000000E+00 0.  1.
          2   -1    0    0  501    0  0.00000000000E+00 -0.00000000000E+00 -0.27706891988E+04  0.27706891988E+04  0.00000000000E+00 0. -1.
         23    2    1    2    0    0  0.38129708337E+02 -0.30671706951E+03 -0.10096030692E+04  0.10596193586E+04  0.89250168305E+02 0.  0.
        254    2    1    2    0    0 -0.38129708337E+02  0.30671706951E+03 -0.16056664395E+04  0.18664895302E+04  0.90004956310E+03 0.  0.
        -24    2    4    4    0    0 -0.37460425307E+02  0.62077177051E+03 -0.10180067319E+04  0.11956404916E+04  0.80359221212E+02 0.  0.
         24    2    4    4    0    0 -0.66928303042E+00 -0.31405470101E+03 -0.58765970757E+03  0.67084903858E+03  0.77869746946E+02 0.  0.
         11    1    3    3    0    0  0.16510658503E+02 -0.25216323144E+01 -0.56308353472E+02  0.58733220109E+02  0.00000000000E+00 0. -1.
        -11    1    3    3    0    0  0.21619049834E+02 -0.30419543719E+03 -0.95329471570E+03  0.10008861385E+04  0.00000000000E+00 0.  1.
          2    1    6    6  502    0 -0.28369658473E+02 -0.12091588117E+03 -0.28315126428E+03  0.30919270093E+03  0.00000000000E+00 0. -1.
          3    1    5    5  503    0  0.20237564425E+02  0.26034114304E+03 -0.45681078897E+03  0.52617788503E+03  0.00000000000E+00 0. -1.
         -4    1    5    5    0  503 -0.57697989732E+02  0.36043062747E+03 -0.56119594296E+03  0.66946260660E+03  0.00000000000E+00 0.  1.
         -1    1    6    6    0  502  0.27700375443E+02 -0.19313881983E+03 -0.30450844329E+03  0.36165633765E+03  0.00000000000E+00 0.  1.
<mgrwt>
<rscale>  0 0.13124323E+04</rscale>
<asrwt>0</asrwt>
<pdfrwt beam="1">  1        2 0.42625990E+00 0.13124323E+04</pdfrwt>
<pdfrwt beam="2">  1       -2 0.23910720E-01 0.13124323E+04</pdfrwt>
<totfact> 0.36969512E+01</totfact>
</mgrwt>
</event>
<event>
12    1  0.2404959E-007  0.1807045E+04  0.7818608E-02  0.8702562E-01
         -1   -1    0    0    0  501 -0.00000000000E+00  0.00000000000E+00  0.56483395862E+03  0.56483395862E+03  0.00000000000E+00 0.  1.
          1   -1    0    0  501    0  0.00000000000E+00 -0.00000000000E+00 -0.14452972628E+04  0.14452972628E+04  0.00000000000E+00 0. -1.
         23    2    1    2    0    0  0.51482772039E+03  0.37337169662E+03 -0.87732900647E+02  0.64848646187E+03  0.91562131097E+02 0.  0.
        254    2    1    2    0    0 -0.51482772039E+03 -0.37337169662E+03 -0.79273040349E+03  0.13616447595E+04  0.90620138655E+03 0.  0.
        -24    2    4    4    0    0 -0.32464457649E+03 -0.56470133896E+03 -0.85044618540E+03  0.10742363059E+04  0.80269692079E+02 0.  0.
         24    2    4    4    0    0 -0.19018314390E+03  0.19132964235E+03  0.57715781909E+02  0.28740845358E+03  0.80596820307E+02 0.  0.
         11    1    3    3    0    0  0.42393254974E+03  0.28268689770E+03 -0.38562408298E+02  0.51099681818E+03  0.00000000000E+00 0.  1.
        -11    1    3    3    0    0  0.90895170651E+02  0.90684798917E+02 -0.49170492349E+02  0.13748964368E+03  0.00000000000E+00 0. -1.
          2    1    6    6  502    0 -0.16725492251E+03  0.16377794319E+03  0.77352793928E+02  0.24653778312E+03  0.00000000000E+00 0. -1.
          1    1    5    5  503    0 -0.24508188820E+03 -0.35202401273E+03 -0.54081517295E+03  0.69026595508E+03  0.00000000000E+00 0. -1.
         -2    1    5    5    0  503 -0.79562688292E+02 -0.21267732624E+03 -0.30963101245E+03  0.38397035086E+03  0.00000000000E+00 0.  1.
         -1    1    6    6    0  502 -0.22928221392E+02  0.27551699158E+02 -0.19637012018E+02  0.40870670458E+02  0.00000000000E+00 0.  1.
<mgrwt>
<rscale>  0 0.18070451E+04</rscale>
<asrwt>0</asrwt>
<pdfrwt beam="1">  1        1 0.22235342E+00 0.18070451E+04</pdfrwt>
<pdfrwt beam="2">  1       -1 0.86897534E-01 0.18070451E+04</pdfrwt>
<totfact> 0.87868660E+00</totfact>
</mgrwt>
</event>
<event>
12    1  0.3364260E-007  0.1916230E+04  0.7818608E-02  0.8646820E-01
         -1   -1    0    0    0  501 -0.00000000000E+00  0.00000000000E+00  0.63882428166E+03  0.63882428166E+03  0.00000000000E+00 0.  1.
          1   -1    0    0  501    0  0.00000000000E+00 -0.00000000000E+00 -0.14369899229E+04  0.14369899229E+04  0.00000000000E+00 0. -1.
         23    2    1    2    0    0 -0.80509059860E+01  0.74239679628E+03 -0.33327295906E+03  0.81893266565E+03  0.91444110908E+02 0.  0.
        254    2    1    2    0    0  0.80509059860E+01 -0.74239679628E+03 -0.46489268222E+03  0.12568815389E+04  0.90133688304E+03 0.  0.
        -24    2    4    4    0    0  0.37412436063E+03 -0.45770547524E+03 -0.14520557653E+01  0.59645217519E+03  0.79307941270E+02 0.  0.
         24    2    4    4    0    0 -0.36607345464E+03 -0.28469132104E+03 -0.46344062645E+03  0.66042936375E+03  0.79566373445E+02 0.  0.
         13    1    3    3    0    0  0.20635038004E+02  0.16605747754E+03 -0.10967692334E+03  0.20007478141E+03  0.00000000000E+00 0. -1.
        -13    1    3    3    0    0 -0.28685943990E+02  0.57633931874E+03 -0.22359603572E+03  0.61885788425E+03  0.00000000000E+00 0.  1.
          4    1    6    6  502    0 -0.14249169397E+03 -0.85310002515E+02 -0.12120052514E+03  0.20559972440E+03  0.00000000000E+00 0. -1.
          1    1    5    5  503    0  0.19296416995E+03 -0.21671706873E+03 -0.38419363390E+02  0.29270720224E+03  0.00000000000E+00 0. -1.
         -2    1    5    5    0  503  0.18116019068E+03 -0.24098840650E+03  0.36967307625E+02  0.30374497295E+03  0.00000000000E+00 0.  1.
         -3    1    6    6    0  502 -0.22358176068E+03 -0.19938131853E+03 -0.34224010131E+03  0.45482963935E+03  0.00000000000E+00 0.  1.
<mgrwt>
<rscale>  0 0.19162297E+04</rscale>
<asrwt>0</asrwt>
<pdfrwt beam="1">  1        1 0.22107537E+00 0.19162297E+04</pdfrwt>
<pdfrwt beam="2">  1       -1 0.98280659E-01 0.19162297E+04</pdfrwt>
<totfact> 0.67052234E+00</totfact>
</mgrwt>
</event>
<event>
12    1  0.2404959E-007  0.3299585E+04  0.7818608E-02  0.8163001E-01
         -2   -1    0    0    0  501 -0.00000000000E+00  0.00000000000E+00  0.99550014137E+03  0.99550014137E+03  0.00000000000E+00 0.  1.
          2   -1    0    0  501    0  0.00000000000E+00 -0.00000000000E+00 -0.27341183246E+04  0.27341183246E+04  0.00000000000E+00 0. -1.
         23    2    1    2    0    0  0.70394948601E+03 -0.13371963765E+04 -0.10426587420E+04  0.18381505425E+04  0.89560798532E+02 0.  0.
        254    2    1    2    0    0 -0.70394948601E+03  0.13371963765E+04 -0.69595944130E+03  0.18914679235E+04  0.89980683115E+03 0.  0.
        -24    2    4    4    0    0 -0.70193911500E+03  0.12088592401E+04 -0.88024252029E+03  0.16539870616E+04  0.82383990944E+02 0.  0.
         24    2    4    4    0    0 -0.20103710120E+01  0.12833713643E+03  0.18428307899E+03  0.23748086186E+03  0.77216865829E+02 0.  0.
         13    1    3    3    0    0  0.62215877704E+03 -0.12092365910E+04 -0.96563175592E+03  0.16678667107E+04  0.00000000000E+00 0. -1.
        -13    1    3    3    0    0  0.81790708976E+02 -0.12795978554E+03 -0.77026986050E+02  0.17028383179E+03  0.00000000000E+00 0.  1.
          4    1    6    6  502    0 -0.21256188215E+02  0.11102362448E+03  0.10576044164E+03  0.15480097463E+03  0.00000000000E+00 0. -1.
          3    1    5    5  503    0 -0.40416955974E+03  0.67919409850E+03 -0.54464845486E+03  0.95984352675E+03  0.00000000000E+00 0. -1.
         -4    1    5    5    0  503 -0.29776955526E+03  0.52966514157E+03 -0.33559406543E+03  0.69414353486E+03  0.00000000000E+00 0.  1.
         -3    1    6    6    0  502  0.19245817203E+02  0.17313511950E+02  0.78522637350E+02  0.82679887229E+02  0.00000000000E+00 0.  1.
<mgrwt>
<rscale>  0 0.32995849E+04</rscale>
<asrwt>0</asrwt>
<pdfrwt beam="1">  1        2 0.42063359E+00 0.32995849E+04</pdfrwt>
<pdfrwt beam="2">  1       -2 0.15315387E+00 0.32995849E+04</pdfrwt>
<totfact> 0.59965186E-01</totfact>
</mgrwt>
</event>
<event>
12    1  0.2404959E-007  0.1994710E+04  0.7818608E-02  0.8609098E-01
          2   -1    0    0  501    0  0.00000000000E+00  0.00000000000E+00  0.78618853778E+03  0.78618853778E+03  0.00000000000E+00 0.  1.
         -2   -1    0    0    0  501 -0.00000000000E+00 -0.00000000000E+00 -0.12652403210E+04  0.12652403210E+04  0.00000000000E+00 0. -1.
         23    2    1    2    0    0  0.42090535166E+03  0.53656245619E+03 -0.60385629938E+03  0.91553158360E+03  0.92168681295E+02 0.  0.
        254    2    1    2    0    0 -0.42090535166E+03 -0.53656245619E+03  0.12480451612E+03  0.11358972752E+04  0.89979212497E+03 0.  0.
        -24    2    4    4    0    0  0.20040213821E+03 -0.44449716595E+03  0.24430875349E+02  0.49475606011E+03  0.80299089719E+02 0.  0.
         24    2    4    4    0    0 -0.62130748986E+03 -0.92065290248E+02  0.10037364077E+03  0.64114121512E+03  0.80549210605E+02 0.  0.
         11    1    3    3    0    0  0.22594350875E+03  0.28040256709E+03 -0.25764004286E+03  0.44278037498E+03  0.00000000000E+00 0.  1.
        -11    1    3    3    0    0  0.19496184291E+03  0.25615988910E+03 -0.34621625652E+03  0.47275120862E+03  0.00000000000E+00 0. -1.
          4    1    6    6  502    0 -0.59130385584E+01 -0.64533918813E+01 -0.62270257687E+01  0.10741794156E+02  0.00000000000E+00 0. -1.
          1    1    5    5  503    0  0.24488258398E+02 -0.77265937807E+02 -0.24402345379E+02  0.84647353204E+02  0.00000000000E+00 0. -1.
         -2    1    5    5    0  503  0.17591387981E+03 -0.36723122814E+03  0.48833220728E+02  0.41010870690E+03  0.00000000000E+00 0.  1.
         -3    1    6    6    0  502 -0.61539445131E+03 -0.85611898366E+02  0.10660066654E+03  0.63039942096E+03  0.00000000000E+00 0.  1.
<mgrwt>
<rscale>  0 0.19947104E+04</rscale>
<asrwt>0</asrwt>
<pdfrwt beam="1">  1        2 0.12095208E+00 0.19947104E+04</pdfrwt>
<pdfrwt beam="2">  1       -2 0.19465235E+00 0.19947104E+04</pdfrwt>
<totfact> 0.47250095E+00</totfact>
</mgrwt>
</event>
<event>
12    1  0.2404959E-007  0.2107940E+04  0.7818608E-02  0.8557754E-01
          1   -1    0    0  501    0  0.00000000000E+00  0.00000000000E+00  0.15775082794E+04  0.15775082794E+04  0.00000000000E+00 0. -1.
         -1   -1    0    0    0  501 -0.00000000000E+00 -0.00000000000E+00 -0.70418204075E+03  0.70418204075E+03  0.00000000000E+00 0.  1.
         23    2    1    2    0    0  0.82390775687E+03  0.16990898014E+03  0.54431570584E+03  0.10058941254E+04  0.88602203444E+02 0.  0.
        254    2    1    2    0    0 -0.82390775687E+03 -0.16990898014E+03  0.32901053278E+03  0.12757961947E+04  0.90095224428E+03 0.  0.
        -24    2    4    4    0    0  0.71509012526E+01  0.26035839406E+03 -0.20401169120E+02  0.27370366871E+03  0.81607976428E+02 0.  0.
         24    2    4    4    0    0 -0.83105865812E+03 -0.43026737420E+03  0.34941170190E+03  0.10020925260E+04  0.79450530343E+02 0.  0.
         11    1    3    3    0    0  0.28033079603E+03  0.99572662142E+02  0.20433875038E+03  0.36090773773E+03  0.00000000000E+00 0. -1.
        -11    1    3    3    0    0  0.54357696084E+03  0.70336318002E+02  0.33997695546E+03  0.64498638764E+03  0.00000000000E+00 0.  1.
          4    1    6    6  502    0 -0.31557029204E+03 -0.20488393322E+03  0.12667501450E+03  0.39699948943E+03  0.00000000000E+00 0. -1.
          1    1    5    5  503    0 -0.13858208614E+02  0.23414629799E+01 -0.17231777661E+01  0.14159863576E+02  0.00000000000E+00 0. -1.
         -2    1    5    5    0  503  0.21009109867E+02  0.25801693108E+03 -0.18677991354E+02  0.25954380513E+03  0.00000000000E+00 0.  1.
         -3    1    6    6    0  502 -0.51548836608E+03 -0.22538344098E+03  0.22273668740E+03  0.60509303661E+03  0.00000000000E+00 0.  1.
<mgrwt>
<rscale>  0 0.21079402E+04</rscale>
<asrwt>0</asrwt>
<pdfrwt beam="1">  1        1 0.24269358E+00 0.21079402E+04</pdfrwt>
<pdfrwt beam="2">  1       -1 0.10833570E+00 0.21079402E+04</pdfrwt>
<totfact> 0.42043458E+00</totfact>
</mgrwt>
</event>
<event>
12    1  0.2404959E-007  0.2103128E+04  0.7818608E-02  0.8559867E-01
          2   -1    0    0  501    0  0.00000000000E+00  0.00000000000E+00  0.22396924459E+04  0.22396924459E+04  0.00000000000E+00 0. -1.
         -2   -1    0    0    0  501 -0.00000000000E+00 -0.00000000000E+00 -0.49372257442E+03  0.49372257442E+03  0.00000000000E+00 0.  1.
         23    2    1    2    0    0  0.10946190940E+03  0.55446804803E+03  0.15558487150E+04  0.16578563580E+04  0.91682897710E+02 0.  0.
        254    2    1    2    0    0 -0.10946190940E+03 -0.55446804803E+03  0.19012115645E+03  0.10755586623E+04  0.89513331751E+03 0.  0.
        -24    2    4    4    0    0 -0.13719892151E+03  0.77796759073E+02 -0.24520867520E+03  0.30324033714E+03  0.83375823191E+02 0.  0.
         24    2    4    4    0    0  0.27737012107E+02 -0.63226480710E+03  0.43532983165E+03  0.77231832520E+03  0.80220975870E+02 0.  0.
         13    1    3    3    0    0  0.65589023726E+02  0.28626168389E+03  0.93742959376E+03  0.98235528957E+03  0.00000000000E+00 0. -1.
        -13    1    3    3    0    0  0.43872885675E+02  0.26820636414E+03  0.61841912126E+03  0.67550106840E+03  0.00000000000E+00 0.  1.
          2    1    6    6  502    0  0.48508757053E+01 -0.42626411741E+03  0.33429696671E+03  0.54173710482E+03  0.00000000000E+00 0. -1.
          1    1    5    5  503    0 -0.10320165105E+03  0.23957382972E+02 -0.19587019678E+03  0.22268738394E+03  0.00000000000E+00 0. -1.
         -2    1    5    5    0  503 -0.33997270462E+02  0.53839376101E+02 -0.49338478419E+02  0.80552953208E+02  0.00000000000E+00 0.  1.
         -1    1    6    6    0  502  0.22886136401E+02 -0.20600068969E+03  0.10103286494E+03  0.23058122038E+03  0.00000000000E+00 0.  1.
<mgrwt>
<rscale>  0 0.21031279E+04</rscale>
<asrwt>0</asrwt>
<pdfrwt beam="1">  1        2 0.34456806E+00 0.21031279E+04</pdfrwt>
<pdfrwt beam="2">  1       -2 0.75957320E-01 0.21031279E+04</pdfrwt>
<totfact> 0.70144546E+00</totfact>
</mgrwt>
</event>
<event>
12    1  0.2404959E-007  0.1362504E+04  0.7818608E-02  0.8981416E-01
         -1   -1    0    0    0  501 -0.00000000000E+00  0.00000000000E+00  0.56542094721E+03  0.56542094721E+03  0.00000000000E+00 0.  1.
          1   -1    0    0  501    0  0.00000000000E+00 -0.00000000000E+00 -0.82081219422E+03  0.82081219422E+03  0.00000000000E+00 0. -1.
         23    2    1    2    0    0 -0.89725863856E+02 -0.36217424490E+03 -0.45488149428E+02  0.38631746373E+03  0.89168922434E+02 0.  0.
        254    2    1    2    0    0  0.89725863856E+02  0.36217424490E+03 -0.20990309758E+03  0.99991567770E+03  0.90363219167E+03 0.  0.
        -24    2    4    4    0    0  0.17512732193E+03  0.20157948040E+03  0.32587163192E+03  0.42853405769E+03  0.78391659652E+02 0.  0.
         24    2    4    4    0    0 -0.85401458078E+02  0.16059476450E+03 -0.53577472950E+03  0.57138162001E+03  0.79613488054E+02 0.  0.
         13    1    3    3    0    0 -0.52032369357E+02 -0.67496252894E+02 -0.23610715605E+02  0.88434029124E+02  0.00000000000E+00 0. -1.
        -13    1    3    3    0    0 -0.37693494499E+02 -0.29467799201E+03 -0.21877433823E+02  0.29788343460E+03  0.00000000000E+00 0.  1.
          2    1    6    6  502    0  0.23343716503E+01  0.49814915410E+01  0.10610908583E+01  0.56027192312E+01  0.00000000000E+00 0. -1.
          1    1    5    5  503    0  0.80053266677E+02  0.94917386799E+02  0.92267311701E+02  0.15469677641E+03  0.00000000000E+00 0. -1.
         -4    1    5    5    0  503  0.95074055258E+02  0.10666209360E+03  0.23360432022E+03  0.27383728128E+03  0.00000000000E+00 0.  1.
         -1    1    6    6    0  502 -0.87735829729E+02  0.15561327296E+03 -0.53683582036E+03  0.56577890078E+03  0.00000000000E+00 0.  1.
<mgrwt>
<rscale>  0 0.13625042E+04</rscale>
<asrwt>0</asrwt>
<pdfrwt beam="1">  1        1 0.12627880E+00 0.13625042E+04</pdfrwt>
<pdfrwt beam="2">  1       -1 0.86987838E-01 0.13625042E+04</pdfrwt>
<totfact> 0.27011459E+01</totfact>
</mgrwt>
</event>
<event>
12    1  0.2404959E-007  0.1835103E+04  0.7818608E-02  0.8687852E-01
          1   -1    0    0  501    0  0.00000000000E+00  0.00000000000E+00  0.14909041396E+04  0.14909041396E+04  0.00000000000E+00 0. -1.
         -1   -1    0    0    0  501 -0.00000000000E+00 -0.00000000000E+00 -0.56469118495E+03  0.56469118495E+03  0.00000000000E+00 0.  1.
         23    2    1    2    0    0 -0.43095361239E+03  0.49647975802E+03  0.11175691921E+03  0.67278703861E+03  0.89104568708E+02 0.  0.
        254    2    1    2    0    0  0.43095361239E+03 -0.49647975802E+03  0.81445603548E+03  0.13828082860E+04  0.90366307653E+03 0.  0.
        -24    2    4    4    0    0  0.42814051752E+03 -0.42537001216E+03  0.50200977486E+02  0.61106156790E+03  0.81438023302E+02 0.  0.
         24    2    4    4    0    0  0.28130948699E+01 -0.71109745863E+02  0.76425505800E+03  0.77174671808E+03  0.80266392311E+02 0.  0.
         13    1    3    3    0    0 -0.19923286370E+03  0.23576214495E+03  0.97434354101E+02  0.32368345081E+03  0.00000000000E+00 0. -1.
        -13    1    3    3    0    0 -0.23172074869E+03  0.26071761307E+03  0.14322565113E+02  0.34910358779E+03  0.00000000000E+00 0.  1.
          2    1    6    6  502    0 -0.22120833652E+02 -0.77202414435E+02  0.62586640529E+03  0.63099786160E+03  0.00000000000E+00 0. -1.
          1    1    5    5  503    0  0.20223529810E+03 -0.14621729076E+03  0.10695473550E+02  0.24978591848E+03  0.00000000000E+00 0. -1.
         -2    1    5    5    0  503  0.22590521942E+03 -0.27915272140E+03  0.39505503936E+02  0.36127564943E+03  0.00000000000E+00 0.  1.
         -1    1    6    6    0  502  0.24933928522E+02  0.60926685719E+01  0.13838865270E+03  0.14074885648E+03  0.00000000000E+00 0.  1.
<mgrwt>
<rscale>  0 0.18351026E+04</rscale>
<asrwt>0</asrwt>
<pdfrwt beam="1">  1        1 0.22936987E+00 0.18351026E+04</pdfrwt>
<pdfrwt beam="2">  1       -1 0.86875568E-01 0.18351026E+04</pdfrwt>
<totfact> 0.81518008E+00</totfact>
</mgrwt>
</event>
<event>
12    1  0.2404959E-007  0.3389594E+04  0.7818608E-02  0.8140465E-01
         -1   -1    0    0    0  501 -0.00000000000E+00  0.00000000000E+00  0.77203773886E+03  0.77203773886E+03  0.00000000000E+00 0.  1.
          1   -1    0    0  501    0  0.00000000000E+00 -0.00000000000E+00 -0.37204608949E+04  0.37204608949E+04  0.00000000000E+00 0. -1.
         23    2    1    2    0    0 -0.15632227880E+04 -0.13177541201E+03 -0.12009770012E+04  0.19777594891E+04  0.90313869069E+02 0.  0.
        254    2    1    2    0    0  0.15632227880E+04  0.13177541201E+03 -0.17474461549E+04  0.25147391447E+04  0.89961917359E+03 0.  0.
        -24    2    4    4    0    0  0.22318406867E+03 -0.29053393165E+03 -0.55756735481E+03  0.67188250301E+03  0.79521372922E+02 0.  0.
         24    2    4    4    0    0  0.13400387194E+04  0.42230934366E+03 -0.11898788000E+04  0.18428566417E+04  0.79120742310E+02 0.  0.
         11    1    3    3    0    0 -0.12724456683E+04 -0.74872874268E+02 -0.95625138988E+03  0.15934681192E+04  0.00000000000E+00 0.  1.
        -11    1    3    3    0    0 -0.29077711972E+03 -0.56902537744E+02 -0.24472561131E+03  0.38429136990E+03  0.00000000000E+00 0. -1.
          2    1    6    6  502    0  0.84614845374E+03  0.28995886904E+03 -0.79722191932E+03  0.11981678264E+04  0.00000000000E+00 0. -1.
          3    1    5    5  503    0  0.22554954889E+03 -0.26366184389E+03 -0.52855861383E+03  0.63226922682E+03  0.00000000000E+00 0. -1.
         -4    1    5    5    0  503 -0.23654802228E+01 -0.26872087759E+02 -0.29008740987E+02  0.39613276194E+02  0.00000000000E+00 0.  1.
         -1    1    6    6    0  502  0.49389026564E+03  0.13235047462E+03 -0.39265688072E+03  0.64468881532E+03  0.00000000000E+00 0.  1.
<mgrwt>
<rscale>  0 0.33895936E+04</rscale>
<asrwt>0</asrwt>
<pdfrwt beam="1">  1        1 0.57237860E+00 0.33895936E+04</pdfrwt>
<pdfrwt beam="2">  1       -1 0.11877504E+00 0.33895936E+04</pdfrwt>
<totfact> 0.86605762E-02</totfact>
</mgrwt>
</event>
<event>
12    1  0.2404959E-007  0.2059648E+04  0.7818608E-02  0.8579230E-01
          2   -1    0    0  501    0  0.00000000000E+00  0.00000000000E+00  0.14817165843E+04  0.14817165843E+04  0.00000000000E+00 0. -1.
         -2   -1    0    0    0  501 -0.00000000000E+00 -0.00000000000E+00 -0.71574903511E+03  0.71574903511E+03  0.00000000000E+00 0.  1.
         23    2    1    2    0    0  0.80843404066E+03  0.62384192916E+01  0.51232037308E+03  0.96160635561E+03  0.92790637979E+02 0.  0.
        254    2    1    2    0    0 -0.80843404066E+03 -0.62384192916E+01  0.25364717615E+03  0.12358592638E+04  0.89967033634E+03 0.  0.
        -24    2    4    4    0    0  0.51676939771E+02  0.26279300090E+03 -0.44949188934E+02  0.28311049581E+03  0.80002848855E+02 0.  0.
         24    2    4    4    0    0 -0.86011098043E+03 -0.26903142019E+03  0.29859636508E+03  0.95274876803E+03  0.80010137108E+02 0.  0.
         13    1    3    3    0    0  0.71694827480E+03  0.16901087783E+02  0.48420291587E+03  0.86530511338E+03  0.00000000000E+00 0. -1.
        -13    1    3    3    0    0  0.91485765859E+02 -0.10662668492E+02  0.28117457215E+02  0.96301242227E+02  0.00000000000E+00 0.  1.
          4    1    6    6  502    0 -0.42880654255E+03 -0.92274620929E+02  0.14277924933E+03  0.46127602435E+03  0.00000000000E+00 0. -1.
          3    1    5    5  503    0  0.53370034753E+02  0.18345252020E+03  0.16824117148E+01  0.19106548167E+03  0.00000000000E+00 0. -1.
         -4    1    5    5    0  503 -0.16930949816E+01  0.79340480701E+02 -0.46631600649E+02  0.92045014137E+02  0.00000000000E+00 0.  1.
         -3    1    6    6    0  502 -0.43130443788E+03 -0.17675679927E+03  0.15581711576E+03  0.49147274369E+03  0.00000000000E+00 0.  1.
<mgrwt>
<rscale>  0 0.20596478E+04</rscale>
<asrwt>0</asrwt>
<pdfrwt beam="1">  1        2 0.22795640E+00 0.20596478E+04</pdfrwt>
<pdfrwt beam="2">  1       -2 0.11011524E+00 0.20596478E+04</pdfrwt>
<totfact> 0.78781195E+00</totfact>
</mgrwt>
</event>
<event>
12    1  0.2404959E-007  0.6450821E+04  0.7818608E-02  0.7636887E-01
          2   -1    0    0  501    0  0.00000000000E+00  0.00000000000E+00  0.45880521669E+04  0.45880521669E+04  0.00000000000E+00 0. -1.
         -2   -1    0    0    0  501 -0.00000000000E+00 -0.00000000000E+00 -0.22674707495E+04  0.22674707495E+04  0.00000000000E+00 0.  1.
         23    2    1    2    0    0 -0.27835477209E+03  0.31158516320E+04  0.64969395731E+03  0.31963252624E+04  0.91543283194E+02 0.  0.
        254    2    1    2    0    0  0.27835477209E+03 -0.31158516320E+04  0.16708874601E+04  0.36591976539E+04  0.90102707746E+03 0.  0.
        -24    2    4    4    0    0  0.97981810882E+02 -0.22779345712E+04  0.75841245309E+03  0.24042299827E+04  0.80907445159E+02 0.  0.
         24    2    4    4    0    0  0.18037296120E+03 -0.83791706080E+03  0.91247500701E+03  0.12549676712E+04  0.87714374572E+02 0.  0.
         11    1    3    3    0    0 -0.18872804131E+03  0.23116579663E+04  0.51827679609E+03  0.23765503706E+04  0.00000000000E+00 0. -1.
        -11    1    3    3    0    0 -0.89626730772E+02  0.80419366571E+03  0.13141716122E+03  0.81977489173E+03  0.00000000000E+00 0.  1.
          2    1    6    6  502    0  0.44213494560E+02 -0.12786380687E+03  0.10607496849E+03  0.17191825135E+03  0.00000000000E+00 0. -1.
          1    1    5    5  503    0 -0.49059557057E+01 -0.19934078403E+03  0.86039154941E+02  0.21717171262E+03  0.00000000000E+00 0. -1.
         -2    1    5    5    0  503  0.10288776659E+03 -0.20785937872E+04  0.67237329815E+03  0.21870582701E+04  0.00000000000E+00 0.  1.
         -1    1    6    6    0  502  0.13615946664E+03 -0.71005325394E+03  0.80640003852E+03  0.10830494199E+04  0.00000000000E+00 0.  1.
<mgrwt>
<rscale>  0 0.64508214E+04</rscale>
<asrwt>0</asrwt>
<pdfrwt beam="1">  1        2 0.70585418E+00 0.64508214E+04</pdfrwt>
<pdfrwt beam="2">  1       -2 0.34884165E+00 0.64508214E+04</pdfrwt>
<totfact> 0.10196990E-03</totfact>
</mgrwt>
</event>
<event>
12    1  0.2404959E-007  0.2528449E+04  0.7818608E-02  0.8392920E-01
         -2   -1    0    0    0  501 -0.00000000000E+00  0.00000000000E+00  0.19039036923E+04  0.19039036923E+04  0.00000000000E+00 0.  1.
          2   -1    0    0  501    0  0.00000000000E+00 -0.00000000000E+00 -0.83946679551E+03  0.83946679551E+03  0.00000000000E+00 0. -1.
         23    2    1    2    0    0  0.34706103933E+03  0.99469085938E+03  0.81626210236E+03  0.13357417504E+04  0.89782699808E+02 0.  0.
        254    2    1    2    0    0 -0.34706103933E+03 -0.99469085938E+03  0.24817479440E+03  0.14076287374E+04  0.89998147924E+03 0.  0.
        -24    2    4    4    0    0 -0.59224978093E+03 -0.38163192779E+03  0.21762741233E+03  0.74175399519E+03  0.80215755687E+02 0.  0.
         24    2    4    4    0    0  0.24518874160E+03 -0.61305893159E+03  0.30547382070E+02  0.66587474220E+03  0.80605565154E+02 0.  0.
         13    1    3    3    0    0  0.25079294328E+02  0.14050426515E+03  0.13756317370E+03  0.19822725919E+03  0.00000000000E+00 0.  1.
        -13    1    3    3    0    0  0.32198174501E+03  0.85418659424E+03  0.67869892866E+03  0.11375144912E+04  0.00000000000E+00 0. -1.
          4    1    6    6  502    0  0.10606610552E+03 -0.21417574334E+03  0.44903308038E+02  0.24318218448E+03  0.00000000000E+00 0. -1.
          1    1    5    5  503    0 -0.50742653141E+03 -0.30043718685E+03  0.16036317704E+03  0.61111417638E+03  0.00000000000E+00 0. -1.
         -2    1    5    5    0  503 -0.84823249524E+02 -0.81194740941E+02  0.57264235287E+02  0.13063981881E+03  0.00000000000E+00 0.  1.
         -3    1    6    6    0  502  0.13912263608E+03 -0.39888318826E+03 -0.14355925969E+02  0.42269255772E+03  0.00000000000E+00 0.  1.
<mgrwt>
<rscale>  0 0.25284493E+04</rscale>
<asrwt>0</asrwt>
<pdfrwt beam="1">  1        2 0.12914874E+00 0.25284493E+04</pdfrwt>
<pdfrwt beam="2">  1       -2 0.29290826E+00 0.25284493E+04</pdfrwt>
<totfact> 0.10090138E+00</totfact>
</mgrwt>
</event>
<event>
12    1  0.2404959E-007  0.2540086E+04  0.7818608E-02  0.8388842E-01
          2   -1    0    0  501    0  0.00000000000E+00  0.00000000000E+00  0.20714054682E+04  0.20714054682E+04  0.00000000000E+00 0. -1.
         -2   -1    0    0    0  501 -0.00000000000E+00 -0.00000000000E+00 -0.77870309345E+03  0.77870309345E+03  0.00000000000E+00 0.  1.
         23    2    1    2    0    0 -0.53753283634E+03  0.44408000350E+03  0.15237828516E+04  0.16781504559E+04  0.90145294568E+02 0.  0.
        254    2    1    2    0    0  0.53753283634E+03 -0.44408000350E+03 -0.23108047686E+03  0.11719581057E+04  0.91320261453E+03 0.  0.
        -24    2    4    4    0    0  0.63847014569E+03  0.34091953200E+02 -0.20248298057E+03  0.67576137863E+03  0.82750801864E+02 0.  0.
         24    2    4    4    0    0 -0.10093730936E+03 -0.47817195670E+03 -0.28597496295E+02  0.49619672712E+03  0.80972925176E+02 0.  0.
         13    1    3    3    0    0 -0.35845959825E+03  0.32183807736E+03  0.11348389938E+04  0.12328554552E+04  0.00000000000E+00 0. -1.
        -13    1    3    3    0    0 -0.17907323809E+03  0.12224192614E+03  0.38894385785E+03  0.44529500072E+03  0.00000000000E+00 0.  1.
          4    1    6    6  502    0 -0.79285865142E+02 -0.39667541795E+03 -0.54047765327E+02  0.40811615572E+03  0.00000000000E+00 0. -1.
          3    1    5    5  503    0  0.46059893925E+03 -0.11790338962E+02 -0.15354204076E+03  0.48565991518E+03  0.00000000000E+00 0. -1.
         -4    1    5    5    0  503  0.17787120645E+03  0.45882292162E+02 -0.48940939807E+02  0.19010146345E+03  0.00000000000E+00 0.  1.
         -3    1    6    6    0  502 -0.21651444215E+02 -0.81496538747E+02  0.25450269032E+02  0.88080571400E+02  0.00000000000E+00 0.  1.
<mgrwt>
<rscale>  0 0.25400865E+04</rscale>
<asrwt>0</asrwt>
<pdfrwt beam="1">  1        2 0.31867776E+00 0.25400865E+04</pdfrwt>
<pdfrwt beam="2">  1       -2 0.11980048E+00 0.25400865E+04</pdfrwt>
<totfact> 0.28893789E+00</totfact>
</mgrwt>
</event>
<event>
12    1  0.2404959E-007  0.1403308E+04  0.7818608E-02  0.8951428E-01
          1   -1    0    0  501    0  0.00000000000E+00  0.00000000000E+00  0.10500891987E+04  0.10500891987E+04  0.00000000000E+00 0. -1.
         -1   -1    0    0    0  501 -0.00000000000E+00 -0.00000000000E+00 -0.46883463685E+03  0.46883463685E+03  0.00000000000E+00 0.  1.
         23    2    1    2    0    0 -0.38914594962E+03  0.94790743914E+02  0.23834314693E+03  0.47715146000E+03  0.10220667717E+03 0.  0.
        254    2    1    2    0    0  0.38914594962E+03 -0.94790743914E+02  0.34291141494E+03  0.10417723756E+04  0.89848850229E+03 0.  0.
        -24    2    4    4    0    0  0.39693811556E+03  0.33561356519E+03  0.29152521021E+03  0.60120065029E+03  0.79113469129E+02 0.  0.
         24    2    4    4    0    0 -0.77921659436E+01 -0.43040430911E+03  0.51386204738E+02  0.44057172527E+03  0.78449448202E+02 0.  0.
         11    1    3    3    0    0 -0.25425580485E+03  0.10744619293E+03  0.13830398703E+03  0.30873725318E+03  0.00000000000E+00 0.  1.
        -11    1    3    3    0    0 -0.13489014477E+03 -0.12655449014E+02  0.10003915990E+03  0.16841420682E+03  0.00000000000E+00 0. -1.
          4    1    6    6  502    0  0.33908510268E+02 -0.13619355478E+03  0.13020811568E+02  0.14095393917E+03  0.00000000000E+00 0. -1.
          1    1    5    5  503    0  0.65481103588E+02  0.21418276174E+02  0.43700854076E+02  0.81586041259E+02  0.00000000000E+00 0. -1.
         -2    1    5    5    0  503  0.33145701197E+03  0.31419528902E+03  0.24782435613E+03  0.51961460903E+03  0.00000000000E+00 0.  1.
         -3    1    6    6    0  502 -0.41700676212E+02 -0.29421075433E+03  0.38365393170E+02  0.29961778611E+03  0.00000000000E+00 0.  1.
<mgrwt>
<rscale>  0 0.14033078E+04</rscale>
<asrwt>0</asrwt>
<pdfrwt beam="1">  1        1 0.16155218E+00 0.14033078E+04</pdfrwt>
<pdfrwt beam="2">  1       -1 0.72128406E-01 0.14033078E+04</pdfrwt>
<totfact> 0.26164395E+01</totfact>
</mgrwt>
</event>
<event>
12    1  0.2404959E-007  0.1685317E+04  0.7818608E-02  0.8769783E-01
          2   -1    0    0  501    0  0.00000000000E+00  0.00000000000E+00  0.15108824642E+04  0.15108824642E+04  0.00000000000E+00 0. -1.
         -2   -1    0    0    0  501 -0.00000000000E+00 -0.00000000000E+00 -0.46997254469E+03  0.46997254469E+03  0.00000000000E+00 0.  1.
         23    2    1    2    0    0 -0.37821362569E+03 -0.25142739819E+03 -0.80699505812E+02  0.47331986948E+03  0.10610374822E+03 0.  0.
        254    2    1    2    0    0  0.37821362569E+03  0.25142739819E+03  0.11216094253E+04  0.15075351394E+04  0.89910689595E+03 0.  0.
        -24    2    4    4    0    0 -0.18594387005E+03  0.35731288792E+03  0.32989306703E+03  0.52643302977E+03  0.77811801652E+02 0.  0.
         24    2    4    4    0    0  0.56415749574E+03 -0.10588548973E+03  0.79171635827E+03  0.98110210962E+03  0.79127369545E+02 0.  0.
         13    1    3    3    0    0 -0.25467328268E+03 -0.14037118453E+03 -0.51863567267E+01  0.29084265274E+03  0.00000000000E+00 0. -1.
        -13    1    3    3    0    0 -0.12354034302E+03 -0.11105621366E+03 -0.75513149085E+02  0.18247721674E+03  0.00000000000E+00 0.  1.
          4    1    6    6  502    0  0.38278531155E+03 -0.41001826320E+02  0.49007321818E+03  0.62319940924E+03  0.00000000000E+00 0. -1.
          3    1    5    5  503    0 -0.18960020579E+02  0.23347760981E+02  0.55296017276E+02  0.62946404581E+02  0.00000000000E+00 0. -1.
         -4    1    5    5    0  503 -0.16698384947E+03  0.33396512694E+03  0.27459704975E+03  0.46348662519E+03  0.00000000000E+00 0.  1.
         -3    1    6    6    0  502  0.18137218420E+03 -0.64883663410E+02  0.30164314009E+03  0.35790270038E+03  0.00000000000E+00 0.  1.
<mgrwt>
<rscale>  0 0.16853169E+04</rscale>
<asrwt>0</asrwt>
<pdfrwt beam="1">  1        2 0.23244345E+00 0.16853169E+04</pdfrwt>
<pdfrwt beam="2">  1       -2 0.72303469E-01 0.16853169E+04</pdfrwt>
<totfact> 0.20642222E+01</totfact>
</mgrwt>
</event>
<event>
12    1  0.2404959E-007  0.2293005E+04  0.7818608E-02  0.8480684E-01
         -2   -1    0    0    0  501 -0.00000000000E+00  0.00000000000E+00  0.10374305726E+04  0.10374305726E+04  0.00000000000E+00 0.  1.
          2   -1    0    0  501    0  0.00000000000E+00 -0.00000000000E+00 -0.12670423293E+04  0.12670423293E+04  0.00000000000E+00 0. -1.
         23    2    1    2    0    0 -0.85424838885E+03  0.13406670724E+03  0.33576343557E+03  0.93107264885E+03  0.80280763125E+02 0.  0.
        254    2    1    2    0    0  0.85424838885E+03 -0.13406670724E+03 -0.56537519221E+03  0.13734002530E+04  0.90491157314E+03 0.  0.
        -24    2    4    4    0    0  0.19009757175E+03  0.18214618700E+03 -0.56990877988E+03  0.63309989237E+03  0.81884895530E+02 0.  0.
         24    2    4    4    0    0  0.66415081710E+03 -0.31621289424E+03  0.45335876648E+01  0.74030036066E+03  0.83289664572E+02 0.  0.
         13    1    3    3    0    0 -0.22863936554E+03  0.81979692762E+01  0.64827238687E+02  0.23779347563E+03  0.00000000000E+00 0. -1.
        -13    1    3    3    0    0 -0.62560902331E+03  0.12586873797E+03  0.27093619689E+03  0.69327917322E+03  0.00000000000E+00 0.  1.
          4    1    6    6  502    0  0.66116779971E+03 -0.31696327536E+03  0.10824344757E+02  0.73329785472E+03  0.00000000000E+00 0. -1.
          3    1    5    5  503    0  0.13912785804E+03  0.81867616133E+02 -0.37074136966E+03  0.40436126252E+03  0.00000000000E+00 0. -1.
         -4    1    5    5    0  503  0.50969713704E+02  0.10027857087E+03 -0.19916741022E+03  0.22873862985E+03  0.00000000000E+00 0.  1.
         -3    1    6    6    0  502  0.29830173939E+01  0.75038111186E+00 -0.62907570927E+01  0.70025059361E+01  0.00000000000E+00 0.  1.
<mgrwt>
<rscale>  0 0.22930054E+04</rscale>
<asrwt>0</asrwt>
<pdfrwt beam="1">  1        2 0.19492959E+00 0.22930054E+04</pdfrwt>
<pdfrwt beam="2">  1       -2 0.15960470E+00 0.22930054E+04</pdfrwt>
<totfact> 0.39762858E+00</totfact>
</mgrwt>
</event>
<event>
12    1  0.2404959E-007  0.3571584E+04  0.7818608E-02  0.8097032E-01
         -1   -1    0    0    0  501 -0.00000000000E+00  0.00000000000E+00  0.13315544167E+04  0.13315544167E+04  0.00000000000E+00 0. -1.
          1   -1    0    0  501    0  0.00000000000E+00 -0.00000000000E+00 -0.23949857101E+04  0.23949857101E+04  0.00000000000E+00 0.  1.
         23    2    1    2    0    0  0.67359499684E+03  0.34350596554E+03  0.10565748459E+04  0.13024761864E+04  0.91472635127E+02 0.  0.
        254    2    1    2    0    0 -0.67359499684E+03 -0.34350596554E+03 -0.21200061393E+04  0.24240639404E+04  0.89996299291E+03 0.  0.
        -24    2    4    4    0    0 -0.37378212420E+03  0.15665030272E+03 -0.29712249986E+03  0.50848764501E+03  0.77624168195E+02 0.  0.
         24    2    4    4    0    0 -0.29981287264E+03 -0.50015626826E+03 -0.18228836394E+04  0.19155762954E+04  0.80521608606E+02 0.  0.
         13    1    3    3    0    0  0.15902602562E+03  0.68283781770E+02  0.18254145502E+03  0.25154191396E+03  0.00000000000E+00 0.  1.
        -13    1    3    3    0    0  0.51456897122E+03  0.27522218377E+03  0.87403339089E+03  0.10509342724E+04  0.00000000000E+00 0. -1.
          2    1    6    6  502    0 -0.12571365774E+03 -0.13785829595E+03 -0.59724031718E+03  0.62570346808E+03  0.00000000000E+00 0. -1.
          1    1    5    5  503    0 -0.10223303217E+03  0.51508745650E+02 -0.43942502399E+02  0.12262009322E+03  0.00000000000E+00 0. -1.
         -2    1    5    5    0  503 -0.27154909204E+03  0.10514155707E+03 -0.25317999746E+03  0.38586755179E+03  0.00000000000E+00 0.  1.
         -1    1    6    6    0  502 -0.17409921490E+03 -0.36229797231E+03 -0.12256433222E+04  0.12898728273E+04  0.00000000000E+00 0.  1.
<mgrwt>
<rscale>  0 0.35715844E+04</rscale>
<asrwt>0</asrwt>
<pdfrwt beam="1">  1        1 0.36845933E+00 0.35715844E+04</pdfrwt>
<pdfrwt beam="2">  1       -1 0.20485453E+00 0.35715844E+04</pdfrwt>
<totfact> 0.18099267E-01</totfact>
</mgrwt>
</event>
<event>
12    1  0.2404959E-007  0.2687333E+04  0.7818608E-02  0.8339127E-01
         -2   -1    0    0    0  501 -0.00000000000E+00  0.00000000000E+00  0.10683704054E+04  0.10683704054E+04  0.00000000000E+00 0.  1.
          2   -1    0    0  501    0  0.00000000000E+00 -0.00000000000E+00 -0.16899006699E+04  0.16899006699E+04  0.00000000000E+00 0. -1.
         23    2    1    2    0    0 -0.33995659417E+03  0.78133378714E+03  0.57855549366E+03  0.10339320219E+04  0.90752375790E+02 0.  0.
        254    2    1    2    0    0  0.33995659417E+03 -0.78133378714E+03 -0.12000857582E+04  0.17243390534E+04  0.89837985908E+03 0.  0.
        -24    2    4    4    0    0  0.19039541524E+03 -0.82397994921E+03 -0.46317297155E+03  0.96753353014E+03  0.79990996633E+02 0.  0.
         24    2    4    4    0    0  0.14956117894E+03  0.42646162063E+02 -0.73691278663E+03  0.75680552324E+03  0.74343147131E+02 0.  0.
         13    1    3    3    0    0 -0.16915651365E+03  0.28441193955E+03  0.24145995921E+03  0.40964251411E+03  0.00000000000E+00 0.  1.
        -13    1    3    3    0    0 -0.17080008052E+03  0.49692184760E+03  0.33709553445E+03  0.62428950774E+03  0.00000000000E+00 0. -1.
          2    1    6    6  502    0  0.65838028575E+02  0.12357604670E+02 -0.48537112643E+03  0.48997192447E+03  0.00000000000E+00 0. -1.
          1    1    5    5  503    0  0.24476267211E+02 -0.37618072355E+02 -0.35006112776E+02  0.56917791208E+02  0.00000000000E+00 0. -1.
         -2    1    5    5    0  503  0.16591914802E+03 -0.78636187685E+03 -0.42816685877E+03  0.91061573894E+03  0.00000000000E+00 0.  1.
         -1    1    6    6    0  502  0.83723150361E+02  0.30288557393E+02 -0.25154166021E+03  0.26683359877E+03  0.00000000000E+00 0.  1.
<mgrwt>
<rscale>  0 0.26873331E+04</rscale>
<asrwt>0</asrwt>
<pdfrwt beam="1">  1        2 0.25998472E+00 0.26873331E+04</pdfrwt>
<pdfrwt beam="2">  1       -2 0.16436468E+00 0.26873331E+04</pdfrwt>
<totfact> 0.20418449E+00</totfact>
</mgrwt>
</event>
<event>
12    1  0.2404959E-007  0.2523729E+04  0.7818608E-02  0.8394580E-01
          2   -1    0    0  501    0  0.00000000000E+00  0.00000000000E+00  0.21651977198E+04  0.21651977198E+04  0.00000000000E+00 0.  1.
         -2   -1    0    0    0  501 -0.00000000000E+00 -0.00000000000E+00 -0.73540716858E+03  0.73540716858E+03  0.00000000000E+00 0. -1.
         23    2    1    2    0    0  0.10557419448E+04  0.22413413456E+03  0.86535980355E+03  0.13863749725E+04  0.91437467727E+02 0.  0.
        254    2    1    2    0    0 -0.10557419448E+04 -0.22413413456E+03  0.56443074770E+03  0.15142299159E+04  0.89971273466E+03 0.  0.
        -24    2    4    4    0    0 -0.23603864484E+03 -0.47729949245E+03  0.15769619042E+03  0.56146582852E+03  0.82745034679E+02 0.  0.
         24    2    4    4    0    0 -0.81970329998E+03  0.25316535789E+03  0.40673455729E+03  0.95276408738E+03  0.79499733768E+02 0.  0.
         11    1    3    3    0    0  0.28178170689E+03  0.28490749498E+02  0.26050963420E+03  0.38480894305E+03  0.00000000000E+00 0. -1.
        -11    1    3    3    0    0  0.77396023794E+03  0.19564338506E+03  0.60485016935E+03  0.10015660295E+04  0.00000000000E+00 0.  1.
          4    1    6    6  502    0 -0.32753659600E+03  0.11884262187E+03  0.12640158767E+03  0.37064963491E+03  0.00000000000E+00 0. -1.
          3    1    5    5  503    0 -0.19035670624E+03 -0.42714285921E+03  0.15804110378E+03  0.49362302243E+03  0.00000000000E+00 0. -1.
         -4    1    5    5    0  503 -0.45681938604E+02 -0.50156633242E+02 -0.34491336675E+00  0.67842806089E+02  0.00000000000E+00 0.  1.
         -3    1    6    6    0  502 -0.49216670399E+03  0.13432273602E+03  0.28033296961E+03  0.58211445247E+03  0.00000000000E+00 0.  1.
<mgrwt>
<rscale>  0 0.25237289E+04</rscale>
<asrwt>0</asrwt>
<pdfrwt beam="1">  1        2 0.33310734E+00 0.25237289E+04</pdfrwt>
<pdfrwt beam="2">  1       -2 0.11313957E+00 0.25237289E+04</pdfrwt>
<totfact> 0.29500721E+00</totfact>
</mgrwt>
</event>
<event>
12    1  0.2404959E-007  0.2562770E+04  0.7818608E-02  0.8380958E-01
         -2   -1    0    0    0  501 -0.00000000000E+00  0.00000000000E+00  0.98413904030E+03  0.98413904030E+03  0.00000000000E+00 0.  1.
          2   -1    0    0  501    0  0.00000000000E+00 -0.00000000000E+00 -0.16684100587E+04  0.16684100587E+04  0.00000000000E+00 0. -1.
         23    2    1    2    0    0  0.51277641914E+03 -0.77255290236E+03  0.35215488575E+03  0.99584340484E+03  0.88957183147E+02 0.  0.
        254    2    1    2    0    0 -0.51277641914E+03  0.77255290236E+03 -0.10364259041E+04  0.16567056941E+04  0.90039850027E+03 0.  0.
        -24    2    4    4    0    0 -0.65550907019E+03  0.21634390818E+03 -0.42576478478E+03  0.81490451301E+03  0.79352918432E+02 0.  0.
         24    2    4    4    0    0  0.14273265105E+03  0.55620899418E+03 -0.61066111932E+03  0.84180118111E+03  0.77338030690E+02 0.  0.
         13    1    3    3    0    0  0.43863496679E+03 -0.60830036176E+03  0.30470517862E+03  0.80949071031E+03  0.00000000000E+00 0.  1.
        -13    1    3    3    0    0  0.74141452357E+02 -0.16425254060E+03  0.47449707127E+02  0.18635269453E+03  0.00000000000E+00 0. -1.
          2    1    6    6  502    0  0.31742345328E+02  0.26899651565E+03 -0.30557233260E+03  0.40833950625E+03  0.00000000000E+00 0. -1.
          3    1    5    5  503    0 -0.40668202048E+03  0.93407835564E+02 -0.25892776916E+03  0.49107930029E+03  0.00000000000E+00 0. -1.
         -4    1    5    5    0  503 -0.24882704971E+03  0.12293607262E+03 -0.16683701562E+03  0.32382521272E+03  0.00000000000E+00 0.  1.
         -1    1    6    6    0  502  0.11099030572E+03  0.28721247853E+03 -0.30508878672E+03  0.43346167486E+03  0.00000000000E+00 0.  1.
<mgrwt>
<rscale>  0 0.25627700E+04</rscale>
<asrwt>0</asrwt>
<pdfrwt beam="1">  1        2 0.25667847E+00 0.25627700E+04</pdfrwt>
<pdfrwt beam="2">  1       -2 0.15140601E+00 0.25627700E+04</pdfrwt>
<totfact> 0.26488860E+00</totfact>
</mgrwt>
</event>
<event>
12    1  0.2404959E-007  0.2058938E+04  0.7818608E-02  0.8579551E-01
          2   -1    0    0  501    0  0.00000000000E+00  0.00000000000E+00  0.12054355619E+04  0.12054355619E+04  0.00000000000E+00 0.  1.
         -2   -1    0    0    0  501 -0.00000000000E+00 -0.00000000000E+00 -0.87918927214E+03  0.87918927214E+03  0.00000000000E+00 0. -1.
         23    2    1    2    0    0  0.39007733095E+03  0.73144964253E+03  0.15799256493E+03  0.84850265241E+03  0.88409257956E+02 0.  0.
        254    2    1    2    0    0 -0.39007733095E+03 -0.73144964253E+03  0.16825372483E+03  0.12361221816E+04  0.90139327060E+03 0.  0.
        -24    2    4    4    0    0 -0.57150010312E+02 -0.42015986705E+03 -0.33998835187E+03  0.54872811415E+03  0.75564715963E+02 0.  0.
         24    2    4    4    0    0 -0.33292732063E+03 -0.31128977548E+03  0.50824207670E+03  0.68739406746E+03  0.80365852908E+02 0.  0.
         13    1    3    3    0    0  0.20544164033E+03  0.29596652331E+03  0.55707415499E+02  0.36456243175E+03  0.00000000000E+00 0.  1.
        -13    1    3    3    0    0  0.18463569062E+03  0.43548311923E+03  0.10228514943E+03  0.48394022066E+03  0.00000000000E+00 0. -1.
          4    1    6    6  502    0 -0.32267272725E+03 -0.27517931398E+03  0.45218892114E+03  0.61993238676E+03  0.00000000000E+00 0. -1.
          1    1    5    5  503    0 -0.69713988610E+02 -0.38681341949E+03 -0.32523786089E+03  0.51016108030E+03  0.00000000000E+00 0. -1.
         -2    1    5    5    0  503  0.12563978298E+02 -0.33346447563E+02 -0.14750490982E+02  0.38567033850E+02  0.00000000000E+00 0.  1.
         -3    1    6    6    0  502 -0.10254593386E+02 -0.36110461500E+02  0.56053155557E+02  0.67461680702E+02  0.00000000000E+00 0.  1.
<mgrwt>
<rscale>  0 0.20589376E+04</rscale>
<asrwt>0</asrwt>
<pdfrwt beam="1">  1        2 0.18545162E+00 0.20589376E+04</pdfrwt>
<pdfrwt beam="2">  1       -2 0.13525989E+00 0.20589376E+04</pdfrwt>
<totfact> 0.68249287E+00</totfact>
</mgrwt>
</event>
<event>
12    1  0.2404959E-007  0.1736859E+04  0.7818608E-02  0.8740617E-01
         -1   -1    0    0    0  501 -0.00000000000E+00  0.00000000000E+00  0.84371035793E+03  0.84371035793E+03  0.00000000000E+00 0.  1.
          1   -1    0    0  501    0  0.00000000000E+00 -0.00000000000E+00 -0.89387287084E+03  0.89387287084E+03  0.00000000000E+00 0. -1.
         23    2    1    2    0    0  0.32409470917E+03 -0.27339244657E+03  0.45064532257E+03  0.62525928560E+03  0.89928622369E+02 0.  0.
        254    2    1    2    0    0 -0.32409470917E+03  0.27339244657E+03 -0.50080783549E+03  0.11123239432E+04  0.89815102077E+03 0.  0.
        -24    2    4    4    0    0  0.54233160174E+02  0.49084054035E+03 -0.91280913825E+02  0.50842804821E+03  0.79380118819E+02 0.  0.
         24    2    4    4    0    0 -0.37832786935E+03 -0.21744809379E+03 -0.40952692166E+03  0.60389589496E+03  0.81008037681E+02 0.  0.
         13    1    3    3    0    0  0.14744448106E+03 -0.10564725397E+03  0.13283295830E+03  0.22482395797E+03  0.00000000000E+00 0. -1.
        -13    1    3    3    0    0  0.17665022811E+03 -0.16774519260E+03  0.31781236427E+03  0.40043532764E+03  0.00000000000E+00 0.  1.
          4    1    6    6  502    0 -0.14621093402E+02  0.31901094230E+01 -0.25638845127E+01  0.15183104893E+02  0.00000000000E+00 0. -1.
          1    1    5    5  503    0  0.22437712794E+02  0.26433851075E+02 -0.64570492889E+01  0.35268866208E+02  0.00000000000E+00 0. -1.
         -2    1    5    5    0  503  0.31795447381E+02  0.46440668928E+03 -0.84823864536E+02  0.47315918201E+03  0.00000000000E+00 0.  1.
         -3    1    6    6    0  502 -0.36370677595E+03 -0.22063820321E+03 -0.40696303715E+03  0.58871279007E+03  0.00000000000E+00 0.  1.
<mgrwt>
<rscale>  0 0.17368590E+04</rscale>
<asrwt>0</asrwt>
<pdfrwt beam="1">  1        1 0.13751890E+00 0.17368590E+04</pdfrwt>
<pdfrwt beam="2">  1       -1 0.12980159E+00 0.17368590E+04</pdfrwt>
<totfact> 0.88927022E+00</totfact>
</mgrwt>
</event>
<event>
12    1  0.2404959E-007  0.1116254E+04  0.7818608E-02  0.9189493E-01
         -1   -1    0    0    0  501 -0.00000000000E+00  0.00000000000E+00  0.45263908065E+03  0.45263908065E+03  0.00000000000E+00 0.  1.
          1   -1    0    0  501    0  0.00000000000E+00 -0.00000000000E+00 -0.68819942834E+03  0.68819942834E+03  0.00000000000E+00 0. -1.
         23    2    1    2    0    0  0.10199687110E+03 -0.47836187266E+02  0.96909437115E+02  0.17447997937E+03  0.91433919699E+02 0.  0.
        254    2    1    2    0    0 -0.10199687110E+03  0.47836187266E+02 -0.33246978480E+03  0.96635852963E+03  0.90034492693E+03 0.  0.
        -24    2    4    4    0    0  0.53693396630E+02  0.31589569015E+03  0.17019161612E+03  0.37120090239E+03  0.78433767244E+02 0.  0.
         24    2    4    4    0    0 -0.15569026773E+03 -0.26805950288E+03 -0.50266140092E+03  0.59515762724E+03  0.73815721426E+02 0.  0.
         11    1    3    3    0    0  0.41769492196E+01  0.89733402970E+01 -0.13280139109E+02  0.16562905410E+02  0.00000000000E+00 0. -1.
        -11    1    3    3    0    0  0.97819921878E+02 -0.56809527563E+02  0.11018957622E+03  0.15791707395E+03  0.00000000000E+00 0.  1.
          4    1    6    6  502    0 -0.51614213859E+02 -0.37106780474E+02 -0.77329768444E+02  0.10010411239E+03  0.00000000000E+00 0. -1.
          1    1    5    5  503    0  0.68004700294E+02  0.28375137093E+03  0.16617006438E+03  0.33578560133E+03  0.00000000000E+00 0. -1.
         -2    1    5    5    0  503 -0.14311303664E+02  0.32144319221E+02  0.40215517327E+01  0.35415301059E+02  0.00000000000E+00 0.  1.
         -3    1    6    6    0  502 -0.10407605387E+03 -0.23095272241E+03 -0.42533163248E+03  0.49505351485E+03  0.00000000000E+00 0.  1.
<mgrwt>
<rscale>  0 0.11162544E+04</rscale>
<asrwt>0</asrwt>
<pdfrwt beam="1">  1        1 0.10587684E+00 0.11162544E+04</pdfrwt>
<pdfrwt beam="2">  1       -1 0.69636782E-01 0.11162544E+04</pdfrwt>
<totfact> 0.58056350E+01</totfact>
</mgrwt>
</event>
<event>
12    1  0.2404959E-007  0.2298158E+04  0.7818608E-02  0.8478648E-01
         -1   -1    0    0    0  501 -0.00000000000E+00  0.00000000000E+00  0.85355923884E+03  0.85355923884E+03  0.00000000000E+00 0.  1.
          1   -1    0    0  501    0  0.00000000000E+00 -0.00000000000E+00 -0.15469134900E+04  0.15469134900E+04  0.00000000000E+00 0. -1.
         23    2    1    2    0    0  0.12785842021E+03 -0.62611577310E+02  0.70935996637E+03  0.72890898861E+03  0.88593264796E+02 0.  0.
        254    2    1    2    0    0 -0.12785842021E+03  0.62611577310E+02 -0.14027142175E+04  0.16715637402E+04  0.89791434802E+03 0.  0.
        -24    2    4    4    0    0 -0.18838887482E+03  0.41079790669E+03 -0.41465284361E+03  0.61918708161E+03  0.84913915397E+02 0.  0.
         24    2    4    4    0    0  0.60530454610E+02 -0.34818632938E+03 -0.98806137393E+03  0.10523766586E+04  0.79584527899E+02 0.  0.
         11    1    3    3    0    0  0.12517913205E+02 -0.48392992915E+02  0.26023536975E+03  0.26499250477E+03  0.00000000000E+00 0.  1.
        -11    1    3    3    0    0  0.11534050700E+03 -0.14218584395E+02  0.44912459661E+03  0.46391648384E+03  0.00000000000E+00 0. -1.
          4    1    6    6  502    0 -0.19133527512E+02 -0.48871040210E+02 -0.14876569762E+03  0.15775203084E+03  0.00000000000E+00 0. -1.
          1    1    5    5  503    0 -0.36520576565E+02  0.11508168735E+03 -0.66617575526E+02  0.13789651426E+03  0.00000000000E+00 0. -1.
         -2    1    5    5    0  503 -0.15186829825E+03  0.29571621934E+03 -0.34803526808E+03  0.48129056735E+03  0.00000000000E+00 0.  1.
         -3    1    6    6    0  502  0.79663982123E+02 -0.29931528917E+03 -0.83929567631E+03  0.89462462779E+03  0.00000000000E+00 0.  1.
<mgrwt>
<rscale>  0 0.22981578E+04</rscale>
<asrwt>0</asrwt>
<pdfrwt beam="1">  1        1 0.23798669E+00 0.22981578E+04</pdfrwt>
<pdfrwt beam="2">  1       -1 0.13131681E+00 0.22981578E+04</pdfrwt>
<totfact> 0.27129061E+00</totfact>
</mgrwt>
</event>
<event>
12    1  0.2404959E-007  0.1493390E+04  0.7818608E-02  0.8888861E-01
          2   -1    0    0  501    0  0.00000000000E+00  0.00000000000E+00  0.23623445395E+04  0.23623445395E+04  0.00000000000E+00 0. -1.
         -2   -1    0    0    0  501 -0.00000000000E+00 -0.00000000000E+00 -0.23601687068E+03  0.23601687068E+03  0.00000000000E+00 0.  1.
         23    2    1    2    0    0 -0.86267719576E+02  0.41773507153E+03  0.10263838580E+04  0.11153701311E+04  0.92962336391E+02 0.  0.
        254    2    1    2    0    0  0.86267719576E+02 -0.41773507153E+03  0.10999438109E+04  0.14829912791E+04  0.89857778597E+03 0.  0.
        -24    2    4    4    0    0 -0.31290356268E+03 -0.28240726629E+03  0.92520450905E+03  0.10198946214E+04  0.80741263623E+02 0.  0.
         24    2    4    4    0    0  0.39917128226E+03 -0.13532780524E+03  0.17473930181E+03  0.46309665768E+03  0.79204566220E+02 0.  0.
         13    1    3    3    0    0 -0.34210159568E+02  0.11703375216E+03  0.40723760359E+03  0.42509963531E+03  0.00000000000E+00 0. -1.
        -13    1    3    3    0    0 -0.52057560008E+02  0.30070131937E+03  0.61914625441E+03  0.69027049580E+03  0.00000000000E+00 0.  1.
          4    1    6    6  502    0  0.37929292439E+03 -0.13893793222E+03  0.17998486970E+03  0.44222327485E+03  0.00000000000E+00 0. -1.
          3    1    5    5  503    0 -0.29834087214E+03 -0.25390599821E+03  0.80154498948E+03  0.89216024462E+03  0.00000000000E+00 0. -1.
         -4    1    5    5    0  503 -0.14562690543E+02 -0.28501268079E+02  0.12365951956E+03  0.12773437680E+03  0.00000000000E+00 0.  1.
         -3    1    6    6    0  502  0.19878357868E+02  0.36101269771E+01 -0.52455678887E+01  0.20873382831E+02  0.00000000000E+00 0.  1.
<mgrwt>
<rscale>  0 0.14933897E+04</rscale>
<asrwt>0</asrwt>
<pdfrwt beam="1">  1        2 0.36343761E+00 0.14933897E+04</pdfrwt>
<pdfrwt beam="2">  1       -2 0.36310289E-01 0.14933897E+04</pdfrwt>
<totfact> 0.28884994E+01</totfact>
</mgrwt>
</event>
<event>
12    1  0.2404959E-007  0.2854424E+04  0.7818608E-02  0.8286568E-01
          1   -1    0    0  501    0  0.00000000000E+00  0.00000000000E+00  0.23393803710E+04  0.23393803710E+04  0.00000000000E+00 0. -1.
         -1   -1    0    0    0  501 -0.00000000000E+00 -0.00000000000E+00 -0.87071527745E+03  0.87071527745E+03  0.00000000000E+00 0.  1.
         23    2    1    2    0    0 -0.46277851216E+03  0.11314825865E+04  0.11083869066E+04  0.16526357059E+04  0.90920002647E+02 0.  0.
        254    2    1    2    0    0  0.46277851216E+03 -0.11314825865E+04  0.36027818703E+03  0.15574599426E+04  0.89524538856E+03 0.  0.
        -24    2    4    4    0    0 -0.63218244026E+02  0.11756099187E+03  0.64167356829E+02  0.16786061448E+03  0.79010145076E+02 0.  0.
         24    2    4    4    0    0  0.52599675619E+03 -0.12490435784E+04  0.29611083020E+03  0.13895993281E+04  0.80760266229E+02 0.  0.
         11    1    3    3    0    0 -0.35350508046E+03  0.87255586165E+03  0.80047985959E+03  0.12357538506E+04  0.00000000000E+00 0. -1.
        -11    1    3    3    0    0 -0.10927343170E+03  0.25892672489E+03  0.30790704696E+03  0.41688185533E+03  0.00000000000E+00 0.  1.
          2    1    6    6  502    0  0.17340240192E+03 -0.50499738117E+03  0.13258599216E+03  0.55015433588E+03  0.00000000000E+00 0. -1.
          3    1    5    5  503    0 -0.19286305924E+02  0.68255755498E+02 -0.63958282371E+01  0.71215983976E+02  0.00000000000E+00 0. -1.
         -4    1    5    5    0  503 -0.43931938102E+02  0.49305236372E+02  0.70563185067E+02  0.96644630507E+02  0.00000000000E+00 0.  1.
         -1    1    6    6    0  502  0.35259435427E+03 -0.74404619724E+03  0.16352483804E+03  0.83944499221E+03  0.00000000000E+00 0.  1.
<mgrwt>
<rscale>  0 0.28544241E+04</rscale>
<asrwt>0</asrwt>
<pdfrwt beam="1">  1        1 0.35990467E+00 0.28544241E+04</pdfrwt>
<pdfrwt beam="2">  1       -1 0.13395620E+00 0.28544241E+04</pdfrwt>
<totfact> 0.70792809E-01</totfact>
</mgrwt>
</event>
<event>
12    1  0.2404959E-007  0.2133342E+04  0.7818608E-02  0.8546696E-01
         -2   -1    0    0    0  501 -0.00000000000E+00  0.00000000000E+00  0.38033702669E+03  0.38033702669E+03  0.00000000000E+00 0.  1.
          2   -1    0    0  501    0  0.00000000000E+00 -0.00000000000E+00 -0.29915242485E+04  0.29915242485E+04  0.00000000000E+00 0. -1.
         23    2    1    2    0    0  0.22145421309E+03  0.33037624039E+03  0.15447491365E+03  0.43601106149E+03  0.89736938276E+02 0.  0.
        254    2    1    2    0    0 -0.22145421309E+03 -0.33037624039E+03 -0.27656621354E+04  0.29358502137E+04  0.90118755040E+03 0.  0.
        -24    2    4    4    0    0  0.18956507042E+03  0.20555789019E+03 -0.10746084874E+04  0.11131592516E+04  0.78429305273E+02 0.  0.
         24    2    4    4    0    0 -0.41101928351E+03 -0.53593413058E+03 -0.16910536480E+04  0.18226909621E+04  0.79860247909E+02 0.  0.
         11    1    3    3    0    0  0.45145611736E+02  0.67839156067E+02 -0.53714820041E+01  0.81664742539E+02  0.00000000000E+00 0. -1.
        -11    1    3    3    0    0  0.17630860135E+03  0.26253708432E+03  0.15984639565E+03  0.35434631895E+03  0.00000000000E+00 0.  1.
          2    1    6    6  502    0 -0.10978275197E+03 -0.15251866092E+03 -0.38063397315E+03  0.42449548416E+03  0.00000000000E+00 0. -1.
          3    1    5    5  503    0  0.19331854669E+02  0.37590423375E+02 -0.28537177280E+03  0.28848537094E+03  0.00000000000E+00 0. -1.
         -4    1    5    5    0  503  0.17023321575E+03  0.16796746681E+03 -0.78923671464E+03  0.82467388063E+03  0.00000000000E+00 0.  1.
         -1    1    6    6    0  502 -0.30123653154E+03 -0.38341546965E+03 -0.13104196748E+04  0.13981954779E+04  0.00000000000E+00 0.  1.
<mgrwt>
<rscale>  0 0.21333424E+04</rscale>
<asrwt>0</asrwt>
<pdfrwt beam="1">  1        2 0.46023449E+00 0.21333424E+04</pdfrwt>
<pdfrwt beam="2">  1       -2 0.58513389E-01 0.21333424E+04</pdfrwt>
<totfact> 0.44306317E+00</totfact>
</mgrwt>
</event>
<event>
12    1  0.2404959E-007  0.1919745E+04  0.7818608E-02  0.8645090E-01
          1   -1    0    0  501    0  0.00000000000E+00  0.00000000000E+00  0.72954139207E+03  0.72954139207E+03  0.00000000000E+00 0. -1.
         -1   -1    0    0    0  501 -0.00000000000E+00 -0.00000000000E+00 -0.12629240814E+04  0.12629240814E+04  0.00000000000E+00 0.  1.
         23    2    1    2    0    0 -0.24818922040E+02 -0.70501274740E+03  0.55188465467E+02  0.71369446881E+03  0.93032656668E+02 0.  0.
        254    2    1    2    0    0  0.24818922040E+02  0.70501274740E+03 -0.58857115479E+03  0.12787710047E+04  0.88948317871E+03 0.  0.
        -24    2    4    4    0    0  0.20793031199E+03  0.83236911743E+03 -0.58577854097E+03  0.10420690711E+04  0.81841845199E+02 0.  0.
         24    2    4    4    0    0 -0.18311138995E+03 -0.12735637003E+03 -0.27926138186E+01  0.23670193354E+03  0.79186997239E+02 0.  0.
         11    1    3    3    0    0 -0.14143292686E+02 -0.13508568190E+03 -0.24840894601E+02  0.13807695038E+03  0.00000000000E+00 0.  1.
        -11    1    3    3    0    0 -0.10675629354E+02 -0.56992706550E+03  0.80029360068E+02  0.57561751843E+03  0.00000000000E+00 0. -1.
          4    1    6    6  502    0 -0.12486012887E+03 -0.39243549152E+02 -0.60868868107E+01  0.13102350218E+03  0.00000000000E+00 0. -1.
          3    1    5    5  503    0  0.31199183853E+02  0.57049154075E+02 -0.28289165414E+02  0.70910309079E+02  0.00000000000E+00 0. -1.
         -4    1    5    5    0  503  0.17673112814E+03  0.77531996335E+03 -0.55748937556E+03  0.97115876204E+03  0.00000000000E+00 0.  1.
         -3    1    6    6    0  502 -0.58251261079E+02 -0.88112820875E+02  0.32942729921E+01  0.10567843136E+03  0.00000000000E+00 0.  1.
<mgrwt>
<rscale>  0 0.19197452E+04</rscale>
<asrwt>0</asrwt>
<pdfrwt beam="1">  1        1 0.11223714E+00 0.19197452E+04</pdfrwt>
<pdfrwt beam="2">  1       -1 0.19429601E+00 0.19197452E+04</pdfrwt>
<totfact> 0.39370666E+00</totfact>
</mgrwt>
</event>
<event>
12    1  0.2404959E-007  0.1568665E+04  0.7818608E-02  0.8840033E-01
         -3   -1    0    0    0  501 -0.00000000000E+00  0.00000000000E+00  0.14492273213E+04  0.14492273213E+04  0.00000000000E+00 0.  1.
          3   -1    0    0  501    0  0.00000000000E+00 -0.00000000000E+00 -0.42448661603E+03  0.42448661603E+03  0.00000000000E+00 0. -1.
         23    2    1    2    0    0  0.31655807515E+03  0.34369842994E+03  0.59675523301E+02  0.47981405809E+03  0.91229033584E+02 0.  0.
        254    2    1    2    0    0 -0.31655807515E+03 -0.34369842994E+03  0.96506518196E+03  0.13938998792E+04  0.89065618631E+03 0.  0.
        -24    2    4    4    0    0  0.31926481508E+02  0.22852818364E+03  0.37915890948E+02  0.24697805303E+03  0.79473976567E+02 0.  0.
         24    2    4    4    0    0 -0.34848455666E+03 -0.57222661358E+03  0.92714929101E+03  0.11469218262E+04  0.83301164969E+02 0.  0.
         13    1    3    3    0    0  0.24161287489E+03  0.25237282063E+03  0.44711609228E+01  0.34941209651E+03  0.00000000000E+00 0.  1.
        -13    1    3    3    0    0  0.74945200263E+02  0.91325609313E+02  0.55204362378E+02  0.13040196158E+03  0.00000000000E+00 0. -1.
          4    1    6    6  502    0 -0.84635814564E+02 -0.18383881138E+03  0.33246547611E+03  0.38922130271E+03  0.00000000000E+00 0. -1.
          1    1    5    5  503    0  0.12519231055E+02 -0.10843855781E+01  0.72707615219E+01  0.14517954794E+02  0.00000000000E+00 0. -1.
         -2    1    5    5    0  503  0.19407250454E+02  0.22961256922E+03  0.30645129426E+02  0.23246009823E+03  0.00000000000E+00 0.  1.
         -3    1    6    6    0  502 -0.26384874210E+03 -0.38838780220E+03  0.59468381489E+03  0.75770052349E+03  0.00000000000E+00 0.  1.
<mgrwt>
<rscale>  0 0.15686652E+04</rscale>
<asrwt>0</asrwt>
<pdfrwt beam="1">  1        3 0.65305634E-01 0.15686652E+04</pdfrwt>
<pdfrwt beam="2">  1       -3 0.22295805E+00 0.15686652E+04</pdfrwt>
<totfact> 0.60329585E-01</totfact>
</mgrwt>
</event>
<event>
12    1  0.2404959E-007  0.2930164E+04  0.7818608E-02  0.8263959E-01
         -2   -1    0    0    0  501 -0.00000000000E+00  0.00000000000E+00  0.69423238620E+03  0.69423238620E+03  0.00000000000E+00 0.  1.
          2   -1    0    0  501    0  0.00000000000E+00 -0.00000000000E+00 -0.30918549403E+04  0.30918549403E+04  0.00000000000E+00 0. -1.
         23    2    1    2    0    0 -0.11772052420E+04 -0.23929315947E+03 -0.36332379117E+03  0.12582127989E+04  0.89564903917E+02 0.  0.
        254    2    1    2    0    0  0.11772052420E+04  0.23929315947E+03 -0.20342987629E+04  0.25278745276E+04  0.89928014131E+03 0.  0.
        -24    2    4    4    0    0  0.82954018630E+03  0.56113960935E+03 -0.15415304222E+04  0.18398055096E+04  0.74523073863E+02 0.  0.
         24    2    4    4    0    0  0.34766505573E+03 -0.32184644988E+03 -0.49276834073E+03  0.68806901808E+03  0.78499730835E+02 0.  0.
         13    1    3    3    0    0 -0.55303363080E+03 -0.10306910653E+03 -0.12449472045E+03  0.57616696619E+03  0.00000000000E+00 0. -1.
        -13    1    3    3    0    0 -0.62417161123E+03 -0.13622405293E+03 -0.23882907072E+03  0.68204583269E+03  0.00000000000E+00 0.  1.
          4    1    6    6  502    0  0.19758542193E+03 -0.13080535211E+03 -0.23064716178E+03  0.33067832155E+03  0.00000000000E+00 0. -1.
          3    1    5    5  503    0  0.10602732088E+02  0.19563486496E+02 -0.28958707139E+02  0.36520605838E+02  0.00000000000E+00 0. -1.
         -4    1    5    5    0  503  0.81893745422E+03  0.54157612285E+03 -0.15125717151E+04  0.18032849037E+04  0.00000000000E+00 0.  1.
         -1    1    6    6    0  502  0.15007963379E+03 -0.19104109777E+03 -0.26212117894E+03  0.35739069653E+03  0.00000000000E+00 0.  1.
<mgrwt>
<rscale>  0 0.29301644E+04</rscale>
<asrwt>0</asrwt>
<pdfrwt beam="1">  1        2 0.47566999E+00 0.29301644E+04</pdfrwt>
<pdfrwt beam="2">  1       -2 0.10680498E+00 0.29301644E+04</pdfrwt>
<totfact> 0.92456110E-01</totfact>
</mgrwt>
</event>
<event>
12    1  0.2404959E-007  0.1329799E+04  0.7818608E-02  0.9006263E-01
         -2   -1    0    0    0  501 -0.00000000000E+00  0.00000000000E+00  0.12313874924E+03  0.12313874924E+03  0.00000000000E+00 0.  1.
          2   -1    0    0  501    0  0.00000000000E+00 -0.00000000000E+00 -0.35901874081E+04  0.35901874081E+04  0.00000000000E+00 0. -1.
         23    2    1    2    0    0 -0.29908701569E+03  0.82217430133E+00 -0.14618785187E+04  0.14949921301E+04  0.91972531653E+02 0.  0.
        254    2    1    2    0    0  0.29908701569E+03 -0.82217430133E+00 -0.20051701401E+04  0.22183340273E+04  0.90046923696E+03 0.  0.
        -24    2    4    4    0    0 -0.28651271716E+03  0.55286221725E+02 -0.36790788777E+03  0.47676254969E+03  0.82463394896E+02 0.  0.
         24    2    4    4    0    0  0.58559973284E+03 -0.56108396026E+02 -0.16372622524E+04  0.17415714776E+04  0.79801812504E+02 0.  0.
         11    1    3    3    0    0 -0.14189591105E+03  0.36903536313E+02 -0.56409461998E+03  0.58283707917E+03  0.00000000000E+00 0.  1.
        -11    1    3    3    0    0 -0.15719110464E+03 -0.36081362012E+02 -0.89778389872E+03  0.91215505089E+03  0.00000000000E+00 0. -1.
          4    1    6    6  502    0  0.57444144776E+03 -0.57567578555E+02 -0.15581782961E+04  0.16616908874E+04  0.00000000000E+00 0. -1.
          1    1    5    5  503    0 -0.27924356134E+03  0.61939527443E+02 -0.32591508168E+03  0.43362900281E+03  0.00000000000E+00 0. -1.
         -2    1    5    5    0  503 -0.72691558179E+01 -0.66533057184E+01 -0.41992806092E+02  0.43133546884E+02  0.00000000000E+00 0.  1.
         -3    1    6    6    0  502  0.11158285080E+02  0.14591825288E+01 -0.79083956304E+02  0.79880590160E+02  0.00000000000E+00 0.  1.
<mgrwt>
<rscale>  0 0.13297988E+04</rscale>
<asrwt>0</asrwt>
<pdfrwt beam="1">  1        2 0.55233649E+00 0.13297988E+04</pdfrwt>
<pdfrwt beam="2">  1       -2 0.18944424E-01 0.13297988E+04</pdfrwt>
<totfact> 0.16487296E+01</totfact>
</mgrwt>
</event>
<event>
12    1  0.2404959E-007  0.3918063E+04  0.7818608E-02  0.8021283E-01
          1   -1    0    0  501    0  0.00000000000E+00  0.00000000000E+00  0.35122765432E+04  0.35122765432E+04  0.00000000000E+00 0. -1.
         -1   -1    0    0    0  501 -0.00000000000E+00 -0.00000000000E+00 -0.10926829289E+04  0.10926829289E+04  0.00000000000E+00 0.  1.
         23    2    1    2    0    0  0.92521841372E+03 -0.15966375422E+04  0.93499558063E+03  0.20707225103E+04  0.91621092667E+02 0.  0.
        254    2    1    2    0    0 -0.92521841372E+03  0.15966375422E+04  0.14845980336E+04  0.25342369618E+04  0.90169013681E+03 0.  0.
        -24    2    4    4    0    0  0.11758327271E+03  0.52093250713E+03  0.26768097946E+03  0.60245721862E+03  0.78135078564E+02 0.  0.
         24    2    4    4    0    0 -0.10428016864E+04  0.10757050350E+04  0.12169170542E+04  0.19317797432E+04  0.79430344945E+02 0.  0.
         13    1    3    3    0    0  0.19309322663E+03 -0.40764495588E+03  0.21437066402E+03  0.49941384223E+03  0.00000000000E+00 0. -1.
        -13    1    3    3    0    0  0.73212518710E+03 -0.11889925863E+04  0.72062491661E+03  0.15713086681E+04  0.00000000000E+00 0.  1.
          4    1    6    6  502    0 -0.22998730478E+03  0.28262126249E+03  0.27934824845E+03  0.45913438369E+03  0.00000000000E+00 0. -1.
          1    1    5    5  503    0  0.18947513391E+02  0.49067664294E+02  0.34140177652E+01  0.52709576552E+02  0.00000000000E+00 0. -1.
         -2    1    5    5    0  503  0.98635759314E+02  0.47186484284E+03  0.26426696169E+03  0.54974764207E+03  0.00000000000E+00 0.  1.
         -3    1    6    6    0  502 -0.81281438165E+03  0.79308377256E+03  0.93756880573E+03  0.14726453595E+04  0.00000000000E+00 0.  1.
<mgrwt>
<rscale>  0 0.39180631E+04</rscale>
<asrwt>0</asrwt>
<pdfrwt beam="1">  1        1 0.54035023E+00 0.39180631E+04</pdfrwt>
<pdfrwt beam="2">  1       -1 0.16810507E+00 0.39180631E+04</pdfrwt>
<totfact> 0.48848535E-02</totfact>
</mgrwt>
</event>
<event>
12    1  0.2404959E-007  0.3847476E+04  0.7818608E-02  0.8036043E-01
          2   -1    0    0  501    0  0.00000000000E+00  0.00000000000E+00  0.18493763419E+04  0.18493763419E+04  0.00000000000E+00 0. -1.
         -2   -1    0    0    0  501 -0.00000000000E+00 -0.00000000000E+00 -0.20010893851E+04  0.20010893851E+04  0.00000000000E+00 0.  1.
         23    2    1    2    0    0  0.10489718910E+04 -0.19887519061E+03 -0.15434085935E+04  0.18789124147E+04  0.91150457432E+02 0.  0.
        254    2    1    2    0    0 -0.10489718910E+04  0.19887519061E+03  0.13916955502E+04  0.19715533123E+04  0.90017364386E+03 0.  0.
        -24    2    4    4    0    0 -0.32648005166E+03  0.47532530020E+03  0.37836196441E+03  0.69423093254E+03  0.79217715503E+02 0.  0.
         24    2    4    4    0    0 -0.72249183938E+03 -0.27645010959E+03  0.10133335858E+04  0.12773223798E+04  0.79299335569E+02 0.  0.
         11    1    3    3    0    0  0.67443571312E+03 -0.14881718854E+03 -0.92896872964E+03  0.11575806613E+04  0.00000000000E+00 0. -1.
        -11    1    3    3    0    0  0.37453617791E+03 -0.50058002067E+02 -0.61443986385E+03  0.72133175337E+03  0.00000000000E+00 0.  1.
          4    1    6    6  502    0 -0.11751850186E+03 -0.77207912039E+02  0.19034883337E+03  0.23665235753E+03  0.00000000000E+00 0. -1.
          3    1    5    5  503    0 -0.10529568250E+03  0.13834179623E+03  0.15755990895E+03  0.23462897998E+03  0.00000000000E+00 0. -1.
         -4    1    5    5    0  503 -0.22118436916E+03  0.33698350397E+03  0.22080205546E+03  0.45960195256E+03  0.00000000000E+00 0.  1.
         -3    1    6    6    0  502 -0.60497333752E+03 -0.19924219755E+03  0.82298475246E+03  0.10406700222E+04  0.00000000000E+00 0.  1.
<mgrwt>
<rscale>  0 0.38474757E+04</rscale>
<asrwt>0</asrwt>
<pdfrwt beam="1">  1        2 0.28451944E+00 0.38474757E+04</pdfrwt>
<pdfrwt beam="2">  1       -2 0.30785991E+00 0.38474757E+04</pdfrwt>
<totfact> 0.18403297E-01</totfact>
</mgrwt>
</event>
<event>
12    1  0.2404959E-007  0.2027302E+04  0.7818608E-02  0.8593962E-01
         -2   -1    0    0    0  501 -0.00000000000E+00  0.00000000000E+00  0.52268677582E+03  0.52268677582E+03  0.00000000000E+00 0.  1.
          2   -1    0    0  501    0  0.00000000000E+00 -0.00000000000E+00 -0.19657818225E+04  0.19657818225E+04  0.00000000000E+00 0. -1.
         23    2    1    2    0    0 -0.80698504954E+02  0.79853300514E+03 -0.44461106935E+03  0.92226831261E+03  0.93448533712E+02 0.  0.
        254    2    1    2    0    0  0.80698504954E+02 -0.79853300514E+03 -0.99848397736E+03  0.15662002857E+04  0.90102490143E+03 0.  0.
        -24    2    4    4    0    0 -0.34210196458E+03 -0.51775206297E+03 -0.80030522868E+03  0.10157848598E+04  0.78926988382E+02 0.  0.
         24    2    4    4    0    0  0.42280046953E+03 -0.28078094218E+03 -0.19817874868E+03  0.55041542592E+03  0.78000962454E+02 0.  0.
         13    1    3    3    0    0  0.13908548510E+02  0.31345459790E+03 -0.16813098834E+03  0.35597087227E+03  0.00000000000E+00 0. -1.
        -13    1    3    3    0    0 -0.94607053464E+02  0.48507840725E+03 -0.27648008100E+03  0.56629744034E+03  0.00000000000E+00 0.  1.
          2    1    6    6  502    0  0.12206704861E+03 -0.12030979136E+03 -0.48418485570E+02  0.17809873666E+03  0.00000000000E+00 0. -1.
          3    1    5    5  503    0 -0.27117126749E+02 -0.12128597420E+02 -0.33478709940E+02  0.44757853587E+02  0.00000000000E+00 0. -1.
         -4    1    5    5    0  503 -0.31498483783E+03 -0.50562346555E+03 -0.76682651874E+03  0.97102700623E+03  0.00000000000E+00 0.  1.
         -1    1    6    6    0  502  0.30073342092E+03 -0.16047115082E+03 -0.14976026311E+03  0.37231668927E+03  0.00000000000E+00 0.  1.
<mgrwt>
<rscale>  0 0.20273018E+04</rscale>
<asrwt>0</asrwt>
<pdfrwt beam="1">  1        2 0.30242797E+00 0.20273018E+04</pdfrwt>
<pdfrwt beam="2">  1       -2 0.80413352E-01 0.20273018E+04</pdfrwt>
<totfact> 0.88409306E+00</totfact>
</mgrwt>
</event>
<event>
12    1  0.2404959E-007  0.2463811E+04  0.7818608E-02  0.8415993E-01
          1   -1    0    0  501    0  0.00000000000E+00  0.00000000000E+00  0.84078012568E+03  0.84078012568E+03  0.00000000000E+00 0. -1.
         -1   -1    0    0    0  501 -0.00000000000E+00 -0.00000000000E+00 -0.18049791161E+04  0.18049791161E+04  0.00000000000E+00 0.  1.
         23    2    1    2    0    0 -0.88398492575E+03 -0.54784849376E+03 -0.66471802970E+03  0.12375858489E+04  0.90561322934E+02 0.  0.
        254    2    1    2    0    0  0.88398492575E+03  0.54784849376E+03 -0.29948096070E+03  0.14081733929E+04  0.90094180591E+03 0.  0.
        -24    2    4    4    0    0 -0.65078504561E+01 -0.18558604335E+03  0.31911867876E+02  0.20517792281E+03  0.81210104618E+02 0.  0.
         24    2    4    4    0    0  0.89049277620E+03  0.73343453711E+03 -0.33139282858E+03  0.12029954701E+04  0.80456755927E+02 0.  0.
         13    1    3    3    0    0 -0.58325878458E+03 -0.40063161113E+03 -0.41996003176E+03  0.82283833521E+03  0.00000000000E+00 0. -1.
        -13    1    3    3    0    0 -0.30072614117E+03 -0.14721688263E+03 -0.24475799794E+03  0.41474751364E+03  0.00000000000E+00 0.  1.
          2    1    6    6  502    0  0.42847851289E+03  0.31815583859E+03 -0.12214597515E+03  0.54748206627E+03  0.00000000000E+00 0. -1.
          1    1    5    5  503    0 -0.23193888750E+02 -0.83932223588E+02 -0.20702503447E+02  0.89505129913E+02  0.00000000000E+00 0. -1.
         -2    1    5    5    0  503  0.16686038293E+02 -0.10165381976E+03  0.52614371323E+02  0.11567279289E+03  0.00000000000E+00 0.  1.
         -1    1    6    6    0  502  0.46201426331E+03  0.41527869852E+03 -0.20924685343E+03  0.65551340384E+03  0.00000000000E+00 0.  1.
<mgrwt>
<rscale>  0 0.24638105E+04</rscale>
<asrwt>0</asrwt>
<pdfrwt beam="1">  1        1 0.12935079E+00 0.24638105E+04</pdfrwt>
<pdfrwt beam="2">  1       -1 0.27768910E+00 0.24638105E+04</pdfrwt>
<totfact> 0.83717772E-01</totfact>
</mgrwt>
</event>
<event>
12    1  0.2404959E-007  0.1328283E+04  0.7818608E-02  0.9007432E-01
         -2   -1    0    0    0  501 -0.00000000000E+00  0.00000000000E+00  0.12360057274E+03  0.12360057274E+03  0.00000000000E+00 0.  1.
          2   -1    0    0  501    0  0.00000000000E+00 -0.00000000000E+00 -0.35686250963E+04  0.35686250963E+04  0.00000000000E+00 0. -1.
         23    2    1    2    0    0  0.22400181779E+03 -0.22283324098E+03 -0.13394836976E+04  0.13793738389E+04  0.92866267731E+02 0.  0.
        254    2    1    2    0    0 -0.22400181779E+03  0.22283324098E+03 -0.21055408260E+04  0.23128518302E+04  0.90341017852E+03 0.  0.
        -24    2    4    4    0    0  0.30841140445E+03  0.18523044634E+03 -0.51608265650E+03  0.63426849316E+03  0.80791710183E+02 0.  0.
         24    2    4    4    0    0 -0.53241322224E+03  0.37602794644E+02 -0.15894581695E+04  0.16785833370E+04  0.79918316218E+02 0.  0.
         13    1    3    3    0    0  0.39158435340E+01  0.84774162026E+01 -0.25529832149E+02  0.27184053149E+02  0.00000000000E+00 0. -1.
        -13    1    3    3    0    0  0.22008597426E+03 -0.23131065719E+03 -0.13139538654E+04  0.13521897858E+04  0.00000000000E+00 0.  1.
          2    1    6    6  502    0 -0.34675622397E+03  0.20718957700E+02 -0.11472022190E+04  0.11986417669E+04  0.00000000000E+00 0. -1.
          1    1    5    5  503    0  0.24544849012E+03  0.17816250338E+03 -0.39953574433E+03  0.50161304798E+03  0.00000000000E+00 0. -1.
         -2    1    5    5    0  503  0.62962914329E+02  0.70679429563E+01 -0.11654691217E+03  0.13265544518E+03  0.00000000000E+00 0.  1.
         -1    1    6    6    0  502 -0.18565699827E+03  0.16883836944E+02 -0.44225595051E+03  0.47994157011E+03  0.00000000000E+00 0.  1.
<mgrwt>
<rscale>  0 0.13282833E+04</rscale>
<asrwt>0</asrwt>
<pdfrwt beam="1">  1        2 0.54901917E+00 0.13282833E+04</pdfrwt>
<pdfrwt beam="2">  1       -2 0.19015475E-01 0.13282833E+04</pdfrwt>
<totfact> 0.16966757E+01</totfact>
</mgrwt>
</event>
<event>
12    1  0.2404959E-007  0.2541345E+04  0.7818608E-02  0.8388402E-01
          2   -1    0    0  501    0  0.00000000000E+00  0.00000000000E+00  0.15603098064E+04  0.15603098064E+04  0.00000000000E+00 0. -1.
         -2   -1    0    0    0  501 -0.00000000000E+00 -0.00000000000E+00 -0.10348003893E+04  0.10348003893E+04  0.00000000000E+00 0.  1.
         23    2    1    2    0    0  0.10654727257E+04 -0.30029627955E+03  0.30196482764E+03  0.11512183842E+04  0.93332879043E+02 0.  0.
        254    2    1    2    0    0 -0.10654727257E+04  0.30029627955E+03  0.22354458941E+03  0.14438918116E+04  0.89968961057E+03 0.  0.
        -24    2    4    4    0    0 -0.74703892375E+03  0.61471358234E+03  0.12927495309E+03  0.97921672705E+03  0.78825396353E+02 0.  0.
         24    2    4    4    0    0 -0.31843380192E+03 -0.31441730279E+03  0.94269636316E+02  0.46467508451E+03  0.82327658360E+02 0.  0.
         11    1    3    3    0    0  0.47365778099E+03 -0.14100327070E+03  0.18240516336E+03  0.52678767967E+03  0.00000000000E+00 0. -1.
        -11    1    3    3    0    0  0.59181494468E+03 -0.15929300885E+03  0.11955966428E+03  0.62443070452E+03  0.00000000000E+00 0.  1.
          4    1    6    6  502    0 -0.21634151342E+03 -0.23763532398E+03  0.33165386848E+02  0.32306986940E+03  0.00000000000E+00 0. -1.
          1    1    5    5  503    0 -0.53437681378E+03  0.39666298058E+03  0.73294391571E+02  0.66953130406E+03  0.00000000000E+00 0. -1.
         -2    1    5    5    0  503 -0.21266210997E+03  0.21805060176E+03  0.55980561522E+02  0.30968542299E+03  0.00000000000E+00 0.  1.
         -3    1    6    6    0  502 -0.10209228850E+03 -0.76781978812E+02  0.61104249468E+02  0.14160521510E+03  0.00000000000E+00 0.  1.
<mgrwt>
<rscale>  0 0.25413455E+04</rscale>
<asrwt>0</asrwt>
<pdfrwt beam="1">  1        2 0.24004766E+00 0.25413455E+04</pdfrwt>
<pdfrwt beam="2">  1       -2 0.15920006E+00 0.25413455E+04</pdfrwt>
<totfact> 0.26647261E+00</totfact>
</mgrwt>
</event>
<event>
12    1  0.2404959E-007  0.4335542E+04  0.7818608E-02  0.7940079E-01
         -2   -1    0    0    0  501 -0.00000000000E+00  0.00000000000E+00  0.26641796828E+04  0.26641796828E+04  0.00000000000E+00 0.  1.
          2   -1    0    0  501    0  0.00000000000E+00 -0.00000000000E+00 -0.17638568155E+04  0.17638568155E+04  0.00000000000E+00 0. -1.
         23    2    1    2    0    0 -0.15740006670E+04 -0.13422083749E+04  0.57064296083E+03  0.21478116169E+04  0.91977886696E+02 0.  0.
        254    2    1    2    0    0  0.15740006670E+04  0.13422083749E+04  0.32967990648E+03  0.22802248814E+04  0.90096351064E+03 0.  0.
        -24    2    4    4    0    0  0.28571187111E+03  0.72601621330E+03 -0.90765996306E+02  0.78943816474E+03  0.79014774512E+02 0.  0.
         24    2    4    4    0    0  0.12882887959E+04  0.61619216159E+03  0.42044590279E+03  0.14907867166E+04  0.79306214682E+02 0.  0.
         11    1    3    3    0    0 -0.10905683841E+04 -0.89922541586E+03  0.35249507491E+03  0.14567767594E+04  0.00000000000E+00 0.  1.
        -11    1    3    3    0    0 -0.48343228284E+03 -0.44298295903E+03  0.21814788591E+03  0.69103485745E+03  0.00000000000E+00 0. -1.
          2    1    6    6  502    0  0.62138180686E+03  0.34056564954E+03  0.21509480864E+03  0.74051744629E+03  0.00000000000E+00 0. -1.
          1    1    5    5  503    0  0.34171535173E+02  0.79065897744E+02 -0.35326685590E+02  0.93097178888E+02  0.00000000000E+00 0. -1.
         -2    1    5    5    0  503  0.25154033594E+03  0.64695031556E+03 -0.55439310716E+02  0.69634098585E+03  0.00000000000E+00 0.  1.
         -1    1    6    6    0  502  0.66690698901E+03  0.27562651205E+03  0.20535109415E+03  0.75026927033E+03  0.00000000000E+00 0.  1.
<mgrwt>
<rscale>  0 0.43355422E+04</rscale>
<asrwt>0</asrwt>
<pdfrwt beam="1">  1        2 0.27136259E+00 0.43355422E+04</pdfrwt>
<pdfrwt beam="2">  1       -2 0.40987380E+00 0.43355422E+04</pdfrwt>
<totfact> 0.44367144E-02</totfact>
</mgrwt>
</event>
<event>
12    1  0.3209320E-007  0.2393562E+04  0.7818608E-02  0.8441918E-01
          2   -1    0    0  501    0  0.00000000000E+00  0.00000000000E+00  0.28360759102E+04  0.28360759102E+04  0.00000000000E+00 0. -1.
         -2   -1    0    0    0  501 -0.00000000000E+00 -0.00000000000E+00 -0.50502344913E+03  0.50502344913E+03  0.00000000000E+00 0.  1.
         23    2    1    2    0    0  0.80562898107E+03 -0.28792850260E+03  0.17920180674E+04  0.19878614531E+04  0.91233354946E+02 0.  0.
        254    2    1    2    0    0 -0.80562898107E+03  0.28792850260E+03  0.53903439369E+03  0.13532379062E+04  0.89930744218E+03 0.  0.
        -24    2    4    4    0    0 -0.62019270400E+03  0.22564791281E+03  0.78508846691E+03  0.10288043792E+04  0.80737718833E+02 0.  0.
         24    2    4    4    0    0 -0.18543627708E+03  0.62280589790E+02 -0.24605407322E+03  0.32443352700E+03  0.80305801595E+02 0.  0.
         11    1    3    3    0    0  0.54027396459E+03 -0.23800015305E+03  0.12316538549E+04  0.13658371967E+04  0.00000000000E+00 0.  1.
        -11    1    3    3    0    0  0.26535501649E+03 -0.49928349550E+02  0.56036421254E+03  0.62202425641E+03  0.00000000000E+00 0. -1.
          4    1    6    6  502    0 -0.18381187703E+03  0.69161503444E+02 -0.24869169711E+03  0.31688748777E+03  0.00000000000E+00 0. -1.
          1    1    5    5  503    0 -0.61183634750E+03  0.22888807279E+03  0.76000711599E+03  0.10021697872E+04  0.00000000000E+00 0. -1.
         -2    1    5    5    0  503 -0.83563564967E+01 -0.32401599786E+01  0.25081350921E+02  0.26634592068E+02  0.00000000000E+00 0.  1.
         -3    1    6    6    0  502 -0.16244000465E+01 -0.68809136541E+01  0.26376238856E+01  0.75460392252E+01  0.00000000000E+00 0.  1.
<mgrwt>
<rscale>  0 0.23935621E+04</rscale>
<asrwt>0</asrwt>
<pdfrwt beam="1">  1        2 0.43631936E+00 0.23935621E+04</pdfrwt>
<pdfrwt beam="2">  1       -2 0.77695917E-01 0.23935621E+04</pdfrwt>
<totfact> 0.29202577E+00</totfact>
</mgrwt>
</event>
<event>
12    1  0.2404959E-007  0.1821290E+04  0.7818608E-02  0.8695059E-01
          2   -1    0    0  501    0  0.00000000000E+00  0.00000000000E+00  0.22108038482E+04  0.22108038482E+04  0.00000000000E+00 0.  1.
         -2   -1    0    0    0  501 -0.00000000000E+00 -0.00000000000E+00 -0.37510062925E+03  0.37510062925E+03  0.00000000000E+00 0. -1.
         23    2    1    2    0    0 -0.44130789063E+03  0.27468240837E+03  0.13324773977E+04  0.14331755145E+04  0.91065691037E+02 0.  0.
        254    2    1    2    0    0  0.44130789063E+03 -0.27468240837E+03  0.50322582128E+03  0.11527289630E+04  0.89741002622E+03 0.  0.
        -24    2    4    4    0    0  0.18534659772E+03 -0.30730716791E+03  0.71866801939E+03  0.80691933264E+03  0.76446259378E+02 0.  0.
         24    2    4    4    0    0  0.25596129291E+03  0.32624759540E+02 -0.21544219811E+03  0.34580963037E+03  0.81168967756E+02 0.  0.
         13    1    3    3    0    0 -0.28299490669E+03  0.22355127083E+03  0.87633181848E+03  0.94763850913E+03  0.00000000000E+00 0. -1.
        -13    1    3    3    0    0 -0.15831298394E+03  0.51131137535E+02  0.45614557923E+03  0.48553700535E+03  0.00000000000E+00 0.  1.
          2    1    6    6  502    0  0.20498094799E+03  0.51798330423E+02 -0.14328450183E+03  0.25540302375E+03  0.00000000000E+00 0. -1.
          3    1    5    5  503    0  0.26761350331E+02 -0.17847484953E+02  0.33747632006E+02  0.46621939650E+02  0.00000000000E+00 0. -1.
         -4    1    5    5    0  503  0.15858524739E+03 -0.28945968295E+03  0.68492038738E+03  0.76029739299E+03  0.00000000000E+00 0.  1.
         -1    1    6    6    0  502  0.50980344915E+02 -0.19173570883E+02 -0.72157696281E+02  0.90406606620E+02  0.00000000000E+00 0.  1.
<mgrwt>
<rscale>  0 0.18212896E+04</rscale>
<asrwt>0</asrwt>
<pdfrwt beam="1">  1        2 0.34012366E+00 0.18212896E+04</pdfrwt>
<pdfrwt beam="2">  1       -2 0.57707790E-01 0.18212896E+04</pdfrwt>
<totfact> 0.13496914E+01</totfact>
</mgrwt>
</event>
<event>
12    1  0.2404959E-007  0.3122640E+04  0.7818608E-02  0.8209552E-01
         -1   -1    0    0    0  501 -0.00000000000E+00  0.00000000000E+00  0.18039053588E+04  0.18039053588E+04  0.00000000000E+00 0.  1.
          1   -1    0    0  501    0  0.00000000000E+00 -0.00000000000E+00 -0.13513569556E+04  0.13513569556E+04  0.00000000000E+00 0. -1.
         23    2    1    2    0    0  0.59118665758E+03 -0.84795968698E+03 -0.79057739769E+03  0.13045517040E+04  0.91133043993E+02 0.  0.
        254    2    1    2    0    0 -0.59118665758E+03  0.84795968698E+03  0.12431258009E+04  0.18507106105E+04  0.90068346940E+03 0.  0.
        -24    2    4    4    0    0 -0.60819343566E+03  0.11682783120E+03  0.45545814638E+03  0.77290668884E+03  0.79966425635E+02 0.  0.
         24    2    4    4    0    0  0.17006778082E+02  0.73113185579E+03  0.78766765451E+03  0.10778039216E+04  0.79987114486E+02 0.  0.
         11    1    3    3    0    0  0.15675626391E+03 -0.23457251637E+03 -0.26771843763E+03  0.38893438207E+03  0.00000000000E+00 0. -1.
        -11    1    3    3    0    0  0.43443039367E+03 -0.61338717061E+03 -0.52285896005E+03  0.91561732188E+03  0.00000000000E+00 0.  1.
          2    1    6    6  502    0 -0.18342749871E+02  0.52776756925E+03  0.59331951188E+03  0.79429409340E+03  0.00000000000E+00 0. -1.
          1    1    5    5  503    0 -0.15796737338E+03 -0.49021088154E+01  0.11785092418E+03  0.19714604245E+03  0.00000000000E+00 0. -1.
         -2    1    5    5    0  503 -0.45022606229E+03  0.12172994001E+03  0.33760722220E+03  0.57576064639E+03  0.00000000000E+00 0.  1.
         -3    1    6    6    0  502  0.35349527953E+02  0.20336428653E+03  0.19434814263E+03  0.28350982824E+03  0.00000000000E+00 0.  1.
<mgrwt>
<rscale>  0 0.31226399E+04</rscale>
<asrwt>0</asrwt>
<pdfrwt beam="1">  1        1 0.20790107E+00 0.31226399E+04</pdfrwt>
<pdfrwt beam="2">  1       -1 0.27752390E+00 0.31226399E+04</pdfrwt>
<totfact> 0.32337283E-01</totfact>
</mgrwt>
</event>
<event>
12    1  0.2404959E-007  0.3389566E+04  0.7818608E-02  0.8140472E-01
          2   -1    0    0  501    0  0.00000000000E+00  0.00000000000E+00  0.22234566297E+04  0.22234566297E+04  0.00000000000E+00 0. -1.
         -2   -1    0    0    0  501 -0.00000000000E+00 -0.00000000000E+00 -0.12918123341E+04  0.12918123341E+04  0.00000000000E+00 0.  1.
         23    2    1    2    0    0 -0.14486331194E+04  0.48735751765E+03  0.44916419535E+02  0.15317390910E+04  0.90287836991E+02 0.  0.
        254    2    1    2    0    0  0.14486331194E+04 -0.48735751765E+03  0.88672787604E+03  0.19835298729E+04  0.90113770647E+03 0.  0.
        -24    2    4    4    0    0  0.10201232472E+04 -0.71612471104E+03  0.80324662642E+03  0.14845406643E+04  0.71901319699E+02 0.  0.
         24    2    4    4    0    0  0.42850987217E+03  0.22876719339E+03  0.83481249622E+02  0.49898920864E+03  0.77884350044E+02 0.  0.
         11    1    3    3    0    0 -0.47587022958E+03  0.18461539057E+03  0.50704468213E+02  0.51293884717E+03  0.00000000000E+00 0.  1.
        -11    1    3    3    0    0 -0.97276288978E+03  0.30274212708E+03 -0.57880486783E+01  0.10188002438E+04  0.00000000000E+00 0. -1.
          2    1    6    6  502    0  0.61596175921E+02  0.82565912064E+01  0.24780737982E+02  0.66905494254E+02  0.00000000000E+00 0. -1.
          1    1    5    5  503    0  0.33698599165E+03 -0.26280339644E+03  0.30701361047E+03  0.52619629490E+03  0.00000000000E+00 0. -1.
         -4    1    5    5    0  503  0.68313725554E+03 -0.45332131460E+03  0.49623301595E+03  0.95834436937E+03  0.00000000000E+00 0.  1.
         -1    1    6    6    0  502  0.36691369625E+03  0.22051060218E+03  0.58700511640E+02  0.43208371438E+03  0.00000000000E+00 0.  1.
<mgrwt>
<rscale>  0 0.33895656E+04</rscale>
<asrwt>0</asrwt>
<pdfrwt beam="1">  1        2 0.34207025E+00 0.33895656E+04</pdfrwt>
<pdfrwt beam="2">  1       -2 0.19874036E+00 0.33895656E+04</pdfrwt>
<totfact> 0.56302706E-01</totfact>
</mgrwt>
</event>
<event>
12    1  0.2404959E-007  0.3688338E+04  0.7818608E-02  0.8070551E-01
         -1   -1    0    0    0  501 -0.00000000000E+00  0.00000000000E+00  0.20186375852E+04  0.20186375852E+04  0.00000000000E+00 0.  1.
          1   -1    0    0  501    0  0.00000000000E+00 -0.00000000000E+00 -0.16847795312E+04  0.16847795312E+04  0.00000000000E+00 0. -1.
         23    2    1    2    0    0  0.11821663594E+04  0.75361064919E+03 -0.86553470406E+03  0.16503967450E+04  0.95983229063E+02 0.  0.
        254    2    1    2    0    0 -0.11821663594E+04 -0.75361064919E+03  0.11993927580E+04  0.20530203713E+04  0.90050171873E+03 0.  0.
        -24    2    4    4    0    0 -0.45213932737E+03  0.15072861868E+03  0.49723957663E+03  0.69319010300E+03  0.78206358365E+02 0.  0.
         24    2    4    4    0    0 -0.73002703201E+03 -0.90433926787E+03  0.70215318135E+03  0.13598302683E+04  0.73145674783E+02 0.  0.
         11    1    3    3    0    0  0.18225848815E+03  0.81652500689E+02 -0.14283467823E+03  0.24553417822E+03  0.00000000000E+00 0. -1.
        -11    1    3    3    0    0  0.99990787124E+03  0.67195814850E+03 -0.72270002583E+03  0.14048625668E+04  0.00000000000E+00 0.  1.
          2    1    6    6  502    0 -0.46299733749E+03 -0.51649185169E+03  0.42055609909E+03  0.81117063549E+03  0.00000000000E+00 0. -1.
          3    1    5    5  503    0 -0.11038844660E+03  0.73134381216E+02  0.14299487708E+03  0.19488915242E+03  0.00000000000E+00 0. -1.
         -4    1    5    5    0  503 -0.34175088077E+03  0.77594237464E+02  0.35424469955E+03  0.49830095058E+03  0.00000000000E+00 0.  1.
         -1    1    6    6    0  502 -0.26702969452E+03 -0.38784741617E+03  0.28159708226E+03  0.54865963286E+03  0.00000000000E+00 0.  1.
<mgrwt>
<rscale>  0 0.36883380E+04</rscale>
<asrwt>0</asrwt>
<pdfrwt beam="1">  1        1 0.25919685E+00 0.36883380E+04</pdfrwt>
<pdfrwt beam="2">  1       -1 0.31055963E+00 0.36883380E+04</pdfrwt>
<totfact> 0.11053388E-01</totfact>
</mgrwt>
</event>
<event>
12    1  0.2404959E-007  0.1236360E+04  0.7818608E-02  0.9081613E-01
          2   -1    0    0  501    0  0.00000000000E+00  0.00000000000E+00  0.15145414009E+04  0.15145414009E+04  0.00000000000E+00 0. -1.
         -2   -1    0    0    0  501 -0.00000000000E+00 -0.00000000000E+00 -0.25231821447E+03  0.25231821447E+03  0.00000000000E+00 0.  1.
         23    2    1    2    0    0 -0.63380737057E+02 -0.27257442946E+03  0.30214429015E+03  0.42164781015E+03  0.90453116670E+02 0.  0.
        254    2    1    2    0    0  0.63380737057E+02  0.27257442946E+03  0.96007889624E+03  0.13452118052E+04  0.89973850441E+03 0.  0.
        -24    2    4    4    0    0  0.39733615502E+03 -0.62114995831E+02  0.66850397240E+03  0.78420279141E+03  0.79637705513E+02 0.  0.
         24    2    4    4    0    0 -0.33395541796E+03  0.33468942529E+03  0.29157492383E+03  0.56100901375E+03  0.78561725524E+02 0.  0.
         11    1    3    3    0    0 -0.66531485214E+02 -0.22633982460E+03  0.28981046640E+03  0.37369273630E+03  0.00000000000E+00 0. -1.
        -11    1    3    3    0    0  0.31507481565E+01 -0.46234604861E+02  0.12333823743E+02  0.47955073858E+02  0.00000000000E+00 0.  1.
          4    1    6    6  502    0 -0.93035486951E+02  0.14017951312E+03  0.82410083629E+02  0.18734278639E+03  0.00000000000E+00 0. -1.
          1    1    5    5  503    0  0.60870125270E+02 -0.36266093839E+02  0.14453909222E+03  0.16097189473E+03  0.00000000000E+00 0. -1.
         -2    1    5    5    0  503  0.33646602975E+03 -0.25848901993E+02  0.52396488018E+03  0.62323089668E+03  0.00000000000E+00 0.  1.
         -3    1    6    6    0  502 -0.24091993101E+03  0.19450991217E+03  0.20916484021E+03  0.37366622736E+03  0.00000000000E+00 0.  1.
<mgrwt>
<rscale>  0 0.12363598E+04</rscale>
<asrwt>0</asrwt>
<pdfrwt beam="1">  1        2 0.23300636E+00 0.12363598E+04</pdfrwt>
<pdfrwt beam="2">  1       -2 0.38818188E-01 0.12363598E+04</pdfrwt>
<totfact> 0.76860846E+01</totfact>
</mgrwt>
</event>
<event>
12    1  0.2404959E-007  0.2424226E+04  0.7818608E-02  0.8430489E-01
          2   -1    0    0  501    0  0.00000000000E+00  0.00000000000E+00  0.17854645849E+04  0.17854645849E+04  0.00000000000E+00 0. -1.
         -2   -1    0    0    0  501 -0.00000000000E+00 -0.00000000000E+00 -0.82287720893E+03  0.82287720893E+03  0.00000000000E+00 0.  1.
         23    2    1    2    0    0 -0.32881495354E+03 -0.98609195233E+03  0.32461486903E+03  0.10927695972E+04  0.90961350050E+02 0.  0.
        254    2    1    2    0    0  0.32881495354E+03  0.98609195233E+03  0.63797250694E+03  0.15155721967E+04  0.89969636632E+03 0.  0.
        -24    2    4    4    0    0  0.50508518574E+03  0.65087930343E+03  0.72927896290E+02  0.83064054877E+03  0.76748490033E+02 0.  0.
         24    2    4    4    0    0 -0.17627023220E+03  0.33521264890E+03  0.56504461065E+03  0.68493164789E+03  0.80107649529E+02 0.  0.
         13    1    3    3    0    0 -0.13754377980E+03 -0.55420388582E+03  0.17102235950E+03  0.59607791929E+03  0.00000000000E+00 0. -1.
        -13    1    3    3    0    0 -0.19127117374E+03 -0.43188806650E+03  0.15359250953E+03  0.49669167788E+03  0.00000000000E+00 0.  1.
          4    1    6    6  502    0 -0.23972599216E+02  0.73713403316E+01  0.28379147263E+02  0.37873449418E+02  0.00000000000E+00 0. -1.
          1    1    5    5  503    0  0.19442295871E+03  0.20008210574E+03  0.43679839156E+02  0.28238460344E+03  0.00000000000E+00 0. -1.
         -2    1    5    5    0  503  0.31066222703E+03  0.45079719769E+03  0.29248057135E+02  0.54825594533E+03  0.00000000000E+00 0.  1.
         -3    1    6    6    0  502 -0.15229763298E+03  0.32784130857E+03  0.53666546339E+03  0.64705819847E+03  0.00000000000E+00 0.  1.
<mgrwt>
<rscale>  0 0.24242262E+04</rscale>
<asrwt>0</asrwt>
<pdfrwt beam="1">  1        2 0.27468686E+00 0.24242262E+04</pdfrwt>
<pdfrwt beam="2">  1       -2 0.12659649E+00 0.24242262E+04</pdfrwt>
<totfact> 0.36642113E+00</totfact>
</mgrwt>
</event>
<event>
12    1  0.2404959E-007  0.1548088E+04  0.7818608E-02  0.8853090E-01
         -1   -1    0    0    0  501 -0.00000000000E+00  0.00000000000E+00  0.58605916398E+03  0.58605916398E+03  0.00000000000E+00 0.  1.
          1   -1    0    0  501    0  0.00000000000E+00 -0.00000000000E+00 -0.10223270841E+04  0.10223270841E+04  0.00000000000E+00 0. -1.
         23    2    1    2    0    0  0.16366640868E+03 -0.38516989450E+03  0.14964058541E+03  0.45452255363E+03  0.95162524122E+02 0.  0.
        254    2    1    2    0    0 -0.16366640868E+03  0.38516989450E+03 -0.58590850556E+03  0.11538636945E+04  0.90164854992E+03 0.  0.
        -24    2    4    4    0    0 -0.38981987731E+03 -0.11827923575E+03 -0.36683865921E+03  0.55477329938E+03  0.85166292984E+02 0.  0.
         24    2    4    4    0    0  0.22615346863E+03  0.50344913025E+03 -0.21906984635E+03  0.59909039509E+03  0.79443601323E+02 0.  0.
         11    1    3    3    0    0  0.62144427363E+02 -0.20111493419E+03  0.29895507226E+02  0.21260970805E+03  0.00000000000E+00 0. -1.
        -11    1    3    3    0    0  0.10152198132E+03 -0.18405496031E+03  0.11974507819E+03  0.24191284557E+03  0.00000000000E+00 0.  1.
          2    1    6    6  502    0  0.50712730606E+02  0.19741379446E+03 -0.62878964922E+02  0.21330201949E+03  0.00000000000E+00 0. -1.
          3    1    5    5  503    0 -0.39118217542E+03 -0.12341906654E+03 -0.36520974206E+03  0.54921208658E+03  0.00000000000E+00 0. -1.
         -4    1    5    5    0  503  0.13622981128E+01  0.51398307907E+01 -0.16289171499E+01  0.55612127981E+01  0.00000000000E+00 0.  1.
         -1    1    6    6    0  502  0.17544073802E+03  0.30603533579E+03 -0.15619088143E+03  0.38578837560E+03  0.00000000000E+00 0.  1.
<mgrwt>
<rscale>  0 0.15480881E+04</rscale>
<asrwt>0</asrwt>
<pdfrwt beam="1">  1        1 0.15728109E+00 0.15480881E+04</pdfrwt>
<pdfrwt beam="2">  1       -1 0.90162949E-01 0.15480881E+04</pdfrwt>
<totfact> 0.16856608E+01</totfact>
</mgrwt>
</event>
<event>
12    1  0.2404959E-007  0.1347804E+04  0.7818608E-02  0.8992492E-01
          2   -1    0    0  501    0  0.00000000000E+00  0.00000000000E+00  0.21461168618E+04  0.21461168618E+04  0.00000000000E+00 0. -1.
         -2   -1    0    0    0  501 -0.00000000000E+00 -0.00000000000E+00 -0.21161182598E+03  0.21161182598E+03  0.00000000000E+00 0.  1.
         23    2    1    2    0    0 -0.28807591467E+02 -0.89425100199E+02 -0.77165633116E+02  0.15214787810E+03  0.91475220709E+02 0.  0.
        254    2    1    2    0    0  0.28807591467E+02  0.89425100199E+02  0.20116706689E+04  0.22055808096E+04  0.89941153091E+03 0.  0.
        -24    2    4    4    0    0  0.92312906212E+01 -0.36003984676E+03  0.13670069799E+04  0.14159058951E+04  0.79796695720E+02 0.  0.
         24    2    4    4    0    0  0.19576300845E+02  0.44946494696E+03  0.64466368897E+03  0.78967491454E+03  0.74787891283E+02 0.  0.
         13    1    3    3    0    0 -0.26276344721E+02 -0.24432558273E+02 -0.79333347521E+02  0.87069950181E+02  0.00000000000E+00 0.  1.
        -13    1    3    3    0    0 -0.25312467459E+01 -0.64992541926E+02  0.21677144056E+01  0.65077927916E+02  0.00000000000E+00 0. -1.
          4    1    6    6  502    0  0.15739711506E+02  0.84132719309E+02  0.17342067519E+03  0.19339282190E+03  0.00000000000E+00 0. -1.
          3    1    5    5  503    0 -0.26528066364E+02 -0.12356105090E+03  0.38580562504E+03  0.40597666425E+03  0.00000000000E+00 0. -1.
         -4    1    5    5    0  503  0.35759356985E+02 -0.23647879586E+03  0.98120135489E+03  0.10099292309E+04  0.00000000000E+00 0.  1.
         -1    1    6    6    0  502  0.38365893396E+01  0.36533222765E+03  0.47124301377E+03  0.59628209265E+03  0.00000000000E+00 0.  1.
<mgrwt>
<rscale>  0 0.13478037E+04</rscale>
<asrwt>0</asrwt>
<pdfrwt beam="1">  1        2 0.33017181E+00 0.13478037E+04</pdfrwt>
<pdfrwt beam="2">  1       -2 0.32555667E-01 0.13478037E+04</pdfrwt>
<totfact> 0.47632489E+01</totfact>
</mgrwt>
</event>
<event>
12    1  0.2404959E-007  0.2221320E+04  0.7818608E-02  0.8509606E-01
         -1   -1    0    0    0  501 -0.00000000000E+00  0.00000000000E+00  0.44214913806E+03  0.44214913806E+03  0.00000000000E+00 0.  1.
          1   -1    0    0  501    0  0.00000000000E+00 -0.00000000000E+00 -0.27899315478E+04  0.27899315478E+04  0.00000000000E+00 0. -1.
         23    2    1    2    0    0 -0.78708441099E+03  0.39623436038E+03 -0.57312067341E+03  0.10551296721E+04  0.91256672426E+02 0.  0.
        254    2    1    2    0    0  0.78708441099E+03 -0.39623436038E+03 -0.17746617363E+04  0.21769510138E+04  0.90176931618E+03 0.  0.
        -24    2    4    4    0    0  0.20138600035E+03  0.19264170706E+03 -0.10155125107E+03  0.30734315758E+03  0.80498518517E+02 0.  0.
         24    2    4    4    0    0  0.58569841064E+03 -0.58887606744E+03 -0.16731104853E+04  0.18696078562E+04  0.79480746199E+02 0.  0.
         13    1    3    3    0    0 -0.68861130201E+03  0.32854105771E+03 -0.46197046453E+03  0.89193131011E+03  0.00000000000E+00 0. -1.
        -13    1    3    3    0    0 -0.98473108980E+02  0.67693302669E+02 -0.11115020888E+03  0.16319836198E+03  0.00000000000E+00 0.  1.
          4    1    6    6  502    0  0.20167183025E+03 -0.15124072361E+03 -0.49862453825E+03  0.55872328906E+03  0.00000000000E+00 0. -1.
          3    1    5    5  503    0 -0.58534241264E+01  0.15822243153E+02 -0.11528318263E+02  0.20433014324E+02  0.00000000000E+00 0. -1.
         -4    1    5    5    0  503  0.20723942448E+03  0.17681946390E+03 -0.90022932805E+02  0.28691014326E+03  0.00000000000E+00 0.  1.
         -1    1    6    6    0  502  0.38402658038E+03 -0.43763534383E+03 -0.11744859470E+04  0.13108845671E+04  0.00000000000E+00 0.  1.
<mgrwt>
<rscale>  0 0.22213202E+04</rscale>
<asrwt>0</asrwt>
<pdfrwt beam="1">  1        1 0.42922024E+00 0.22213202E+04</pdfrwt>
<pdfrwt beam="2">  1       -1 0.68022944E-01 0.22213202E+04</pdfrwt>
<totfact> 0.16877353E+00</totfact>
</mgrwt>
</event>
<event>
12    1  0.2404959E-007  0.1663499E+04  0.7818608E-02  0.8782460E-01
         -2   -1    0    0    0  501 -0.00000000000E+00  0.00000000000E+00  0.19309648659E+04  0.19309648659E+04  0.00000000000E+00 0. -1.
          2   -1    0    0  501    0  0.00000000000E+00 -0.00000000000E+00 -0.35827021056E+03  0.35827021056E+03  0.00000000000E+00 0.  1.
         23    2    1    2    0    0 -0.31032370778E+02  0.52861783197E+03  0.88967999233E+03  0.10393410585E+04  0.91101738262E+02 0.  0.
        254    2    1    2    0    0  0.31032370778E+02 -0.52861783197E+03  0.68301466306E+03  0.12498940181E+04  0.90295415504E+03 0.  0.
        -24    2    4    4    0    0 -0.34949906558E+03 -0.54759725685E+03  0.45019887865E+03  0.79444338140E+03  0.80305064311E+02 0.  0.
         24    2    4    4    0    0  0.38053143636E+03  0.18979424886E+02  0.23281578441E+03  0.45545063666E+03  0.89820378170E+02 0.  0.
         13    1    3    3    0    0 -0.90487077365E+01  0.18300149604E+03  0.22787863319E+03  0.29240399814E+03  0.00000000000E+00 0.  1.
        -13    1    3    3    0    0 -0.21983663042E+02  0.34561633593E+03  0.66180135914E+03  0.74693706031E+03  0.00000000000E+00 0. -1.
          4    1    6    6  502    0  0.95346014140E+02  0.30326059001E+02  0.27189222888E+02  0.10368117528E+03  0.00000000000E+00 0. -1.
          1    1    5    5  503    0 -0.13962956646E+03 -0.26883750707E+03  0.24532525391E+03  0.38981341850E+03  0.00000000000E+00 0. -1.
         -2    1    5    5    0  503 -0.20986949912E+03 -0.27875974979E+03  0.20487362474E+03  0.40462996290E+03  0.00000000000E+00 0.  1.
         -3    1    6    6    0  502  0.28518542222E+03 -0.11346634115E+02  0.20562656152E+03  0.35176946137E+03  0.00000000000E+00 0.  1.
<mgrwt>
<rscale>  0 0.16634989E+04</rscale>
<asrwt>0</asrwt>
<pdfrwt beam="1">  1        2 0.55118495E-01 0.16634989E+04</pdfrwt>
<pdfrwt beam="2">  1       -2 0.29707151E+00 0.16634989E+04</pdfrwt>
<totfact> 0.28519025E+00</totfact>
</mgrwt>
</event>
<event>
12    1  0.2404959E-007  0.2109569E+04  0.7818608E-02  0.8557040E-01
          1   -1    0    0  501    0  0.00000000000E+00  0.00000000000E+00  0.69421634673E+03  0.69421634673E+03  0.00000000000E+00 0.  1.
         -1   -1    0    0    0  501 -0.00000000000E+00 -0.00000000000E+00 -0.16026270963E+04  0.16026270963E+04  0.00000000000E+00 0. -1.
         23    2    1    2    0    0 -0.57998178187E+03 -0.52406042592E+03  0.24398857165E+02  0.78731301095E+03  0.90820018030E+02 0.  0.
        254    2    1    2    0    0  0.57998178187E+03  0.52406042592E+03 -0.93280960671E+03  0.15095304320E+04  0.89304544431E+03 0.  0.
        -24    2    4    4    0    0  0.27194842275E+03  0.73367940455E+03 -0.49922571528E+03  0.93218482936E+03  0.86607320672E+02 0.  0.
         24    2    4    4    0    0  0.30803335912E+03 -0.20961897863E+03 -0.43358389143E+03  0.57734560269E+03  0.80673958063E+02 0.  0.
         13    1    3    3    0    0 -0.17865320054E+03 -0.12411790301E+03  0.36612919177E+02  0.22059629589E+03  0.00000000000E+00 0.  1.
        -13    1    3    3    0    0 -0.40132858133E+03 -0.39994252290E+03 -0.12214062012E+02  0.56671671506E+03  0.00000000000E+00 0. -1.
          2    1    6    6  502    0  0.15598706990E+02  0.38738365776E+01 -0.62471850583E+01  0.17243943596E+02  0.00000000000E+00 0. -1.
          1    1    5    5  503    0  0.22944415545E+02  0.98961872822E+02 -0.35471435504E+02  0.10760167849E+03  0.00000000000E+00 0. -1.
         -2    1    5    5    0  503  0.24900400721E+03  0.63471753172E+03 -0.46375427978E+03  0.82458315087E+03  0.00000000000E+00 0.  1.
         -1    1    6    6    0  502  0.29243465213E+03 -0.21349281521E+03 -0.42733670637E+03  0.56010165910E+03  0.00000000000E+00 0.  1.
<mgrwt>
<rscale>  0 0.21095686E+04</rscale>
<asrwt>0</asrwt>
<pdfrwt beam="1">  1        1 0.10680251E+00 0.21095686E+04</pdfrwt>
<pdfrwt beam="2">  1       -1 0.24655802E+00 0.21095686E+04</pdfrwt>
<totfact> 0.18615751E+00</totfact>
</mgrwt>
</event>
<event>
12    1  0.2404959E-007  0.2688290E+04  0.7818608E-02  0.8338815E-01
         -2   -1    0    0    0  501 -0.00000000000E+00  0.00000000000E+00  0.14254047956E+04  0.14254047956E+04  0.00000000000E+00 0.  1.
          2   -1    0    0  501    0  0.00000000000E+00 -0.00000000000E+00 -0.12675175192E+04  0.12675175192E+04  0.00000000000E+00 0. -1.
         23    2    1    2    0    0  0.11329992989E+04 -0.36814748828E+03  0.94732625992E+02  0.11985152437E+04  0.90799419572E+02 0.  0.
        254    2    1    2    0    0 -0.11329992989E+04  0.36814748828E+03  0.63154650375E+02  0.14944070711E+04  0.90002444409E+03 0.  0.
        -24    2    4    4    0    0 -0.12474776765E+04  0.40972972935E+03  0.15060927819E+03  0.13239017452E+04  0.77160040106E+02 0.  0.
         24    2    4    4    0    0  0.11447837756E+03 -0.41582241070E+02 -0.87454627815E+02  0.17050532597E+03  0.81174950302E+02 0.  0.
         11    1    3    3    0    0  0.15726466189E+03 -0.62183290310E+02 -0.16436267500E+02  0.16990905321E+03  0.00000000000E+00 0.  1.
        -11    1    3    3    0    0  0.97573463700E+03 -0.30596419797E+03  0.11116889349E+03  0.10286061905E+04  0.00000000000E+00 0. -1.
          4    1    6    6  502    0  0.88034787464E+02 -0.62351878823E+02 -0.83956496592E+02  0.13669884387E+03  0.00000000000E+00 0. -1.
          3    1    5    5  503    0 -0.86292272071E+03  0.32018279265E+03  0.99849585345E+02  0.92580915005E+03  0.00000000000E+00 0. -1.
         -4    1    5    5    0  503 -0.38455495575E+03  0.89546936700E+02  0.50759692845E+02  0.39809259511E+03  0.00000000000E+00 0.  1.
         -3    1    6    6    0  502  0.26443590100E+02  0.20769637753E+02 -0.34981312221E+01  0.33806482098E+02  0.00000000000E+00 0.  1.
<mgrwt>
<rscale>  0 0.26882898E+04</rscale>
<asrwt>0</asrwt>
<pdfrwt beam="1">  1        2 0.19500269E+00 0.26882898E+04</pdfrwt>
<pdfrwt beam="2">  1       -2 0.21929305E+00 0.26882898E+04</pdfrwt>
<totfact> 0.15146366E+00</totfact>
</mgrwt>
</event>
<event>
12    1  0.2404959E-007  0.1848298E+04  0.7818608E-02  0.8681029E-01
         -2   -1    0    0    0  501 -0.00000000000E+00  0.00000000000E+00  0.29152494916E+03  0.29152494916E+03  0.00000000000E+00 0. -1.
          2   -1    0    0  501    0  0.00000000000E+00 -0.00000000000E+00 -0.29295985331E+04  0.29295985331E+04  0.00000000000E+00 0.  1.
         23    2    1    2    0    0  0.55474583918E+03  0.42650580312E+03 -0.10727405661E+04  0.12841966049E+04  0.93479686523E+02 0.  0.
        254    2    1    2    0    0 -0.55474583918E+03 -0.42650580312E+03 -0.15653330178E+04  0.19369268773E+04  0.90098175628E+03 0.  0.
        -24    2    4    4    0    0  0.69523769968E+02 -0.26310102687E+03 -0.51717202198E+02  0.28963542941E+03  0.84606784811E+02 0.  0.
         24    2    4    4    0    0 -0.62426960915E+03 -0.16340477625E+03 -0.15136158156E+04  0.16472914479E+04  0.78247116165E+02 0.  0.
         13    1    3    3    0    0  0.14350363076E+02  0.19178388431E+01 -0.49610717923E+02  0.51680115703E+02  0.00000000000E+00 0.  1.
        -13    1    3    3    0    0  0.54039547610E+03  0.42458796427E+03 -0.10231298482E+04  0.12325164892E+04  0.00000000000E+00 0. -1.
          4    1    6    6  502    0 -0.45016706963E+03 -0.15102902022E+03 -0.11389658760E+04  0.12339786960E+04  0.00000000000E+00 0. -1.
          1    1    5    5  503    0  0.21501781662E+02 -0.21507997540E+03 -0.29357867583E+02  0.21813667005E+03  0.00000000000E+00 0. -1.
         -2    1    5    5    0  503  0.48021988306E+02 -0.48021051467E+02 -0.22359334615E+02  0.71498759355E+02  0.00000000000E+00 0.  1.
         -3    1    6    6    0  502 -0.17410253952E+03 -0.12375756024E+02 -0.37464993961E+03  0.41331275186E+03  0.00000000000E+00 0.  1.
<mgrwt>
<rscale>  0 0.18482977E+04</rscale>
<asrwt>0</asrwt>
<pdfrwt beam="1">  1        2 0.45070748E+00 0.18482977E+04</pdfrwt>
<pdfrwt beam="2">  1       -2 0.44849991E-01 0.18482977E+04</pdfrwt>
<totfact> 0.85662052E+00</totfact>
</mgrwt>
</event>
<event>
12    1  0.2869389E-007  0.2107960E+04  0.7818608E-02  0.8557745E-01
         -2   -1    0    0    0  501 -0.00000000000E+00  0.00000000000E+00  0.53540234563E+03  0.53540234563E+03  0.00000000000E+00 0.  1.
          2   -1    0    0  501    0  0.00000000000E+00 -0.00000000000E+00 -0.20748402309E+04  0.20748402309E+04  0.00000000000E+00 0. -1.
         23    2    1    2    0    0  0.67805284362E+03 -0.52663332030E+03 -0.67751276725E+03  0.10974950529E+04  0.91506986148E+02 0.  0.
        254    2    1    2    0    0 -0.67805284362E+03  0.52663332030E+03 -0.86192511798E+03  0.15127475236E+04  0.89910613857E+03 0.  0.
        -24    2    4    4    0    0  0.13027364146E+03  0.37678138958E+03 -0.19605851468E+03  0.45170437409E+03  0.81623913156E+02 0.  0.
         24    2    4    4    0    0 -0.80832648508E+03  0.14985193072E+03 -0.66586660331E+03  0.10610431495E+04  0.81159867822E+02 0.  0.
         13    1    3    3    0    0  0.28931667903E+03 -0.28246546555E+03 -0.31987114693E+03  0.51556612634E+03  0.00000000000E+00 0.  1.
        -13    1    3    3    0    0  0.38873616459E+03 -0.24416785475E+03 -0.35764162032E+03  0.58192892653E+03  0.00000000000E+00 0. -1.
          2    1    6    6  502    0 -0.98013147353E+01 -0.37276555958E+01 -0.20051235569E+02  0.22627709443E+02  0.00000000000E+00 0. -1.
          1    1    5    5  503    0  0.18700843601E+00  0.10478446122E+03 -0.61871158206E+02  0.12168754457E+03  0.00000000000E+00 0. -1.
         -2    1    5    5    0  503  0.13008663303E+03  0.27199692836E+03 -0.13418735647E+03  0.33001682952E+03  0.00000000000E+00 0.  1.
         -3    1    6    6    0  502 -0.79852517035E+03  0.15357958631E+03 -0.64581536774E+03  0.10384154401E+04  0.00000000000E+00 0.  1.
<mgrwt>
<rscale>  0 0.21079605E+04</rscale>
<asrwt>0</asrwt>
<pdfrwt beam="1">  1        2 0.31920619E+00 0.21079605E+04</pdfrwt>
<pdfrwt beam="2">  1       -2 0.82369592E-01 0.21079605E+04</pdfrwt>
<totfact> 0.72326833E+00</totfact>
</mgrwt>
</event>
<event>
12    1  0.2404959E-007  0.1560495E+04  0.7818608E-02  0.8845192E-01
          2   -1    0    0  501    0  0.00000000000E+00  0.00000000000E+00  0.36510228574E+04  0.36510228574E+04  0.00000000000E+00 0.  1.
         -2   -1    0    0    0  501 -0.00000000000E+00 -0.00000000000E+00 -0.16674397972E+03  0.16674397972E+03  0.00000000000E+00 0. -1.
         23    2    1    2    0    0 -0.38750390907E+03  0.34455764859E+03  0.13051808885E+04  0.14059577495E+04  0.65884662285E+02 0.  0.
        254    2    1    2    0    0  0.38750390907E+03 -0.34455764859E+03  0.21790979892E+04  0.24118090877E+04  0.89413409301E+03 0.  0.
        -24    2    4    4    0    0  0.17701456928E+03 -0.58817619752E+03  0.91999734066E+03  0.11098071440E+04  0.89394592021E+02 0.  0.
         24    2    4    4    0    0  0.21048933979E+03  0.24361854893E+03  0.12591006485E+04  0.13020019436E+04  0.78859740198E+02 0.  0.
         11    1    3    3    0    0 -0.26483839757E+03  0.19930919549E+03  0.78414832920E+03  0.85132375418E+03  0.00000000000E+00 0. -1.
        -11    1    3    3    0    0 -0.12266551150E+03  0.14524845310E+03  0.52103255933E+03  0.55463399528E+03  0.00000000000E+00 0.  1.
          4    1    6    6  502    0  0.13682737102E+02  0.50657600180E+02  0.27862654200E+03  0.28352453096E+03  0.00000000000E+00 0. -1.
          3    1    5    5  503    0  0.17896163343E+03 -0.49563411975E+03  0.80583823974E+03  0.96283732558E+03  0.00000000000E+00 0. -1.
         -4    1    5    5    0  503 -0.19470641518E+01 -0.92542077765E+02  0.11415910092E+03  0.14696981846E+03  0.00000000000E+00 0.  1.
         -3    1    6    6    0  502  0.19680660269E+03  0.19296094875E+03  0.98047410650E+03  0.10184774127E+04  0.00000000000E+00 0.  1.
<mgrwt>
<rscale>  0 0.15604949E+04</rscale>
<asrwt>0</asrwt>
<pdfrwt beam="1">  1        2 0.56169576E+00 0.15604949E+04</pdfrwt>
<pdfrwt beam="2">  1       -2 0.25652923E-01 0.15604949E+04</pdfrwt>
<totfact> 0.84754596E+00</totfact>
</mgrwt>
</event>
<event>
12    1  0.2404959E-007  0.1734057E+04  0.7818608E-02  0.8742175E-01
          2   -1    0    0  501    0  0.00000000000E+00  0.00000000000E+00  0.11434576760E+04  0.11434576760E+04  0.00000000000E+00 0. -1.
         -2   -1    0    0    0  501 -0.00000000000E+00 -0.00000000000E+00 -0.65742603696E+03  0.65742603696E+03  0.00000000000E+00 0.  1.
         23    2    1    2    0    0 -0.28994757407E+03  0.31027775926E+03 -0.30345739978E+03  0.53042576609E+03  0.94462777049E+02 0.  0.
        254    2    1    2    0    0  0.28994757407E+03 -0.31027775926E+03  0.78948903887E+03  0.12704579469E+04  0.90023806227E+03 0.  0.
        -24    2    4    4    0    0  0.58401476780E+03 -0.70623328895E+02  0.57770876648E+03  0.82841463483E+03  0.80389581058E+02 0.  0.
         24    2    4    4    0    0 -0.29406719373E+03 -0.23965443037E+03  0.21178027239E+03  0.44204331208E+03  0.81496291695E+02 0.  0.
         13    1    3    3    0    0 -0.75282302725E+02  0.95738427204E+02 -0.39021185264E+02  0.12789028285E+03  0.00000000000E+00 0. -1.
        -13    1    3    3    0    0 -0.21466527135E+03  0.21453933206E+03 -0.26443621452E+03  0.40253548325E+03  0.00000000000E+00 0.  1.
          4    1    6    6  502    0  0.45437296618E+01 -0.98508850725E+01  0.29430680411E+01  0.11240421053E+02  0.00000000000E+00 0. -1.
          1    1    5    5  503    0  0.26110955635E+03 -0.69952382844E+02  0.28044619170E+03  0.38951457318E+03  0.00000000000E+00 0. -1.
         -2    1    5    5    0  503  0.32290521145E+03 -0.67094605176E+00  0.29726257477E+03  0.43890006165E+03  0.00000000000E+00 0.  1.
         -1    1    6    6    0  502 -0.29861092339E+03 -0.22980354529E+03  0.20883720435E+03  0.43080289103E+03  0.00000000000E+00 0.  1.
<mgrwt>
<rscale>  0 0.17340575E+04</rscale>
<asrwt>0</asrwt>
<pdfrwt beam="1">  1        2 0.17591657E+00 0.17340575E+04</pdfrwt>
<pdfrwt beam="2">  1       -2 0.10114247E+00 0.17340575E+04</pdfrwt>
<totfact> 0.15635781E+01</totfact>
</mgrwt>
</event>
<event>
12    1  0.2404959E-007  0.2754318E+04  0.7818608E-02  0.8317593E-01
         -1   -1    0    0    0  501 -0.00000000000E+00  0.00000000000E+00  0.16171454987E+04  0.16171454987E+04  0.00000000000E+00 0.  1.
          1   -1    0    0  501    0  0.00000000000E+00 -0.00000000000E+00 -0.11727864653E+04  0.11727864653E+04  0.00000000000E+00 0. -1.
         23    2    1    2    0    0 -0.10627943832E+04 -0.30413868745E+03  0.74193041630E+03  0.13336529228E+04  0.78339861040E+02 0.  0.
        254    2    1    2    0    0  0.10627943832E+04  0.30413868745E+03 -0.29757138296E+03  0.14562790412E+04  0.90009314836E+03 0.  0.
        -24    2    4    4    0    0  0.42250377406E+02 -0.24143108275E+03 -0.11258195107E+03  0.28142451778E+03  0.80318126198E+02 0.  0.
         24    2    4    4    0    0  0.10205440058E+04  0.54556977020E+03 -0.18498943189E+03  0.11748545234E+04  0.83100056448E+02 0.  0.
         13    1    3    3    0    0 -0.44669445059E+03 -0.15420162865E+03  0.28170904897E+03  0.55015821609E+03  0.00000000000E+00 0. -1.
        -13    1    3    3    0    0 -0.61609993259E+03 -0.14993705880E+03  0.46022136733E+03  0.78349470674E+03  0.00000000000E+00 0.  1.
          2    1    6    6  502    0  0.12015952658E+03  0.72031174105E+02 -0.49363658944E+02  0.14853811866E+03  0.00000000000E+00 0. -1.
          1    1    5    5  503    0 -0.13356766893E+02 -0.47599803192E+02  0.20286468217E+01  0.49479893832E+02  0.00000000000E+00 0. -1.
         -2    1    5    5    0  503  0.55607144299E+02 -0.19383127955E+03 -0.11461059789E+03  0.23194462395E+03  0.00000000000E+00 0.  1.
         -1    1    6    6    0  502  0.90038447919E+03  0.47353859609E+03 -0.13562577295E+03  0.10263164047E+04  0.00000000000E+00 0.  1.
<mgrwt>
<rscale>  0 0.27543176E+04</rscale>
<asrwt>0</asrwt>
<pdfrwt beam="1">  1        1 0.18042869E+00 0.27543176E+04</pdfrwt>
<pdfrwt beam="2">  1       -1 0.24879161E+00 0.27543176E+04</pdfrwt>
<totfact> 0.69042365E-01</totfact>
</mgrwt>
</event>
<event>
12    1  0.2404959E-007  0.2032832E+04  0.7818608E-02  0.8591423E-01
          1   -1    0    0  501    0  0.00000000000E+00  0.00000000000E+00  0.28517784020E+04  0.28517784020E+04  0.00000000000E+00 0. -1.
         -1   -1    0    0    0  501 -0.00000000000E+00 -0.00000000000E+00 -0.36226570777E+03  0.36226570777E+03  0.00000000000E+00 0.  1.
         23    2    1    2    0    0 -0.13969473273E+03 -0.57638240186E+03  0.12275790768E+03  0.61270131025E+03  0.92747507607E+02 0.  0.
        254    2    1    2    0    0  0.13969473273E+03  0.57638240186E+03  0.23667547865E+04  0.26013427995E+04  0.90206698721E+03 0.  0.
        -24    2    4    4    0    0 -0.22555253900E+03 -0.16004301936E+02  0.13205702837E+04  0.13422891643E+04  0.81879429376E+02 0.  0.
         24    2    4    4    0    0  0.36524727173E+03  0.59238670379E+03  0.10461845028E+04  0.12590536352E+04  0.79915367302E+02 0.  0.
         13    1    3    3    0    0 -0.10512335699E+03 -0.30755499261E+03  0.30779706982E+02  0.32647876504E+03  0.00000000000E+00 0.  1.
        -13    1    3    3    0    0 -0.34571375743E+02 -0.26882740925E+03  0.91978200693E+02  0.28622254521E+03  0.00000000000E+00 0. -1.
          4    1    6    6  502    0  0.24999575552E+03  0.35722956298E+03  0.70524378560E+03  0.82914391729E+03  0.00000000000E+00 0. -1.
          3    1    5    5  503    0 -0.14887173476E+03 -0.49343996197E+02  0.87240072042E+03  0.88638628169E+03  0.00000000000E+00 0. -1.
         -4    1    5    5    0  503 -0.76680804237E+02  0.33339694262E+02  0.44816956327E+03  0.45590288263E+03  0.00000000000E+00 0.  1.
         -3    1    6    6    0  502  0.11525151621E+03  0.23515714081E+03  0.34094071722E+03  0.42990971787E+03  0.00000000000E+00 0.  1.
<mgrwt>
<rscale>  0 0.20328320E+04</rscale>
<asrwt>0</asrwt>
<pdfrwt beam="1">  1        1 0.43873512E+00 0.20328320E+04</pdfrwt>
<pdfrwt beam="2">  1       -1 0.55733188E-01 0.20328320E+04</pdfrwt>
<totfact> 0.23077308E+00</totfact>
</mgrwt>
</event>
<event>
12    1  0.2404959E-007  0.1315694E+04  0.7818608E-02  0.9017212E-01
          1   -1    0    0  501    0  0.00000000000E+00  0.00000000000E+00  0.22786712837E+03  0.22786712837E+03  0.00000000000E+00 0. -1.
         -1   -1    0    0    0  501 -0.00000000000E+00 -0.00000000000E+00 -0.18991873072E+04  0.18991873072E+04  0.00000000000E+00 0.  1.
         23    2    1    2    0    0 -0.30184507522E+03  0.75611895632E+02 -0.67827696866E+03  0.75152938974E+03  0.88933510229E+02 0.  0.
        254    2    1    2    0    0  0.30184507522E+03 -0.75611895632E+02 -0.99304321016E+03  0.13755250458E+04  0.89950359989E+03 0.  0.
        -24    2    4    4    0    0 -0.75186862963E+02 -0.26111245758E+03  0.11256701059E+02  0.28387826829E+03  0.81408709768E+02 0.  0.
         24    2    4    4    0    0  0.37703193818E+03  0.18550056194E+03 -0.10042999112E+04  0.10916467775E+04  0.80689740993E+02 0.  0.
         13    1    3    3    0    0 -0.30769255563E+02 -0.15730452200E+02 -0.45810475122E+02  0.57382870660E+02  0.00000000000E+00 0. -1.
        -13    1    3    3    0    0 -0.27107581965E+03  0.91342347833E+02 -0.63246649354E+03  0.69414651908E+03  0.00000000000E+00 0.  1.
          2    1    6    6  502    0  0.35742238829E+03  0.19376862527E+03 -0.95676796884E+03  0.10395681748E+04  0.00000000000E+00 0. -1.
          1    1    5    5  503    0 -0.88099283738E+02 -0.25059658923E+03  0.38674462613E+01  0.26565972873E+03  0.00000000000E+00 0. -1.
         -2    1    5    5    0  503  0.12912420774E+02 -0.10515868349E+02  0.73892547973E+01  0.18218539564E+02  0.00000000000E+00 0.  1.
         -1    1    6    6    0  502  0.19609549886E+02 -0.82680633300E+01 -0.47531942382E+02  0.52078602751E+02  0.00000000000E+00 0.  1.
<mgrwt>
<rscale>  0 0.13156935E+04</rscale>
<asrwt>0</asrwt>
<pdfrwt beam="1">  1        1 0.35056482E-01 0.13156935E+04</pdfrwt>
<pdfrwt beam="2">  1       -1 0.29218265E+00 0.13156935E+04</pdfrwt>
<totfact> 0.45885925E+00</totfact>
</mgrwt>
</event>
<event>
12    1  0.2404959E-007  0.1550791E+04  0.7818608E-02  0.8851363E-01
          1   -1    0    0  501    0  0.00000000000E+00  0.00000000000E+00  0.46885770866E+03  0.46885770866E+03  0.00000000000E+00 0. -1.
         -1   -1    0    0    0  501 -0.00000000000E+00 -0.00000000000E+00 -0.12823470583E+04  0.12823470583E+04  0.00000000000E+00 0.  1.
         23    2    1    2    0    0 -0.27564432210E+03  0.25202314833E+03  0.11921138646E+03  0.40269069271E+03  0.91940087728E+02 0.  0.
        254    2    1    2    0    0  0.27564432210E+03 -0.25202314833E+03 -0.93270073605E+03  0.13485140742E+04  0.89947989734E+03 0.  0.
        -24    2    4    4    0    0 -0.32472352058E+03 -0.79546702133E+02 -0.30717257190E+03  0.46100037889E+03  0.79958225162E+02 0.  0.
         24    2    4    4    0    0  0.60036784268E+03 -0.17247644620E+03 -0.62552816415E+03  0.88751369533E+03  0.78774388104E+02 0.  0.
         13    1    3    3    0    0 -0.18507536917E+03  0.17702336915E+03  0.12494729353E+03  0.28495963163E+03  0.00000000000E+00 0. -1.
        -13    1    3    3    0    0 -0.90568952933E+02  0.74999779177E+02 -0.57359070745E+01  0.11773106108E+03  0.00000000000E+00 0.  1.
          4    1    6    6  502    0  0.43347368124E+03 -0.15962616418E+03 -0.47072030828E+03  0.65951311833E+03  0.00000000000E+00 0. -1.
          3    1    5    5  503    0 -0.48384215424E+02  0.11935272220E+02 -0.25655662230E+02  0.56050834335E+02  0.00000000000E+00 0. -1.
         -4    1    5    5    0  503 -0.27633930516E+03 -0.91481974353E+02 -0.28151690967E+03  0.40494954455E+03  0.00000000000E+00 0.  1.
         -3    1    6    6    0  502  0.16689416144E+03 -0.12850282018E+02 -0.15480785588E+03  0.22800057700E+03  0.00000000000E+00 0.  1.
<mgrwt>
<rscale>  0 0.15507912E+04</rscale>
<asrwt>0</asrwt>
<pdfrwt beam="1">  1        1 0.72131957E-01 0.15507912E+04</pdfrwt>
<pdfrwt beam="2">  1       -1 0.19728416E+00 0.15507912E+04</pdfrwt>
<totfact> 0.73298281E+00</totfact>
</mgrwt>
</event>
<event>
12    1  0.2404959E-007  0.1305656E+04  0.7818608E-02  0.9025092E-01
         -2   -1    0    0    0  501 -0.00000000000E+00  0.00000000000E+00  0.29605956082E+03  0.29605956082E+03  0.00000000000E+00 0.  1.
          2   -1    0    0  501    0  0.00000000000E+00 -0.00000000000E+00 -0.14395220998E+04  0.14395220998E+04  0.00000000000E+00 0. -1.
         23    2    1    2    0    0 -0.19451663921E+03 -0.64538970848E+02  0.48560088107E+02  0.22929910245E+03  0.90653155159E+02 0.  0.
        254    2    1    2    0    0  0.19451663921E+03  0.64538970848E+02 -0.11920226271E+04  0.15062825581E+04  0.89775675984E+03 0.  0.
        -24    2    4    4    0    0 -0.18723387715E+03 -0.29321706216E+03 -0.69420885261E+03  0.77962515954E+03  0.69689942331E+02 0.  0.
         24    2    4    4    0    0  0.38175051636E+03  0.35775603301E+03 -0.49781377445E+03  0.72665739859E+03  0.80557960515E+02 0.  0.
         13    1    3    3    0    0 -0.43736210249E+02 -0.48649784703E+02 -0.11126109853E+02  0.66358480687E+02  0.00000000000E+00 0. -1.
        -13    1    3    3    0    0 -0.15078042896E+03 -0.15889186146E+02  0.59686197960E+02  0.16294062177E+03  0.00000000000E+00 0.  1.
          4    1    6    6  502    0  0.18782730365E+03  0.23078539901E+03 -0.27964496603E+03  0.40834091568E+03  0.00000000000E+00 0. -1.
          1    1    5    5  503    0 -0.84797207560E+02 -0.18484301370E+03 -0.35585020138E+03  0.40986201574E+03  0.00000000000E+00 0. -1.
         -2    1    5    5    0  503 -0.10243666959E+03 -0.10837404846E+03 -0.33835865123E+03  0.36976314381E+03  0.00000000000E+00 0.  1.
         -3    1    6    6    0  502  0.19392321271E+03  0.12697063399E+03 -0.21816880842E+03  0.31831648291E+03  0.00000000000E+00 0.  1.
<mgrwt>
<rscale>  0 0.13056558E+04</rscale>
<asrwt>0</asrwt>
<pdfrwt beam="1">  1        2 0.22146494E+00 0.13056558E+04</pdfrwt>
<pdfrwt beam="2">  1       -2 0.45547625E-01 0.13056558E+04</pdfrwt>
<totfact> 0.61502569E+01</totfact>
</mgrwt>
</event>
<event>
12    1  0.2404959E-007  0.2617756E+04  0.7818608E-02  0.8362195E-01
         -2   -1    0    0    0  501 -0.00000000000E+00  0.00000000000E+00  0.77568913154E+03  0.77568913154E+03  0.00000000000E+00 0. -1.
          2   -1    0    0  501    0  0.00000000000E+00 -0.00000000000E+00 -0.22085677361E+04  0.22085677361E+04  0.00000000000E+00 0.  1.
         23    2    1    2    0    0  0.53084914807E+03 -0.75513151675E+03 -0.14182594200E+04  0.16946692922E+04  0.91759478027E+02 0.  0.
        254    2    1    2    0    0 -0.53084914807E+03  0.75513151675E+03 -0.14619184546E+02  0.12895875755E+04  0.90044320679E+03 0.  0.
        -24    2    4    4    0    0 -0.37402394243E+03 -0.11733494266E+02 -0.26270960118E+03  0.46476270204E+03  0.83405337102E+02 0.  0.
         24    2    4    4    0    0 -0.15682520564E+03  0.76686501102E+03  0.24809041663E+03  0.82482487343E+03  0.78173696127E+02 0.  0.
         13    1    3    3    0    0  0.40861952564E+03 -0.63813061969E+03 -0.11341841151E+04  0.13640213383E+04  0.00000000000E+00 0. -1.
        -13    1    3    3    0    0  0.12222962243E+03 -0.11700089706E+03 -0.28407530496E+03  0.33064795387E+03  0.00000000000E+00 0.  1.
          2    1    6    6  502    0 -0.69390826082E+02  0.51534188321E+03  0.15237650763E+03  0.54185878549E+03  0.00000000000E+00 0. -1.
          3    1    5    5  503    0 -0.14207302724E+02  0.74886055350E+01  0.38962388563E+01  0.16525959602E+02  0.00000000000E+00 0. -1.
         -4    1    5    5    0  503 -0.35981663971E+03 -0.19222099801E+02 -0.26660584003E+03  0.44823674244E+03  0.00000000000E+00 0.  1.
         -1    1    6    6    0  502 -0.87434379559E+02  0.25152312781E+03  0.95713909002E+02  0.28296608794E+03  0.00000000000E+00 0.  1.
<mgrwt>
<rscale>  0 0.26177563E+04</rscale>
<asrwt>0</asrwt>
<pdfrwt beam="1">  1        2 0.33977964E+00 0.26177563E+04</pdfrwt>
<pdfrwt beam="2">  1       -2 0.11933679E+00 0.26177563E+04</pdfrwt>
<totfact> 0.24281533E+00</totfact>
</mgrwt>
</event>
<event>
12    1  0.2404959E-007  0.4104597E+04  0.7818608E-02  0.7983772E-01
         -2   -1    0    0    0  501 -0.00000000000E+00  0.00000000000E+00  0.12224822685E+04  0.12224822685E+04  0.00000000000E+00 0.  1.
          2   -1    0    0  501    0  0.00000000000E+00 -0.00000000000E+00 -0.34453903055E+04  0.34453903055E+04  0.00000000000E+00 0. -1.
         23    2    1    2    0    0 -0.18493442222E+03  0.16734803084E+04 -0.21835970536E+04  0.27588205848E+04  0.90872676051E+02 0.  0.
        254    2    1    2    0    0  0.18493442222E+03 -0.16734803084E+04 -0.39310983453E+02  0.19090519893E+04  0.89899780938E+03 0.  0.
        -24    2    4    4    0    0 -0.24635778202E+03 -0.65403187824E+03 -0.30712136339E+03  0.76747135478E+03  0.78986670037E+02 0.  0.
         24    2    4    4    0    0  0.43129220424E+03 -0.10194484302E+04  0.26781037994E+03  0.11415806345E+04  0.78713901500E+02 0.  0.
         13    1    3    3    0    0 -0.15400573172E+03  0.11514833000E+04 -0.15583736741E+04  0.19437489714E+04  0.00000000000E+00 0. -1.
        -13    1    3    3    0    0 -0.30928690505E+02  0.52199700836E+03 -0.62522337953E+03  0.81507161338E+03  0.00000000000E+00 0.  1.
          2    1    6    6  502    0  0.27044733853E+03 -0.54046129608E+03  0.13824764401E+03  0.61996176216E+03  0.00000000000E+00 0. -1.
          3    1    5    5  503    0 -0.15375822785E+03 -0.33603352043E+03 -0.12901909192E+03  0.39141543859E+03  0.00000000000E+00 0. -1.
         -4    1    5    5    0  503 -0.92599554167E+02 -0.31799835781E+03 -0.17810227147E+03  0.37605591619E+03  0.00000000000E+00 0.  1.
         -1    1    6    6    0  502  0.16084486571E+03 -0.47898713408E+03  0.12956273593E+03  0.52161887234E+03  0.00000000000E+00 0.  1.
<mgrwt>
<rscale>  0 0.41045967E+04</rscale>
<asrwt>0</asrwt>
<pdfrwt beam="1">  1        2 0.53006003E+00 0.41045967E+04</pdfrwt>
<pdfrwt beam="2">  1       -2 0.18807420E+00 0.41045967E+04</pdfrwt>
<totfact> 0.11066428E-01</totfact>
</mgrwt>
</event>
<event>
12    1  0.2404959E-007  0.3099552E+04  0.7818608E-02  0.8215861E-01
         -2   -1    0    0    0  501 -0.00000000000E+00  0.00000000000E+00  0.19006628075E+04  0.19006628075E+04  0.00000000000E+00 0. -1.
          2   -1    0    0  501    0  0.00000000000E+00 -0.00000000000E+00 -0.12636671078E+04  0.12636671078E+04  0.00000000000E+00 0.  1.
         23    2    1    2    0    0  0.16994160860E+01  0.14038495510E+04  0.10892554276E+03  0.14110090361E+04  0.91023492975E+02 0.  0.
        254    2    1    2    0    0 -0.16994160860E+01 -0.14038495510E+04  0.52807015690E+03  0.17533208792E+04  0.90800857096E+03 0.  0.
        -24    2    4    4    0    0 -0.19024797175E+03 -0.14287487173E+04  0.36244271119E+03  0.14887393643E+04  0.86388588361E+02 0.  0.
         24    2    4    4    0    0  0.18854855567E+03  0.24899166271E+02  0.16562744571E+03  0.26458151484E+03  0.80002505584E+02 0.  0.
         13    1    3    3    0    0 -0.19138018578E+01  0.85717932434E+03  0.22034676382E+02  0.85746462532E+03  0.00000000000E+00 0.  1.
        -13    1    3    3    0    0  0.36132179438E+01  0.54667022664E+03  0.86890866382E+02  0.55354441078E+03  0.00000000000E+00 0. -1.
          4    1    6    6  502    0  0.58582316381E+02  0.29151592904E+02  0.98467208751E+02  0.11822645373E+03  0.00000000000E+00 0. -1.
          1    1    5    5  503    0 -0.19938603879E+03 -0.13732049233E+04  0.34587959554E+03  0.14300626729E+04  0.00000000000E+00 0. -1.
         -2    1    5    5    0  503  0.91380670356E+01 -0.55543793951E+02  0.16563115647E+02  0.58676691416E+02  0.00000000000E+00 0.  1.
         -3    1    6    6    0  502  0.12996623929E+03 -0.42524266326E+01  0.67160236957E+02  0.14635506112E+03  0.00000000000E+00 0.  1.
<mgrwt>
<rscale>  0 0.30995516E+04</rscale>
<asrwt>0</asrwt>
<pdfrwt beam="1">  1        2 0.19441032E+00 0.30995516E+04</pdfrwt>
<pdfrwt beam="2">  1       -2 0.29240966E+00 0.30995516E+04</pdfrwt>
<totfact> 0.52137100E-01</totfact>
</mgrwt>
</event>
<event>
12    1  0.2404959E-007  0.4204894E+04  0.7818608E-02  0.7964442E-01
          2   -1    0    0  501    0  0.00000000000E+00  0.00000000000E+00  0.17585109112E+04  0.17585109112E+04  0.00000000000E+00 0. -1.
         -2   -1    0    0    0  501 -0.00000000000E+00 -0.00000000000E+00 -0.25136513687E+04  0.25136513687E+04  0.00000000000E+00 0.  1.
         23    2    1    2    0    0 -0.59041808548E+03  0.90754778098E+03 -0.20749614121E+04  0.23422589274E+04  0.92062645762E+02 0.  0.
        254    2    1    2    0    0  0.59041808548E+03 -0.90754778098E+03  0.13198209546E+04  0.19299033526E+04  0.90020170379E+03 0.  0.
        -24    2    4    4    0    0  0.61913736731E+03 -0.10370597913E+04  0.97622504972E+03  0.15549749690E+04  0.78151880311E+02 0.  0.
         24    2    4    4    0    0 -0.28719281828E+02  0.12951201028E+03  0.34359590492E+03  0.37492838352E+03  0.70106982080E+02 0.  0.
         13    1    3    3    0    0 -0.13415202373E+03  0.23810574299E+03 -0.44872587218E+03  0.52540081717E+03  0.00000000000E+00 0.  1.
        -13    1    3    3    0    0 -0.45626606175E+03  0.66944203799E+03 -0.16262355399E+04  0.18168581102E+04  0.00000000000E+00 0. -1.
          4    1    6    6  502    0 -0.36664837276E+02  0.27902077474E+02  0.80068728456E+02  0.92378771893E+02  0.00000000000E+00 0. -1.
          1    1    5    5  503    0  0.30665641384E+03 -0.46723069498E+03  0.49109923625E+03  0.74399001224E+03  0.00000000000E+00 0. -1.
         -2    1    5    5    0  503  0.31248095347E+03 -0.56982909629E+03  0.48512581348E+03  0.81098495680E+03  0.00000000000E+00 0.  1.
         -3    1    6    6    0  502  0.79455554482E+01  0.10160993281E+03  0.26352717646E+03  0.28254961163E+03  0.00000000000E+00 0.  1.
<mgrwt>
<rscale>  0 0.42048940E+04</rscale>
<asrwt>0</asrwt>
<pdfrwt beam="1">  1        2 0.27054014E+00 0.42048940E+04</pdfrwt>
<pdfrwt beam="2">  1       -2 0.38671559E+00 0.42048940E+04</pdfrwt>
<totfact> 0.63943510E-02</totfact>
</mgrwt>
</event>
<event>
12    1  0.2404959E-007  0.2599295E+04  0.7818608E-02  0.8368441E-01
          2   -1    0    0  501    0  0.00000000000E+00  0.00000000000E+00  0.23592887935E+04  0.23592887935E+04  0.00000000000E+00 0.  1.
         -2   -1    0    0    0  501 -0.00000000000E+00 -0.00000000000E+00 -0.71592899088E+03  0.71592899088E+03  0.00000000000E+00 0. -1.
         23    2    1    2    0    0  0.20236092751E+03  0.80850396672E+03  0.16585657435E+04  0.18584634907E+04  0.91747543601E+02 0.  0.
        254    2    1    2    0    0 -0.20236092751E+03 -0.80850396672E+03 -0.15205940872E+02  0.12167542936E+04  0.88635838195E+03 0.  0.
        -24    2    4    4    0    0 -0.41412625948E+03 -0.81845154007E+03  0.15414598569E+03  0.93353965222E+03  0.79823650277E+02 0.  0.
         24    2    4    4    0    0  0.21176533197E+03  0.99475733533E+01 -0.16935192656E+03  0.28321464141E+03  0.81160015033E+02 0.  0.
         11    1    3    3    0    0  0.15164639060E+03  0.66890310080E+03  0.14283880207E+04  0.15845252676E+04  0.00000000000E+00 0.  1.
        -11    1    3    3    0    0  0.50714536910E+02  0.13960086591E+03  0.23017772279E+03  0.27393822312E+03  0.00000000000E+00 0. -1.
          2    1    6    6  502    0  0.18112422367E+03  0.38278986200E+02 -0.13418787441E+03  0.22864306424E+03  0.00000000000E+00 0. -1.
          3    1    5    5  503    0 -0.25312203872E+03 -0.57785143567E+03  0.93422010046E+02  0.63773875541E+03  0.00000000000E+00 0. -1.
         -4    1    5    5    0  503 -0.16100422076E+03 -0.24060010440E+03  0.60723975641E+02  0.29580089682E+03  0.00000000000E+00 0.  1.
         -1    1    6    6    0  502  0.30641108297E+02 -0.28331412847E+02 -0.35164052146E+02  0.54571577170E+02  0.00000000000E+00 0.  1.
<mgrwt>
<rscale>  0 0.25992947E+04</rscale>
<asrwt>0</asrwt>
<pdfrwt beam="1">  1        2 0.36296750E+00 0.25992947E+04</pdfrwt>
<pdfrwt beam="2">  1       -2 0.11014292E+00 0.25992947E+04</pdfrwt>
<totfact> 0.24298152E+00</totfact>
</mgrwt>
</event>
<event>
12    1  0.2404959E-007  0.2114996E+04  0.7818608E-02  0.8554666E-01
          2   -1    0    0  501    0  0.00000000000E+00  0.00000000000E+00  0.64644133343E+03  0.64644133343E+03  0.00000000000E+00 0. -1.
         -2   -1    0    0    0  501 -0.00000000000E+00 -0.00000000000E+00 -0.17299365167E+04  0.17299365167E+04  0.00000000000E+00 0.  1.
         23    2    1    2    0    0 -0.68720593167E+03 -0.21438509816E+03 -0.97760769386E+03  0.12173145877E+04  0.89022691406E+02 0.  0.
        254    2    1    2    0    0  0.68720593167E+03  0.21438509816E+03 -0.10588748938E+03  0.11590632624E+04  0.90222088366E+03 0.  0.
        -24    2    4    4    0    0 -0.15185398762E+03 -0.18001321010E+02 -0.21743879939E+03  0.27770572180E+03  0.80356426761E+02 0.  0.
         24    2    4    4    0    0  0.83905991929E+03  0.23238641918E+03  0.11155131001E+03  0.88135754057E+03  0.79513669107E+02 0.  0.
         13    1    3    3    0    0 -0.63248470594E+03 -0.17388480824E+03 -0.90576647526E+03  0.11183406178E+04  0.00000000000E+00 0.  1.
        -13    1    3    3    0    0 -0.54721225734E+02 -0.40500289921E+02 -0.71841218606E+02  0.98973969913E+02  0.00000000000E+00 0. -1.
          4    1    6    6  502    0  0.75241911371E+03  0.20782521842E+03  0.75072811572E+02  0.78419498285E+03  0.00000000000E+00 0. -1.
          3    1    5    5  503    0 -0.14113350336E+03 -0.40513829468E+02 -0.19545244989E+03  0.24446205497E+03  0.00000000000E+00 0. -1.
         -4    1    5    5    0  503 -0.10720484256E+02  0.22512508458E+02 -0.21986349501E+02  0.33243666827E+02  0.00000000000E+00 0.  1.
         -1    1    6    6    0  502  0.86640805579E+02  0.24561200752E+02  0.36478498442E+02  0.97162557718E+02  0.00000000000E+00 0.  1.
<mgrwt>
<rscale>  0 0.21149964E+04</rscale>
<asrwt>0</asrwt>
<pdfrwt beam="1">  1        2 0.99452514E-01 0.21149964E+04</pdfrwt>
<pdfrwt beam="2">  1       -2 0.26614408E+00 0.21149964E+04</pdfrwt>
<totfact> 0.21321576E+00</totfact>
</mgrwt>
</event>
<event>
12    1  0.2404959E-007  0.2095099E+04  0.7818608E-02  0.8563405E-01
          2   -1    0    0  501    0  0.00000000000E+00  0.00000000000E+00  0.13464225669E+04  0.13464225669E+04  0.00000000000E+00 0. -1.
         -2   -1    0    0    0  501 -0.00000000000E+00 -0.00000000000E+00 -0.81501886215E+03  0.81501886215E+03  0.00000000000E+00 0.  1.
         23    2    1    2    0    0  0.76625636982E+03  0.36892721261E+03  0.25974729916E+03  0.89402005294E+03  0.92450436136E+02 0.  0.
        254    2    1    2    0    0 -0.76625636982E+03 -0.36892721261E+03  0.27165640559E+03  0.12674213761E+04  0.89961304427E+03 0.  0.
        -24    2    4    4    0    0 -0.38733846259E+03 -0.40634503936E+03 -0.24712362506E+03  0.61874415660E+03  0.81405587304E+02 0.  0.
         24    2    4    4    0    0 -0.37891790723E+03  0.37417826750E+02  0.51878003066E+03  0.64867721951E+03  0.81673378313E+02 0.  0.
         13    1    3    3    0    0  0.24945791154E+03  0.13233623647E+03  0.13073915295E+03  0.31118299315E+03  0.00000000000E+00 0.  1.
        -13    1    3    3    0    0  0.51679845829E+03  0.23659097614E+03  0.12900814621E+03  0.58283705979E+03  0.00000000000E+00 0. -1.
          4    1    6    6  502    0 -0.22295672378E+03  0.40191159190E+02  0.36527873796E+03  0.42982971786E+03  0.00000000000E+00 0. -1.
          1    1    5    5  503    0 -0.37689480159E+02 -0.58406975629E+02 -0.62161900843E+01  0.69789058856E+02  0.00000000000E+00 0. -1.
         -2    1    5    5    0  503 -0.34964898243E+03 -0.34793806373E+03 -0.24090743498E+03  0.54895509774E+03  0.00000000000E+00 0.  1.
         -3    1    6    6    0  502 -0.15596118345E+03 -0.27733324406E+01  0.15350129270E+03  0.21884750165E+03  0.00000000000E+00 0.  1.
<mgrwt>
<rscale>  0 0.20950988E+04</rscale>
<asrwt>0</asrwt>
<pdfrwt beam="1">  1        2 0.20714193E+00 0.20950988E+04</pdfrwt>
<pdfrwt beam="2">  1       -2 0.12538752E+00 0.20950988E+04</pdfrwt>
<totfact> 0.68154646E+00</totfact>
</mgrwt>
</event>
<event>
12    1  0.2404959E-007  0.2249954E+04  0.7818608E-02  0.8497919E-01
         -1   -1    0    0    0  501 -0.00000000000E+00  0.00000000000E+00  0.75459028583E+03  0.75459028583E+03  0.00000000000E+00 0.  1.
          1   -1    0    0  501    0  0.00000000000E+00 -0.00000000000E+00 -0.16771659910E+04  0.16771659910E+04  0.00000000000E+00 0. -1.
         23    2    1    2    0    0  0.74491596937E+03 -0.57520779728E+03 -0.44743463961E+03  0.10461756363E+04  0.92314103434E+02 0.  0.
        254    2    1    2    0    0 -0.74491596937E+03  0.57520779728E+03 -0.47514106557E+03  0.13855806406E+04  0.89906110353E+03 0.  0.
        -24    2    4    4    0    0 -0.54322906758E+03  0.53817109137E+03  0.94777854930E+02  0.77458014594E+03  0.79155652052E+02 0.  0.
         24    2    4    4    0    0 -0.20168690180E+03  0.37036705912E+02 -0.56991892050E+03  0.61100049464E+03  0.80403386526E+02 0.  0.
         11    1    3    3    0    0  0.85817598884E+02 -0.34742422379E+02 -0.56314216295E+02  0.10836506424E+03  0.00000000000E+00 0. -1.
        -11    1    3    3    0    0  0.65909837049E+03 -0.54046537490E+03 -0.39112042332E+03  0.93781057202E+03  0.00000000000E+00 0.  1.
          4    1    6    6  502    0 -0.19639119446E+03  0.21087552477E+02 -0.47219431014E+03  0.51184143312E+03  0.00000000000E+00 0. -1.
          3    1    5    5  503    0 -0.43998281243E+03  0.42149134049E+03  0.10570755415E+03  0.61839624218E+03  0.00000000000E+00 0. -1.
         -4    1    5    5    0  503 -0.10324625515E+03  0.11667975088E+03 -0.10929699224E+02  0.15618390376E+03  0.00000000000E+00 0.  1.
         -3    1    6    6    0  502 -0.52957073418E+01  0.15949153435E+02 -0.97724610364E+02  0.99159061525E+02  0.00000000000E+00 0.  1.
<mgrwt>
<rscale>  0 0.22499539E+04</rscale>
<asrwt>0</asrwt>
<pdfrwt beam="1">  1        1 0.25802554E+00 0.22499539E+04</pdfrwt>
<pdfrwt beam="2">  1       -1 0.11609081E+00 0.22499539E+04</pdfrwt>
<totfact> 0.30089865E+00</totfact>
</mgrwt>
</event>
<event>
12    1  0.2404959E-007  0.2407346E+04  0.7818608E-02  0.8436758E-01
         -1   -1    0    0    0  501 -0.00000000000E+00  0.00000000000E+00  0.11012998088E+04  0.11012998088E+04  0.00000000000E+00 0.  1.
          1   -1    0    0  501    0  0.00000000000E+00 -0.00000000000E+00 -0.13155623613E+04  0.13155623613E+04  0.00000000000E+00 0. -1.
         23    2    1    2    0    0 -0.92796622766E+03 -0.38767178125E+03 -0.32944472664E+03  0.10622267456E+04  0.91548355972E+02 0.  0.
        254    2    1    2    0    0  0.92796622766E+03  0.38767178125E+03  0.11518217417E+03  0.13546354245E+04  0.90019968366E+03 0.  0.
        -24    2    4    4    0    0  0.33259714901E+03  0.39000991539E+03  0.43240356819E+03  0.67529109510E+03  0.79477164643E+02 0.  0.
         24    2    4    4    0    0  0.59536907865E+03 -0.23381341419E+01 -0.31722139402E+03  0.67934432942E+03  0.80059343056E+02 0.  0.
         13    1    3    3    0    0 -0.38998284093E+03 -0.11825364925E+03 -0.15184701954E+03  0.43488855943E+03  0.00000000000E+00 0. -1.
        -13    1    3    3    0    0 -0.53798338673E+03 -0.26941813199E+03 -0.17759770711E+03  0.62733818616E+03  0.00000000000E+00 0.  1.
          4    1    6    6  502    0  0.34599486534E+03  0.74825623789E+01 -0.14032940890E+03  0.37344447858E+03  0.00000000000E+00 0. -1.
          1    1    5    5  503    0  0.79264776421E+01  0.42041989852E+02  0.35410091818E+02  0.55535867339E+02  0.00000000000E+00 0. -1.
         -2    1    5    5    0  503  0.32467067137E+03  0.34796792554E+03  0.39699347638E+03  0.61975522776E+03  0.00000000000E+00 0.  1.
         -3    1    6    6    0  502  0.24937421331E+03 -0.98206965208E+01 -0.17689198512E+03  0.30589985084E+03  0.00000000000E+00 0.  1.
<mgrwt>
<rscale>  0 0.24073459E+04</rscale>
<asrwt>0</asrwt>
<pdfrwt beam="1">  1        1 0.20239421E+00 0.24073459E+04</pdfrwt>
<pdfrwt beam="2">  1       -1 0.16943074E+00 0.24073459E+04</pdfrwt>
<totfact> 0.19619008E+00</totfact>
</mgrwt>
</event>
<event>
12    1  0.2404959E-007  0.1131492E+04  0.7818608E-02  0.9175030E-01
          2   -1    0    0  501    0  0.00000000000E+00  0.00000000000E+00  0.68526089878E+03  0.68526089878E+03  0.00000000000E+00 0. -1.
         -2   -1    0    0    0  501 -0.00000000000E+00 -0.00000000000E+00 -0.46707525655E+03  0.46707525655E+03  0.00000000000E+00 0.  1.
         23    2    1    2    0    0 -0.17369251922E+03  0.70412489019E+02  0.11465065495E+02  0.20908344350E+03  0.91964279892E+02 0.  0.
        254    2    1    2    0    0  0.17369251922E+03 -0.70412489019E+02  0.20672057674E+03  0.94325271183E+03  0.90103566615E+03 0.  0.
        -24    2    4    4    0    0 -0.19491035535E+03 -0.37630195975E+03  0.13892822190E+03  0.45296952246E+03  0.79291398655E+02 0.  0.
         24    2    4    4    0    0  0.36860287457E+03  0.30588947073E+03  0.67792354841E+02  0.49028318937E+03  0.79657736348E+02 0.  0.
         11    1    3    3    0    0 -0.17900015869E+03  0.49061750614E+02  0.33448788085E+01  0.18563216424E+03  0.00000000000E+00 0.  1.
        -11    1    3    3    0    0  0.53076394724E+01  0.21350738405E+02  0.81201866865E+01  0.23451279262E+02  0.00000000000E+00 0. -1.
          2    1    6    6  502    0  0.20986185085E+03  0.13356270306E+03  0.99814542263E+01  0.24895907599E+03  0.00000000000E+00 0. -1.
          1    1    5    5  503    0 -0.79863739100E+02 -0.79730554011E+02  0.42225019781E+02  0.12049120450E+03  0.00000000000E+00 0. -1.
         -2    1    5    5    0  503 -0.11504661625E+03 -0.29657140574E+03  0.96703202120E+02  0.33247831796E+03  0.00000000000E+00 0.  1.
         -1    1    6    6    0  502  0.15874102372E+03  0.17232676768E+03  0.57810900615E+02  0.24132411338E+03  0.00000000000E+00 0.  1.
<mgrwt>
<rscale>  0 0.11314918E+04</rscale>
<asrwt>0</asrwt>
<pdfrwt beam="1">  1        2 0.10542475E+00 0.11314918E+04</pdfrwt>
<pdfrwt beam="2">  1       -2 0.71857732E-01 0.11314918E+04</pdfrwt>
<totfact> 0.73252634E+01</totfact>
</mgrwt>
</event>
<event>
12    1  0.2404959E-007  0.2392804E+04  0.7818608E-02  0.8442202E-01
         -3   -1    0    0    0  501 -0.00000000000E+00  0.00000000000E+00  0.90611778797E+03  0.90611778797E+03  0.00000000000E+00 0. -1.
          3   -1    0    0  501    0  0.00000000000E+00 -0.00000000000E+00 -0.15796820542E+04  0.15796820542E+04  0.00000000000E+00 0.  1.
         23    2    1    2    0    0 -0.96119510096E+03 -0.12164324283E+03 -0.63764833323E+03  0.11635857454E+04  0.92969292835E+02 0.  0.
        254    2    1    2    0    0  0.96119510096E+03  0.12164324283E+03 -0.35915933024E+02  0.13222140968E+04  0.89903674165E+03 0.  0.
        -24    2    4    4    0    0  0.10752602273E+04  0.26941151586E+03  0.27191931533E+02  0.11116279178E+04  0.78804220386E+02 0.  0.
         24    2    4    4    0    0 -0.11406512633E+03 -0.14776827303E+03 -0.63107864557E+02  0.21058617901E+03  0.74280688339E+02 0.  0.
         11    1    3    3    0    0 -0.40531294916E+03 -0.47488138902E+02 -0.21432745296E+03  0.46094464655E+03  0.00000000000E+00 0. -1.
        -11    1    3    3    0    0 -0.55588215180E+03 -0.74155103930E+02 -0.42332088027E+03  0.70264109886E+03  0.00000000000E+00 0.  1.
          2    1    6    6  502    0 -0.11218282564E+03 -0.15332416499E+03 -0.69139790458E+02  0.20217219532E+03  0.00000000000E+00 0. -1.
          3    1    5    5  503    0  0.97606178963E+03  0.25873030602E+03  0.68033799629E+01  0.10097941743E+04  0.00000000000E+00 0. -1.
         -2    1    5    5    0  503  0.99198437656E+02  0.10681209841E+02  0.20388551570E+02  0.10183374349E+03  0.00000000000E+00 0.  1.
         -1    1    6    6    0  502 -0.18823006911E+01  0.55558919565E+01  0.60319259012E+01  0.84139836820E+01  0.00000000000E+00 0.  1.
<mgrwt>
<rscale>  0 0.23928042E+04</rscale>
<asrwt>0</asrwt>
<pdfrwt beam="1">  1        3 0.24302801E+00 0.23928042E+04</pdfrwt>
<pdfrwt beam="2">  1       -3 0.13940274E+00 0.23928042E+04</pdfrwt>
<totfact> 0.74023285E-02</totfact>
</mgrwt>
</event>
<event>
12    1  0.2404959E-007  0.1867418E+04  0.7818608E-02  0.8671247E-01
          2   -1    0    0  501    0  0.00000000000E+00  0.00000000000E+00  0.14936863416E+04  0.14936863416E+04  0.00000000000E+00 0. -1.
         -2   -1    0    0    0  501 -0.00000000000E+00 -0.00000000000E+00 -0.58366503047E+03  0.58366503047E+03  0.00000000000E+00 0.  1.
         23    2    1    2    0    0 -0.36914494654E+03  0.13168180839E+03  0.10124125101E+04  0.10895630525E+04  0.92522778342E+02 0.  0.
        254    2    1    2    0    0  0.36914494654E+03 -0.13168180839E+03 -0.10239119904E+03  0.98778831953E+03  0.90090716299E+03 0.  0.
        -24    2    4    4    0    0  0.23493534063E+03 -0.47031157439E+03  0.12905655274E+03  0.54776809718E+03  0.83706052344E+02 0.  0.
         24    2    4    4    0    0  0.13420960591E+03  0.33862976600E+03 -0.23144775178E+03  0.44002022235E+03  0.85833545485E+02 0.  0.
         13    1    3    3    0    0 -0.21604212909E+03  0.51696965759E+02  0.67315658342E+03  0.70886286658E+03  0.00000000000E+00 0. -1.
        -13    1    3    3    0    0 -0.15310281745E+03  0.79984842630E+02  0.33925592671E+03  0.38070018593E+03  0.00000000000E+00 0.  1.
          2    1    6    6  502    0  0.45489570641E+02  0.42103291501E+02 -0.19830033964E+02  0.65078555910E+02  0.00000000000E+00 0. -1.
          3    1    5    5  503    0  0.17266287352E+02 -0.36055707081E+02 -0.12364677583E+02  0.41845238006E+02  0.00000000000E+00 0. -1.
         -4    1    5    5    0  503  0.21766905328E+03 -0.43425586731E+03  0.14142123032E+03  0.50592285917E+03  0.00000000000E+00 0.  1.
         -1    1    6    6    0  502  0.88720035267E+02  0.29652647450E+03 -0.21161771781E+03  0.37494166644E+03  0.00000000000E+00 0.  1.
<mgrwt>
<rscale>  0 0.18674180E+04</rscale>
<asrwt>0</asrwt>
<pdfrwt beam="1">  1        2 0.22979790E+00 0.18674180E+04</pdfrwt>
<pdfrwt beam="2">  1       -2 0.89794621E-01 0.18674180E+04</pdfrwt>
<totfact> 0.12768501E+01</totfact>
</mgrwt>
</event>
<event>
12    1  0.2404959E-007  0.2821250E+04  0.7818608E-02  0.8296701E-01
          1   -1    0    0  501    0  0.00000000000E+00  0.00000000000E+00  0.23437801209E+04  0.23437801209E+04  0.00000000000E+00 0. -1.
         -1   -1    0    0    0  501 -0.00000000000E+00 -0.00000000000E+00 -0.84899729937E+03  0.84899729937E+03  0.00000000000E+00 0.  1.
         23    2    1    2    0    0 -0.57601459863E+03 -0.51639832038E+03 -0.46123686452E+03  0.90501617273E+03  0.88627222633E+02 0.  0.
        254    2    1    2    0    0  0.57601459863E+03  0.51639832038E+03  0.19560196860E+04  0.22877612475E+04  0.89965463948E+03 0.  0.
        -24    2    4    4    0    0  0.78545942257E+02 -0.67193859508E+02 -0.50138223401E+02  0.13850761159E+03  0.77369485081E+02 0.  0.
         24    2    4    4    0    0  0.49746865637E+03  0.58359217988E+03  0.20061579094E+04  0.21492536359E+04  0.81035408620E+02 0.  0.
         13    1    3    3    0    0 -0.38599352033E+03 -0.38207361991E+03 -0.35766421640E+03  0.65030372939E+03  0.00000000000E+00 0.  1.
        -13    1    3    3    0    0 -0.19002107830E+03 -0.13432470047E+03 -0.10357264812E+03  0.25471244334E+03  0.00000000000E+00 0. -1.
          4    1    6    6  502    0  0.29890479583E+02  0.69781366420E+02  0.17585378906E+03  0.19153964341E+03  0.00000000000E+00 0. -1.
          3    1    5    5  503    0  0.57000807565E+01 -0.27458047478E+02  0.16097318701E+02  0.32335104164E+02  0.00000000000E+00 0. -1.
         -4    1    5    5    0  503  0.72845861500E+02 -0.39735812030E+02 -0.66235542102E+02  0.10617250742E+03  0.00000000000E+00 0.  1.
         -3    1    6    6    0  502  0.46757817679E+03  0.51381081346E+03  0.18303041203E+04  0.19577139925E+04  0.00000000000E+00 0.  1.
<mgrwt>
<rscale>  0 0.28212501E+04</rscale>
<asrwt>0</asrwt>
<pdfrwt beam="1">  1        1 0.36058155E+00 0.28212501E+04</pdfrwt>
<pdfrwt beam="2">  1       -1 0.13061497E+00 0.28212501E+04</pdfrwt>
<totfact> 0.75184433E-01</totfact>
</mgrwt>
</event>
<event>
12    1  0.2404959E-007  0.1186355E+04  0.7818608E-02  0.9124885E-01
         -2   -1    0    0    0  501 -0.00000000000E+00  0.00000000000E+00  0.17468443419E+03  0.17468443419E+03  0.00000000000E+00 0.  1.
          2   -1    0    0  501    0  0.00000000000E+00 -0.00000000000E+00 -0.20142577920E+04  0.20142577920E+04  0.00000000000E+00 0. -1.
         23    2    1    2    0    0 -0.49206420557E+02  0.20538164937E+03 -0.20056328110E+03  0.30548680382E+03  0.92161075625E+02 0.  0.
        254    2    1    2    0    0  0.49206420557E+02 -0.20538164937E+03 -0.16390100767E+04  0.18834554223E+04  0.90357479091E+03 0.  0.
        -24    2    4    4    0    0 -0.71979085106E+02  0.62158925918E+02 -0.15655447055E+04  0.15704653661E+04  0.79915708916E+02 0.  0.
         24    2    4    4    0    0  0.12118550566E+03 -0.26754057529E+03 -0.73465371177E+02  0.31299005621E+03  0.79383425966E+02 0.  0.
         13    1    3    3    0    0  0.25355714405E+02  0.53766756759E+02 -0.70813976296E+02  0.92457534166E+02  0.00000000000E+00 0.  1.
        -13    1    3    3    0    0 -0.74562134962E+02  0.15161489261E+03 -0.12974930480E+03  0.21302926965E+03  0.00000000000E+00 0. -1.
          2    1    6    6  502    0  0.12847889643E+03 -0.26758444370E+03 -0.73037194903E+02  0.30568397599E+03  0.00000000000E+00 0. -1.
          1    1    5    5  503    0 -0.70233530076E+02  0.87585135123E+01 -0.90458544215E+03  0.90735014325E+03  0.00000000000E+00 0. -1.
         -2    1    5    5    0  503 -0.17455550303E+01  0.53400412406E+02 -0.66095926333E+03  0.66311522286E+03  0.00000000000E+00 0.  1.
         -1    1    6    6    0  502 -0.72933907645E+01  0.43868414830E-01 -0.42817627414E+00  0.73060802215E+01  0.00000000000E+00 0.  1.
<mgrwt>
<rscale>  0 0.11863549E+04</rscale>
<asrwt>0</asrwt>
<pdfrwt beam="1">  1        2 0.30988580E+00 0.11863549E+04</pdfrwt>
<pdfrwt beam="2">  1       -2 0.26874529E-01 0.11863549E+04</pdfrwt>
<totfact> 0.81580303E+01</totfact>
</mgrwt>
</event>
<event>
12    1  0.2404959E-007  0.3294098E+04  0.7818608E-02  0.8164399E-01
         -1   -1    0    0    0  501 -0.00000000000E+00  0.00000000000E+00  0.98601906305E+03  0.98601906305E+03  0.00000000000E+00 0.  1.
          1   -1    0    0  501    0  0.00000000000E+00 -0.00000000000E+00 -0.27512347600E+04  0.27512347600E+04  0.00000000000E+00 0. -1.
         23    2    1    2    0    0 -0.76730313727E+03 -0.12610046132E+04 -0.12401205956E+04  0.19307184547E+04  0.10434520051E+03 0.  0.
        254    2    1    2    0    0  0.76730313727E+03  0.12610046132E+04 -0.52509510133E+03  0.18065353683E+04  0.89942116530E+03 0.  0.
        -24    2    4    4    0    0  0.34740010926E+03  0.78693043415E+03  0.15101422199E+03  0.87701094287E+03  0.79978463058E+02 0.  0.
         24    2    4    4    0    0  0.41990302801E+03  0.47407417902E+03 -0.67610932332E+03  0.92952442544E+03  0.76334528670E+02 0.  0.
         13    1    3    3    0    0 -0.27590615005E+03 -0.48280210058E+03 -0.40486633323E+03  0.68785087028E+03  0.00000000000E+00 0.  1.
        -13    1    3    3    0    0 -0.49139698722E+03 -0.77820251259E+03 -0.83525426238E+03  0.12428675845E+04  0.00000000000E+00 0. -1.
          2    1    6    6  502    0  0.99535407281E+02  0.87102974612E+02 -0.18099962033E+03  0.22417646631E+03  0.00000000000E+00 0. -1.
          1    1    5    5  503    0  0.47304341108E+02  0.11588821794E+03 -0.60998568893E+01  0.12531954356E+03  0.00000000000E+00 0. -1.
         -2    1    5    5    0  503  0.30009576815E+03  0.67104221622E+03  0.15711407888E+03  0.75169139931E+03  0.00000000000E+00 0.  1.
         -1    1    6    6    0  502  0.32036762073E+03  0.38697120441E+03 -0.49510970299E+03  0.70534795913E+03  0.00000000000E+00 0.  1.
<mgrwt>
<rscale>  0 0.32940977E+04</rscale>
<asrwt>0</asrwt>
<pdfrwt beam="1">  1        1 0.42326688E+00 0.32940977E+04</pdfrwt>
<pdfrwt beam="2">  1       -1 0.15169524E+00 0.32940977E+04</pdfrwt>
<totfact> 0.25345794E-01</totfact>
</mgrwt>
</event>
<event>
12    1  0.2404959E-007  0.2303031E+04  0.7818608E-02  0.8476727E-01
         -1   -1    0    0    0  501 -0.00000000000E+00  0.00000000000E+00  0.98259225027E+03  0.98259225027E+03  0.00000000000E+00 0.  1.
          1   -1    0    0  501    0  0.00000000000E+00 -0.00000000000E+00 -0.13494789948E+04  0.13494789948E+04  0.00000000000E+00 0. -1.
         23    2    1    2    0    0 -0.29140704218E+03  0.92813203572E+03 -0.17183251347E+03  0.99231113637E+03  0.93850086380E+02 0.  0.
        254    2    1    2    0    0  0.29140704218E+03 -0.92813203572E+03 -0.19505423108E+03  0.13397601087E+04  0.90031319877E+03 0.  0.
        -24    2    4    4    0    0 -0.18929301011E+03  0.16372215486E+02  0.11057556108E+03  0.23391269324E+03  0.79926843013E+02 0.  0.
         24    2    4    4    0    0  0.48070005229E+03 -0.94450425121E+03 -0.30562979216E+03  0.11058474155E+04  0.79549454022E+02 0.  0.
         13    1    3    3    0    0 -0.98237681558E+02  0.43543101268E+03 -0.10804837011E+03  0.45926600044E+03  0.00000000000E+00 0.  1.
        -13    1    3    3    0    0 -0.19316936062E+03  0.49270102304E+03 -0.63784143364E+02  0.53304513592E+03  0.00000000000E+00 0. -1.
          2    1    6    6  502    0  0.30735064786E+03 -0.64838187099E+03 -0.23908883667E+03  0.75632462818E+03  0.00000000000E+00 0. -1.
          3    1    5    5  503    0 -0.23257500874E+02 -0.97701005436E+01  0.48623651179E+02  0.54777966972E+02  0.00000000000E+00 0. -1.
         -4    1    5    5    0  503 -0.16603550924E+03  0.26142316030E+02  0.61951909901E+02  0.17913472627E+03  0.00000000000E+00 0.  1.
         -1    1    6    6    0  502  0.17334940444E+03 -0.29612238021E+03 -0.66540955494E+02  0.34952278729E+03  0.00000000000E+00 0.  1.
<mgrwt>
<rscale>  0 0.23030307E+04</rscale>
<asrwt>0</asrwt>
<pdfrwt beam="1">  1        1 0.20761215E+00 0.23030307E+04</pdfrwt>
<pdfrwt beam="2">  1       -1 0.15116804E+00 0.23030307E+04</pdfrwt>
<totfact> 0.25752186E+00</totfact>
</mgrwt>
</event>
<event>
12    1  0.2404959E-007  0.2958019E+04  0.7818608E-02  0.8255822E-01
         -1   -1    0    0    0  501 -0.00000000000E+00  0.00000000000E+00  0.11570753208E+04  0.11570753208E+04  0.00000000000E+00 0.  1.
          1   -1    0    0  501    0  0.00000000000E+00 -0.00000000000E+00 -0.18905152346E+04  0.18905152346E+04  0.00000000000E+00 0. -1.
         23    2    1    2    0    0 -0.42054187160E+03  0.11048794609E+04 -0.97022089062E+03  0.15320509340E+04  0.90760117279E+02 0.  0.
        254    2    1    2    0    0  0.42054187160E+03 -0.11048794609E+04  0.23678097686E+03  0.15155396214E+04  0.91824889019E+03 0.  0.
        -24    2    4    4    0    0  0.56482701291E+03 -0.41918131510E+03 -0.13111735087E+03  0.72018089826E+03  0.82013639597E+02 0.  0.
         24    2    4    4    0    0 -0.14428514131E+03 -0.68569814576E+03  0.36789832773E+03  0.79535872317E+03  0.79032713955E+02 0.  0.
         11    1    3    3    0    0 -0.21032269190E+03  0.60471182240E+03 -0.57828090705E+03  0.86274030295E+03  0.00000000000E+00 0.  1.
        -11    1    3    3    0    0 -0.21021917970E+03  0.50016763845E+03 -0.39193998357E+03  0.66931063101E+03  0.00000000000E+00 0. -1.
          2    1    6    6  502    0 -0.11158041824E+03 -0.52115450722E+03  0.31668747010E+03  0.61995416270E+03  0.00000000000E+00 0. -1.
          3    1    5    5  503    0  0.18789121631E+03 -0.18032842430E+03 -0.25955733233E+02  0.26171578070E+03  0.00000000000E+00 0. -1.
         -4    1    5    5    0  503  0.37693579659E+03 -0.23885289080E+03 -0.10516161764E+03  0.45846511756E+03  0.00000000000E+00 0.  1.
         -1    1    6    6    0  502 -0.32704723066E+02 -0.16454363854E+03  0.51210857635E+02  0.17540456047E+03  0.00000000000E+00 0.  1.
<mgrwt>
<rscale>  0 0.29580186E+04</rscale>
<asrwt>0</asrwt>
<pdfrwt beam="1">  1        1 0.29084850E+00 0.29580186E+04</pdfrwt>
<pdfrwt beam="2">  1       -1 0.17801159E+00 0.29580186E+04</pdfrwt>
<totfact> 0.64964918E-01</totfact>
</mgrwt>
</event>
<event>
12    1  0.2404959E-007  0.1323089E+04  0.7818608E-02  0.9011453E-01
          2   -1    0    0  501    0  0.00000000000E+00  0.00000000000E+00  0.26895446342E+04  0.26895446342E+04  0.00000000000E+00 0. -1.
         -2   -1    0    0    0  501 -0.00000000000E+00 -0.00000000000E+00 -0.16271950033E+03  0.16271950033E+03  0.00000000000E+00 0.  1.
         23    2    1    2    0    0  0.24136381830E+03  0.23146798500E+03  0.88218651386E+03  0.94781323993E+03  0.90900889319E+02 0.  0.
        254    2    1    2    0    0 -0.24136381830E+03 -0.23146798500E+03  0.16446386200E+04  0.19044508946E+04  0.90014615404E+03 0.  0.
        -24    2    4    4    0    0 -0.44442077249E+03  0.16744636520E+03  0.10559417087E+04  0.11605688780E+04  0.79744091872E+02 0.  0.
         24    2    4    4    0    0  0.20305695419E+03 -0.39891435020E+03  0.58869691135E+03  0.74388201662E+03  0.80197355220E+02 0.  0.
         11    1    3    3    0    0  0.69220865667E+02  0.12844646131E+03  0.36603682389E+03  0.39404692374E+03  0.00000000000E+00 0. -1.
        -11    1    3    3    0    0  0.17214295264E+03  0.10302152369E+03  0.51614968997E+03  0.55376631619E+03  0.00000000000E+00 0.  1.
          2    1    6    6  502    0  0.80943086281E+01 -0.40404293784E+00  0.20283027851E+01  0.83543458780E+01  0.00000000000E+00 0. -1.
          1    1    5    5  503    0 -0.13574009213E+03  0.16011227454E+02  0.26662255522E+03  0.29961528493E+03  0.00000000000E+00 0. -1.
         -2    1    5    5    0  503 -0.30868068037E+03  0.15143513774E+03  0.78931915345E+03  0.86095359304E+03  0.00000000000E+00 0.  1.
         -1    1    6    6    0  502  0.19496264556E+03 -0.39851030726E+03  0.58666860856E+03  0.73552767074E+03  0.00000000000E+00 0.  1.
<mgrwt>
<rscale>  0 0.13230894E+04</rscale>
<asrwt>0</asrwt>
<pdfrwt beam="1">  1        2 0.41377607E+00 0.13230894E+04</pdfrwt>
<pdfrwt beam="2">  1       -2 0.25033771E-01 0.13230894E+04</pdfrwt>
<totfact> 0.37976953E+01</totfact>
</mgrwt>
</event>
<event>
12    1  0.3094873E-007  0.2079674E+04  0.7818608E-02  0.8570250E-01
         -2   -1    0    0    0  501 -0.00000000000E+00  0.00000000000E+00  0.51726709018E+03  0.51726709018E+03  0.00000000000E+00 0. -1.
          2   -1    0    0  501    0  0.00000000000E+00 -0.00000000000E+00 -0.20903335347E+04  0.20903335347E+04  0.00000000000E+00 0.  1.
         23    2    1    2    0    0 -0.41867351571E+02  0.78615760565E+03 -0.10170925656E+04  0.12895440216E+04  0.93004519445E+02 0.  0.
        254    2    1    2    0    0  0.41867351571E+02 -0.78615760565E+03 -0.55597387893E+03  0.13180566033E+04  0.89909376562E+03 0.  0.
        -24    2    4    4    0    0 -0.19090541969E+03 -0.89990423572E+03 -0.40903087616E+03  0.10097944696E+04  0.78141541241E+02 0.  0.
         24    2    4    4    0    0  0.23277277126E+03  0.11374663007E+03 -0.14694300277E+03  0.30826213369E+03  0.79447077404E+02 0.  0.
         13    1    3    3    0    0  0.29886377379E+02  0.25482412936E+03 -0.32503080372E+03  0.41409365586E+03  0.00000000000E+00 0. -1.
        -13    1    3    3    0    0 -0.71753728950E+02  0.53133347629E+03 -0.69206176191E+03  0.87545036577E+03  0.00000000000E+00 0.  1.
          4    1    6    6  502    0  0.12099799313E+02 -0.25693780303E+01  0.78837736289E+01  0.14668358241E+02  0.00000000000E+00 0. -1.
          3    1    5    5  503    0 -0.11849787964E+02 -0.19588451082E+02 -0.21580994209E+02  0.31462107393E+02  0.00000000000E+00 0. -1.
         -4    1    5    5    0  503 -0.17905563173E+03 -0.88031578463E+03 -0.38744988195E+03  0.97833236221E+03  0.00000000000E+00 0.  1.
         -3    1    6    6    0  502  0.22067297195E+03  0.11631600810E+03 -0.15482677640E+03  0.29359377544E+03  0.00000000000E+00 0.  1.
<mgrwt>
<rscale>  0 0.20796738E+04</rscale>
<asrwt>0</asrwt>
<pdfrwt beam="1">  1        2 0.32158978E+00 0.20796738E+04</pdfrwt>
<pdfrwt beam="2">  1       -2 0.79579551E-01 0.20796738E+04</pdfrwt>
<totfact> 0.76811535E+00</totfact>
</mgrwt>
</event>
<event>
12    1  0.2404959E-007  0.1961486E+04  0.7818608E-02  0.8624842E-01
         -1   -1    0    0    0  501 -0.00000000000E+00  0.00000000000E+00  0.71096221869E+03  0.71096221869E+03  0.00000000000E+00 0.  1.
          1   -1    0    0  501    0  0.00000000000E+00 -0.00000000000E+00 -0.13528944847E+04  0.13528944847E+04  0.00000000000E+00 0. -1.
         23    2    1    2    0    0  0.24236801162E+02  0.74610416726E+03 -0.45939809205E+03  0.88060828452E+03  0.84649234249E+02 0.  0.
        254    2    1    2    0    0 -0.24236801162E+02 -0.74610416726E+03 -0.18253417398E+03  0.11832484189E+04  0.89972175988E+03 0.  0.
        -24    2    4    4    0    0  0.30597883484E+03  0.27117997122E+02  0.84949699158E+01  0.31736321741E+03  0.79302043566E+02 0.  0.
         24    2    4    4    0    0 -0.33021563600E+03 -0.77322216438E+03 -0.19102914390E+03  0.86588520149E+03  0.79687932473E+02 0.  0.
         11    1    3    3    0    0 -0.14500136258E+02  0.50086260846E+03 -0.27710915533E+03  0.57259330285E+03  0.00000000000E+00 0.  1.
        -11    1    3    3    0    0  0.38736937419E+02  0.24524155880E+03 -0.18228893671E+03  0.30801498167E+03  0.00000000000E+00 0. -1.
          2    1    6    6  502    0 -0.17171439615E+03 -0.49835261858E+03 -0.11135863848E+03  0.53874104416E+03  0.00000000000E+00 0. -1.
          1    1    5    5  503    0  0.30299765945E+03  0.13854082294E+02  0.51275357911E+01  0.30335755941E+03  0.00000000000E+00 0. -1.
         -2    1    5    5    0  503  0.29811753822E+01  0.13263914828E+02  0.33674341247E+01  0.14005657993E+02  0.00000000000E+00 0.  1.
         -1    1    6    6    0  502 -0.15850123984E+03 -0.27486954580E+03 -0.79670505425E+02  0.32714415733E+03  0.00000000000E+00 0.  1.
<mgrwt>
<rscale>  0 0.19614860E+04</rscale>
<asrwt>0</asrwt>
<pdfrwt beam="1">  1        1 0.20813761E+00 0.19614860E+04</pdfrwt>
<pdfrwt beam="2">  1       -1 0.10937881E+00 0.19614860E+04</pdfrwt>
<totfact> 0.59710652E+00</totfact>
</mgrwt>
</event>
<event>
12    1  0.2404959E-007  0.3506727E+04  0.7818608E-02  0.8112197E-01
         -2   -1    0    0    0  501 -0.00000000000E+00  0.00000000000E+00  0.11545707404E+04  0.11545707404E+04  0.00000000000E+00 0.  1.
          2   -1    0    0  501    0  0.00000000000E+00 -0.00000000000E+00 -0.26627076467E+04  0.26627076467E+04  0.00000000000E+00 0. -1.
         23    2    1    2    0    0  0.96899959738E+03  0.62500709286E+03  0.55920797323E+03  0.12844962593E+04  0.87309776519E+02 0.  0.
        254    2    1    2    0    0 -0.96899959738E+03 -0.62500709286E+03 -0.20673448796E+04  0.25327821277E+04  0.90081983191E+03 0.  0.
        -24    2    4    4    0    0 -0.77667876871E+03  0.40024099409E+01 -0.13242984087E+04  0.15372927090E+04  0.79099107804E+02 0.  0.
         24    2    4    4    0    0 -0.19232082867E+03 -0.62900950280E+03 -0.74304647089E+03  0.99548941872E+03  0.78999171697E+02 0.  0.
         11    1    3    3    0    0  0.27009818736E+02  0.95006680768E+01  0.16377883525E+01  0.28678831091E+02  0.00000000000E+00 0. -1.
        -11    1    3    3    0    0  0.94198977865E+03  0.61550642479E+03  0.55757018488E+03  0.12558174282E+04  0.00000000000E+00 0.  1.
          2    1    6    6  502    0 -0.12788648873E+03 -0.31496861935E+03 -0.42055764723E+03  0.54076697368E+03  0.00000000000E+00 0. -1.
          1    1    5    5  503    0 -0.53878071758E+03  0.37220254619E+02 -0.94003621972E+03  0.10841301137E+04  0.00000000000E+00 0. -1.
         -4    1    5    5    0  503 -0.23789805113E+03 -0.33217844678E+02 -0.38426218899E+03  0.45316259535E+03  0.00000000000E+00 0.  1.
         -1    1    6    6    0  502 -0.64434339942E+02 -0.31404088345E+03 -0.32248882366E+03  0.45472244504E+03  0.00000000000E+00 0.  1.
<mgrwt>
<rscale>  0 0.35067274E+04</rscale>
<asrwt>0</asrwt>
<pdfrwt beam="1">  1        2 0.40964732E+00 0.35067274E+04</pdfrwt>
<pdfrwt beam="2">  1       -2 0.17762627E+00 0.35067274E+04</pdfrwt>
<totfact> 0.43214383E-01</totfact>
</mgrwt>
</event>
<event>
12    1  0.2404959E-007  0.2534056E+04  0.7818608E-02  0.8390952E-01
         -1   -1    0    0    0  501 -0.00000000000E+00  0.00000000000E+00  0.82930833356E+03  0.82930833356E+03  0.00000000000E+00 0.  1.
          1   -1    0    0  501    0  0.00000000000E+00 -0.00000000000E+00 -0.19357822265E+04  0.19357822265E+04  0.00000000000E+00 0. -1.
         23    2    1    2    0    0  0.89942666657E+03 -0.51902936236E+03 -0.89720513158E+03  0.13754899637E+04  0.92928921979E+02 0.  0.
        254    2    1    2    0    0 -0.89942666657E+03  0.51902936236E+03 -0.20926876136E+03  0.13896005964E+04  0.89935343186E+03 0.  0.
        -24    2    4    4    0    0 -0.69246901849E+03  0.74701803963E+03 -0.28928900907E+03  0.10620053258E+04  0.81350403641E+02 0.  0.
         24    2    4    4    0    0 -0.20695764809E+03 -0.22798867726E+03  0.80020247713E+02  0.32759527056E+03  0.78135242934E+02 0.  0.
         13    1    3    3    0    0  0.44807922185E+02 -0.49564021674E+01 -0.33590547035E+02  0.56219575444E+02  0.00000000000E+00 0. -1.
        -13    1    3    3    0    0  0.85461874439E+03 -0.51407296020E+03 -0.86361458454E+03  0.13192703882E+04  0.00000000000E+00 0.  1.
          2    1    6    6  502    0 -0.19639162557E+03 -0.18383985024E+03  0.51245588873E+02  0.27384826366E+03  0.00000000000E+00 0. -1.
          3    1    5    5  503    0 -0.15801497868E+03  0.22328837742E+03 -0.75028746114E+02  0.28364722054E+03  0.00000000000E+00 0. -1.
         -4    1    5    5    0  503 -0.53445403981E+03  0.52372966221E+03 -0.21426026296E+03  0.77835810526E+03  0.00000000000E+00 0.  1.
         -1    1    6    6    0  502 -0.10566022513E+02 -0.44148827024E+02  0.28774658841E+02  0.53747006900E+02  0.00000000000E+00 0.  1.
<mgrwt>
<rscale>  0 0.25340563E+04</rscale>
<asrwt>0</asrwt>
<pdfrwt beam="1">  1        1 0.29781264E+00 0.25340563E+04</pdfrwt>
<pdfrwt beam="2">  1       -1 0.12758590E+00 0.25340563E+04</pdfrwt>
<totfact> 0.15514039E+00</totfact>
</mgrwt>
</event>
<event>
12    1  0.2404959E-007  0.2138890E+04  0.7818608E-02  0.8544303E-01
          2   -1    0    0  501    0  0.00000000000E+00  0.00000000000E+00  0.28454038101E+04  0.28454038101E+04  0.00000000000E+00 0. -1.
         -2   -1    0    0    0  501 -0.00000000000E+00 -0.00000000000E+00 -0.40195079081E+03  0.40195079081E+03  0.00000000000E+00 0.  1.
         23    2    1    2    0    0  0.13029059756E+03 -0.67919458233E+03  0.18249788692E+04  0.19537652560E+04  0.91487059748E+02 0.  0.
        254    2    1    2    0    0 -0.13029059756E+03  0.67919458233E+03  0.61847415008E+03  0.12935893449E+04  0.90143341319E+03 0.  0.
        -24    2    4    4    0    0 -0.31129356095E+03  0.53902298554E+03  0.78087301313E+03  0.10017067772E+04  0.78767664074E+02 0.  0.
         24    2    4    4    0    0  0.18100296339E+03  0.14017159678E+03 -0.16239886305E+03  0.29188256764E+03  0.80074298461E+02 0.  0.
         13    1    3    3    0    0  0.37526432219E+02 -0.99288882049E+02  0.36425408725E+03  0.37940421095E+03  0.00000000000E+00 0. -1.
        -13    1    3    3    0    0  0.92764165337E+02 -0.57990570028E+03  0.14607247819E+04  0.15743610450E+04  0.00000000000E+00 0.  1.
          4    1    6    6  502    0  0.31940449338E+02  0.50868099831E+02 -0.10277710259E+02  0.60937568154E+02  0.00000000000E+00 0. -1.
          3    1    5    5  503    0 -0.71232028919E+00  0.82315927409E+00 -0.19547299065E+01  0.22374003648E+01  0.00000000000E+00 0. -1.
         -4    1    5    5    0  503 -0.31058124066E+03  0.53819982627E+03  0.78282774304E+03  0.99946937688E+03  0.00000000000E+00 0.  1.
         -3    1    6    6    0  502  0.14906251405E+03  0.89303496952E+02 -0.15212115279E+03  0.23094499949E+03  0.00000000000E+00 0.  1.
<mgrwt>
<rscale>  0 0.21388897E+04</rscale>
<asrwt>0</asrwt>
<pdfrwt beam="1">  1        2 0.43775442E+00 0.21388897E+04</pdfrwt>
<pdfrwt beam="2">  1       -2 0.61838585E-01 0.21388897E+04</pdfrwt>
<totfact> 0.48473454E+00</totfact>
</mgrwt>
</event>
<event>
12    1  0.2404959E-007  0.1604548E+04  0.7818608E-02  0.8817759E-01
         -2   -1    0    0    0  501 -0.00000000000E+00  0.00000000000E+00  0.17138792057E+03  0.17138792057E+03  0.00000000000E+00 0. -1.
          2   -1    0    0  501    0  0.00000000000E+00 -0.00000000000E+00 -0.37554760207E+04  0.37554760207E+04  0.00000000000E+00 0.  1.
         23    2    1    2    0    0  0.35433533224E+03 -0.40116272280E+03 -0.14620386436E+04  0.15595100781E+04  0.89608204920E+02 0.  0.
        254    2    1    2    0    0 -0.35433533224E+03  0.40116272280E+03 -0.21220494566E+04  0.23673538633E+04  0.90265461825E+03 0.  0.
        -24    2    4    4    0    0 -0.14342668684E+03 -0.53753046873E+02 -0.16954413491E+04  0.17042522516E+04  0.80583894789E+02 0.  0.
         24    2    4    4    0    0 -0.21090864541E+03  0.45491576967E+03 -0.42660810745E+03  0.66310161168E+03  0.79236707851E+02 0.  0.
         13    1    3    3    0    0  0.31341441695E+03 -0.30179281004E+03 -0.11585556105E+04  0.12375615539E+04  0.00000000000E+00 0. -1.
        -13    1    3    3    0    0  0.40920915293E+02 -0.99369912752E+02 -0.30348303306E+03  0.32194852419E+03  0.00000000000E+00 0.  1.
          4    1    6    6  502    0 -0.15468118299E+03  0.28705322497E+03 -0.23305390963E+03  0.40079913565E+03  0.00000000000E+00 0. -1.
          3    1    5    5  503    0 -0.10681176795E+03 -0.20030989125E+02 -0.14341585763E+04  0.14382700777E+04  0.00000000000E+00 0. -1.
         -2    1    5    5    0  503 -0.36614918890E+02 -0.33722057748E+02 -0.26128277281E+03  0.26598217390E+03  0.00000000000E+00 0.  1.
         -3    1    6    6    0  502 -0.56227462414E+02  0.16786254469E+03 -0.19355419782E+03  0.26230247603E+03  0.00000000000E+00 0.  1.
<mgrwt>
<rscale>  0 0.16045476E+04</rscale>
<asrwt>0</asrwt>
<pdfrwt beam="1">  1        2 0.57776555E+00 0.16045476E+04</pdfrwt>
<pdfrwt beam="2">  1       -2 0.26367372E-01 0.16045476E+04</pdfrwt>
<totfact> 0.67279861E+00</totfact>
</mgrwt>
</event>
<event>
12    1  0.2404959E-007  0.1849651E+04  0.7818608E-02  0.8680332E-01
         -2   -1    0    0    0  501 -0.00000000000E+00  0.00000000000E+00  0.37755769532E+03  0.37755769532E+03  0.00000000000E+00 0.  1.
          2   -1    0    0  501    0  0.00000000000E+00 -0.00000000000E+00 -0.22653557420E+04  0.22653557420E+04  0.00000000000E+00 0. -1.
         23    2    1    2    0    0 -0.42466416894E+03 -0.39867027260E+03 -0.12854147946E+04  0.14142353864E+04  0.92156884610E+02 0.  0.
        254    2    1    2    0    0  0.42466416894E+03  0.39867027260E+03 -0.60238325202E+03  0.12286780508E+04  0.89861366987E+03 0.  0.
        -24    2    4    4    0    0  0.47218766140E+03  0.63415064545E+03 -0.55909740905E+03  0.97167567442E+03  0.80345969057E+02 0.  0.
         24    2    4    4    0    0 -0.47523492462E+02 -0.23548037286E+03 -0.43285842978E+02  0.25700237643E+03  0.80418088443E+02 0.  0.
         13    1    3    3    0    0 -0.35615857665E+03 -0.35670068168E+03 -0.10344774714E+04  0.11507510360E+04  0.00000000000E+00 0.  1.
        -13    1    3    3    0    0 -0.68505592291E+02 -0.41969590915E+02 -0.25093732321E+03  0.26348435042E+03  0.00000000000E+00 0. -1.
          2    1    6    6  502    0 -0.26213025586E+02 -0.93018640363E+02 -0.57174383190E+02  0.11228757838E+03  0.00000000000E+00 0. -1.
          1    1    5    5  503    0  0.46406691267E+03  0.61409618214E+03 -0.52654514868E+03  0.93258887723E+03  0.00000000000E+00 0. -1.
         -2    1    5    5    0  503  0.81207487357E+01  0.20054463318E+02 -0.32552260367E+02  0.39086797183E+02  0.00000000000E+00 0.  1.
         -1    1    6    6    0  502 -0.21310466876E+02 -0.14246173249E+03  0.13888540212E+02  0.14471479804E+03  0.00000000000E+00 0.  1.
<mgrwt>
<rscale>  0 0.18496513E+04</rscale>
<asrwt>0</asrwt>
<pdfrwt beam="1">  1        2 0.34851627E+00 0.18496513E+04</pdfrwt>
<pdfrwt beam="2">  1       -2 0.58085799E-01 0.18496513E+04</pdfrwt>
<totfact> 0.12373998E+01</totfact>
</mgrwt>
</event>
<event>
12    1  0.2404959E-007  0.2325519E+04  0.7818608E-02  0.8467927E-01
          1   -1    0    0  501    0  0.00000000000E+00  0.00000000000E+00  0.11947550389E+04  0.11947550389E+04  0.00000000000E+00 0. -1.
         -1   -1    0    0    0  501 -0.00000000000E+00 -0.00000000000E+00 -0.11316207157E+04  0.11316207157E+04  0.00000000000E+00 0.  1.
         23    2    1    2    0    0 -0.61257773515E+03 -0.65869207464E+03 -0.37679500567E+03  0.97948738091E+03  0.91073169882E+02 0.  0.
        254    2    1    2    0    0  0.61257773515E+03  0.65869207464E+03  0.43992932886E+03  0.13468883737E+04  0.90080172408E+03 0.  0.
        -24    2    4    4    0    0  0.58185647810E+03  0.52679844695E+03 -0.89716021066E+02  0.79409590784E+03  0.80410083895E+02 0.  0.
         24    2    4    4    0    0  0.30721257050E+02  0.13189362770E+03  0.52964534992E+03  0.55279246590E+03  0.81948697339E+02 0.  0.
         13    1    3    3    0    0 -0.39198190002E+03 -0.46828943266E+03 -0.22418300878E+03  0.65054040928E+03  0.00000000000E+00 0. -1.
        -13    1    3    3    0    0 -0.22059583513E+03 -0.19040264199E+03 -0.15261199689E+03  0.32894697163E+03  0.00000000000E+00 0.  1.
          4    1    6    6  502    0  0.11845723499E+02  0.12945255419E+03  0.50604022412E+03  0.52247008850E+03  0.00000000000E+00 0. -1.
          3    1    5    5  503    0  0.26012129068E+03  0.28814814896E+03 -0.34435358138E+02  0.38971558284E+03  0.00000000000E+00 0. -1.
         -4    1    5    5    0  503  0.32173518742E+03  0.23865029799E+03 -0.55280662928E+02  0.40438032500E+03  0.00000000000E+00 0.  1.
         -3    1    6    6    0  502  0.18875533551E+02  0.24410735025E+01  0.23605125807E+02  0.30322377398E+02  0.00000000000E+00 0.  1.
<mgrwt>
<rscale>  0 0.23255189E+04</rscale>
<asrwt>0</asrwt>
<pdfrwt beam="1">  1        1 0.18380847E+00 0.23255189E+04</pdfrwt>
<pdfrwt beam="2">  1       -1 0.17409550E+00 0.23255189E+04</pdfrwt>
<totfact> 0.22330146E+00</totfact>
</mgrwt>
</event>
<event>
12    1  0.2404959E-007  0.1398692E+04  0.7818608E-02  0.8954766E-01
          2   -1    0    0  501    0  0.00000000000E+00  0.00000000000E+00  0.17606114432E+04  0.17606114432E+04  0.00000000000E+00 0.  1.
         -2   -1    0    0    0  501 -0.00000000000E+00 -0.00000000000E+00 -0.27779242669E+03  0.27779242669E+03  0.00000000000E+00 0. -1.
         23    2    1    2    0    0 -0.21167791944E+03  0.19925164591E+03  0.84799422238E+03  0.90088748527E+03  0.89416441142E+02 0.  0.
        254    2    1    2    0    0  0.21167791944E+03 -0.19925164591E+03  0.63482479417E+03  0.11375163847E+04  0.89801572708E+03 0.  0.
        -24    2    4    4    0    0 -0.71308600556E+02 -0.47028295178E+03  0.54226919049E+03  0.72575601134E+03  0.80093331790E+02 0.  0.
         24    2    4    4    0    0  0.28298652000E+03  0.27103130586E+03  0.92555603688E+02  0.41176037332E+03  0.86259642970E+02 0.  0.
         13    1    3    3    0    0 -0.12231840210E+03  0.13805502099E+03  0.40793474449E+03  0.44769603089E+03  0.00000000000E+00 0. -1.
        -13    1    3    3    0    0 -0.89359517336E+02  0.61196624928E+02  0.44005947789E+03  0.45319145438E+03  0.00000000000E+00 0.  1.
          4    1    6    6  502    0  0.17919765123E+02  0.48079797883E+02  0.31062075985E+02  0.59980309361E+02  0.00000000000E+00 0. -1.
          1    1    5    5  503    0  0.16764005118E+02 -0.54450707613E+02  0.55765328964E+02  0.79722539734E+02  0.00000000000E+00 0. -1.
         -2    1    5    5    0  503 -0.88072605674E+02 -0.41583224416E+03  0.48650386152E+03  0.64603347160E+03  0.00000000000E+00 0.  1.
         -3    1    6    6    0  502  0.26506675487E+03  0.22295150798E+03  0.61493527703E+02  0.35178006396E+03  0.00000000000E+00 0.  1.
<mgrwt>
<rscale>  0 0.13986916E+04</rscale>
<asrwt>0</asrwt>
<pdfrwt beam="1">  1        2 0.27086329E+00 0.13986916E+04</pdfrwt>
<pdfrwt beam="2">  1       -2 0.42737298E-01 0.13986916E+04</pdfrwt>
<totfact> 0.45846396E+01</totfact>
</mgrwt>
</event>
<event>
12    1  0.2404959E-007  0.1179496E+04  0.7818608E-02  0.9130996E-01
         -2   -1    0    0    0  501 -0.00000000000E+00  0.00000000000E+00  0.40521023887E+03  0.40521023887E+03  0.00000000000E+00 0.  1.
          2   -1    0    0  501    0  0.00000000000E+00 -0.00000000000E+00 -0.85832588636E+03  0.85832588636E+03  0.00000000000E+00 0. -1.
         23    2    1    2    0    0 -0.18058734467E+03 -0.15729609742E+01  0.61777627027E+02  0.21100423339E+03  0.89955811636E+02 0.  0.
        254    2    1    2    0    0  0.18058734467E+03  0.15729609742E+01 -0.51489327452E+03  0.10525318918E+04  0.90005224067E+03 0.  0.
        -24    2    4    4    0    0  0.50687086451E+03 -0.16415522730E+03 -0.35695329201E+03  0.64611737821E+03  0.78657496773E+02 0.  0.
         24    2    4    4    0    0 -0.32628351984E+03  0.16572818827E+03 -0.15793998250E+03  0.40641451364E+03  0.79378530556E+02 0.  0.
         11    1    3    3    0    0 -0.12184197067E+03 -0.10225627215E+02 -0.40692558924E+01  0.12233800764E+03  0.00000000000E+00 0. -1.
        -11    1    3    3    0    0 -0.58745373996E+02  0.86526662410E+01  0.65846882919E+02  0.88666225752E+02  0.00000000000E+00 0.  1.
          4    1    6    6  502    0 -0.68448762621E+02  0.46249447175E+02 -0.71861620297E+02  0.10949126422E+03  0.00000000000E+00 0. -1.
          3    1    5    5  503    0  0.20765845091E+03 -0.60779058309E+02 -0.99853020602E+02  0.23829971021E+03  0.00000000000E+00 0. -1.
         -4    1    5    5    0  503  0.29921241360E+03 -0.10337616899E+03 -0.25710027141E+03  0.40781766800E+03  0.00000000000E+00 0.  1.
         -3    1    6    6    0  502 -0.25783475722E+03  0.11947874109E+03 -0.86078362205E+02  0.29692324942E+03  0.00000000000E+00 0.  1.
<mgrwt>
<rscale>  0 0.11794955E+04</rscale>
<asrwt>0</asrwt>
<pdfrwt beam="1">  1        2 0.13205014E+00 0.11794955E+04</pdfrwt>
<pdfrwt beam="2">  1       -2 0.62340037E-01 0.11794955E+04</pdfrwt>
<totfact> 0.73903753E+01</totfact>
</mgrwt>
</event>
<event>
12    1  0.2404959E-007  0.1409543E+04  0.7818608E-02  0.8946940E-01
          2   -1    0    0  501    0  0.00000000000E+00  0.00000000000E+00  0.26048108770E+04  0.26048108770E+04  0.00000000000E+00 0. -1.
         -2   -1    0    0    0  501 -0.00000000000E+00 -0.00000000000E+00 -0.19068664184E+03  0.19068664184E+03  0.00000000000E+00 0.  1.
         23    2    1    2    0    0 -0.15194735235E+03  0.34013018216E+03  0.42162712427E+03  0.56990608921E+03  0.90812883979E+02 0.  0.
        254    2    1    2    0    0  0.15194735235E+03 -0.34013018216E+03  0.19924971109E+04  0.22255914296E+04  0.91893195398E+03 0.  0.
        -24    2    4    4    0    0  0.22166617460E+03 -0.60327392497E+03  0.16955241496E+04  0.18150317167E+04  0.80390728996E+02 0.  0.
         24    2    4    4    0    0 -0.69718822249E+02  0.26314374281E+03  0.29697296131E+03  0.41055971293E+03  0.79126446759E+02 0.  0.
         11    1    3    3    0    0 -0.96733655535E+02  0.28474369262E+03  0.36718164211E+03  0.47461429488E+03  0.00000000000E+00 0. -1.
        -11    1    3    3    0    0 -0.55213696811E+02  0.55386489541E+02  0.54445482156E+02  0.95291794329E+02  0.00000000000E+00 0.  1.
          4    1    6    6  502    0 -0.64071205987E+01  0.13389430175E+02  0.55455968910E+02  0.57408122443E+02  0.00000000000E+00 0. -1.
          3    1    5    5  503    0  0.75452390492E+02 -0.27779572822E+03  0.67053594100E+03  0.72971362741E+03  0.00000000000E+00 0. -1.
         -4    1    5    5    0  503  0.14621378410E+03 -0.32547819675E+03  0.10249882086E+04  0.10853180893E+04  0.00000000000E+00 0.  1.
         -3    1    6    6    0  502 -0.63311701650E+02  0.24975431263E+03  0.24151699240E+03  0.35315159049E+03  0.00000000000E+00 0.  1.
<mgrwt>
<rscale>  0 0.14095427E+04</rscale>
<asrwt>0</asrwt>
<pdfrwt beam="1">  1        2 0.40074011E+00 0.14095427E+04</pdfrwt>
<pdfrwt beam="2">  1       -2 0.29336408E-01 0.14095427E+04</pdfrwt>
<totfact> 0.31582604E+01</totfact>
</mgrwt>
</event>
<event>
12    1  0.2404959E-007  0.1365070E+04  0.7818608E-02  0.8979498E-01
         -2   -1    0    0    0  501 -0.00000000000E+00  0.00000000000E+00  0.20580438562E+03  0.20580438562E+03  0.00000000000E+00 0.  1.
          2   -1    0    0  501    0  0.00000000000E+00 -0.00000000000E+00 -0.22635766396E+04  0.22635766396E+04  0.00000000000E+00 0. -1.
         23    2    1    2    0    0 -0.28138104783E+03 -0.19541661144E+03 -0.29390912122E+03  0.46017601685E+03  0.89534623677E+02 0.  0.
        254    2    1    2    0    0  0.28138104783E+03  0.19541661144E+03 -0.17638631327E+04  0.20092050084E+04  0.89907100300E+03 0.  0.
        -24    2    4    4    0    0 -0.30391924259E+03  0.35254846608E+01 -0.38184984562E+03  0.49404883022E+03  0.76782856043E+02 0.  0.
         24    2    4    4    0    0  0.58530029042E+03  0.19189112678E+03 -0.13820132871E+04  0.15151561781E+04  0.79617107784E+02 0.  0.
         11    1    3    3    0    0 -0.16089184769E+03 -0.67172879331E+02 -0.11279688324E+03  0.20765721572E+03  0.00000000000E+00 0. -1.
        -11    1    3    3    0    0 -0.12048920014E+03 -0.12824373211E+03 -0.18111223798E+03  0.25251880113E+03  0.00000000000E+00 0.  1.
          4    1    6    6  502    0  0.36258206979E+03  0.84030306524E+02 -0.77923699507E+03  0.86356073570E+03  0.00000000000E+00 0. -1.
          1    1    5    5  503    0 -0.28450509504E+03  0.46342787239E+01 -0.31527243518E+03  0.42468969145E+03  0.00000000000E+00 0. -1.
         -2    1    5    5    0  503 -0.19414147552E+02 -0.11087940631E+01 -0.66577410442E+02  0.69359138768E+02  0.00000000000E+00 0.  1.
         -3    1    6    6    0  502  0.22271822063E+03  0.10786082026E+03 -0.60277629205E+03  0.65159544244E+03  0.00000000000E+00 0.  1.
<mgrwt>
<rscale>  0 0.13650700E+04</rscale>
<asrwt>0</asrwt>
<pdfrwt beam="1">  1        2 0.34824253E+00 0.13650700E+04</pdfrwt>
<pdfrwt beam="2">  1       -2 0.31662216E-01 0.13650700E+04</pdfrwt>
<totfact> 0.43084542E+01</totfact>
</mgrwt>
</event>
<event>
12    1  0.2404959E-007  0.1417195E+04  0.7818608E-02  0.8941465E-01
         -2   -1    0    0    0  501 -0.00000000000E+00  0.00000000000E+00  0.53374251273E+03  0.53374251273E+03  0.00000000000E+00 0. -1.
          2   -1    0    0  501    0  0.00000000000E+00 -0.00000000000E+00 -0.94073480946E+03  0.94073480946E+03  0.00000000000E+00 0.  1.
         23    2    1    2    0    0 -0.16026056651E+03 -0.23198139634E+03  0.19662984558E+03  0.35608870326E+03  0.92935735808E+02 0.  0.
        254    2    1    2    0    0  0.16026056651E+03  0.23198139634E+03 -0.60362214232E+03  0.11183886189E+04  0.89829538284E+03 0.  0.
        -24    2    4    4    0    0 -0.22747675990E+03  0.54569677796E+02  0.11986288837E+03  0.27479973872E+03  0.80151471388E+02 0.  0.
         24    2    4    4    0    0  0.38773732641E+03  0.17741171854E+03 -0.72348503069E+03  0.84358888021E+03  0.79977853379E+02 0.  0.
         13    1    3    3    0    0 -0.12152437076E+03 -0.13351199052E+03  0.16765841047E+03  0.24637972097E+03  0.00000000000E+00 0. -1.
        -13    1    3    3    0    0 -0.38736195751E+02 -0.98469405820E+02  0.28971435111E+02  0.10970898230E+03  0.00000000000E+00 0.  1.
          2    1    6    6  502    0  0.12550635335E+03  0.21063161372E+02 -0.18432252623E+03  0.22398726565E+03  0.00000000000E+00 0. -1.
          1    1    5    5  503    0 -0.11313229060E+03  0.36484092221E+02  0.17273158281E+02  0.12011813418E+03  0.00000000000E+00 0. -1.
         -2    1    5    5    0  503 -0.11434446929E+03  0.18085585575E+02  0.10258973009E+03  0.15468160454E+03  0.00000000000E+00 0.  1.
         -1    1    6    6    0  502  0.26223097306E+03  0.15634855717E+03 -0.53916250445E+03  0.61960161456E+03  0.00000000000E+00 0.  1.
<mgrwt>
<rscale>  0 0.14171946E+04</rscale>
<asrwt>0</asrwt>
<pdfrwt beam="1">  1        2 0.14472843E+00 0.14171946E+04</pdfrwt>
<pdfrwt beam="2">  1       -2 0.82114232E-01 0.14171946E+04</pdfrwt>
<totfact> 0.34894599E+01</totfact>
</mgrwt>
</event>
<event>
12    1  0.2404959E-007  0.2626150E+04  0.7818608E-02  0.8359373E-01
          2   -1    0    0  501    0  0.00000000000E+00  0.00000000000E+00  0.28822016603E+04  0.28822016603E+04  0.00000000000E+00 0.  1.
         -2   -1    0    0    0  501 -0.00000000000E+00 -0.00000000000E+00 -0.59821139546E+03  0.59821139546E+03  0.00000000000E+00 0. -1.
         23    2    1    2    0    0  0.11323092293E+04  0.23881285905E+02  0.69523187007E+03  0.13320422609E+04  0.91075381232E+02 0.  0.
        254    2    1    2    0    0 -0.11323092293E+04 -0.23881285905E+02  0.15887583948E+04  0.21483707949E+04  0.89924931414E+03 0.  0.
        -24    2    4    4    0    0  0.23247543649E+02 -0.22564837213E+03  0.45078888115E+03  0.51187347992E+03  0.85710022451E+02 0.  0.
         24    2    4    4    0    0 -0.11555567729E+04  0.20176708623E+03  0.11379695137E+04  0.16364973150E+04  0.84424140696E+02 0.  0.
         11    1    3    3    0    0  0.11217118953E+03  0.28353600687E+02  0.81285240726E+02  0.14139870153E+03  0.00000000000E+00 0. -1.
        -11    1    3    3    0    0  0.10201380397E+04 -0.44723147819E+01  0.61394662934E+03  0.11906435593E+04  0.00000000000E+00 0.  1.
          2    1    6    6  502    0 -0.95303320515E+03  0.13532219751E+03  0.94653942558E+03  0.13500078783E+04  0.00000000000E+00 0. -1.
          1    1    5    5  503    0  0.19125846626E+02 -0.20904500106E+03  0.33862490974E+03  0.39841239937E+03  0.00000000000E+00 0. -1.
         -2    1    5    5    0  503  0.41216970231E+01 -0.16603371074E+02  0.11216397141E+03  0.11346108055E+03  0.00000000000E+00 0.  1.
         -1    1    6    6    0  502 -0.20252356776E+03  0.66444888724E+02  0.19143008807E+03  0.28648943673E+03  0.00000000000E+00 0.  1.
<mgrwt>
<rscale>  0 0.26261499E+04</rscale>
<asrwt>0</asrwt>
<pdfrwt beam="1">  1        2 0.44341563E+00 0.26261499E+04</pdfrwt>
<pdfrwt beam="2">  1       -2 0.92032524E-01 0.26261499E+04</pdfrwt>
<totfact> 0.18246437E+00</totfact>
</mgrwt>
</event>
<event>
12    1  0.2404959E-007  0.2106142E+04  0.7818608E-02  0.8558543E-01
         -1   -1    0    0    0  501 -0.00000000000E+00  0.00000000000E+00  0.91324189675E+03  0.91324189675E+03  0.00000000000E+00 0.  1.
          1   -1    0    0  501    0  0.00000000000E+00 -0.00000000000E+00 -0.12143095548E+04  0.12143095548E+04  0.00000000000E+00 0. -1.
         23    2    1    2    0    0 -0.49692705304E+03  0.56016784218E+03  0.29960798344E+03  0.81166597617E+03  0.91171298546E+02 0.  0.
        254    2    1    2    0    0  0.49692705304E+03 -0.56016784218E+03 -0.60067564150E+03  0.13158854754E+04  0.90001047248E+03 0.  0.
        -24    2    4    4    0    0 -0.67756909394E+02  0.19442750188E+03 -0.14946964197E+03  0.26772477254E+03  0.83320631935E+02 0.  0.
         24    2    4    4    0    0  0.56468396243E+03 -0.75459534406E+03 -0.45120599953E+03  0.10481607028E+04  0.82291519958E+02 0.  0.
         11    1    3    3    0    0 -0.21919292811E+03  0.22003684262E+03  0.16873824660E+03  0.35346053203E+03  0.00000000000E+00 0. -1.
        -11    1    3    3    0    0 -0.27773412493E+03  0.34013099957E+03  0.13086973684E+03  0.45820544414E+03  0.00000000000E+00 0.  1.
          2    1    6    6  502    0  0.19314021397E+02 -0.31590647434E+02 -0.15855657355E+01  0.37060955823E+02  0.00000000000E+00 0. -1.
          3    1    5    5  503    0 -0.10872113167E+02  0.25498094597E+02  0.90758674788E+01  0.29167225499E+02  0.00000000000E+00 0. -1.
         -4    1    5    5    0  503 -0.56884796227E+02  0.16892940728E+03 -0.15854550945E+03  0.23855754705E+03  0.00000000000E+00 0.  1.
         -1    1    6    6    0  502  0.54536994104E+03 -0.72300469663E+03 -0.44962043380E+03  0.10110997470E+04  0.00000000000E+00 0.  1.
<mgrwt>
<rscale>  0 0.21061418E+04</rscale>
<asrwt>0</asrwt>
<pdfrwt beam="1">  1        1 0.18681685E+00 0.21061418E+04</pdfrwt>
<pdfrwt beam="2">  1       -1 0.14049875E+00 0.21061418E+04</pdfrwt>
<totfact> 0.39821299E+00</totfact>
</mgrwt>
</event>
<event>
12    1  0.2404959E-007  0.3438556E+04  0.7818608E-02  0.8128508E-01
          2   -1    0    0  501    0  0.00000000000E+00  0.00000000000E+00  0.22250588985E+04  0.22250588985E+04  0.00000000000E+00 0. -1.
         -2   -1    0    0    0  501 -0.00000000000E+00 -0.00000000000E+00 -0.13284669387E+04  0.13284669387E+04  0.00000000000E+00 0.  1.
         23    2    1    2    0    0  0.11509415763E+04 -0.10702634158E+04  0.72942502411E+03  0.17349745518E+04  0.89137748883E+02 0.  0.
        254    2    1    2    0    0 -0.11509415763E+04  0.10702634158E+04  0.16716693567E+03  0.18185512854E+04  0.89947412522E+03 0.  0.
        -24    2    4    4    0    0  0.18119709310E+02  0.17779868311E+03  0.27965882334E+03  0.34131136382E+03  0.79647310167E+02 0.  0.
         24    2    4    4    0    0 -0.11690612856E+04  0.89246473272E+03 -0.11249188767E+03  0.14772399216E+04  0.79911028549E+02 0.  0.
         11    1    3    3    0    0  0.63950563068E+03 -0.55179146131E+03  0.35699126376E+03  0.91699729053E+03  0.00000000000E+00 0. -1.
        -11    1    3    3    0    0  0.51143594558E+03 -0.51847195452E+03  0.37243376036E+03  0.81797726124E+03  0.00000000000E+00 0.  1.
          2    1    6    6  502    0 -0.17548239317E+03  0.10358290160E+03 -0.28937157540E+02  0.20581750874E+03  0.00000000000E+00 0. -1.
          3    1    5    5  503    0 -0.30930512687E+01  0.17019954564E+02 -0.82583580558E+00  0.17318424417E+02  0.00000000000E+00 0. -1.
         -4    1    5    5    0  503  0.21212760579E+02  0.16077872854E+03  0.28048465915E+03  0.32399293940E+03  0.00000000000E+00 0.  1.
         -1    1    6    6    0  502 -0.99357889240E+03  0.78888183112E+03 -0.83554730133E+02  0.12714224128E+04  0.00000000000E+00 0.  1.
<mgrwt>
<rscale>  0 0.34385562E+04</rscale>
<asrwt>0</asrwt>
<pdfrwt beam="1">  1        2 0.34231675E+00 0.34385562E+04</pdfrwt>
<pdfrwt beam="2">  1       -2 0.20437953E+00 0.34385562E+04</pdfrwt>
<totfact> 0.51399859E-01</totfact>
</mgrwt>
</event>
<event>
12    1  0.2404959E-007  0.2134473E+04  0.7818608E-02  0.8546208E-01
         -2   -1    0    0    0  501 -0.00000000000E+00  0.00000000000E+00  0.60210748132E+03  0.60210748132E+03  0.00000000000E+00 0. -1.
          2   -1    0    0  501    0  0.00000000000E+00 -0.00000000000E+00 -0.18916787319E+04  0.18916787319E+04  0.00000000000E+00 0.  1.
         23    2    1    2    0    0  0.81823283861E+03 -0.31085155115E+03 -0.53616142320E+03  0.10304088284E+04  0.90219825249E+02 0.  0.
        254    2    1    2    0    0 -0.81823283861E+03  0.31085155115E+03 -0.75340982742E+03  0.14633773849E+04  0.89872873408E+03 0.  0.
        -24    2    4    4    0    0 -0.84930955367E+03  0.53711741285E+03 -0.63721141402E+03  0.11925872066E+04  0.80025159323E+02 0.  0.
         24    2    4    4    0    0  0.31076715059E+02 -0.22626586170E+03 -0.11619841340E+03  0.27079017823E+03  0.87539973516E+02 0.  0.
         11    1    3    3    0    0  0.55650541492E+03 -0.20118948452E+03 -0.31324532511E+03  0.66955068458E+03  0.00000000000E+00 0.  1.
        -11    1    3    3    0    0  0.26172742369E+03 -0.10966206663E+03 -0.22291609809E+03  0.36085814381E+03  0.00000000000E+00 0. -1.
          4    1    6    6  502    0 -0.22266544473E+02 -0.15982539260E+02 -0.16908496080E+02  0.32204623948E+02  0.00000000000E+00 0. -1.
          3    1    5    5  503    0 -0.37920067352E+03  0.22892849762E+03 -0.32677877055E+03  0.55044143440E+03  0.00000000000E+00 0. -1.
         -4    1    5    5    0  503 -0.47010888015E+03  0.30818891523E+03 -0.31043264347E+03  0.64214577224E+03  0.00000000000E+00 0.  1.
         -3    1    6    6    0  502  0.53343259532E+02 -0.21028332244E+03 -0.99289917320E+02  0.23858555429E+03  0.00000000000E+00 0.  1.
<mgrwt>
<rscale>  0 0.21344732E+04</rscale>
<asrwt>0</asrwt>
<pdfrwt beam="1">  1        2 0.29102749E+00 0.21344732E+04</pdfrwt>
<pdfrwt beam="2">  1       -2 0.92631922E-01 0.21344732E+04</pdfrwt>
<totfact> 0.69714072E+00</totfact>
</mgrwt>
</event>
<event>
12    1  0.2404959E-007  0.1482815E+04  0.7818608E-02  0.8895962E-01
          1   -1    0    0  501    0  0.00000000000E+00  0.00000000000E+00  0.26813670454E+03  0.26813670454E+03  0.00000000000E+00 0. -1.
         -1   -1    0    0    0  501 -0.00000000000E+00 -0.00000000000E+00 -0.20500173545E+04  0.20500173545E+04  0.00000000000E+00 0.  1.
         23    2    1    2    0    0 -0.13120698685E+03 -0.38112802610E+03 -0.91840204642E+03  0.10069331606E+04  0.89320912611E+02 0.  0.
        254    2    1    2    0    0  0.13120698685E+03  0.38112802610E+03 -0.86347860354E+03  0.13112208984E+04  0.90068368476E+03 0.  0.
        -24    2    4    4    0    0 -0.23301860350E+03  0.28137883277E+03 -0.96750819575E+01  0.37419958184E+03  0.80374142181E+02 0.  0.
         24    2    4    4    0    0  0.36422559035E+03  0.99749193327E+02 -0.85380352158E+03  0.93702131657E+03  0.80114368346E+02 0.  0.
         11    1    3    3    0    0 -0.48361872569E+02 -0.87261919982E+02 -0.31919255155E+03  0.33442098972E+03  0.00000000000E+00 0.  1.
        -11    1    3    3    0    0 -0.82845114282E+02 -0.29386610612E+03 -0.59920949487E+03  0.67251217091E+03  0.00000000000E+00 0. -1.
          2    1    6    6  502    0  0.95874850428E+02  0.63961728660E+02 -0.26276275658E+03  0.28692744017E+03  0.00000000000E+00 0. -1.
          1    1    5    5  503    0 -0.64647381409E+02  0.54063597580E+02  0.28039621576E+02  0.88816534972E+02  0.00000000000E+00 0. -1.
         -2    1    5    5    0  503 -0.16837122209E+03  0.22731523519E+03 -0.37714703533E+02  0.28538304687E+03  0.00000000000E+00 0.  1.
         -1    1    6    6    0  502  0.26835073992E+03  0.35787464667E+02 -0.59104076500E+03  0.65009387640E+03  0.00000000000E+00 0.  1.
<mgrwt>
<rscale>  0 0.14828148E+04</rscale>
<asrwt>0</asrwt>
<pdfrwt beam="1">  1        1 0.41251801E-01 0.14828148E+04</pdfrwt>
<pdfrwt beam="2">  1       -1 0.31538729E+00 0.14828148E+04</pdfrwt>
<totfact> 0.25883751E+00</totfact>
</mgrwt>
</event>
<event>
12    1  0.2404959E-007  0.3350803E+04  0.7818608E-02  0.8150088E-01
         -1   -1    0    0    0  501 -0.00000000000E+00  0.00000000000E+00  0.14403707867E+04  0.14403707867E+04  0.00000000000E+00 0.  1.
          1   -1    0    0  501    0  0.00000000000E+00 -0.00000000000E+00 -0.19487829039E+04  0.19487829039E+04  0.00000000000E+00 0. -1.
         23    2    1    2    0    0  0.10139011002E+04  0.11267631430E+03  0.94873855490E+03  0.13959839617E+04  0.89302760850E+02 0.  0.
        254    2    1    2    0    0 -0.10139011002E+04 -0.11267631430E+03 -0.14571506721E+04  0.19931697289E+04  0.89930311582E+03 0.  0.
        -24    2    4    4    0    0 -0.63561596848E+02  0.15492746290E+03 -0.76055725248E+03  0.78223347200E+03  0.73479759456E+02 0.  0.
         24    2    4    4    0    0 -0.95033950335E+03 -0.26760377721E+03 -0.69659341965E+03  0.12109362569E+04  0.79795192741E+02 0.  0.
         11    1    3    3    0    0  0.18616357556E+03  0.55729650185E+02  0.17632090538E+03  0.26239613650E+03  0.00000000000E+00 0.  1.
        -11    1    3    3    0    0  0.82773752464E+03  0.56946664116E+02  0.77241764952E+03  0.11335878252E+04  0.00000000000E+00 0. -1.
          4    1    6    6  502    0 -0.56521300427E+03 -0.18647966715E+03 -0.38375543265E+03  0.70817274626E+03  0.00000000000E+00 0. -1.
          3    1    5    5  503    0 -0.28917049164E+02  0.13518660360E+03 -0.50484665936E+03  0.52343267284E+03  0.00000000000E+00 0. -1.
         -4    1    5    5    0  503 -0.34644547684E+02  0.19740859305E+02 -0.25571059312E+03  0.25880079916E+03  0.00000000000E+00 0.  1.
         -3    1    6    6    0  502 -0.38512649908E+03 -0.81124110053E+02 -0.31283798700E+03  0.50276351064E+03  0.00000000000E+00 0.  1.
<mgrwt>
<rscale>  0 0.33508029E+04</rscale>
<asrwt>0</asrwt>
<pdfrwt beam="1">  1        1 0.29981275E+00 0.33508029E+04</pdfrwt>
<pdfrwt beam="2">  1       -1 0.22159551E+00 0.33508029E+04</pdfrwt>
<totfact> 0.28638230E-01</totfact>
</mgrwt>
</event>
<event>
12    1  0.2404959E-007  0.1697169E+04  0.7818608E-02  0.8762981E-01
         -1   -1    0    0    0  501 -0.00000000000E+00  0.00000000000E+00  0.45126398270E+03  0.45126398270E+03  0.00000000000E+00 0.  1.
          1   -1    0    0  501    0  0.00000000000E+00 -0.00000000000E+00 -0.15957296588E+04  0.15957296588E+04  0.00000000000E+00 0. -1.
         23    2    1    2    0    0 -0.38953136835E+03 -0.16165171638E+03 -0.93398022116E+03  0.10288898405E+04  0.91811142821E+02 0.  0.
        254    2    1    2    0    0  0.38953136835E+03  0.16165171638E+03 -0.21048545496E+03  0.10181038011E+04  0.90242188507E+03 0.  0.
        -24    2    4    4    0    0  0.37997861613E+03  0.39647287805E+03 -0.41807152462E+03  0.69490380265E+03  0.80826997268E+02 0.  0.
         24    2    4    4    0    0  0.95527522190E+01 -0.23482116167E+03  0.20758606966E+03  0.32319999842E+03  0.78320046060E+02 0.  0.
         11    1    3    3    0    0 -0.27865285327E+03 -0.97896130748E+02 -0.55172974493E+03  0.62580889774E+03  0.00000000000E+00 0. -1.
        -11    1    3    3    0    0 -0.11087851508E+03 -0.63755585633E+02 -0.38225047623E+03  0.40308094272E+03  0.00000000000E+00 0.  1.
          2    1    6    6  502    0  0.17795848598E+01 -0.43159219046E+02  0.38406999777E+01  0.43366301286E+02  0.00000000000E+00 0. -1.
          3    1    5    5  503    0  0.54984532948E+02  0.71244915457E+02 -0.10684191136E+03  0.13969370374E+03  0.00000000000E+00 0. -1.
         -4    1    5    5    0  503  0.32499408318E+03  0.32522796260E+03 -0.31122961327E+03  0.55521009891E+03  0.00000000000E+00 0.  1.
         -1    1    6    6    0  502  0.77731673592E+01 -0.19166194263E+03  0.20374536968E+03  0.27983369713E+03  0.00000000000E+00 0.  1.
<mgrwt>
<rscale>  0 0.16971686E+04</rscale>
<asrwt>0</asrwt>
<pdfrwt beam="1">  1        1 0.24549687E+00 0.16971686E+04</pdfrwt>
<pdfrwt beam="2">  1       -1 0.69425228E-01 0.16971686E+04</pdfrwt>
<totfact> 0.11220922E+01</totfact>
</mgrwt>
</event>
<event>
12    1  0.2404959E-007  0.2748752E+04  0.7818608E-02  0.8319358E-01
         -2   -1    0    0    0  501 -0.00000000000E+00  0.00000000000E+00  0.16483329279E+04  0.16483329279E+04  0.00000000000E+00 0. -1.
          2   -1    0    0  501    0  0.00000000000E+00 -0.00000000000E+00 -0.11459517254E+04  0.11459517254E+04  0.00000000000E+00 0.  1.
         23    2    1    2    0    0 -0.10118186658E+04  0.64176216108E+03  0.48589640803E+03  0.12960965943E+04  0.90196332880E+02 0.  0.
        254    2    1    2    0    0  0.10118186658E+04 -0.64176216108E+03  0.16484794526E+02  0.14981880591E+04  0.89925526302E+03 0.  0.
        -24    2    4    4    0    0  0.19395832900E+03 -0.17673394561E+03  0.39504765903E+03  0.48091904004E+03  0.79785645645E+02 0.  0.
         24    2    4    4    0    0  0.81786033680E+03 -0.46502821547E+03 -0.37856286451E+03  0.10172690190E+04  0.79872667528E+02 0.  0.
         11    1    3    3    0    0 -0.35677585873E+03  0.26536512976E+03  0.14950312639E+03  0.46910430638E+03  0.00000000000E+00 0.  1.
        -11    1    3    3    0    0 -0.65504280707E+03  0.37639703132E+03  0.33639328164E+03  0.82699228788E+03  0.00000000000E+00 0. -1.
          4    1    6    6  502    0  0.43907930234E+03 -0.29028016790E+03 -0.23062163475E+03  0.57466472663E+03  0.00000000000E+00 0. -1.
          3    1    5    5  503    0  0.58062540437E+02 -0.14795094889E+02  0.11887080965E+03  0.13311807849E+03  0.00000000000E+00 0. -1.
         -4    1    5    5    0  503  0.13589578856E+03 -0.16193885072E+03  0.27617684939E+03  0.34780096155E+03  0.00000000000E+00 0.  1.
         -3    1    6    6    0  502  0.37878103446E+03 -0.17474804758E+03 -0.14794122976E+03  0.44260429241E+03  0.00000000000E+00 0.  1.
<mgrwt>
<rscale>  0 0.27487524E+04</rscale>
<asrwt>0</asrwt>
<pdfrwt beam="1">  1        2 0.17630027E+00 0.27487524E+04</pdfrwt>
<pdfrwt beam="2">  1       -2 0.25358968E+00 0.27487524E+04</pdfrwt>
<totfact> 0.10896593E+00</totfact>
</mgrwt>
</event>
<event>
12    1  0.2404959E-007  0.3344724E+04  0.7818608E-02  0.8151608E-01
         -1   -1    0    0    0  501 -0.00000000000E+00  0.00000000000E+00  0.19164787047E+04  0.19164787047E+04  0.00000000000E+00 0.  1.
          1   -1    0    0  501    0  0.00000000000E+00 -0.00000000000E+00 -0.14593406859E+04  0.14593406859E+04  0.00000000000E+00 0. -1.
         23    2    1    2    0    0 -0.13914523038E+03 -0.15422232227E+04  0.14717619238E+03  0.15583746075E+04  0.95166809717E+02 0.  0.
        254    2    1    2    0    0  0.13914523038E+03  0.15422232227E+04  0.30996182637E+03  0.18174447831E+04  0.89956397321E+03 0.  0.
        -24    2    4    4    0    0 -0.30204686053E+03  0.64987895992E+03 -0.11922792538E+03  0.73003329963E+03  0.71821667128E+02 0.  0.
         24    2    4    4    0    0  0.44119209091E+03  0.89234426282E+03  0.42918975175E+03  0.10874114835E+04  0.85622116847E+02 0.  0.
         13    1    3    3    0    0 -0.64386809793E+02 -0.10116561037E+04  0.13288732001E+03  0.10223760430E+04  0.00000000000E+00 0.  1.
        -13    1    3    3    0    0 -0.74758420585E+02 -0.53056711904E+03  0.14288872368E+02  0.53599856448E+03  0.00000000000E+00 0. -1.
          2    1    6    6  502    0  0.21435675486E+03  0.49091824384E+03  0.19325344951E+03  0.56947031199E+03  0.00000000000E+00 0. -1.
          3    1    5    5  503    0 -0.65031128146E+02  0.14552622470E+03  0.34013245990E+01  0.15943179956E+03  0.00000000000E+00 0. -1.
         -4    1    5    5    0  503 -0.23701573239E+03  0.50435273522E+03 -0.12262924998E+03  0.57060150006E+03  0.00000000000E+00 0.  1.
         -1    1    6    6    0  502  0.22683533605E+03  0.40142601898E+03  0.23593630224E+03  0.51794117147E+03  0.00000000000E+00 0.  1.
<mgrwt>
<rscale>  0 0.33447244E+04</rscale>
<asrwt>0</asrwt>
<pdfrwt beam="1">  1        1 0.22451395E+00 0.33447244E+04</pdfrwt>
<pdfrwt beam="2">  1       -1 0.29484288E+00 0.33447244E+04</pdfrwt>
<totfact> 0.20579927E-01</totfact>
</mgrwt>
</event>
<event>
12    1  0.2404959E-007  0.1579939E+04  0.7818608E-02  0.8832968E-01
          2   -1    0    0  501    0  0.00000000000E+00  0.00000000000E+00  0.21240677795E+04  0.21240677795E+04  0.00000000000E+00 0. -1.
         -2   -1    0    0    0  501 -0.00000000000E+00 -0.00000000000E+00 -0.29380021825E+03  0.29380021825E+03  0.00000000000E+00 0.  1.
         23    2    1    2    0    0 -0.48582332216E+03 -0.72015788999E+00  0.94551869505E+03  0.10668786751E+04  0.90552116153E+02 0.  0.
        254    2    1    2    0    0  0.48582332216E+03  0.72015788999E+00  0.88474886619E+03  0.13509893226E+04  0.89797927294E+03 0.  0.
        -24    2    4    4    0    0  0.63079009915E+02 -0.33890083445E+03  0.57628460029E+02  0.35854343842E+03  0.79997629645E+02 0.  0.
         24    2    4    4    0    0  0.42274431224E+03  0.33962099234E+03  0.82712040616E+03  0.99244588420E+03  0.82252627986E+02 0.  0.
         11    1    3    3    0    0 -0.10416515875E+03  0.37242429284E+02  0.21629828644E+03  0.24294511222E+03  0.00000000000E+00 0. -1.
        -11    1    3    3    0    0 -0.38165816341E+03 -0.37962587174E+02  0.72922040861E+03  0.82393356289E+03  0.00000000000E+00 0.  1.
          4    1    6    6  502    0  0.35763214548E+03  0.29991796284E+03  0.65599980961E+03  0.80510079253E+03  0.00000000000E+00 0. -1.
          3    1    5    5  503    0  0.67950081427E+02 -0.22271099779E+03  0.65799523149E+02  0.24196483081E+03  0.00000000000E+00 0. -1.
         -2    1    5    5    0  503 -0.48710715117E+01 -0.11618983665E+03 -0.81710631194E+01  0.11657860761E+03  0.00000000000E+00 0.  1.
         -3    1    6    6    0  502  0.65112166761E+02  0.39703029498E+02  0.17112059654E+03  0.18734509167E+03  0.00000000000E+00 0.  1.
<mgrwt>
<rscale>  0 0.15799387E+04</rscale>
<asrwt>0</asrwt>
<pdfrwt beam="1">  1        2 0.32677965E+00 0.15799387E+04</pdfrwt>
<pdfrwt beam="2">  1       -2 0.45200035E-01 0.15799387E+04</pdfrwt>
<totfact> 0.25408826E+01</totfact>
</mgrwt>
</event>
<event>
12    1  0.2404959E-007  0.1391609E+04  0.7818608E-02  0.8959915E-01
          2   -1    0    0  501    0  0.00000000000E+00  0.00000000000E+00  0.51064316550E+03  0.51064316550E+03  0.00000000000E+00 0. -1.
         -2   -1    0    0    0  501 -0.00000000000E+00 -0.00000000000E+00 -0.94810578575E+03  0.94810578575E+03  0.00000000000E+00 0.  1.
         23    2    1    2    0    0  0.17294601860E+02  0.26726992687E+03  0.17945620282E+03  0.33485424051E+03  0.90501472899E+02 0.  0.
        254    2    1    2    0    0 -0.17294601860E+02 -0.26726992687E+03 -0.61691882307E+03  0.11238947107E+04  0.90045442389E+03 0.  0.
        -24    2    4    4    0    0 -0.37934260140E+03 -0.10282933763E+03 -0.18813553596E+02  0.40130690864E+03  0.78858120761E+02 0.  0.
         24    2    4    4    0    0  0.36204799954E+03 -0.16444058924E+03 -0.59810526947E+03  0.72258780210E+03  0.79270152055E+02 0.  0.
         13    1    3    3    0    0 -0.52084367889E+01  0.19886417758E+03  0.85631317957E+02  0.21657980413E+03  0.00000000000E+00 0.  1.
        -13    1    3    3    0    0  0.22503038649E+02  0.68405749289E+02  0.93824884859E+02  0.11827443639E+03  0.00000000000E+00 0. -1.
          2    1    6    6  502    0  0.17975748315E+03 -0.38486239670E+02 -0.26488127888E+03  0.32242213834E+03  0.00000000000E+00 0. -1.
          1    1    5    5  503    0 -0.15816289527E+03 -0.61595962011E+02  0.26524931937E+02  0.17179387646E+03  0.00000000000E+00 0. -1.
         -2    1    5    5    0  503 -0.22117970614E+03 -0.41233375623E+02 -0.45338485534E+02  0.22951303218E+03  0.00000000000E+00 0.  1.
         -1    1    6    6    0  502  0.18229051640E+03 -0.12595434957E+03 -0.33322399059E+03  0.40016566375E+03  0.00000000000E+00 0.  1.
<mgrwt>
<rscale>  0 0.13916088E+04</rscale>
<asrwt>0</asrwt>
<pdfrwt beam="1">  1        2 0.78560487E-01 0.13916088E+04</pdfrwt>
<pdfrwt beam="2">  1       -2 0.14586243E+00 0.13916088E+04</pdfrwt>
<totfact> 0.18862156E+01</totfact>
</mgrwt>
</event>
<event>
12    1  0.2404959E-007  0.1705471E+04  0.7818608E-02  0.8758250E-01
         -2   -1    0    0    0  501 -0.00000000000E+00  0.00000000000E+00  0.88458462270E+03  0.88458462270E+03  0.00000000000E+00 0.  1.
          2   -1    0    0  501    0  0.00000000000E+00 -0.00000000000E+00 -0.82203315083E+03  0.82203315083E+03  0.00000000000E+00 0. -1.
         23    2    1    2    0    0 -0.56473740171E+03 -0.23320298189E+03  0.58725672909E+02  0.62119422443E+03  0.95507047648E+02 0.  0.
        254    2    1    2    0    0  0.56473740171E+03  0.23320298189E+03  0.38257989576E+01  0.10854235491E+04  0.89711631384E+03 0.  0.
        -24    2    4    4    0    0  0.62087306111E+03  0.16584079582E+03  0.33806883645E+03  0.73125513562E+03  0.86353967049E+02 0.  0.
         24    2    4    4    0    0 -0.56135659400E+02  0.67362186071E+02 -0.33424303749E+03  0.35416841349E+03  0.77640071053E+02 0.  0.
         11    1    3    3    0    0 -0.21030513090E+03 -0.13517229704E+03  0.95553914192E+01  0.25018214060E+03  0.00000000000E+00 0. -1.
        -11    1    3    3    0    0 -0.35443227081E+03 -0.98030684845E+02  0.49170281490E+02  0.37101208383E+03  0.00000000000E+00 0.  1.
          2    1    6    6  502    0 -0.34127320834E+02 -0.75239503930E+01 -0.15105718001E+03  0.15504694608E+03  0.00000000000E+00 0. -1.
          1    1    5    5  503    0  0.36117174137E+03  0.13922945961E+03  0.21234197626E+03  0.44149630131E+03  0.00000000000E+00 0. -1.
         -2    1    5    5    0  503  0.25970131974E+03  0.26611336210E+02  0.12572686019E+03  0.28975883431E+03  0.00000000000E+00 0.  1.
         -1    1    6    6    0  502 -0.22008338565E+02  0.74886136464E+02 -0.18318585748E+03  0.19912146740E+03  0.00000000000E+00 0.  1.
<mgrwt>
<rscale>  0 0.17054711E+04</rscale>
<asrwt>0</asrwt>
<pdfrwt beam="1">  1        2 0.12646664E+00 0.17054711E+04</pdfrwt>
<pdfrwt beam="2">  1       -2 0.13608994E+00 0.17054711E+04</pdfrwt>
<totfact> 0.12206350E+01</totfact>
</mgrwt>
</event>
<event>
12    1  0.2404959E-007  0.3291363E+04  0.7818608E-02  0.8165097E-01
          1   -1    0    0  501    0  0.00000000000E+00  0.00000000000E+00  0.26268498951E+04  0.26268498951E+04  0.00000000000E+00 0. -1.
         -1   -1    0    0    0  501 -0.00000000000E+00 -0.00000000000E+00 -0.10309944217E+04  0.10309944217E+04  0.00000000000E+00 0.  1.
         23    2    1    2    0    0 -0.13418484906E+04  0.66402126781E+03  0.10392216880E+04  0.18246799562E+04  0.89406989725E+02 0.  0.
        254    2    1    2    0    0  0.13418484906E+04 -0.66402126781E+03  0.55663378536E+03  0.18331643606E+04  0.89953809601E+03 0.  0.
        -24    2    4    4    0    0  0.30357746202E+03 -0.31413072160E+03  0.58461393417E+03  0.73408313411E+03  0.79165712676E+02 0.  0.
         24    2    4    4    0    0  0.10382710286E+04 -0.34989054621E+03 -0.27980148809E+02  0.10990812265E+04  0.82258924146E+02 0.  0.
         11    1    3    3    0    0 -0.55953106714E+03  0.22803940464E+03  0.42163708890E+03  0.73678682120E+03  0.00000000000E+00 0.  1.
        -11    1    3    3    0    0 -0.78231742346E+03  0.43598186317E+03  0.61758459911E+03  0.10878931350E+04  0.00000000000E+00 0. -1.
          2    1    6    6  502    0  0.25712829987E+02 -0.23560757573E+02 -0.15009435694E+01  0.34907187726E+02  0.00000000000E+00 0. -1.
          1    1    5    5  503    0  0.74229578079E+02 -0.41898206157E+02  0.14756664573E+03  0.17041538919E+03  0.00000000000E+00 0. -1.
         -2    1    5    5    0  503  0.22934788394E+03 -0.27223251544E+03  0.43704728844E+03  0.56366774492E+03  0.00000000000E+00 0.  1.
         -1    1    6    6    0  502  0.10125581986E+04 -0.32632978863E+03 -0.26479205240E+02  0.10641740388E+04  0.00000000000E+00 0.  1.
<mgrwt>
<rscale>  0 0.32913630E+04</rscale>
<asrwt>0</asrwt>
<pdfrwt beam="1">  1        1 0.40413075E+00 0.32913630E+04</pdfrwt>
<pdfrwt beam="2">  1       -1 0.15861453E+00 0.32913630E+04</pdfrwt>
<totfact> 0.27454853E-01</totfact>
</mgrwt>
</event>
<event>
12    1  0.2404959E-007  0.2122679E+04  0.7818608E-02  0.8551319E-01
         -1   -1    0    0    0  501 -0.00000000000E+00  0.00000000000E+00  0.54606270507E+03  0.54606270507E+03  0.00000000000E+00 0.  1.
          1   -1    0    0  501    0  0.00000000000E+00 -0.00000000000E+00 -0.20628422977E+04  0.20628422977E+04  0.00000000000E+00 0. -1.
         23    2    1    2    0    0 -0.18815275561E+03 -0.39281768639E+03  0.29743758813E+03  0.53617838224E+03  0.96493235824E+02 0.  0.
        254    2    1    2    0    0  0.18815275561E+03  0.39281768639E+03 -0.18142171808E+04  0.20727266205E+04  0.90283136315E+03 0.  0.
        -24    2    4    4    0    0 -0.16432138154E+03 -0.22258798633E+03 -0.47755510088E+03  0.55772935019E+03  0.80350641517E+02 0.  0.
         24    2    4    4    0    0  0.35247413715E+03  0.61540567272E+03 -0.13366620799E+04  0.15149972703E+04  0.74759975780E+02 0.  0.
         13    1    3    3    0    0 -0.46282989404E+02 -0.10943481873E+03  0.13574321915E+03  0.18040043294E+03  0.00000000000E+00 0.  1.
        -13    1    3    3    0    0 -0.14186976621E+03 -0.28338286767E+03  0.16169436898E+03  0.35577794930E+03  0.00000000000E+00 0. -1.
          2    1    6    6  502    0  0.55830937683E+02  0.79778186152E+02 -0.13648863021E+03  0.16766275307E+03  0.00000000000E+00 0. -1.
          1    1    5    5  503    0  0.87704911641E+01 -0.17235761254E+02 -0.27236227364E+02  0.33403668396E+02  0.00000000000E+00 0. -1.
         -2    1    5    5    0  503 -0.17309187270E+03 -0.20535222507E+03 -0.45031887352E+03  0.52432568179E+03  0.00000000000E+00 0.  1.
         -1    1    6    6    0  502  0.29664319946E+03  0.53562748657E+03 -0.12001734497E+04  0.13473345173E+04  0.00000000000E+00 0.  1.
<mgrwt>
<rscale>  0 0.21226787E+04</rscale>
<asrwt>0</asrwt>
<pdfrwt beam="1">  1        1 0.31736036E+00 0.21226787E+04</pdfrwt>
<pdfrwt beam="2">  1       -1 0.84009645E-01 0.21226787E+04</pdfrwt>
<totfact> 0.34812000E+00</totfact>
</mgrwt>
</event>
<event>
12    1  0.2404959E-007  0.2040583E+04  0.7818608E-02  0.8587879E-01
          2   -1    0    0  501    0  0.00000000000E+00  0.00000000000E+00  0.91913242015E+03  0.91913242015E+03  0.00000000000E+00 0. -1.
         -2   -1    0    0    0  501 -0.00000000000E+00 -0.00000000000E+00 -0.11325836445E+04  0.11325836445E+04  0.00000000000E+00 0.  1.
         23    2    1    2    0    0  0.63939926576E+02  0.64654704319E+03  0.41151391361E+03  0.77456204791E+03  0.92148096502E+02 0.  0.
        254    2    1    2    0    0 -0.63939926576E+02 -0.64654704319E+03 -0.62496513795E+03  0.12771540167E+04  0.90467097085E+03 0.  0.
        -24    2    4    4    0    0 -0.11493020992E+03 -0.20347116183E+02  0.19474705054E+03  0.24129883368E+03  0.81705294497E+02 0.  0.
         24    2    4    4    0    0  0.50990283345E+02 -0.62619992701E+03 -0.81971218849E+03  0.10358551830E+04  0.79633728385E+02 0.  0.
         13    1    3    3    0    0  0.49017091055E+02  0.12526114902E+03  0.76856040178E+02  0.15491895165E+03  0.00000000000E+00 0.  1.
        -13    1    3    3    0    0  0.14922835521E+02  0.52128589418E+03  0.33465787344E+03  0.61964309626E+03  0.00000000000E+00 0. -1.
          2    1    6    6  502    0 -0.89977792825E+01 -0.15037960313E+03 -0.24148714831E+03  0.28462436275E+03  0.00000000000E+00 0. -1.
          3    1    5    5  503    0 -0.13888762285E+02 -0.89053844869E+01 -0.49307029021E+01  0.17219623160E+02  0.00000000000E+00 0. -1.
         -4    1    5    5    0  503 -0.10104144764E+03 -0.11441731696E+02  0.19967775345E+03  0.22407921052E+03  0.00000000000E+00 0.  1.
         -1    1    6    6    0  502  0.59988062628E+02 -0.47582032388E+03 -0.57822504018E+03  0.75123082030E+03  0.00000000000E+00 0.  1.
<mgrwt>
<rscale>  0 0.20405826E+04</rscale>
<asrwt>0</asrwt>
<pdfrwt beam="1">  1        2 0.14140499E+00 0.20405826E+04</pdfrwt>
<pdfrwt beam="2">  1       -2 0.17424364E+00 0.20405826E+04</pdfrwt>
<totfact> 0.52409298E+00</totfact>
</mgrwt>
</event>
<event>
12    1  0.2404959E-007  0.1502390E+04  0.7818608E-02  0.8882865E-01
          2   -1    0    0  501    0  0.00000000000E+00  0.00000000000E+00  0.17250119054E+04  0.17250119054E+04  0.00000000000E+00 0. -1.
         -2   -1    0    0    0  501 -0.00000000000E+00 -0.00000000000E+00 -0.32712451759E+03  0.32712451759E+03  0.00000000000E+00 0.  1.
         23    2    1    2    0    0  0.26346202214E+03  0.22311861633E+03  0.89680746425E+03  0.96558027946E+03  0.94273506791E+02 0.  0.
        254    2    1    2    0    0 -0.26346202214E+03 -0.22311861633E+03  0.50107992358E+03  0.10865561435E+04  0.90018276433E+03 0.  0.
        -24    2    4    4    0    0  0.66656407873E+02  0.30451055509E+03  0.26146970960E+03  0.41470908898E+03  0.80296105573E+02 0.  0.
         24    2    4    4    0    0 -0.33011843001E+03 -0.52762917142E+03  0.23961021398E+03  0.67184705456E+03  0.81207694861E+02 0.  0.
         11    1    3    3    0    0  0.12541171537E+03  0.92695058959E+02  0.28377096227E+03  0.32379998663E+03  0.00000000000E+00 0.  1.
        -11    1    3    3    0    0  0.13805030677E+03  0.13042355737E+03  0.61303650197E+03  0.64178029283E+03  0.00000000000E+00 0. -1.
          4    1    6    6  502    0 -0.22343729581E+03 -0.33733881755E+03  0.11517197698E+03  0.42069738205E+03  0.00000000000E+00 0. -1.
          1    1    5    5  503    0  0.23953677493E+02  0.25622203109E+03  0.20500661803E+03  0.32901553355E+03  0.00000000000E+00 0. -1.
         -2    1    5    5    0  503  0.42702730380E+02  0.48288524001E+02  0.56463091576E+02  0.85693555431E+02  0.00000000000E+00 0.  1.
         -1    1    6    6    0  502 -0.10668113420E+03 -0.19029035388E+03  0.12443823700E+03  0.25114967251E+03  0.00000000000E+00 0.  1.
<mgrwt>
<rscale>  0 0.15023897E+04</rscale>
<asrwt>0</asrwt>
<pdfrwt beam="1">  1        2 0.26538644E+00 0.15023897E+04</pdfrwt>
<pdfrwt beam="2">  1       -2 0.50326850E-01 0.15023897E+04</pdfrwt>
<totfact> 0.34256948E+01</totfact>
</mgrwt>
</event>
<event>
12    1  0.2404959E-007  0.1412569E+04  0.7818608E-02  0.8944771E-01
         -2   -1    0    0    0  501 -0.00000000000E+00  0.00000000000E+00  0.63899507506E+03  0.63899507506E+03  0.00000000000E+00 0.  1.
          2   -1    0    0  501    0  0.00000000000E+00 -0.00000000000E+00 -0.78065936852E+03  0.78065936852E+03  0.00000000000E+00 0. -1.
         23    2    1    2    0    0 -0.39497353577E+03  0.11226537451E+03 -0.80451058403E+02  0.42827079335E+03  0.91301102781E+02 0.  0.
        254    2    1    2    0    0  0.39497353577E+03 -0.11226537451E+03 -0.61213235060E+02  0.99138365022E+03  0.90027044465E+03 0.  0.
        -24    2    4    4    0    0  0.95499395239E+02  0.30171278005E+02  0.39879918270E+03  0.41878465469E+03  0.79431469698E+02 0.  0.
         24    2    4    4    0    0  0.29947414053E+03 -0.14243665252E+03 -0.46001241776E+03  0.57259899553E+03  0.79279406926E+02 0.  0.
         13    1    3    3    0    0 -0.23159458378E+03  0.76960771637E+02 -0.91786422874E+02  0.26073695371E+03  0.00000000000E+00 0. -1.
        -13    1    3    3    0    0 -0.16337895199E+03  0.35304602876E+02  0.11335364471E+02  0.16753383964E+03  0.00000000000E+00 0.  1.
          4    1    6    6  502    0  0.26464446023E+03 -0.14945992557E+03 -0.42682620277E+03  0.52398050255E+03  0.00000000000E+00 0. -1.
          3    1    5    5  503    0  0.95348004958E+02 -0.60123629084E-01  0.33282922001E+03  0.34621746830E+03  0.00000000000E+00 0. -1.
         -4    1    5    5    0  503  0.15139028064E+00  0.30231401634E+02  0.65969962687E+02  0.72567186391E+02  0.00000000000E+00 0.  1.
         -3    1    6    6    0  502  0.34829680301E+02  0.70232730557E+01 -0.33186214992E+02  0.48618492982E+02  0.00000000000E+00 0.  1.
<mgrwt>
<rscale>  0 0.14125686E+04</rscale>
<asrwt>0</asrwt>
<pdfrwt beam="1">  1        2 0.12010144E+00 0.14125686E+04</pdfrwt>
<pdfrwt beam="2">  1       -2 0.98306935E-01 0.14125686E+04</pdfrwt>
<totfact> 0.29765971E+01</totfact>
</mgrwt>
</event>
<event>
12    1  0.2404959E-007  0.2732905E+04  0.7818608E-02  0.8324407E-01
         -1   -1    0    0    0  501 -0.00000000000E+00  0.00000000000E+00  0.46415451213E+03  0.46415451213E+03  0.00000000000E+00 0.  1.
          1   -1    0    0  501    0  0.00000000000E+00 -0.00000000000E+00 -0.40227830439E+04  0.40227830439E+04  0.00000000000E+00 0. -1.
         23    2    1    2    0    0 -0.57847081326E+03  0.40383724526E+03  0.38833005017E+02  0.71201524108E+03  0.88003970373E+02 0.  0.
        254    2    1    2    0    0  0.57847081326E+03 -0.40383724526E+03 -0.35974615367E+04  0.37749223149E+04  0.90033103508E+03 0.  0.
        -24    2    4    4    0    0  0.29273654209E+03  0.26354542304E+03 -0.10279205045E+04  0.11036932311E+04  0.79795436384E+02 0.  0.
         24    2    4    4    0    0  0.28573427117E+03 -0.66738266829E+03 -0.25695410322E+04  0.26712290838E+04  0.76681172630E+02 0.  0.
         11    1    3    3    0    0 -0.17299758364E+03  0.77485282546E+02 -0.54910981120E+01  0.18963724612E+03  0.00000000000E+00 0. -1.
        -11    1    3    3    0    0 -0.40547322963E+03  0.32635196271E+03  0.44324103129E+02  0.52237799497E+03  0.00000000000E+00 0.  1.
          2    1    6    6  502    0  0.13674339602E+03 -0.24383622710E+03 -0.90488207008E+03  0.94708311291E+03  0.00000000000E+00 0. -1.
          1    1    5    5  503    0  0.14606479947E+02  0.41808824558E+02 -0.15152091807E+03  0.15786043102E+03  0.00000000000E+00 0. -1.
         -2    1    5    5    0  503  0.27813006215E+03  0.22173659848E+03 -0.87639958645E+03  0.94583280008E+03  0.00000000000E+00 0.  1.
         -1    1    6    6    0  502  0.14899087515E+03 -0.42354644119E+03 -0.16646589621E+04  0.17241459709E+04  0.00000000000E+00 0.  1.
<mgrwt>
<rscale>  0 0.27329053E+04</rscale>
<asrwt>0</asrwt>
<pdfrwt beam="1">  1        1 0.61888969E+00 0.27329053E+04</pdfrwt>
<pdfrwt beam="2">  1       -1 0.71408387E-01 0.27329053E+04</pdfrwt>
<totfact> 0.15807219E-01</totfact>
</mgrwt>
</event>
<event>
12    1  0.2404959E-007  0.2567832E+04  0.7818608E-02  0.8379211E-01
          2   -1    0    0  501    0  0.00000000000E+00  0.00000000000E+00  0.99861864490E+03  0.99861864490E+03  0.00000000000E+00 0. -1.
         -2   -1    0    0    0  501 -0.00000000000E+00 -0.00000000000E+00 -0.16507205965E+04  0.16507205965E+04  0.00000000000E+00 0.  1.
         23    2    1    2    0    0  0.24740879183E+03 -0.10963797597E+04 -0.26196706255E+03  0.11575455550E+04  0.89583939896E+02 0.  0.
        254    2    1    2    0    0 -0.24740879183E+03  0.10963797597E+04 -0.39013488909E+03  0.14917936864E+04  0.89999082406E+03 0.  0.
        -24    2    4    4    0    0 -0.56690044491E+02  0.91076461409E+03 -0.63967048954E+03  0.11169773648E+04  0.75856145785E+02 0.  0.
         24    2    4    4    0    0 -0.19071874734E+03  0.18561514561E+03  0.24953560045E+03  0.37481632162E+03  0.85980440760E+02 0.  0.
         13    1    3    3    0    0  0.85450465637E+02 -0.22883731264E+03 -0.39941084108E+02  0.24751482366E+03  0.00000000000E+00 0. -1.
        -13    1    3    3    0    0  0.16195832619E+03 -0.86754244707E+03 -0.22202597844E+03  0.91003073134E+03  0.00000000000E+00 0.  1.
          2    1    6    6  502    0 -0.15396319716E+03  0.18029972529E+03  0.18649804284E+03  0.30165241090E+03  0.00000000000E+00 0. -1.
          3    1    5    5  503    0 -0.91346741855E+01  0.45804005660E+03 -0.36065142674E+03  0.58305538959E+03  0.00000000000E+00 0. -1.
         -4    1    5    5    0  503 -0.47555370306E+02  0.45272455749E+03 -0.27901906281E+03  0.53392197521E+03  0.00000000000E+00 0.  1.
         -1    1    6    6    0  502 -0.36755550180E+02  0.53154203242E+01  0.63037557616E+02  0.73163910724E+02  0.00000000000E+00 0.  1.
<mgrwt>
<rscale>  0 0.25678321E+04</rscale>
<asrwt>0</asrwt>
<pdfrwt beam="1">  1        2 0.15363364E+00 0.25678321E+04</pdfrwt>
<pdfrwt beam="2">  1       -2 0.25395701E+00 0.25678321E+04</pdfrwt>
<totfact> 0.13600524E+00</totfact>
</mgrwt>
</event>
<event>
12    1  0.2404959E-007  0.1778430E+04  0.7818608E-02  0.8717855E-01
          1   -1    0    0  501    0  0.00000000000E+00  0.00000000000E+00  0.50368557596E+03  0.50368557596E+03  0.00000000000E+00 0. -1.
         -1   -1    0    0    0  501 -0.00000000000E+00 -0.00000000000E+00 -0.15698347292E+04  0.15698347292E+04  0.00000000000E+00 0.  1.
         23    2    1    2    0    0 -0.61215655764E+03 -0.53031284081E+02 -0.12519785200E+03  0.63394542212E+03  0.93082371782E+02 0.  0.
        254    2    1    2    0    0  0.61215655764E+03  0.53031284081E+02 -0.94095130123E+03  0.14395748830E+04  0.89968801503E+03 0.  0.
        -24    2    4    4    0    0  0.33378652337E+03  0.31045144851E+03 -0.94568824126E+03  0.10528273564E+04  0.79533939897E+02 0.  0.
         24    2    4    4    0    0  0.27837003427E+03 -0.25742016443E+03  0.47369400384E+01  0.38674752664E+03  0.76132737593E+02 0.  0.
         13    1    3    3    0    0 -0.26113232768E+03  0.22437472298E+02 -0.42792424280E+02  0.26556491541E+03  0.00000000000E+00 0. -1.
        -13    1    3    3    0    0 -0.35102422996E+03 -0.75468756379E+02 -0.82405427725E+02  0.36838050671E+03  0.00000000000E+00 0.  1.
          2    1    6    6  502    0  0.18101464573E+03 -0.19956238734E+03 -0.22190035705E+02  0.27034024135E+03  0.00000000000E+00 0. -1.
          1    1    5    5  503    0  0.28111660218E+03  0.29530081355E+03 -0.84361419365E+03  0.93697066242E+03  0.00000000000E+00 0. -1.
         -2    1    5    5    0  503  0.52669921186E+02  0.15150634961E+02 -0.10207404761E+03  0.11585669395E+03  0.00000000000E+00 0.  1.
         -1    1    6    6    0  502  0.97355388539E+02 -0.57857777091E+02  0.26926975743E+02  0.11640728530E+03  0.00000000000E+00 0.  1.
<mgrwt>
<rscale>  0 0.17784298E+04</rscale>
<asrwt>0</asrwt>
<pdfrwt beam="1">  1        1 0.77490089E-01 0.17784298E+04</pdfrwt>
<pdfrwt beam="2">  1       -1 0.24151303E+00 0.17784298E+04</pdfrwt>
<totfact> 0.32865824E+00</totfact>
</mgrwt>
</event>
<event>
12    1  0.2404959E-007  0.1624231E+04  0.7818608E-02  0.8805799E-01
         -1   -1    0    0    0  501 -0.00000000000E+00  0.00000000000E+00  0.25276097264E+03  0.25276097264E+03  0.00000000000E+00 0.  1.
          1   -1    0    0  501    0  0.00000000000E+00 -0.00000000000E+00 -0.26093086060E+04  0.26093086060E+04  0.00000000000E+00 0. -1.
         23    2    1    2    0    0 -0.37592164273E+03 -0.36498976734E+03 -0.11527556945E+04  0.12694289526E+04  0.89830744430E+02 0.  0.
        254    2    1    2    0    0  0.37592164273E+03  0.36498976734E+03 -0.12037919388E+04  0.15926406260E+04  0.90158444975E+03 0.  0.
        -24    2    4    4    0    0  0.40859720465E+03  0.59380746452E+03 -0.11213922348E+04  0.13356340978E+04  0.82697752389E+02 0.  0.
         24    2    4    4    0    0 -0.32675561921E+02 -0.22881769719E+03 -0.82399703959E+02  0.25700652824E+03  0.76402967563E+02 0.  0.
         11    1    3    3    0    0 -0.27230406647E+03 -0.23049779594E+03 -0.85900360551E+03  0.93014296365E+03  0.00000000000E+00 0. -1.
        -11    1    3    3    0    0 -0.10361757626E+03 -0.13449197140E+03 -0.29375208901E+03  0.33928598892E+03  0.00000000000E+00 0.  1.
          4    1    6    6  502    0 -0.44966949547E+02 -0.20085441050E+03 -0.91334636679E+02  0.22518111960E+03  0.00000000000E+00 0. -1.
          3    1    5    5  503    0  0.36193057383E+03  0.48427773970E+03 -0.97077154000E+03  0.11436415751E+04  0.00000000000E+00 0. -1.
         -4    1    5    5    0  503  0.46666630822E+02  0.10952972482E+03 -0.15062069484E+03  0.19199252269E+03  0.00000000000E+00 0.  1.
         -3    1    6    6    0  502  0.12291387626E+02 -0.27963286693E+02  0.89349327201E+01  0.31825408641E+02  0.00000000000E+00 0.  1.
<mgrwt>
<rscale>  0 0.16242307E+04</rscale>
<asrwt>0</asrwt>
<pdfrwt beam="1">  1        1 0.40143212E+00 0.16242307E+04</pdfrwt>
<pdfrwt beam="2">  1       -1 0.38886301E-01 0.16242307E+04</pdfrwt>
<totfact> 0.69980134E+00</totfact>
</mgrwt>
</event>
<event>
12    1  0.2404959E-007  0.1390580E+04  0.7818608E-02  0.8960666E-01
          1   -1    0    0  501    0  0.00000000000E+00  0.00000000000E+00  0.62269878029E+03  0.62269878029E+03  0.00000000000E+00 0. -1.
         -1   -1    0    0    0  501 -0.00000000000E+00 -0.00000000000E+00 -0.77634354790E+03  0.77634354790E+03  0.00000000000E+00 0.  1.
         23    2    1    2    0    0  0.12064535873E+03  0.37634043178E+03  0.39766037777E+01  0.40551455710E+03  0.90767942985E+02 0.  0.
        254    2    1    2    0    0 -0.12064535873E+03 -0.37634043178E+03 -0.15762137138E+03  0.99352777109E+03  0.89781151254E+03 0.  0.
        -24    2    4    4    0    0 -0.10199027859E+03 -0.39728867940E+03 -0.49347625548E+03  0.64665590023E+03  0.80029537471E+02 0.  0.
         24    2    4    4    0    0 -0.18655080137E+02  0.20948247625E+02  0.33585488410E+03  0.34687187086E+03  0.82065525826E+02 0.  0.
         13    1    3    3    0    0  0.12880977954E+03  0.30734391643E+03 -0.14703638649E+02  0.33356924208E+03  0.00000000000E+00 0.  1.
        -13    1    3    3    0    0 -0.81644208099E+01  0.68996515345E+02  0.18680242427E+02  0.71945315024E+02  0.00000000000E+00 0. -1.
          4    1    6    6  502    0 -0.18259372796E+02  0.52046124168E+02  0.23158740215E+03  0.23806496712E+03  0.00000000000E+00 0. -1.
          3    1    5    5  503    0 -0.17479774199E+02 -0.12565458151E+03 -0.10227691282E+03  0.16295761184E+03  0.00000000000E+00 0. -1.
         -4    1    5    5    0  503 -0.84510504390E+02 -0.27163409789E+03 -0.39119934267E+03  0.48369828839E+03  0.00000000000E+00 0.  1.
         -3    1    6    6    0  502 -0.39570734094E+00 -0.31097876543E+02  0.10426748195E+03  0.10880690374E+03  0.00000000000E+00 0.  1.
<mgrwt>
<rscale>  0 0.13905800E+04</rscale>
<asrwt>0</asrwt>
<pdfrwt beam="1">  1        1 0.95799813E-01 0.13905800E+04</pdfrwt>
<pdfrwt beam="2">  1       -1 0.11943747E+00 0.13905800E+04</pdfrwt>
<totfact> 0.19834171E+01</totfact>
</mgrwt>
</event>
<event>
12    1  0.2404959E-007  0.1827066E+04  0.7818608E-02  0.8692037E-01
          2   -1    0    0  501    0  0.00000000000E+00  0.00000000000E+00  0.17698953710E+04  0.17698953710E+04  0.00000000000E+00 0. -1.
         -2   -1    0    0    0  501 -0.00000000000E+00 -0.00000000000E+00 -0.47152070840E+03  0.47152070840E+03  0.00000000000E+00 0.  1.
         23    2    1    2    0    0  0.17444261534E+03 -0.23793035367E+03  0.12551847955E+04  0.12926354109E+04  0.91522430633E+02 0.  0.
        254    2    1    2    0    0 -0.17444261534E+03  0.23793035367E+03  0.43189867131E+02  0.94878066857E+03  0.90070989402E+03 0.  0.
        -24    2    4    4    0    0 -0.21018639548E+03  0.56283881634E+03  0.73811413024E+02  0.61077331328E+03  0.81425189569E+02 0.  0.
         24    2    4    4    0    0  0.35743780138E+02 -0.32490846268E+03 -0.30621545893E+02  0.33800735529E+03  0.80424910438E+02 0.  0.
         13    1    3    3    0    0  0.47694458238E+02 -0.60854275109E+02  0.18477466456E+03  0.20029897856E+03  0.00000000000E+00 0.  1.
        -13    1    3    3    0    0  0.12674815710E+03 -0.17707607856E+03  0.10704101309E+04  0.10923364323E+04  0.00000000000E+00 0. -1.
          2    1    6    6  502    0  0.11568655347E+02 -0.23000698877E+03  0.13290199549E+02  0.23068090097E+03  0.00000000000E+00 0. -1.
          1    1    5    5  503    0 -0.20541602790E+03  0.56452410572E+03  0.75450328485E+02  0.60545516971E+03  0.00000000000E+00 0. -1.
         -2    1    5    5    0  503 -0.47703675827E+01 -0.16852893793E+01 -0.16389154610E+01  0.53181435721E+01  0.00000000000E+00 0.  1.
         -1    1    6    6    0  502  0.24175124791E+02 -0.94901473909E+02 -0.43911745442E+02  0.10732645432E+03  0.00000000000E+00 0.  1.
<mgrwt>
<rscale>  0 0.18270658E+04</rscale>
<asrwt>0</asrwt>
<pdfrwt beam="1">  1        2 0.27229159E+00 0.18270658E+04</pdfrwt>
<pdfrwt beam="2">  1       -2 0.72541648E-01 0.18270658E+04</pdfrwt>
<totfact> 0.14519402E+01</totfact>
</mgrwt>
</event>
<event>
12    1  0.2404959E-007  0.1076890E+04  0.7818608E-02  0.9228013E-01
         -1   -1    0    0    0  501 -0.00000000000E+00  0.00000000000E+00  0.39956364955E+03  0.39956364955E+03  0.00000000000E+00 0.  1.
          1   -1    0    0  501    0  0.00000000000E+00 -0.00000000000E+00 -0.72559959502E+03  0.72559959502E+03  0.00000000000E+00 0. -1.
         23    2    1    2    0    0 -0.11614248137E+03 -0.27903813685E+02 -0.10758307978E+03  0.18911752039E+03  0.99617361273E+02 0.  0.
        254    2    1    2    0    0  0.11614248137E+03  0.27903813685E+02 -0.21845286569E+03  0.93604572417E+03  0.90232601892E+03 0.  0.
        -24    2    4    4    0    0 -0.16051699376E+03 -0.31128697733E+03 -0.31632119499E+03  0.47862427033E+03  0.79729581729E+02 0.  0.
         24    2    4    4    0    0  0.27665947513E+03  0.33919079101E+03  0.97868329307E+02  0.45742145384E+03  0.89807119259E+02 0.  0.
         13    1    3    3    0    0 -0.52322163339E+02 -0.19647601128E+02  0.83615302380E+01  0.56511522670E+02  0.00000000000E+00 0.  1.
        -13    1    3    3    0    0 -0.63820318032E+02 -0.82562125572E+01 -0.11594461002E+03  0.13260599772E+03  0.00000000000E+00 0. -1.
          2    1    6    6  502    0  0.72378913798E+02  0.69562944847E+02 -0.13487224879E+02  0.10128976105E+03  0.00000000000E+00 0. -1.
          1    1    5    5  503    0 -0.31863981298E+02 -0.89254647525E+02 -0.44134064933E+02  0.10454434990E+03  0.00000000000E+00 0. -1.
         -2    1    5    5    0  503 -0.12865301246E+03 -0.22203232980E+03 -0.27218713006E+03  0.37407992042E+03  0.00000000000E+00 0.  1.
         -1    1    6    6    0  502  0.20428056133E+03  0.26962784617E+03  0.11135555419E+03  0.35613169280E+03  0.00000000000E+00 0.  1.
<mgrwt>
<rscale>  0 0.10768904E+04</rscale>
<asrwt>0</asrwt>
<pdfrwt beam="1">  1        1 0.11163071E+00 0.10768904E+04</pdfrwt>
<pdfrwt beam="2">  1       -1 0.61471331E-01 0.10768904E+04</pdfrwt>
<totfact> 0.69076498E+01</totfact>
</mgrwt>
</event>
<event>
12    1  0.2404959E-007  0.1624563E+04  0.7818608E-02  0.8805598E-01
          2   -1    0    0  501    0  0.00000000000E+00  0.00000000000E+00  0.73145152359E+03  0.73145152359E+03  0.00000000000E+00 0. -1.
         -2   -1    0    0    0  501 -0.00000000000E+00 -0.00000000000E+00 -0.90204407963E+03  0.90204407963E+03  0.00000000000E+00 0.  1.
         23    2    1    2    0    0  0.19713792495E+03 -0.51874784294E+03  0.25177404633E+00  0.56247225969E+03  0.91718556027E+02 0.  0.
        254    2    1    2    0    0 -0.19713792495E+03  0.51874784294E+03 -0.17084433008E+03  0.10710233435E+04  0.89996696120E+03 0.  0.
        -24    2    4    4    0    0 -0.38497411910E+02 -0.11407956776E+03  0.25056595992E+03  0.29019279400E+03  0.83260788585E+02 0.  0.
         24    2    4    4    0    0 -0.15864051304E+03  0.63282741070E+03 -0.42141029000E+03  0.78083054953E+03  0.80451043830E+02 0.  0.
         11    1    3    3    0    0  0.19940269268E+03 -0.50275227015E+03  0.14332213726E+02  0.54104222695E+03  0.00000000000E+00 0. -1.
        -11    1    3    3    0    0 -0.22647677263E+01 -0.15995572786E+02 -0.14080439680E+02  0.21430032738E+02  0.00000000000E+00 0.  1.
          4    1    6    6  502    0 -0.11537525324E+03  0.54480340087E+03 -0.33345451441E+03  0.64908713424E+03  0.00000000000E+00 0. -1.
          1    1    5    5  503    0 -0.39193911644E+02 -0.85817873852E+02  0.24337604610E+03  0.26102254692E+03  0.00000000000E+00 0. -1.
         -2    1    5    5    0  503  0.69649973454E+00 -0.28261693905E+02  0.71899138187E+01  0.29170247085E+02  0.00000000000E+00 0.  1.
         -3    1    6    6    0  502 -0.43265259800E+02  0.88024009826E+02 -0.87955775590E+02  0.13174341529E+03  0.00000000000E+00 0.  1.
<mgrwt>
<rscale>  0 0.16245633E+04</rscale>
<asrwt>0</asrwt>
<pdfrwt beam="1">  1        2 0.11253100E+00 0.16245633E+04</pdfrwt>
<pdfrwt beam="2">  1       -2 0.13877601E+00 0.16245633E+04</pdfrwt>
<totfact> 0.13617610E+01</totfact>
</mgrwt>
</event>
<event>
12    1  0.2404959E-007  0.2755333E+04  0.7818608E-02  0.8317271E-01
         -2   -1    0    0    0  501 -0.00000000000E+00  0.00000000000E+00  0.15138941396E+04  0.15138941396E+04  0.00000000000E+00 0.  1.
          2   -1    0    0  501    0  0.00000000000E+00 -0.00000000000E+00 -0.12536977187E+04  0.12536977187E+04  0.00000000000E+00 0. -1.
         23    2    1    2    0    0  0.76706299055E+03 -0.80336164474E+03 -0.41043653059E+03  0.11890746969E+04  0.10800428400E+03 0.  0.
        254    2    1    2    0    0 -0.76706299055E+03  0.80336164474E+03  0.67063295145E+03  0.15785171615E+04  0.89899516673E+03 0.  0.
        -24    2    4    4    0    0 -0.18238748216E+02  0.69651985392E+02 -0.18945213901E+03  0.22016628630E+03  0.86005986091E+02 0.  0.
         24    2    4    4    0    0 -0.74882424233E+03  0.73370965935E+03  0.86008509046E+03  0.13583508752E+04  0.79392236035E+02 0.  0.
         13    1    3    3    0    0  0.52992143030E+03 -0.49299808325E+03 -0.23586327661E+03  0.76124589827E+03  0.00000000000E+00 0. -1.
        -13    1    3    3    0    0  0.23714156025E+03 -0.31036356149E+03 -0.17457325398E+03  0.42782879859E+03  0.00000000000E+00 0.  1.
          2    1    6    6  502    0 -0.67781023407E+03  0.68825180885E+03  0.77362466276E+03  0.12375832839E+04  0.00000000000E+00 0. -1.
          1    1    5    5  503    0 -0.51173864079E+02  0.28457986485E+02 -0.85935388875E+02  0.10398803980E+03  0.00000000000E+00 0. -1.
         -2    1    5    5    0  503  0.32935115863E+02  0.41193998907E+02 -0.10351675013E+03  0.11617824651E+03  0.00000000000E+00 0.  1.
         -3    1    6    6    0  502 -0.71014008265E+02  0.45457850492E+02  0.86460427699E+02  0.12076759126E+03  0.00000000000E+00 0.  1.
<mgrwt>
<rscale>  0 0.27553335E+04</rscale>
<asrwt>0</asrwt>
<pdfrwt beam="1">  1        2 0.19287657E+00 0.27553335E+04</pdfrwt>
<pdfrwt beam="2">  1       -2 0.23290679E+00 0.27553335E+04</pdfrwt>
<totfact> 0.12602439E+00</totfact>
</mgrwt>
</event>
<event>
12    1  0.2404959E-007  0.2235842E+04  0.7818608E-02  0.8503656E-01
         -2   -1    0    0    0  501 -0.00000000000E+00  0.00000000000E+00  0.21881009771E+04  0.21881009771E+04  0.00000000000E+00 0.  1.
          2   -1    0    0  501    0  0.00000000000E+00 -0.00000000000E+00 -0.57115626982E+03  0.57115626982E+03  0.00000000000E+00 0. -1.
         23    2    1    2    0    0 -0.14918612003E+03 -0.81207458532E+03  0.12158102229E+04  0.14724961389E+04  0.91261987121E+02 0.  0.
        254    2    1    2    0    0  0.14918612003E+03  0.81207458532E+03  0.40113448433E+03  0.12867611080E+04  0.90173368799E+03 0.  0.
        -24    2    4    4    0    0  0.48691528388E+03  0.52227668978E+03  0.42218024124E+03  0.83360761229E+03  0.82498853408E+02 0.  0.
         24    2    4    4    0    0 -0.33772916385E+03  0.28979789554E+03 -0.21045756911E+02  0.45315349572E+03  0.82833317138E+02 0.  0.
         13    1    3    3    0    0 -0.13009497851E+03 -0.49660009161E+03  0.79180774958E+03  0.94366088544E+03  0.00000000000E+00 0. -1.
        -13    1    3    3    0    0 -0.19091141515E+02 -0.31547449371E+03  0.42400247333E+03  0.52883525341E+03  0.00000000000E+00 0.  1.
          2    1    6    6  502    0 -0.77071856261E+02  0.26695564347E+02  0.61671171814E+01  0.81797050789E+02  0.00000000000E+00 0. -1.
          3    1    5    5  503    0  0.12080178498E+03  0.17877451686E+03  0.14733306743E+03  0.26126697436E+03  0.00000000000E+00 0. -1.
         -4    1    5    5    0  503  0.36611349890E+03  0.34350217292E+03  0.27484717381E+03  0.57234063794E+03  0.00000000000E+00 0.  1.
         -1    1    6    6    0  502 -0.26065730759E+03  0.26310233119E+03 -0.27212874092E+02  0.37135644494E+03  0.00000000000E+00 0.  1.
<mgrwt>
<rscale>  0 0.22358422E+04</rscale>
<asrwt>0</asrwt>
<pdfrwt beam="1">  1        2 0.87870197E-01 0.22358422E+04</pdfrwt>
<pdfrwt beam="2">  1       -2 0.33663091E+00 0.22358422E+04</pdfrwt>
<totfact> 0.90629701E-01</totfact>
</mgrwt>
</event>
<event>
12    1  0.2404959E-007  0.1418110E+04  0.7818608E-02  0.8940813E-01
          2   -1    0    0  501    0  0.00000000000E+00  0.00000000000E+00  0.13943261909E+04  0.13943261909E+04  0.00000000000E+00 0. -1.
         -2   -1    0    0    0  501 -0.00000000000E+00 -0.00000000000E+00 -0.36057501149E+03  0.36057501149E+03  0.00000000000E+00 0.  1.
         23    2    1    2    0    0  0.35323414455E+03  0.19720867462E+03  0.43840547557E+03  0.60366102664E+03  0.92421057430E+02 0.  0.
        254    2    1    2    0    0 -0.35323414455E+03 -0.19720867462E+03  0.59534570382E+03  0.11512401757E+04  0.89847193220E+03 0.  0.
        -24    2    4    4    0    0 -0.24556035192E+03 -0.39385595603E+03  0.73624579939E+03  0.87401131709E+03  0.80096846030E+02 0.  0.
         24    2    4    4    0    0 -0.10767379263E+03  0.19664728141E+03 -0.14090009557E+03  0.27722885864E+03  0.82092656349E+02 0.  0.
         13    1    3    3    0    0  0.25954763635E+03  0.18797368285E+03  0.34934417358E+03  0.47406796200E+03  0.00000000000E+00 0. -1.
        -13    1    3    3    0    0  0.93686508198E+02  0.92349917666E+01  0.89061301997E+02  0.12959306465E+03  0.00000000000E+00 0.  1.
          2    1    6    6  502    0 -0.65643431421E+02  0.15921611572E+03 -0.68060177242E+02  0.18517834463E+03  0.00000000000E+00 0. -1.
          1    1    5    5  503    0 -0.23284535968E+03 -0.33547145410E+03  0.60645304925E+03  0.73112472190E+03  0.00000000000E+00 0. -1.
         -2    1    5    5    0  503 -0.12714992239E+02 -0.58384501933E+02  0.12979275014E+03  0.14288659518E+03  0.00000000000E+00 0.  1.
         -1    1    6    6    0  502 -0.42030361209E+02  0.37431165699E+02 -0.72839918328E+02  0.92050514018E+02  0.00000000000E+00 0.  1.
<mgrwt>
<rscale>  0 0.14181103E+04</rscale>
<asrwt>0</asrwt>
<pdfrwt beam="1">  1        2 0.21451172E+00 0.14181103E+04</pdfrwt>
<pdfrwt beam="2">  1       -2 0.55473079E-01 0.14181103E+04</pdfrwt>
<totfact> 0.43273543E+01</totfact>
</mgrwt>
</event>
<event>
12    1  0.2404959E-007  0.3292890E+04  0.7818608E-02  0.8164707E-01
          2   -1    0    0  501    0  0.00000000000E+00  0.00000000000E+00  0.21325970920E+04  0.21325970920E+04  0.00000000000E+00 0. -1.
         -2   -1    0    0    0  501 -0.00000000000E+00 -0.00000000000E+00 -0.12711173698E+04  0.12711173698E+04  0.00000000000E+00 0.  1.
         23    2    1    2    0    0  0.12003228932E+04 -0.67267158186E+03 -0.27402840827E+03  0.14054584347E+04  0.83425045131E+02 0.  0.
        254    2    1    2    0    0 -0.12003228932E+04  0.67267158186E+03  0.11355081305E+04  0.19982560271E+04  0.90021460246E+03 0.  0.
        -24    2    4    4    0    0 -0.24520315768E+03 -0.16238360926E+03  0.17128179857E+02  0.30527898402E+03  0.80055346159E+02 0.  0.
         24    2    4    4    0    0 -0.95511973554E+03  0.83505519112E+03  0.11183799507E+04  0.16929770431E+04  0.76332647248E+02 0.  0.
         13    1    3    3    0    0  0.92034047068E+03 -0.49596280048E+03 -0.17610503705E+03  0.10601974653E+04  0.00000000000E+00 0.  1.
        -13    1    3    3    0    0  0.27998242254E+03 -0.17670878138E+03 -0.97923371219E+02  0.34526096938E+03  0.00000000000E+00 0. -1.
          2    1    6    6  502    0 -0.84319969236E+03  0.76005891769E+03  0.10203215951E+04  0.15263457790E+04  0.00000000000E+00 0. -1.
          3    1    5    5  503    0 -0.23164889992E+03 -0.16621759783E+03  0.27155993636E+01  0.28512607237E+03  0.00000000000E+00 0. -1.
         -4    1    5    5    0  503 -0.13554257758E+02  0.38339885710E+01  0.14412580494E+02  0.20152911656E+02  0.00000000000E+00 0.  1.
         -1    1    6    6    0  502 -0.11192004318E+03  0.74996273428E+02  0.98058355541E+02  0.16663126413E+03  0.00000000000E+00 0.  1.
<mgrwt>
<rscale>  0 0.32928900E+04</rscale>
<asrwt>0</asrwt>
<pdfrwt beam="1">  1        2 0.32809186E+00 0.32928900E+04</pdfrwt>
<pdfrwt beam="2">  1       -2 0.19555652E+00 0.32928900E+04</pdfrwt>
<totfact> 0.67003297E-01</totfact>
</mgrwt>
</event>
<event>
12    1  0.2404959E-007  0.1942067E+04  0.7818608E-02  0.8634196E-01
          2   -1    0    0  501    0  0.00000000000E+00  0.00000000000E+00  0.11567556071E+04  0.11567556071E+04  0.00000000000E+00 0. -1.
         -2   -1    0    0    0  501 -0.00000000000E+00 -0.00000000000E+00 -0.81512972010E+03  0.81512972010E+03  0.00000000000E+00 0.  1.
         23    2    1    2    0    0  0.56550445789E+03 -0.21575892316E+03 -0.33084806121E+03  0.69567435788E+03  0.90305967658E+02 0.  0.
        254    2    1    2    0    0 -0.56550445789E+03  0.21575892316E+03  0.67247394822E+03  0.12762109693E+04  0.90008111990E+03 0.  0.
        -24    2    4    4    0    0 -0.10769746119E+03  0.50243169928E+03  0.44842115906E+03  0.68667478865E+03  0.80027332067E+02 0.  0.
         24    2    4    4    0    0 -0.45780699670E+03 -0.28667277612E+03  0.22405278916E+03  0.58953618069E+03  0.74731045846E+02 0.  0.
         11    1    3    3    0    0  0.19541518491E+03 -0.30281664095E+02 -0.97655119206E+02  0.22054613119E+03  0.00000000000E+00 0.  1.
        -11    1    3    3    0    0  0.37008927298E+03 -0.18547725906E+03 -0.23319294201E+03  0.47512822670E+03  0.00000000000E+00 0. -1.
          4    1    6    6  502    0 -0.35185189978E+03 -0.25515146749E+03  0.17345420465E+03  0.46796195556E+03  0.00000000000E+00 0. -1.
          1    1    5    5  503    0 -0.65880406742E+02  0.40654227756E+03  0.32330003956E+03  0.52358358168E+03  0.00000000000E+00 0. -1.
         -2    1    5    5    0  503 -0.41817054448E+02  0.95889421725E+02  0.12512111951E+03  0.16309120696E+03  0.00000000000E+00 0.  1.
         -3    1    6    6    0  502 -0.10595509692E+03 -0.31521308635E+02  0.50598584511E+02  0.12157422513E+03  0.00000000000E+00 0.  1.
<mgrwt>
<rscale>  0 0.19420668E+04</rscale>
<asrwt>0</asrwt>
<pdfrwt beam="1">  1        2 0.17796240E+00 0.19420668E+04</pdfrwt>
<pdfrwt beam="2">  1       -2 0.12540457E+00 0.19420668E+04</pdfrwt>
<totfact> 0.89293863E+00</totfact>
</mgrwt>
</event>
<event>
12    1  0.2404959E-007  0.1447251E+04  0.7818608E-02  0.8920308E-01
         -1   -1    0    0    0  501 -0.00000000000E+00  0.00000000000E+00  0.82083063609E+03  0.82083063609E+03  0.00000000000E+00 0.  1.
          1   -1    0    0  501    0  0.00000000000E+00 -0.00000000000E+00 -0.63793188851E+03  0.63793188851E+03  0.00000000000E+00 0. -1.
         23    2    1    2    0    0 -0.55239915226E+02 -0.37190940340E+03  0.25585475469E+03  0.46342789061E+03  0.89082555682E+02 0.  0.
        254    2    1    2    0    0  0.55239915226E+02  0.37190940340E+03 -0.72956007106E+02  0.99533463399E+03  0.91869494506E+03 0.  0.
        -24    2    4    4    0    0  0.45775595465E+03  0.87351966368E+02 -0.13171217062E+03  0.49205601744E+03  0.87178829800E+02 0.  0.
         24    2    4    4    0    0 -0.40251603942E+03  0.28455743703E+03  0.58756163513E+02  0.50327861655E+03  0.82734407376E+02 0.  0.
         11    1    3    3    0    0 -0.60717075826E+02 -0.18848915475E+03  0.16931989749E+03  0.26054549016E+03  0.00000000000E+00 0.  1.
        -11    1    3    3    0    0  0.54771605999E+01 -0.18342024865E+03  0.86534857197E+02  0.20288240045E+03  0.00000000000E+00 0. -1.
          2    1    6    6  502    0 -0.40176488971E+03  0.27114728563E+03  0.50064724515E+02  0.48728056984E+03  0.00000000000E+00 0. -1.
          3    1    5    5  503    0  0.22148532529E+03 -0.19095336632E+01 -0.58471483110E+02  0.22908144834E+03  0.00000000000E+00 0. -1.
         -4    1    5    5    0  503  0.23627062936E+03  0.89261500032E+02 -0.73240687509E+02  0.26297456910E+03  0.00000000000E+00 0.  1.
         -3    1    6    6    0  502 -0.75114971317E+00  0.13410151405E+02  0.86914389982E+01  0.15998046707E+02  0.00000000000E+00 0.  1.
<mgrwt>
<rscale>  0 0.14472512E+04</rscale>
<asrwt>0</asrwt>
<pdfrwt beam="1">  1        1 0.98143367E-01 0.14472512E+04</pdfrwt>
<pdfrwt beam="2">  1       -1 0.12628164E+00 0.14472512E+04</pdfrwt>
<totfact> 0.16600045E+01</totfact>
</mgrwt>
</event>
<event>
12    1  0.2465577E-007  0.1318440E+04  0.7818608E-02  0.9015069E-01
          1   -1    0    0  501    0  0.00000000000E+00  0.00000000000E+00  0.13204585574E+04  0.13204585574E+04  0.00000000000E+00 0. -1.
         -1   -1    0    0    0  501 -0.00000000000E+00 -0.00000000000E+00 -0.32910594074E+03  0.32910594074E+03  0.00000000000E+00 0.  1.
         23    2    1    2    0    0 -0.20830520806E+03  0.14186743212E+03  0.55537199003E+03  0.61650269842E+03  0.90111607733E+02 0.  0.
        254    2    1    2    0    0  0.20830520806E+03 -0.14186743212E+03  0.43598062666E+03  0.10330617997E+04  0.90200895078E+03 0.  0.
        -24    2    4    4    0    0  0.49592637759E+03 -0.62549056174E+02  0.50672212253E+03  0.71617702039E+03  0.79289713408E+02 0.  0.
         24    2    4    4    0    0 -0.28762116953E+03 -0.79318375947E+02 -0.70741495872E+02  0.31688477936E+03  0.79964130897E+02 0.  0.
         13    1    3    3    0    0 -0.13877293049E+03  0.96250756940E+02  0.45969540377E+03  0.48973666260E+03  0.00000000000E+00 0. -1.
        -13    1    3    3    0    0 -0.69532277576E+02  0.45616675180E+02  0.95676586259E+02  0.12676603582E+03  0.00000000000E+00 0.  1.
          2    1    6    6  502    0 -0.14395877746E+03 -0.39289841880E+02 -0.76395820939E+02  0.16764290244E+03  0.00000000000E+00 0. -1.
          3    1    5    5  503    0  0.26954922542E+03 -0.64211296687E+02  0.31488844625E+03  0.41944559734E+03  0.00000000000E+00 0. -1.
         -4    1    5    5    0  503  0.22637715217E+03  0.16622405132E+01  0.19183367628E+03  0.29673142304E+03  0.00000000000E+00 0.  1.
         -1    1    6    6    0  502 -0.14366239207E+03 -0.40028534067E+02  0.56543250675E+01  0.14924187692E+03  0.00000000000E+00 0.  1.
<mgrwt>
<rscale>  0 0.13184396E+04</rscale>
<asrwt>0</asrwt>
<pdfrwt beam="1">  1        1 0.20314747E+00 0.13184396E+04</pdfrwt>
<pdfrwt beam="2">  1       -1 0.50631684E-01 0.13184396E+04</pdfrwt>
<totfact> 0.33623703E+01</totfact>
</mgrwt>
</event>
<event>
12    1  0.2603446E-007  0.2254434E+04  0.7818608E-02  0.8496107E-01
         -3   -1    0    0    0  501 -0.00000000000E+00  0.00000000000E+00  0.63098184825E+03  0.63098184825E+03  0.00000000000E+00 0.  1.
          3   -1    0    0  501    0  0.00000000000E+00 -0.00000000000E+00 -0.20137150771E+04  0.20137150771E+04  0.00000000000E+00 0. -1.
         23    2    1    2    0    0 -0.31546108710E+03  0.87883100038E+03 -0.41637951703E+03  0.10262391497E+04  0.89080106640E+02 0.  0.
        254    2    1    2    0    0  0.31546108710E+03 -0.87883100038E+03 -0.96635371184E+03  0.16184577757E+04  0.90205678901E+03 0.  0.
        -24    2    4    4    0    0  0.84430201160E+02 -0.89503896725E+03 -0.10265732443E+04  0.13669914763E+04  0.81177944557E+02 0.  0.
         24    2    4    4    0    0  0.23103088594E+03  0.16207966868E+02  0.60219532457E+02  0.25146629937E+03  0.77271852424E+02 0.  0.
         11    1    3    3    0    0 -0.16738769853E+03  0.38303080764E+03 -0.22359826840E+03  0.47405424463E+03  0.00000000000E+00 0. -1.
        -11    1    3    3    0    0 -0.14807338857E+03  0.49580019275E+03 -0.19278124863E+03  0.55218490504E+03  0.00000000000E+00 0.  1.
          2    1    6    6  502    0  0.20108957930E+03  0.34455285969E+02  0.68907386780E+02  0.21534254941E+03  0.00000000000E+00 0. -1.
          1    1    5    5  503    0  0.85719592332E+02 -0.59413057874E+03 -0.64637585353E+03  0.88212285830E+03  0.00000000000E+00 0. -1.
         -2    1    5    5    0  503 -0.12893911722E+01 -0.30090838851E+03 -0.38019739076E+03  0.48486861803E+03  0.00000000000E+00 0.  1.
         -1    1    6    6    0  502  0.29941306643E+02 -0.18247319101E+02 -0.86878543237E+01  0.36123749952E+02  0.00000000000E+00 0.  1.
<mgrwt>
<rscale>  0 0.22544336E+04</rscale>
<asrwt>0</asrwt>
<pdfrwt beam="1">  1        3 0.30980232E+00 0.22544336E+04</pdfrwt>
<pdfrwt beam="2">  1       -3 0.97074132E-01 0.22544336E+04</pdfrwt>
<totfact> 0.76001614E-02</totfact>
</mgrwt>
</event>
<event>
12    1  0.2404959E-007  0.1523065E+04  0.7818608E-02  0.8869258E-01
         -1   -1    0    0    0  501 -0.00000000000E+00  0.00000000000E+00  0.81890038240E+03  0.81890038240E+03  0.00000000000E+00 0.  1.
          1   -1    0    0  501    0  0.00000000000E+00 -0.00000000000E+00 -0.70818328882E+03  0.70818328882E+03  0.00000000000E+00 0. -1.
         23    2    1    2    0    0  0.20248574485E+03  0.31817510629E+03 -0.27588283209E+03  0.47634445893E+03  0.92503142534E+02 0.  0.
        254    2    1    2    0    0 -0.20248574485E+03 -0.31817510629E+03  0.38659992566E+03  0.10507392123E+04  0.90130877872E+03 0.  0.
        -24    2    4    4    0    0  0.78082558116E+00  0.34337238547E+01 -0.27335879759E+03  0.28477535577E+03  0.79746917719E+02 0.  0.
         24    2    4    4    0    0 -0.20326657043E+03 -0.32160883014E+03  0.65995872326E+03  0.76596385653E+03  0.80034835061E+02 0.  0.
         11    1    3    3    0    0  0.30270871295E+02  0.74580948896E+02 -0.19092025400E+02  0.82723328155E+02  0.00000000000E+00 0.  1.
        -11    1    3    3    0    0  0.17221487356E+03  0.24359415739E+03 -0.25679080669E+03  0.39362113077E+03  0.00000000000E+00 0. -1.
          2    1    6    6  502    0  0.28891467829E+00 -0.26836057634E+02  0.79060761178E+02  0.83491684731E+02  0.00000000000E+00 0. -1.
          1    1    5    5  503    0 -0.21392660245E+02 -0.27537418441E+02 -0.73923465443E+02  0.81735145867E+02  0.00000000000E+00 0. -1.
         -4    1    5    5    0  503  0.22173485826E+02  0.30971142296E+02 -0.19943533215E+03  0.20304020990E+03  0.00000000000E+00 0.  1.
         -1    1    6    6    0  502 -0.20355548511E+03 -0.29477277251E+03  0.58089796208E+03  0.68247217180E+03  0.00000000000E+00 0.  1.
<mgrwt>
<rscale>  0 0.15230648E+04</rscale>
<asrwt>0</asrwt>
<pdfrwt beam="1">  1        1 0.10895128E+00 0.15230648E+04</pdfrwt>
<pdfrwt beam="2">  1       -1 0.12598467E+00 0.15230648E+04</pdfrwt>
<totfact> 0.14185721E+01</totfact>
</mgrwt>
</event>
<event>
12    1  0.2404959E-007  0.2831378E+04  0.7818608E-02  0.8293592E-01
         -1   -1    0    0    0  501 -0.00000000000E+00  0.00000000000E+00  0.21264552261E+04  0.21264552261E+04  0.00000000000E+00 0.  1.
          1   -1    0    0  501    0  0.00000000000E+00 -0.00000000000E+00 -0.94249595014E+03  0.94249595014E+03  0.00000000000E+00 0. -1.
         23    2    1    2    0    0  0.12074705112E+04 -0.24242783445E+03  0.19625496144E+03  0.12504193101E+04  0.90973351890E+02 0.  0.
        254    2    1    2    0    0 -0.12074705112E+04  0.24242783445E+03  0.98770431454E+03  0.18185318662E+04  0.90263062487E+03 0.  0.
        -24    2    4    4    0    0 -0.31119057334E+03 -0.25302447024E+03  0.23388220737E+02  0.40956874094E+03  0.79615257390E+02 0.  0.
         24    2    4    4    0    0 -0.89627993789E+03  0.49545230469E+03  0.96431609381E+03  0.14089631252E+04  0.80503703281E+02 0.  0.
         13    1    3    3    0    0  0.63118507944E+03 -0.16606467290E+03  0.12806099518E+03  0.66511029054E+03  0.00000000000E+00 0. -1.
        -13    1    3    3    0    0  0.57628543179E+03 -0.76363161541E+02  0.68193966258E+02  0.58530901955E+03  0.00000000000E+00 0.  1.
          4    1    6    6  502    0 -0.42187659312E+03  0.22749689886E+03  0.50615633525E+03  0.69708603094E+03  0.00000000000E+00 0. -1.
          3    1    5    5  503    0 -0.10451755219E+02  0.49017059503E+01 -0.45096594260E+01  0.12393665177E+02  0.00000000000E+00 0. -1.
         -4    1    5    5    0  503 -0.30073881812E+03 -0.25792617619E+03  0.27897880163E+02  0.39717507576E+03  0.00000000000E+00 0.  1.
         -3    1    6    6    0  502 -0.47440334476E+03  0.26795540583E+03  0.45815975856E+03  0.71187709431E+03  0.00000000000E+00 0.  1.
<mgrwt>
<rscale>  0 0.28313781E+04</rscale>
<asrwt>0</asrwt>
<pdfrwt beam="1">  1        1 0.14499938E+00 0.28313781E+04</pdfrwt>
<pdfrwt beam="2">  1       -1 0.32714696E+00 0.28313781E+04</pdfrwt>
<totfact> 0.31887591E-01</totfact>
</mgrwt>
</event>
<event>
12    1  0.2404959E-007  0.2094371E+04  0.7818608E-02  0.8563727E-01
          1   -1    0    0  501    0  0.00000000000E+00  0.00000000000E+00  0.30365887535E+04  0.30365887535E+04  0.00000000000E+00 0. -1.
         -1   -1    0    0    0  501 -0.00000000000E+00 -0.00000000000E+00 -0.36112793009E+03  0.36112793009E+03  0.00000000000E+00 0.  1.
         23    2    1    2    0    0 -0.62941216267E+03 -0.51665930734E+03  0.14943063347E+04  0.17042591190E+04  0.91930475620E+02 0.  0.
        254    2    1    2    0    0  0.62941216267E+03  0.51665930734E+03  0.11811544887E+04  0.16934575646E+04  0.89976446167E+03 0.  0.
        -24    2    4    4    0    0 -0.77173233982E+02  0.48869631778E+03  0.45478979255E+03  0.67663014223E+03  0.78833970603E+02 0.  0.
         24    2    4    4    0    0  0.70658539665E+03  0.27962989564E+02  0.72636469614E+03  0.10168274223E+04  0.79293653458E+02 0.  0.
         13    1    3    3    0    0 -0.85035176434E+02 -0.11297999043E+03  0.23940597054E+03  0.27804797823E+03  0.00000000000E+00 0.  1.
        -13    1    3    3    0    0 -0.54437698623E+03 -0.40367931691E+03  0.12549003641E+04  0.14262111407E+04  0.00000000000E+00 0. -1.
          2    1    6    6  502    0  0.23310290499E+02  0.26057103365E+01  0.72736215936E+01  0.24557380573E+02  0.00000000000E+00 0. -1.
          1    1    5    5  503    0  0.14991446878E+02  0.11485790984E+03  0.98748577282E+02  0.15221157790E+03  0.00000000000E+00 0. -1.
         -2    1    5    5    0  503 -0.92164680860E+02  0.37383840793E+03  0.35604121527E+03  0.52441856433E+03  0.00000000000E+00 0.  1.
         -1    1    6    6    0  502  0.68327510615E+03  0.25357279227E+02  0.71909107455E+03  0.99227004177E+03  0.00000000000E+00 0.  1.
<mgrwt>
<rscale>  0 0.20943706E+04</rscale>
<asrwt>0</asrwt>
<pdfrwt beam="1">  1        1 0.46716748E+00 0.20943706E+04</pdfrwt>
<pdfrwt beam="2">  1       -1 0.55558145E-01 0.20943706E+04</pdfrwt>
<totfact> 0.16966766E+00</totfact>
</mgrwt>
</event>
<event>
12    1  0.2404959E-007  0.1624627E+04  0.7818608E-02  0.8805560E-01
          1   -1    0    0  501    0  0.00000000000E+00  0.00000000000E+00  0.85260436565E+03  0.85260436565E+03  0.00000000000E+00 0. -1.
         -1   -1    0    0    0  501 -0.00000000000E+00 -0.00000000000E+00 -0.77392662230E+03  0.77392662230E+03  0.00000000000E+00 0.  1.
         23    2    1    2    0    0  0.61736786875E+01 -0.54197279992E+03 -0.10372865208E+03  0.55816581171E+03  0.83766401022E+02 0.  0.
        254    2    1    2    0    0 -0.61736786875E+01  0.54197279992E+03  0.18240639544E+03  0.10683651762E+04  0.90241865370E+03 0.  0.
        -24    2    4    4    0    0 -0.39380749200E+03  0.51802938093E+03  0.10981223890E+03  0.66476399651E+03  0.80085348119E+02 0.  0.
         24    2    4    4    0    0  0.38763381331E+03  0.23943418985E+02  0.72594156532E+02  0.40360117973E+03  0.82405947492E+02 0.  0.
         11    1    3    3    0    0  0.20334685362E+02 -0.52570423346E+03 -0.93686173482E+02  0.53437396981E+03  0.00000000000E+00 0.  1.
        -11    1    3    3    0    0 -0.14161006674E+02 -0.16268566455E+02 -0.10042478602E+02  0.23791841901E+02  0.00000000000E+00 0. -1.
          4    1    6    6  502    0  0.31157373796E+03 -0.13533806761E+02  0.64080267791E+02  0.31838284946E+03  0.00000000000E+00 0. -1.
          3    1    5    5  503    0 -0.13293277367E+03  0.19831204358E+03  0.40339537364E+01  0.23877826896E+03  0.00000000000E+00 0. -1.
         -4    1    5    5    0  503 -0.26087471832E+03  0.31971733735E+03  0.10577828517E+03  0.42598572755E+03  0.00000000000E+00 0.  1.
         -1    1    6    6    0  502  0.76060075353E+02  0.37477225746E+02  0.85138887411E+01  0.85218330269E+02  0.00000000000E+00 0.  1.
<mgrwt>
<rscale>  0 0.16246270E+04</rscale>
<asrwt>0</asrwt>
<pdfrwt beam="1">  1        1 0.13116990E+00 0.16246270E+04</pdfrwt>
<pdfrwt beam="2">  1       -1 0.11906563E+00 0.16246270E+04</pdfrwt>
<totfact> 0.12044536E+01</totfact>
</mgrwt>
</event>
<event>
12    1  0.2404959E-007  0.1916369E+04  0.7818608E-02  0.8646751E-01
         -2   -1    0    0    0  501 -0.00000000000E+00  0.00000000000E+00  0.25015151397E+03  0.25015151397E+03  0.00000000000E+00 0. -1.
          2   -1    0    0  501    0  0.00000000000E+00 -0.00000000000E+00 -0.36702440887E+04  0.36702440887E+04  0.00000000000E+00 0.  1.
         23    2    1    2    0    0 -0.37467590130E+03  0.62762507116E+03 -0.10503742336E+04  0.12826143880E+04  0.86708573923E+02 0.  0.
        254    2    1    2    0    0  0.37467590130E+03 -0.62762507116E+03 -0.23697183412E+04  0.26377812147E+04  0.89890458840E+03 0.  0.
        -24    2    4    4    0    0  0.53753063317E+03 -0.37296196650E+03 -0.79604441376E+03  0.10335475117E+04  0.80584987499E+02 0.  0.
         24    2    4    4    0    0 -0.16285473187E+03 -0.25466310466E+03 -0.15736739275E+04  0.16042337030E+04  0.75770597078E+02 0.  0.
         13    1    3    3    0    0 -0.37895240626E+03  0.61983979102E+03 -0.10429191177E+04  0.12710179302E+04  0.00000000000E+00 0.  1.
        -13    1    3    3    0    0  0.42765049557E+01  0.77852801447E+01 -0.74551158366E+01  0.11596457809E+02  0.00000000000E+00 0. -1.
          4    1    6    6  502    0 -0.16140049454E+03 -0.23159246057E+03 -0.15167554132E+04  0.15428001073E+04  0.00000000000E+00 0. -1.
          3    1    5    5  503    0  0.16005170070E+03 -0.15651820834E+03 -0.25847180714E+03  0.34193884179E+03  0.00000000000E+00 0. -1.
         -4    1    5    5    0  503  0.37747893246E+03 -0.21644375816E+03 -0.53757260663E+03  0.69160866991E+03  0.00000000000E+00 0.  1.
         -3    1    6    6    0  502 -0.14542373222E+01 -0.23070644090E+02 -0.56918514229E+02  0.61433595751E+02  0.00000000000E+00 0.  1.
<mgrwt>
<rscale>  0 0.19163686E+04</rscale>
<asrwt>0</asrwt>
<pdfrwt beam="1">  1        2 0.56465291E+00 0.19163686E+04</pdfrwt>
<pdfrwt beam="2">  1       -2 0.38484850E-01 0.19163686E+04</pdfrwt>
<totfact> 0.36925951E+00</totfact>
</mgrwt>
</event>
<event>
12    1  0.2404959E-007  0.2856980E+04  0.7818608E-02  0.8285794E-01
          1   -1    0    0  501    0  0.00000000000E+00  0.00000000000E+00  0.15549640931E+04  0.15549640931E+04  0.00000000000E+00 0. -1.
         -1   -1    0    0    0  501 -0.00000000000E+00 -0.00000000000E+00 -0.13123023388E+04  0.13123023388E+04  0.00000000000E+00 0.  1.
         23    2    1    2    0    0  0.10495301252E+04 -0.18892041746E+03 -0.61045192754E+03  0.12319270317E+04  0.88251050258E+02 0.  0.
        254    2    1    2    0    0 -0.10495301252E+04  0.18892041746E+03  0.85311368189E+03  0.16353394002E+04  0.89962636238E+03 0.  0.
        -24    2    4    4    0    0 -0.81795895710E+03 -0.26227857683E+03  0.40088984750E+03  0.95122505077E+03  0.79180300756E+02 0.  0.
         24    2    4    4    0    0 -0.23157116807E+03  0.45119899428E+03  0.45222383440E+03  0.68411434945E+03  0.79374482029E+02 0.  0.
         13    1    3    3    0    0  0.82536687299E+02 -0.14721371140E+02 -0.22170669074E+02  0.86721174379E+02  0.00000000000E+00 0. -1.
        -13    1    3    3    0    0  0.96699343787E+03 -0.17419904632E+03 -0.58828125846E+03  0.11452058573E+04  0.00000000000E+00 0.  1.
          4    1    6    6  502    0 -0.25006990464E+02  0.12297697948E+03  0.11330700223E+03  0.16907739000E+03  0.00000000000E+00 0. -1.
          1    1    5    5  503    0 -0.11053070804E+03 -0.19795885002E+02  0.28725551585E+02  0.11590544334E+03  0.00000000000E+00 0. -1.
         -2    1    5    5    0  503 -0.70742824906E+03 -0.24248269182E+03  0.37216429591E+03  0.83531960743E+03  0.00000000000E+00 0.  1.
         -3    1    6    6    0  502 -0.20656417761E+03  0.32822201481E+03  0.33891683216E+03  0.51503695945E+03  0.00000000000E+00 0.  1.
<mgrwt>
<rscale>  0 0.28569795E+04</rscale>
<asrwt>0</asrwt>
<pdfrwt beam="1">  1        1 0.23922525E+00 0.28569795E+04</pdfrwt>
<pdfrwt beam="2">  1       -1 0.20189267E+00 0.28569795E+04</pdfrwt>
<totfact> 0.75413252E-01</totfact>
</mgrwt>
</event>
<event>
12    1  0.2404959E-007  0.2910226E+04  0.7818608E-02  0.8269841E-01
         -2   -1    0    0    0  501 -0.00000000000E+00  0.00000000000E+00  0.66302150833E+03  0.66302150833E+03  0.00000000000E+00 0.  1.
          2   -1    0    0  501    0  0.00000000000E+00 -0.00000000000E+00 -0.31934914903E+04  0.31934914903E+04  0.00000000000E+00 0. -1.
         23    2    1    2    0    0  0.10567398062E+04  0.73506119151E+03 -0.14870670765E+04  0.19689210950E+04  0.90927526749E+02 0.  0.
        254    2    1    2    0    0 -0.10567398062E+04 -0.73506119151E+03 -0.10434029054E+04  0.18875919036E+04  0.90404623668E+03 0.  0.
        -24    2    4    4    0    0  0.48254320992E+02 -0.88778928126E+02 -0.46207687186E+03  0.47933653661E+03  0.77706513584E+02 0.  0.
         24    2    4    4    0    0 -0.11049941272E+04 -0.64628226339E+03 -0.58132603358E+03  0.14082553670E+04  0.80934764643E+02 0.  0.
         13    1    3    3    0    0  0.93229260924E+02  0.35501750363E+02 -0.11282626278E+03  0.15060489681E+03  0.00000000000E+00 0. -1.
        -13    1    3    3    0    0  0.96351054530E+03  0.69955944115E+03 -0.13742408137E+04  0.18183161982E+04  0.00000000000E+00 0.  1.
          2    1    6    6  502    0 -0.27724330422E+03 -0.15961969142E+03 -0.10743037121E+03  0.33746641356E+03  0.00000000000E+00 0. -1.
          3    1    5    5  503    0 -0.60481353467E+01  0.10582615024E+02 -0.24751905885E+02  0.27590370183E+02  0.00000000000E+00 0. -1.
         -4    1    5    5    0  503  0.54302456338E+02 -0.99361543150E+02 -0.43732496597E+03  0.45174616643E+03  0.00000000000E+00 0.  1.
         -1    1    6    6    0  502 -0.82775082299E+03 -0.48666257196E+03 -0.47389566238E+03  0.10707889534E+04  0.00000000000E+00 0.  1.
<mgrwt>
<rscale>  0 0.29102258E+04</rscale>
<asrwt>0</asrwt>
<pdfrwt beam="1">  1        2 0.49130637E+00 0.29102258E+04</pdfrwt>
<pdfrwt beam="2">  1       -2 0.10200331E+00 0.29102258E+04</pdfrwt>
<totfact> 0.88919720E-01</totfact>
</mgrwt>
</event>
<event>
12    1  0.2404959E-007  0.2221939E+04  0.7818608E-02  0.8509352E-01
          2   -1    0    0  501    0  0.00000000000E+00  0.00000000000E+00  0.34892394366E+04  0.34892394366E+04  0.00000000000E+00 0. -1.
         -2   -1    0    0    0  501 -0.00000000000E+00 -0.00000000000E+00 -0.35373123309E+03  0.35373123309E+03  0.00000000000E+00 0.  1.
         23    2    1    2    0    0 -0.41754979918E+03 -0.79472797401E+03  0.91370411231E+03  0.12843420810E+04  0.93482558924E+02 0.  0.
        254    2    1    2    0    0  0.41754979918E+03  0.79472797401E+03  0.22218040912E+04  0.25586285886E+04  0.89678673463E+03 0.  0.
        -24    2    4    4    0    0  0.46746636455E+03  0.33508743459E+02  0.11134951331E+04  0.12107384400E+04  0.79803013313E+02 0.  0.
         24    2    4    4    0    0 -0.49916565370E+02  0.76121923055E+03  0.11083089581E+04  0.13478901486E+04  0.80701459395E+02 0.  0.
         11    1    3    3    0    0 -0.30707719010E+03 -0.55257714921E+03  0.69824089891E+03  0.94190140642E+03  0.00000000000E+00 0. -1.
        -11    1    3    3    0    0 -0.11047260908E+03 -0.24215082480E+03  0.21546321340E+03  0.34244067462E+03  0.00000000000E+00 0.  1.
          4    1    6    6  502    0 -0.53838117963E+02  0.49896110997E+03  0.67030102263E+03  0.83735547597E+03  0.00000000000E+00 0. -1.
          1    1    5    5  503    0  0.42451945824E+03  0.53021799291E+02  0.10173947602E+04  0.11036848190E+04  0.00000000000E+00 0. -1.
         -2    1    5    5    0  503  0.42946906317E+02 -0.19513055831E+02  0.96100372888E+02  0.10705362105E+03  0.00000000000E+00 0.  1.
         -3    1    6    6    0  502  0.39215525938E+01  0.26225812058E+03  0.43800793549E+03  0.51053467261E+03  0.00000000000E+00 0.  1.
<mgrwt>
<rscale>  0 0.22219388E+04</rscale>
<asrwt>0</asrwt>
<pdfrwt beam="1">  1        2 0.53680604E+00 0.22219388E+04</pdfrwt>
<pdfrwt beam="2">  1       -2 0.54420192E-01 0.22219388E+04</pdfrwt>
<totfact> 0.24065179E+00</totfact>
</mgrwt>
</event>
<event>
12    1  0.2404959E-007  0.2048894E+04  0.7818608E-02  0.8584096E-01
          2   -1    0    0  501    0  0.00000000000E+00  0.00000000000E+00  0.15774467932E+04  0.15774467932E+04  0.00000000000E+00 0.  1.
         -2   -1    0    0    0  501 -0.00000000000E+00 -0.00000000000E+00 -0.66531031328E+03  0.66531031328E+03  0.00000000000E+00 0. -1.
         23    2    1    2    0    0  0.13381406291E+03  0.74758637518E+03  0.71951985591E+03  0.10499442746E+04  0.88783809630E+02 0.  0.
        254    2    1    2    0    0 -0.13381406291E+03 -0.74758637518E+03  0.19261662396E+03  0.11928128319E+04  0.89939407173E+03 0.  0.
        -24    2    4    4    0    0 -0.17343286322E+03 -0.65914192963E+03  0.50729167551E+03  0.85335615565E+03  0.79528880978E+02 0.  0.
         24    2    4    4    0    0  0.39618800311E+02 -0.88444445541E+02 -0.31467505154E+03  0.33945667622E+03  0.82573468387E+02 0.  0.
         13    1    3    3    0    0  0.59077216646E+02  0.54366439217E+03  0.53334231798E+03  0.76388161189E+03  0.00000000000E+00 0.  1.
        -13    1    3    3    0    0  0.74736846264E+02  0.20392198301E+03  0.18617753793E+03  0.28606266267E+03  0.00000000000E+00 0. -1.
          4    1    6    6  502    0 -0.14017374801E+02 -0.23125781579E+02 -0.22117475139E+02  0.34935244045E+02  0.00000000000E+00 0. -1.
          1    1    5    5  503    0 -0.16338151893E+02 -0.35491765741E+02  0.98445838262E+01  0.40292883657E+02  0.00000000000E+00 0. -1.
         -2    1    5    5    0  503 -0.15709471133E+03 -0.62365016389E+03  0.49744709168E+03  0.81306327200E+03  0.00000000000E+00 0.  1.
         -3    1    6    6    0  502  0.53636175112E+02 -0.65318663962E+02 -0.29255757640E+03  0.30452143217E+03  0.00000000000E+00 0.  1.
<mgrwt>
<rscale>  0 0.20488940E+04</rscale>
<asrwt>0</asrwt>
<pdfrwt beam="1">  1        2 0.24268412E+00 0.20488940E+04</pdfrwt>
<pdfrwt beam="2">  1       -2 0.10235543E+00 0.20488940E+04</pdfrwt>
<totfact> 0.83030953E+00</totfact>
</mgrwt>
</event>
<event>
12    1  0.2404959E-007  0.3341692E+04  0.7818608E-02  0.8152367E-01
          1   -1    0    0  501    0  0.00000000000E+00  0.00000000000E+00  0.19173831076E+04  0.19173831076E+04  0.00000000000E+00 0. -1.
         -1   -1    0    0    0  501 -0.00000000000E+00 -0.00000000000E+00 -0.14560084979E+04  0.14560084979E+04  0.00000000000E+00 0.  1.
         23    2    1    2    0    0  0.49732146937E+03 -0.14657833717E+04  0.22760767359E+03  0.15672930675E+04  0.93556238293E+02 0.  0.
        254    2    1    2    0    0 -0.49732146937E+03  0.14657833717E+04  0.23376693610E+03  0.18060985379E+04  0.90083040110E+03 0.  0.
        -24    2    4    4    0    0 -0.64926523773E+03  0.79846965048E+03  0.38350515836E+03  0.11011350592E+04  0.79517800038E+02 0.  0.
         24    2    4    4    0    0  0.15194376836E+03  0.66731372124E+03 -0.14973822226E+03  0.70496347869E+03  0.78469483085E+02 0.  0.
         13    1    3    3    0    0  0.45433702225E+03 -0.12387739473E+04  0.18536779020E+03  0.13324204441E+04  0.00000000000E+00 0. -1.
        -13    1    3    3    0    0  0.42984447115E+02 -0.22700942443E+03  0.42239883390E+02  0.23487262340E+03  0.00000000000E+00 0.  1.
          4    1    6    6  502    0  0.47157608847E+02  0.15586679652E+03 -0.38413935959E+01  0.16288970082E+03  0.00000000000E+00 0. -1.
          3    1    5    5  503    0 -0.85433700769E+02  0.94482851541E+02  0.21152449754E+02  0.12912533676E+03  0.00000000000E+00 0. -1.
         -2    1    5    5    0  503 -0.56383153696E+03  0.70398679894E+03  0.36235270861E+03  0.97200972247E+03  0.00000000000E+00 0.  1.
         -3    1    6    6    0  502  0.10478615951E+03  0.51144692472E+03 -0.14589682866E+03  0.54207377786E+03  0.00000000000E+00 0.  1.
<mgrwt>
<rscale>  0 0.33416918E+04</rscale>
<asrwt>0</asrwt>
<pdfrwt beam="1">  1        1 0.29498202E+00 0.33416918E+04</pdfrwt>
<pdfrwt beam="2">  1       -1 0.22400131E+00 0.33416918E+04</pdfrwt>
<totfact> 0.29007908E-01</totfact>
</mgrwt>
</event>
<event>
12    1  0.2404959E-007  0.2675515E+04  0.7818608E-02  0.8342994E-01
         -2   -1    0    0    0  501 -0.00000000000E+00  0.00000000000E+00  0.11068552950E+04  0.11068552950E+04  0.00000000000E+00 0. -1.
          2   -1    0    0  501    0  0.00000000000E+00 -0.00000000000E+00 -0.16168281282E+04  0.16168281282E+04  0.00000000000E+00 0.  1.
         23    2    1    2    0    0  0.99945290147E+03  0.63118653573E+03 -0.30336868932E+03  0.12237306244E+04  0.90451834658E+02 0.  0.
        254    2    1    2    0    0 -0.99945290147E+03 -0.63118653573E+03 -0.20660414393E+03  0.14999527988E+04  0.89992809779E+03 0.  0.
        -24    2    4    4    0    0 -0.11036317191E+04 -0.32707318414E+03 -0.16988250715E+03  0.11660753721E+04  0.76758504561E+02 0.  0.
         24    2    4    4    0    0  0.10417881765E+03 -0.30411335159E+03 -0.36721636780E+02  0.33387742667E+03  0.82386289911E+02 0.  0.
         11    1    3    3    0    0  0.22354506726E+03  0.13286278544E+03 -0.29172328375E+02  0.26167908130E+03  0.00000000000E+00 0.  1.
        -11    1    3    3    0    0  0.77590783421E+03  0.49832375029E+03 -0.27419636095E+03  0.96205154314E+03  0.00000000000E+00 0. -1.
          4    1    6    6  502    0  0.58675975100E+00 -0.31135284137E+02  0.19218402547E+02  0.36593677073E+02  0.00000000000E+00 0. -1.
          1    1    5    5  503    0 -0.33577092244E+03 -0.12275617475E+03 -0.80748828705E+02  0.36651270664E+03  0.00000000000E+00 0. -1.
         -2    1    5    5    0  503 -0.76786079669E+03 -0.20431700939E+03 -0.89133678447E+02  0.79956266549E+03  0.00000000000E+00 0.  1.
         -3    1    6    6    0  502  0.10359205790E+03 -0.27297806746E+03 -0.55940039328E+02  0.29728374959E+03  0.00000000000E+00 0.  1.
<mgrwt>
<rscale>  0 0.26755147E+04</rscale>
<asrwt>0</asrwt>
<pdfrwt beam="1">  1        2 0.24874279E+00 0.26755147E+04</pdfrwt>
<pdfrwt beam="2">  1       -2 0.17028543E+00 0.26755147E+04</pdfrwt>
<totfact> 0.20353636E+00</totfact>
</mgrwt>
</event>
<event>
12    1  0.2404959E-007  0.2336876E+04  0.7818608E-02  0.8463522E-01
         -2   -1    0    0    0  501 -0.00000000000E+00  0.00000000000E+00  0.54370723517E+03  0.54370723517E+03  0.00000000000E+00 0. -1.
          2   -1    0    0  501    0  0.00000000000E+00 -0.00000000000E+00 -0.25109976047E+04  0.25109976047E+04  0.00000000000E+00 0.  1.
         23    2    1    2    0    0  0.28065947709E+02 -0.95158403272E+03 -0.47277936521E+03  0.10668773243E+04  0.91689848082E+02 0.  0.
        254    2    1    2    0    0 -0.28065947709E+02  0.95158403272E+03 -0.14945110043E+04  0.19878275155E+04  0.90088579783E+03 0.  0.
        -24    2    4    4    0    0  0.14776902246E+03  0.13881294252E+03  0.57196762269E+02  0.22547603049E+03  0.80394363608E+02 0.  0.
         24    2    4    4    0    0 -0.17583497017E+03  0.81277109020E+03 -0.15517077666E+04  0.17623514851E+04  0.81061594796E+02 0.  0.
         13    1    3    3    0    0  0.33891390096E+02 -0.35956055252E+03 -0.13722172316E+03  0.38634468879E+03  0.00000000000E+00 0. -1.
        -13    1    3    3    0    0 -0.58254423864E+01 -0.59202348020E+03 -0.33555764205E+03  0.68053263553E+03  0.00000000000E+00 0.  1.
          2    1    6    6  502    0 -0.46033600590E+02  0.93298243240E+02 -0.17604730653E+03  0.20449036337E+03  0.00000000000E+00 0. -1.
          1    1    5    5  503    0  0.47407369162E+02  0.44487273265E+02  0.58913155676E+02  0.87734463269E+02  0.00000000000E+00 0. -1.
         -2    1    5    5    0  503  0.10036165330E+03  0.94325669255E+02 -0.17163934066E+01  0.13774156722E+03  0.00000000000E+00 0.  1.
         -1    1    6    6    0  502 -0.12980136958E+03  0.71947284696E+03 -0.13756604601E+04  0.15578611217E+04  0.00000000000E+00 0.  1.
<mgrwt>
<rscale>  0 0.23368762E+04</rscale>
<asrwt>0</asrwt>
<pdfrwt beam="1">  1        2 0.38630732E+00 0.23368762E+04</pdfrwt>
<pdfrwt beam="2">  1       -2 0.83647268E-01 0.23368762E+04</pdfrwt>
<totfact> 0.38746639E+00</totfact>
</mgrwt>
</event>
<event>
12    1  0.2404959E-007  0.2185959E+04  0.7818608E-02  0.8524295E-01
         -2   -1    0    0    0  501 -0.00000000000E+00  0.00000000000E+00  0.45551916938E+03  0.45551916938E+03  0.00000000000E+00 0.  1.
          2   -1    0    0  501    0  0.00000000000E+00 -0.00000000000E+00 -0.26225123120E+04  0.26225123120E+04  0.00000000000E+00 0. -1.
         23    2    1    2    0    0  0.51322986776E+03  0.16723220304E+03  0.11842325693E+03  0.56001263054E+03  0.90656338362E+02 0.  0.
        254    2    1    2    0    0 -0.51322986776E+03 -0.16723220304E+03 -0.22854163996E+04  0.25180188509E+04  0.90880102720E+03 0.  0.
        -24    2    4    4    0    0 -0.59946200615E+03  0.15674686282E+02 -0.73589383483E+03  0.95343980144E+03  0.88923147895E+02 0.  0.
         24    2    4    4    0    0  0.86232138387E+02 -0.18290688932E+03 -0.15495225648E+04  0.15645790495E+04  0.77437144940E+02 0.  0.
         11    1    3    3    0    0  0.17826914495E+03  0.62835003655E+02 -0.21176997267E+01  0.18903071279E+03  0.00000000000E+00 0. -1.
        -11    1    3    3    0    0  0.33496072281E+03  0.10439719939E+03  0.12054095665E+03  0.37098191775E+03  0.00000000000E+00 0.  1.
          2    1    6    6  502    0  0.50578690507E+02 -0.11777774695E+03 -0.12241399926E+04  0.12308324512E+04  0.00000000000E+00 0. -1.
          3    1    5    5  503    0 -0.78646937212E+01 -0.13123385593E+01  0.12869982911E+01  0.80766332357E+01  0.00000000000E+00 0. -1.
         -4    1    5    5    0  503 -0.59159731243E+03  0.16987024842E+02 -0.73718083312E+03  0.94536316821E+03  0.00000000000E+00 0.  1.
         -1    1    6    6    0  502  0.35653447880E+02 -0.65129142370E+02 -0.32538257220E+03  0.33374659822E+03  0.00000000000E+00 0.  1.
<mgrwt>
<rscale>  0 0.21859594E+04</rscale>
<asrwt>0</asrwt>
<pdfrwt beam="1">  1        2 0.40346343E+00 0.21859594E+04</pdfrwt>
<pdfrwt beam="2">  1       -2 0.70079872E-01 0.21859594E+04</pdfrwt>
<totfact> 0.50103364E+00</totfact>
</mgrwt>
</event>
<event>
12    1  0.2404959E-007  0.1458140E+04  0.7818608E-02  0.8912777E-01
          1   -1    0    0  501    0  0.00000000000E+00  0.00000000000E+00  0.88599324315E+03  0.88599324315E+03  0.00000000000E+00 0. -1.
         -1   -1    0    0    0  501 -0.00000000000E+00 -0.00000000000E+00 -0.59994015686E+03  0.59994015686E+03  0.00000000000E+00 0.  1.
         23    2    1    2    0    0  0.35656378591E+03  0.17629215676E+03 -0.11926296335E+03  0.42464240064E+03  0.88774185648E+02 0.  0.
        254    2    1    2    0    0 -0.35656378591E+03 -0.17629215676E+03  0.40531604963E+03  0.10612909994E+04  0.89657170784E+03 0.  0.
        -24    2    4    4    0    0 -0.24147618526E+03 -0.50007723171E+03  0.54168033794E+02  0.56385435351E+03  0.81299264201E+02 0.  0.
         24    2    4    4    0    0 -0.11508760065E+03  0.32378507495E+03  0.35114801584E+03  0.49743664587E+03  0.77822599787E+02 0.  0.
         11    1    3    3    0    0  0.89834000710E+02  0.28768081139E+02  0.72839207880E+01  0.94608697687E+02  0.00000000000E+00 0. -1.
        -11    1    3    3    0    0  0.26672978520E+03  0.14752407562E+03 -0.12654688413E+03  0.33003370296E+03  0.00000000000E+00 0.  1.
          2    1    6    6  502    0 -0.42926382435E+02  0.17617833723E+03  0.23211164862E+03  0.29454591874E+03  0.00000000000E+00 0. -1.
          1    1    5    5  503    0 -0.15992320949E+03 -0.34073429711E+03 -0.14898513024E+01  0.37640073568E+03  0.00000000000E+00 0. -1.
         -2    1    5    5    0  503 -0.81552975767E+02 -0.15934293460E+03  0.55657885096E+02  0.18745361782E+03  0.00000000000E+00 0.  1.
         -1    1    6    6    0  502 -0.72161218219E+02  0.14760673771E+03  0.11903636722E+03  0.20289072713E+03  0.00000000000E+00 0.  1.
<mgrwt>
<rscale>  0 0.14581398E+04</rscale>
<asrwt>0</asrwt>
<pdfrwt beam="1">  1        1 0.13630665E+00 0.14581398E+04</pdfrwt>
<pdfrwt beam="2">  1       -1 0.92298485E-01 0.14581398E+04</pdfrwt>
<totfact> 0.20723838E+01</totfact>
</mgrwt>
</event>
<event>
12    1  0.2404959E-007  0.1222687E+04  0.7818608E-02  0.9093227E-01
          1   -1    0    0  501    0  0.00000000000E+00  0.00000000000E+00  0.68838539102E+03  0.68838539102E+03  0.00000000000E+00 0. -1.
         -1   -1    0    0    0  501 -0.00000000000E+00 -0.00000000000E+00 -0.54292424951E+03  0.54292424951E+03  0.00000000000E+00 0.  1.
         23    2    1    2    0    0  0.25660937395E+03 -0.79130609046E+02  0.34049713305E+02  0.28605743525E+03  0.92517291350E+02 0.  0.
        254    2    1    2    0    0 -0.25660937395E+03  0.79130609046E+02  0.11141142821E+03  0.94525220529E+03  0.89943271076E+03 0.  0.
        -24    2    4    4    0    0 -0.11045475637E+03 -0.94937768992E+02 -0.36968025290E+03  0.40572357318E+03  0.82065189134E+02 0.  0.
         24    2    4    4    0    0 -0.14615461758E+03  0.17406837804E+03  0.48109168110E+03  0.53952863211E+03  0.89336256720E+02 0.  0.
         13    1    3    3    0    0  0.15104769421E+03 -0.32499241754E+02  0.63359312696E+02  0.16699104511E+03  0.00000000000E+00 0. -1.
        -13    1    3    3    0    0  0.10556167973E+03 -0.46631367292E+02 -0.29309599391E+02  0.11906639013E+03  0.00000000000E+00 0.  1.
          4    1    6    6  502    0 -0.71769310122E+02  0.14205518222E+03  0.36277787069E+03  0.39615437916E+03  0.00000000000E+00 0. -1.
          1    1    5    5  503    0 -0.66495051068E+02 -0.21623264406E+02 -0.94397683945E+02  0.11747374223E+03  0.00000000000E+00 0. -1.
         -2    1    5    5    0  503 -0.43959705299E+02 -0.73314504586E+02 -0.27528256895E+03  0.28824983095E+03  0.00000000000E+00 0.  1.
         -3    1    6    6    0  502 -0.74385307456E+02  0.32013195820E+02  0.11831381042E+03  0.14337425294E+03  0.00000000000E+00 0.  1.
<mgrwt>
<rscale>  0 0.12226874E+04</rscale>
<asrwt>0</asrwt>
<pdfrwt beam="1">  1        1 0.10590544E+00 0.12226874E+04</pdfrwt>
<pdfrwt beam="2">  1       -1 0.83526808E-01 0.12226874E+04</pdfrwt>
<totfact> 0.39284392E+01</totfact>
</mgrwt>
</event>
<event>
12    1  0.2404959E-007  0.1332860E+04  0.7818608E-02  0.9003905E-01
          2   -1    0    0  501    0  0.00000000000E+00  0.00000000000E+00  0.33456807546E+04  0.33456807546E+04  0.00000000000E+00 0. -1.
         -2   -1    0    0    0  501 -0.00000000000E+00 -0.00000000000E+00 -0.13274691542E+03  0.13274691542E+03  0.00000000000E+00 0.  1.
         23    2    1    2    0    0 -0.13527622523E+03 -0.13734838977E+03  0.10996830167E+03  0.24162535369E+03  0.95527728376E+02 0.  0.
        254    2    1    2    0    0  0.13527622523E+03  0.13734838977E+03  0.31029655375E+04  0.32368023164E+04  0.90073851407E+03 0.  0.
        -24    2    4    4    0    0  0.16426522872E+03 -0.35277223427E+03  0.17714004974E+04  0.18152814668E+04  0.77173615122E+02 0.  0.
         24    2    4    4    0    0 -0.28989003496E+02  0.49012062404E+03  0.13315650401E+04  0.14215208495E+04  0.81224880247E+02 0.  0.
         13    1    3    3    0    0 -0.14039958537E+03 -0.10845866912E+03  0.11559698989E+03  0.21174983011E+03  0.00000000000E+00 0. -1.
        -13    1    3    3    0    0  0.51233601413E+01 -0.28889720651E+02 -0.56286882145E+01  0.29875523584E+02  0.00000000000E+00 0.  1.
          4    1    6    6  502    0 -0.41935350186E+02  0.12380102175E+03  0.32568980801E+03  0.35094033342E+03  0.00000000000E+00 0. -1.
          1    1    5    5  503    0  0.32445143373E+02 -0.41443881903E+02  0.14883111172E+03  0.15786380995E+03  0.00000000000E+00 0. -1.
         -2    1    5    5    0  503  0.13182008535E+03 -0.31132835236E+03  0.16225693857E+04  0.16574176569E+04  0.00000000000E+00 0.  1.
         -3    1    6    6    0  502  0.12946346689E+02  0.36631960229E+03  0.10058752321E+04  0.10705805161E+04  0.00000000000E+00 0.  1.
<mgrwt>
<rscale>  0 0.13328598E+04</rscale>
<asrwt>0</asrwt>
<pdfrwt beam="1">  1        2 0.51472005E+00 0.13328598E+04</pdfrwt>
<pdfrwt beam="2">  1       -2 0.20422605E-01 0.13328598E+04</pdfrwt>
<totfact> 0.21260290E+01</totfact>
</mgrwt>
</event>
<event>
12    1  0.2404959E-007  0.1184454E+04  0.7818608E-02  0.9126574E-01
          2   -1    0    0  501    0  0.00000000000E+00  0.00000000000E+00  0.10491248893E+04  0.10491248893E+04  0.00000000000E+00 0. -1.
         -2   -1    0    0    0  501 -0.00000000000E+00 -0.00000000000E+00 -0.33430971411E+03  0.33430971411E+03  0.00000000000E+00 0.  1.
         23    2    1    2    0    0 -0.22024599270E+03  0.29570498870E+02  0.54866483081E+02  0.24511187128E+03  0.87674322184E+02 0.  0.
        254    2    1    2    0    0  0.22024599270E+03 -0.29570498870E+02  0.65994869210E+03  0.11383227321E+04  0.90047968026E+03 0.  0.
        -24    2    4    4    0    0  0.49426058308E+03 -0.19586279300E+03  0.20369676263E+03  0.57497226050E+03  0.80280580270E+02 0.  0.
         24    2    4    4    0    0 -0.27401459038E+03  0.16629229413E+03  0.45625192947E+03  0.56335047162E+03  0.80379150936E+02 0.  0.
         13    1    3    3    0    0 -0.15884237681E+03 -0.18578031469E+02  0.26613373979E+02  0.16212438311E+03  0.00000000000E+00 0.  1.
        -13    1    3    3    0    0 -0.61403615892E+02  0.48148530339E+02  0.28253109102E+02  0.82987488167E+02  0.00000000000E+00 0. -1.
          2    1    6    6  502    0 -0.57206196561E+02  0.62257990785E+02  0.77433725732E+02  0.11464985051E+03  0.00000000000E+00 0. -1.
          3    1    5    5  503    0  0.82169260056E+01  0.71415116184E+01  0.53557136861E+01  0.12132713228E+02  0.00000000000E+00 0. -1.
         -4    1    5    5    0  503  0.48604365708E+03 -0.20300430462E+03  0.19834104894E+03  0.56283954727E+03  0.00000000000E+00 0.  1.
         -1    1    6    6    0  502 -0.21680839382E+03  0.10403430334E+03  0.37881820374E+03  0.44870062111E+03  0.00000000000E+00 0.  1.
<mgrwt>
<rscale>  0 0.11844537E+04</rscale>
<asrwt>0</asrwt>
<pdfrwt beam="1">  1        2 0.16140383E+00 0.11844537E+04</pdfrwt>
<pdfrwt beam="2">  1       -2 0.51432264E-01 0.11844537E+04</pdfrwt>
<totfact> 0.82668691E+01</totfact>
</mgrwt>
</event>
<event>
12    1  0.2404959E-007  0.2795914E+04  0.7818608E-02  0.8304538E-01
         -2   -1    0    0    0  501 -0.00000000000E+00  0.00000000000E+00  0.10077215332E+04  0.10077215332E+04  0.00000000000E+00 0.  1.
          2   -1    0    0  501    0  0.00000000000E+00 -0.00000000000E+00 -0.19393095141E+04  0.19393095141E+04  0.00000000000E+00 0. -1.
         23    2    1    2    0    0  0.55477985435E+03 -0.84660369616E+03 -0.11943438654E+04  0.15682056292E+04  0.91066577669E+02 0.  0.
        254    2    1    2    0    0 -0.55477985435E+03  0.84660369616E+03  0.26275588453E+03  0.13788254181E+04  0.89866588542E+03 0.  0.
        -24    2    4    4    0    0 -0.65273833439E+03  0.64551172988E+03  0.49573440142E+03  0.10462228879E+04  0.77955165395E+02 0.  0.
         24    2    4    4    0    0  0.97958480041E+02  0.20109196628E+03 -0.23297851688E+03  0.33260253022E+03  0.79445648468E+02 0.  0.
         11    1    3    3    0    0  0.19652826586E+02 -0.36155267045E+02 -0.24978977140E+02  0.48139237913E+02  0.00000000000E+00 0.  1.
        -11    1    3    3    0    0  0.53512702776E+03 -0.81044842911E+03 -0.11693648883E+04  0.15200663913E+04  0.00000000000E+00 0. -1.
          4    1    6    6  502    0  0.66671572487E+01  0.62768132398E+02 -0.28129386964E+02  0.69105367675E+02  0.00000000000E+00 0. -1.
          1    1    5    5  503    0 -0.45343124989E+02  0.50120706318E+02  0.15026004559E+02  0.69237742587E+02  0.00000000000E+00 0. -1.
         -2    1    5    5    0  503 -0.60739520940E+03  0.59539102356E+03  0.48070839686E+03  0.97698514531E+03  0.00000000000E+00 0.  1.
         -3    1    6    6    0  502  0.91291322792E+02  0.13832383388E+03 -0.20484912992E+03  0.26349716254E+03  0.00000000000E+00 0.  1.
<mgrwt>
<rscale>  0 0.27959141E+04</rscale>
<asrwt>0</asrwt>
<pdfrwt beam="1">  1        2 0.29835531E+00 0.27959141E+04</pdfrwt>
<pdfrwt beam="2">  1       -2 0.15503408E+00 0.27959141E+04</pdfrwt>
<totfact> 0.17247111E+00</totfact>
</mgrwt>
</event>
<event>
12    1  0.2404959E-007  0.1826045E+04  0.7818608E-02  0.8692571E-01
          1   -1    0    0  501    0  0.00000000000E+00  0.00000000000E+00  0.14764051035E+04  0.14764051035E+04  0.00000000000E+00 0. -1.
         -1   -1    0    0    0  501 -0.00000000000E+00 -0.00000000000E+00 -0.56462121076E+03  0.56462121076E+03  0.00000000000E+00 0.  1.
         23    2    1    2    0    0 -0.16276866899E+03  0.21236735836E+03 -0.36095494815E+03  0.45891729575E+03  0.93397404934E+02 0.  0.
        254    2    1    2    0    0  0.16276866899E+03 -0.21236735836E+03  0.12727388409E+04  0.15821090185E+04  0.90089469687E+03 0.  0.
        -24    2    4    4    0    0  0.27277868347E+03  0.29774955476E+03  0.53605353761E+03  0.67580958474E+03  0.79386347286E+02 0.  0.
         24    2    4    4    0    0 -0.11001001448E+03 -0.51011691312E+03  0.73668530329E+03  0.90629943377E+03  0.79699179723E+02 0.  0.
         13    1    3    3    0    0 -0.46711429543E+01  0.70673868398E+02 -0.81754858404E+02  0.10816872063E+03  0.00000000000E+00 0. -1.
        -13    1    3    3    0    0 -0.15809752603E+03  0.14169348996E+03 -0.27920008974E+03  0.35074857512E+03  0.00000000000E+00 0.  1.
          2    1    6    6  502    0  0.57417362873E+01 -0.12467591278E+03  0.15587100942E+03  0.19968180273E+03  0.00000000000E+00 0. -1.
          1    1    5    5  503    0  0.17214935342E+02 -0.21878721737E+01  0.19266544262E+02  0.25929529716E+02  0.00000000000E+00 0. -1.
         -2    1    5    5    0  503  0.25556374813E+03  0.29993742693E+03  0.51678699334E+03  0.64988005503E+03  0.00000000000E+00 0.  1.
         -1    1    6    6    0  502 -0.11575175077E+03 -0.38544100033E+03  0.58081429386E+03  0.70661763104E+03  0.00000000000E+00 0.  1.
<mgrwt>
<rscale>  0 0.18260445E+04</rscale>
<asrwt>0</asrwt>
<pdfrwt beam="1">  1        1 0.22713925E+00 0.18260445E+04</pdfrwt>
<pdfrwt beam="2">  1       -1 0.86864802E-01 0.18260445E+04</pdfrwt>
<totfact> 0.83520162E+00</totfact>
</mgrwt>
</event>
<event>
12    1  0.2404959E-007  0.1891326E+04  0.7818608E-02  0.8659186E-01
          1   -1    0    0  501    0  0.00000000000E+00  0.00000000000E+00  0.21009635325E+04  0.21009635325E+04  0.00000000000E+00 0. -1.
         -1   -1    0    0    0  501 -0.00000000000E+00 -0.00000000000E+00 -0.42565173472E+03  0.42565173472E+03  0.00000000000E+00 0.  1.
         23    2    1    2    0    0 -0.52607164314E+03  0.49476079245E+03  0.77186768563E+03  0.10609584587E+04  0.91178459532E+02 0.  0.
        254    2    1    2    0    0  0.52607164314E+03 -0.49476079245E+03  0.90344411216E+03  0.14656568085E+04  0.90022164001E+03 0.  0.
        -24    2    4    4    0    0 -0.10198696287E+03 -0.35881838856E+03  0.35387890196E+02  0.38287306427E+03  0.78660689101E+02 0.  0.
         24    2    4    4    0    0  0.62805860601E+03 -0.13594240390E+03  0.86805622196E+03  0.10827837443E+04  0.77208047495E+02 0.  0.
         11    1    3    3    0    0 -0.51373918105E+03  0.45775139758E+03  0.71834424114E+03  0.99472746866E+03  0.00000000000E+00 0.  1.
        -11    1    3    3    0    0 -0.12332462090E+02  0.37009394872E+02  0.53523444489E+02  0.66230990027E+02  0.00000000000E+00 0. -1.
          2    1    6    6  502    0  0.58302985561E+03 -0.11786665126E+03  0.82991652715E+03  0.10210669920E+04  0.00000000000E+00 0. -1.
          3    1    5    5  503    0 -0.66891899222E+02 -0.20325090004E+03 -0.17914987767E+02  0.21472401202E+03  0.00000000000E+00 0. -1.
         -4    1    5    5    0  503 -0.35095063644E+02 -0.15556748851E+03  0.53302877963E+02  0.16814905225E+03  0.00000000000E+00 0.  1.
         -1    1    6    6    0  502  0.45028750398E+02 -0.18075752640E+02  0.38139694809E+02  0.61716752313E+02  0.00000000000E+00 0.  1.
<mgrwt>
<rscale>  0 0.18913263E+04</rscale>
<asrwt>0</asrwt>
<pdfrwt beam="1">  1        1 0.32322515E+00 0.18913263E+04</pdfrwt>
<pdfrwt beam="2">  1       -1 0.65484883E-01 0.18913263E+04</pdfrwt>
<totfact> 0.56326514E+00</totfact>
</mgrwt>
</event>
<event>
12    1  0.2404959E-007  0.1229373E+04  0.7818608E-02  0.9087528E-01
         -2   -1    0    0    0  501 -0.00000000000E+00  0.00000000000E+00  0.13512958999E+03  0.13512958999E+03  0.00000000000E+00 0.  1.
          2   -1    0    0  501    0  0.00000000000E+00 -0.00000000000E+00 -0.27961249979E+04  0.27961249979E+04  0.00000000000E+00 0. -1.
         23    2    1    2    0    0 -0.16530812800E+03  0.25408127946E+02 -0.11349453130E+04  0.11508556554E+04  0.91627102338E+02 0.  0.
        254    2    1    2    0    0  0.16530812800E+03 -0.25408127946E+02 -0.15260500949E+04  0.17803989325E+04  0.90167572693E+03 0.  0.
        -24    2    4    4    0    0  0.23183203068E+02 -0.10356815657E+03 -0.15850526876E+04  0.15905425445E+04  0.78547688302E+02 0.  0.
         24    2    4    4    0    0  0.14212492493E+03  0.78160028626E+02  0.59002592688E+02  0.18985638804E+03  0.79092716305E+02 0.  0.
         11    1    3    3    0    0 -0.35110314260E+02  0.42316926773E+02 -0.23272070866E+03  0.23912838538E+03  0.00000000000E+00 0.  1.
        -11    1    3    3    0    0 -0.13019781374E+03 -0.16908798826E+02 -0.90222460435E+03  0.91172727001E+03  0.00000000000E+00 0. -1.
          4    1    6    6  502    0  0.26914982800E+02  0.12224473635E+02 -0.19710971494E+02  0.35529937405E+02  0.00000000000E+00 0. -1.
          3    1    5    5  503    0  0.16459635704E+02 -0.10048127863E+03 -0.94896781854E+03  0.95441465181E+03  0.00000000000E+00 0. -1.
         -4    1    5    5    0  503  0.67235673645E+01 -0.30868779448E+01 -0.63608486907E+03  0.63612789267E+03  0.00000000000E+00 0.  1.
         -3    1    6    6    0  502  0.11520994213E+03  0.65935554992E+02  0.78713564182E+02  0.15432645063E+03  0.00000000000E+00 0.  1.
<mgrwt>
<rscale>  0 0.12293726E+04</rscale>
<asrwt>0</asrwt>
<pdfrwt beam="1">  1        2 0.43017302E+00 0.12293726E+04</pdfrwt>
<pdfrwt beam="2">  1       -2 0.20789170E-01 0.12293726E+04</pdfrwt>
<totfact> 0.46174425E+01</totfact>
</mgrwt>
</event>
<event>
12    1  0.2404959E-007  0.1713308E+04  0.7818608E-02  0.8753810E-01
         -2   -1    0    0    0  501 -0.00000000000E+00  0.00000000000E+00  0.42105432009E+03  0.42105432009E+03  0.00000000000E+00 0.  1.
          2   -1    0    0  501    0  0.00000000000E+00 -0.00000000000E+00 -0.17429020501E+04  0.17429020501E+04  0.00000000000E+00 0. -1.
         23    2    1    2    0    0  0.41681369776E+03 -0.22073484669E+03  0.18715024204E+02  0.48088279725E+03  0.91872092445E+02 0.  0.
        254    2    1    2    0    0 -0.41681369776E+03  0.22073484669E+03 -0.13405627542E+04  0.16830735730E+04  0.90175973672E+03 0.  0.
        -24    2    4    4    0    0 -0.18834525712E+03 -0.29566944520E+03 -0.87715481341E+03  0.94804282902E+03  0.80562288101E+02 0.  0.
         24    2    4    4    0    0 -0.22846844064E+03  0.51640429190E+03 -0.46340794084E+03  0.73503074395E+03  0.81560124193E+02 0.  0.
         11    1    3    3    0    0  0.11279686257E+03 -0.75087726484E+02  0.44935509255E+02  0.14276028463E+03  0.00000000000E+00 0.  1.
        -11    1    3    3    0    0  0.30401683519E+03 -0.14564712021E+03 -0.26220485051E+02  0.33812251262E+03  0.00000000000E+00 0. -1.
          4    1    6    6  502    0 -0.74530090324E+02  0.25819720674E+03 -0.19504879308E+03  0.33206108416E+03  0.00000000000E+00 0. -1.
          1    1    5    5  503    0 -0.11801923724E+03 -0.11225851874E+03 -0.37581684749E+03  0.40959592069E+03  0.00000000000E+00 0. -1.
         -2    1    5    5    0  503 -0.70326019880E+02 -0.18341092647E+03 -0.50133796592E+03  0.53844690833E+03  0.00000000000E+00 0.  1.
         -3    1    6    6    0  502 -0.15393835031E+03  0.25820708515E+03 -0.26835914775E+03  0.40296965978E+03  0.00000000000E+00 0.  1.
<mgrwt>
<rscale>  0 0.17133084E+04</rscale>
<asrwt>0</asrwt>
<pdfrwt beam="1">  1        2 0.26813878E+00 0.17133084E+04</pdfrwt>
<pdfrwt beam="2">  1       -2 0.64777587E-01 0.17133084E+04</pdfrwt>
<totfact> 0.19403815E+01</totfact>
</mgrwt>
</event>
<event>
12    1  0.2404959E-007  0.1014334E+04  0.7818608E-02  0.9292962E-01
          1   -1    0    0  501    0  0.00000000000E+00  0.00000000000E+00  0.22329208173E+03  0.22329208173E+03  0.00000000000E+00 0. -1.
         -1   -1    0    0    0  501 -0.00000000000E+00 -0.00000000000E+00 -0.11519366610E+04  0.11519366610E+04  0.00000000000E+00 0.  1.
         23    2    1    2    0    0 -0.20343881101E+02  0.46934822352E+02 -0.46358412483E+02  0.11361608205E+03  0.90237246444E+02 0.  0.
        254    2    1    2    0    0  0.20343881101E+02 -0.46934822352E+02 -0.88228616678E+03  0.12616126607E+04  0.90034486417E+03 0.  0.
        -24    2    4    4    0    0  0.35861350162E+03  0.24029982842E+03 -0.33198457966E+03  0.55023279866E+03  0.78706546772E+02 0.  0.
         24    2    4    4    0    0 -0.33826962051E+03 -0.28723465077E+03 -0.55030158712E+03  0.71137986202E+03  0.79368699946E+02 0.  0.
         13    1    3    3    0    0 -0.56242133836E+01 -0.26247797452E+02 -0.23150559792E+01  0.26943239068E+02  0.00000000000E+00 0. -1.
        -13    1    3    3    0    0 -0.14719667717E+02  0.73182619805E+02 -0.44043356504E+02  0.86672842986E+02  0.00000000000E+00 0.  1.
          4    1    6    6  502    0 -0.33530870199E+03 -0.26365582054E+03 -0.52819917930E+03  0.67892613026E+03  0.00000000000E+00 0. -1.
          1    1    5    5  503    0  0.28766843999E+03  0.15609779905E+03 -0.22881021739E+03  0.39934167052E+03  0.00000000000E+00 0. -1.
         -2    1    5    5    0  503  0.70945061627E+02  0.84202029371E+02 -0.10317436228E+03  0.15089112814E+03  0.00000000000E+00 0.  1.
         -3    1    6    6    0  502 -0.29609185216E+01 -0.23578830230E+02 -0.22102407815E+02  0.32453731753E+02  0.00000000000E+00 0.  1.
<mgrwt>
<rscale>  0 0.10143339E+04</rscale>
<asrwt>0</asrwt>
<pdfrwt beam="1">  1        1 0.34352628E-01 0.10143339E+04</pdfrwt>
<pdfrwt beam="2">  1       -1 0.17722103E+00 0.10143339E+04</pdfrwt>
<totfact> 0.28154559E+01</totfact>
</mgrwt>
</event>
<event>
12    1  0.2404959E-007  0.3911141E+04  0.7818608E-02  0.8022716E-01
          1   -1    0    0  501    0  0.00000000000E+00  0.00000000000E+00  0.15781048591E+04  0.15781048591E+04  0.00000000000E+00 0. -1.
         -1   -1    0    0    0  501 -0.00000000000E+00 -0.00000000000E+00 -0.24233214530E+04  0.24233214530E+04  0.00000000000E+00 0.  1.
         23    2    1    2    0    0  0.61269294699E+03  0.17332959042E+04 -0.62161918871E+03  0.19428482591E+04  0.92420795649E+02 0.  0.
        254    2    1    2    0    0 -0.61269294699E+03 -0.17332959042E+04 -0.22359740524E+03  0.20585780530E+04  0.89891070845E+03 0.  0.
        -24    2    4    4    0    0 -0.52537263980E+02 -0.13690189749E+04 -0.12203725109E+03  0.13779271713E+04  0.82565617068E+02 0.  0.
         24    2    4    4    0    0 -0.56015568301E+03 -0.36427692928E+03 -0.10156015414E+03  0.68065088162E+03  0.80616917113E+02 0.  0.
         13    1    3    3    0    0  0.11563368952E+03  0.37011189327E+03 -0.16830353399E+03  0.42270562244E+03  0.00000000000E+00 0.  1.
        -13    1    3    3    0    0  0.49705925747E+03  0.13631840109E+04 -0.45331565472E+03  0.15201426367E+04  0.00000000000E+00 0. -1.
          2    1    6    6  502    0 -0.90738678723E+02 -0.82718747894E+02 -0.43219286779E+02  0.13016837488E+03  0.00000000000E+00 0. -1.
          3    1    5    5  503    0  0.52121893513E+01 -0.68654238230E+03 -0.87838433741E+02  0.69215836342E+03  0.00000000000E+00 0. -1.
         -4    1    5    5    0  503 -0.57749453331E+02 -0.68247659260E+03 -0.34198817353E+02  0.68576880792E+03  0.00000000000E+00 0.  1.
         -1    1    6    6    0  502 -0.46941700429E+03 -0.28155818138E+03 -0.58340867366E+02  0.55048250674E+03  0.00000000000E+00 0.  1.
<mgrwt>
<rscale>  0 0.39111407E+04</rscale>
<asrwt>0</asrwt>
<pdfrwt beam="1">  1        1 0.24278536E+00 0.39111407E+04</pdfrwt>
<pdfrwt beam="2">  1       -1 0.37281869E+00 0.39111407E+04</pdfrwt>
<totfact> 0.49787872E-02</totfact>
</mgrwt>
</event>
<event>
12    1  0.2404959E-007  0.1779844E+04  0.7818608E-02  0.8717092E-01
          2   -1    0    0  501    0  0.00000000000E+00  0.00000000000E+00  0.11290958630E+04  0.11290958630E+04  0.00000000000E+00 0. -1.
         -2   -1    0    0    0  501 -0.00000000000E+00 -0.00000000000E+00 -0.70141203472E+03  0.70141203472E+03  0.00000000000E+00 0.  1.
         23    2    1    2    0    0  0.22183779706E+03  0.59167129050E+03 -0.28649321523E+02  0.63915141417E+03  0.91688725619E+02 0.  0.
        254    2    1    2    0    0 -0.22183779706E+03 -0.59167129050E+03  0.45633314982E+03  0.11913564836E+04  0.90100133359E+03 0.  0.
        -24    2    4    4    0    0 -0.13094296847E+03 -0.87802150679E+02 -0.25559653708E+03  0.31064443866E+03  0.79467596202E+02 0.  0.
         24    2    4    4    0    0 -0.90894828581E+02 -0.50386913982E+03  0.71192968690E+03  0.88071204491E+03  0.81632389691E+02 0.  0.
         13    1    3    3    0    0  0.15772039764E+03  0.48151368008E+03 -0.52781826638E+02  0.50942817861E+03  0.00000000000E+00 0.  1.
        -13    1    3    3    0    0  0.64117399419E+02  0.11015761042E+03  0.24132505114E+02  0.12972323556E+03  0.00000000000E+00 0. -1.
          4    1    6    6  502    0 -0.26489428330E+02 -0.20234357002E+03  0.21940275105E+03  0.29963674226E+03  0.00000000000E+00 0. -1.
          3    1    5    5  503    0 -0.68385200392E+02 -0.17175574053E+02 -0.56606124716E+02  0.90420071511E+02  0.00000000000E+00 0. -1.
         -4    1    5    5    0  503 -0.62557768083E+02 -0.70626576626E+02 -0.19899041236E+03  0.22022436715E+03  0.00000000000E+00 0.  1.
         -3    1    6    6    0  502 -0.64405400251E+02 -0.30152556980E+03  0.49252693585E+03  0.58107530266E+03  0.00000000000E+00 0.  1.
<mgrwt>
<rscale>  0 0.17798443E+04</rscale>
<asrwt>0</asrwt>
<pdfrwt beam="1">  1        2 0.17370706E+00 0.17798443E+04</pdfrwt>
<pdfrwt beam="2">  1       -2 0.10790954E+00 0.17798443E+04</pdfrwt>
<totfact> 0.13608323E+01</totfact>
</mgrwt>
</event>
<event>
12    1  0.2404959E-007  0.1634490E+04  0.7818608E-02  0.8799635E-01
          2   -1    0    0  501    0  0.00000000000E+00  0.00000000000E+00  0.27961611621E+04  0.27961611621E+04  0.00000000000E+00 0.  1.
         -2   -1    0    0    0  501 -0.00000000000E+00 -0.00000000000E+00 -0.23885951977E+03  0.23885951977E+03  0.00000000000E+00 0. -1.
         23    2    1    2    0    0  0.44777525062E+03  0.34054101982E+03  0.77527348430E+03  0.96118044813E+03  0.79674444774E+02 0.  0.
        254    2    1    2    0    0 -0.44777525062E+03 -0.34054101982E+03  0.17820281580E+04  0.20738402338E+04  0.89928755013E+03 0.  0.
        -24    2    4    4    0    0  0.92212056307E+02 -0.47885714813E+03  0.90161882216E+03  0.10286043393E+04  0.85458497462E+02 0.  0.
         24    2    4    4    0    0 -0.53998730693E+03  0.13831612831E+03  0.88040933589E+03  0.10452358944E+04  0.81730246927E+02 0.  0.
         13    1    3    3    0    0  0.33738838010E+03  0.27669411603E+03  0.54711996970E+03  0.69980769795E+03  0.00000000000E+00 0. -1.
        -13    1    3    3    0    0  0.11038687052E+03  0.63846903795E+02  0.22815351461E+03  0.26137275018E+03  0.00000000000E+00 0.  1.
          2    1    6    6  502    0 -0.34835209068E+02 -0.43867081625E+01  0.31648123915E+02  0.47268792524E+02  0.00000000000E+00 0. -1.
          3    1    5    5  503    0  0.49677935052E+02 -0.90862300465E+02  0.16102655472E+03  0.19145079316E+03  0.00000000000E+00 0. -1.
         -2    1    5    5    0  503  0.42534121255E+02 -0.38799484767E+03  0.74059226744E+03  0.83715354618E+03  0.00000000000E+00 0.  1.
         -1    1    6    6    0  502 -0.50515209786E+03  0.14270283647E+03  0.84876121197E+03  0.99796710189E+03  0.00000000000E+00 0.  1.
<mgrwt>
<rscale>  0 0.16344904E+04</rscale>
<asrwt>0</asrwt>
<pdfrwt beam="1">  1        2 0.43017862E+00 0.16344904E+04</pdfrwt>
<pdfrwt beam="2">  1       -2 0.36747620E-01 0.16344904E+04</pdfrwt>
<totfact> 0.15569633E+01</totfact>
</mgrwt>
</event>
<event>
12    1  0.2404959E-007  0.2269424E+04  0.7818608E-02  0.8490075E-01
          2   -1    0    0  501    0  0.00000000000E+00  0.00000000000E+00  0.26924042964E+04  0.26924042964E+04  0.00000000000E+00 0. -1.
         -2   -1    0    0    0  501 -0.00000000000E+00 -0.00000000000E+00 -0.47822367796E+03  0.47822367796E+03  0.00000000000E+00 0.  1.
         23    2    1    2    0    0  0.57423492258E+03  0.75851163454E+03  0.10274039144E+04  0.14031712429E+04  0.90802465306E+02 0.  0.
        254    2    1    2    0    0 -0.57423492258E+03 -0.75851163454E+03  0.11867767041E+04  0.17674567314E+04  0.90021036769E+03 0.  0.
        -24    2    4    4    0    0 -0.21895937834E+03 -0.77951105966E+03  0.41359140417E+03  0.91272619211E+03  0.80190714326E+02 0.  0.
         24    2    4    4    0    0 -0.35527554424E+03  0.20999425120E+02  0.77318529992E+03  0.85473053933E+03  0.78019860659E+02 0.  0.
         11    1    3    3    0    0  0.34738869358E+03  0.49359025417E+03  0.59379748246E+03  0.84670283667E+03  0.00000000000E+00 0. -1.
        -11    1    3    3    0    0  0.22684622900E+03  0.26492138037E+03  0.43360643192E+03  0.55646840628E+03  0.00000000000E+00 0.  1.
          2    1    6    6  502    0 -0.34231656167E+03  0.19086235296E+02  0.68960394896E+03  0.77012889778E+03  0.00000000000E+00 0. -1.
          3    1    5    5  503    0 -0.18570396206E+03 -0.69075924066E+03  0.33616258041E+03  0.79034142657E+03  0.00000000000E+00 0. -1.
         -4    1    5    5    0  503 -0.33255416283E+02 -0.88751818998E+02  0.77428823757E+02  0.12238476554E+03  0.00000000000E+00 0.  1.
         -1    1    6    6    0  502 -0.12958982569E+02  0.19131898246E+01  0.83581350965E+02  0.84601641554E+02  0.00000000000E+00 0.  1.
<mgrwt>
<rscale>  0 0.22694241E+04</rscale>
<asrwt>0</asrwt>
<pdfrwt beam="1">  1        2 0.41421604E+00 0.22694241E+04</pdfrwt>
<pdfrwt beam="2">  1       -2 0.73572875E-01 0.22694241E+04</pdfrwt>
<totfact> 0.40646089E+00</totfact>
</mgrwt>
</event>
<event>
12    1  0.2404959E-007  0.2147333E+04  0.7818608E-02  0.8540675E-01
         -2   -1    0    0    0  501 -0.00000000000E+00  0.00000000000E+00  0.89854614271E+03  0.89854614271E+03  0.00000000000E+00 0.  1.
          2   -1    0    0  501    0  0.00000000000E+00 -0.00000000000E+00 -0.12829161190E+04  0.12829161190E+04  0.00000000000E+00 0. -1.
         23    2    1    2    0    0 -0.52193928645E+03 -0.70709712787E+03 -0.85426160635E+02  0.88798512299E+03  0.93877487928E+02 0.  0.
        254    2    1    2    0    0  0.52193928645E+03  0.70709712787E+03 -0.29894381561E+03  0.12934771387E+04  0.90072678234E+03 0.  0.
        -24    2    4    4    0    0  0.20759240374E+03  0.64289158837E+03  0.18723033905E+03  0.70546238156E+03  0.78852846813E+02 0.  0.
         24    2    4    4    0    0  0.31434688272E+03  0.64205539502E+02 -0.48617415466E+03  0.58801475713E+03  0.80372457753E+02 0.  0.
         11    1    3    3    0    0 -0.16269149455E+03 -0.15223354045E+03 -0.25612359954E+02  0.22427564785E+03  0.00000000000E+00 0.  1.
        -11    1    3    3    0    0 -0.35924779191E+03 -0.55486358742E+03 -0.59813800680E+02  0.66370947514E+03  0.00000000000E+00 0. -1.
          4    1    6    6  502    0  0.12544482041E+03  0.47594777095E+02 -0.14407899865E+03  0.19687667111E+03  0.00000000000E+00 0. -1.
          1    1    5    5  503    0  0.76670368869E+02  0.20866619127E+03  0.99338185269E+02  0.24349127272E+03  0.00000000000E+00 0. -1.
         -2    1    5    5    0  503  0.13092203487E+03  0.43422539710E+03  0.87892153779E+02  0.46197110883E+03  0.00000000000E+00 0.  1.
         -3    1    6    6    0  502  0.18890206231E+03  0.16610762407E+02 -0.34209515600E+03  0.39113808602E+03  0.00000000000E+00 0.  1.
<mgrwt>
<rscale>  0 0.21473326E+04</rscale>
<asrwt>0</asrwt>
<pdfrwt beam="1">  1        2 0.19737171E+00 0.21473326E+04</pdfrwt>
<pdfrwt beam="2">  1       -2 0.13823787E+00 0.21473326E+04</pdfrwt>
<totfact> 0.57647630E+00</totfact>
</mgrwt>
</event>
<event>
12    1  0.2404959E-007  0.1583308E+04  0.7818608E-02  0.8830869E-01
         -1   -1    0    0    0  501 -0.00000000000E+00  0.00000000000E+00  0.38771360061E+03  0.38771360061E+03  0.00000000000E+00 0.  1.
          1   -1    0    0  501    0  0.00000000000E+00 -0.00000000000E+00 -0.16164411520E+04  0.16164411520E+04  0.00000000000E+00 0. -1.
         23    2    1    2    0    0  0.50083366458E+03  0.12629895910E+03 -0.58205931794E+03  0.78351835454E+03  0.91225959296E+02 0.  0.
        254    2    1    2    0    0 -0.50083366458E+03 -0.12629895910E+03 -0.64666823344E+03  0.12206363981E+04  0.89721102618E+03 0.  0.
        -24    2    4    4    0    0 -0.33360992989E+03 -0.13892788818E+03 -0.86158992700E+03  0.93780522913E+03  0.80900568832E+02 0.  0.
         24    2    4    4    0    0 -0.16722373469E+03  0.12628929080E+02  0.21492169356E+03  0.28283116894E+03  0.75358267427E+02 0.  0.
         11    1    3    3    0    0  0.19697435081E+03  0.92813949869E+01 -0.25057849437E+03  0.31886458099E+03  0.00000000000E+00 0. -1.
        -11    1    3    3    0    0  0.30385931377E+03  0.11701756412E+03 -0.33148082357E+03  0.46465377355E+03  0.00000000000E+00 0.  1.
          4    1    6    6  502    0 -0.35199411848E+02 -0.28451838673E+02  0.60446021543E+02  0.75513093161E+02  0.00000000000E+00 0. -1.
          1    1    5    5  503    0 -0.11107667211E+03 -0.81215939817E+01 -0.23177691305E+03  0.25714689343E+03  0.00000000000E+00 0. -1.
         -2    1    5    5    0  503 -0.22253325778E+03 -0.13080629420E+03 -0.62981301395E+03  0.68065833570E+03  0.00000000000E+00 0.  1.
         -3    1    6    6    0  502 -0.13202432284E+03  0.41080767753E+02  0.15447567201E+03  0.20731807578E+03  0.00000000000E+00 0.  1.
<mgrwt>
<rscale>  0 0.15833082E+04</rscale>
<asrwt>0</asrwt>
<pdfrwt beam="1">  1        1 0.24868326E+00 0.15833082E+04</pdfrwt>
<pdfrwt beam="2">  1       -1 0.59648246E-01 0.15833082E+04</pdfrwt>
<totfact> 0.14885557E+01</totfact>
</mgrwt>
</event>
<event>
12    1  0.2404959E-007  0.1436839E+04  0.7818608E-02  0.8927576E-01
          2   -1    0    0  501    0  0.00000000000E+00  0.00000000000E+00  0.16861060641E+04  0.16861060641E+04  0.00000000000E+00 0.  1.
         -2   -1    0    0    0  501 -0.00000000000E+00 -0.00000000000E+00 -0.30610569856E+03  0.30610569856E+03  0.00000000000E+00 0. -1.
         23    2    1    2    0    0 -0.41201398817E+03 -0.89969773763E+02  0.53933780701E+03  0.69077377809E+03  0.91831670935E+02 0.  0.
        254    2    1    2    0    0  0.41201398817E+03  0.89969773763E+02  0.84066255851E+03  0.13014379845E+04  0.89954277479E+03 0.  0.
        -24    2    4    4    0    0 -0.99311598164E+02  0.49220430680E+01  0.76033961721E+03  0.77098154129E+03  0.80057376166E+02 0.  0.
         24    2    4    4    0    0  0.51132558634E+03  0.85047730694E+02  0.80322941301E+02  0.53045644325E+03  0.79027157004E+02 0.  0.
         13    1    3    3    0    0 -0.24775807532E+03 -0.97207379966E+02  0.30973673433E+03  0.40837505213E+03  0.00000000000E+00 0. -1.
        -13    1    3    3    0    0 -0.16425591285E+03  0.72376062030E+01  0.22960107267E+03  0.28239872596E+03  0.00000000000E+00 0.  1.
          4    1    6    6  502    0  0.46762810988E+03  0.57414715733E+02  0.84221267533E+02  0.47860810757E+03  0.00000000000E+00 0. -1.
          3    1    5    5  503    0 -0.10884617539E+03  0.18404517319E+02  0.62978136899E+03  0.63938313152E+03  0.00000000000E+00 0. -1.
         -4    1    5    5    0  503  0.95345772251E+01 -0.13482474250E+02  0.13055824822E+03  0.13159840977E+03  0.00000000000E+00 0.  1.
         -3    1    6    6    0  502  0.43697476463E+02  0.27633014961E+02 -0.38983262317E+01  0.51848335677E+02  0.00000000000E+00 0.  1.
<mgrwt>
<rscale>  0 0.14368391E+04</rscale>
<asrwt>0</asrwt>
<pdfrwt beam="1">  1        2 0.25940093E+00 0.14368391E+04</pdfrwt>
<pdfrwt beam="2">  1       -2 0.47093185E-01 0.14368391E+04</pdfrwt>
<totfact> 0.41411907E+01</totfact>
</mgrwt>
</event>
<event>
12    1  0.2404959E-007  0.3249569E+04  0.7818608E-02  0.8175847E-01
         -3   -1    0    0    0  501 -0.00000000000E+00  0.00000000000E+00  0.15464874073E+04  0.15464874073E+04  0.00000000000E+00 0.  1.
          3   -1    0    0  501    0  0.00000000000E+00 -0.00000000000E+00 -0.17070459059E+04  0.17070459059E+04  0.00000000000E+00 0. -1.
         23    2    1    2    0    0  0.13718264371E+04 -0.60322136881E+03 -0.26007822614E+02  0.15016235108E+04  0.91722232399E+02 0.  0.
        254    2    1    2    0    0 -0.13718264371E+04  0.60322136881E+03 -0.13455067600E+03  0.17519098024E+04  0.89738524498E+03 0.  0.
        -24    2    4    4    0    0 -0.12165695392E+04  0.17071714911E+03 -0.28164640714E+03  0.12628677117E+04  0.79525906670E+02 0.  0.
         24    2    4    4    0    0 -0.15525689790E+03  0.43250421971E+03  0.14709573114E+03  0.48904209069E+03  0.79752165712E+02 0.  0.
         13    1    3    3    0    0  0.12401613236E+04 -0.55346823956E+03  0.22559803189E+01  0.13580619611E+04  0.00000000000E+00 0.  1.
        -13    1    3    3    0    0  0.13166511354E+03 -0.49753129255E+02 -0.28263802933E+02  0.14356154970E+03  0.00000000000E+00 0. -1.
          4    1    6    6  502    0 -0.67116792830E+02  0.29388477053E+03  0.82568954654E+02  0.31255488238E+03  0.00000000000E+00 0. -1.
          3    1    5    5  503    0 -0.96550565882E+03  0.16711139247E+03 -0.21738117357E+03  0.10036841980E+04  0.00000000000E+00 0. -1.
         -4    1    5    5    0  503 -0.25106388038E+03  0.36057566406E+01 -0.64265233575E+02  0.25918351367E+03  0.00000000000E+00 0.  1.
         -3    1    6    6    0  502 -0.88140105065E+02  0.13861944918E+03  0.64526776489E+02  0.17648720831E+03  0.00000000000E+00 0.  1.
<mgrwt>
<rscale>  0 0.32495692E+04</rscale>
<asrwt>0</asrwt>
<pdfrwt beam="1">  1        3 0.26262245E+00 0.32495692E+04</pdfrwt>
<pdfrwt beam="2">  1       -3 0.23792114E+00 0.32495692E+04</pdfrwt>
<totfact> 0.11684740E-02</totfact>
</mgrwt>
</event>
<event>
12    1  0.2404959E-007  0.1674214E+04  0.7818608E-02  0.8776209E-01
          2   -1    0    0  501    0  0.00000000000E+00  0.00000000000E+00  0.14290371652E+04  0.14290371652E+04  0.00000000000E+00 0. -1.
         -2   -1    0    0    0  501 -0.00000000000E+00 -0.00000000000E+00 -0.49036379284E+03  0.49036379284E+03  0.00000000000E+00 0.  1.
         23    2    1    2    0    0 -0.15152669645E+02 -0.58032941674E+03  0.20480659329E+03  0.62157416902E+03  0.86005067360E+02 0.  0.
        254    2    1    2    0    0  0.15152669645E+02  0.58032941674E+03  0.73386677902E+03  0.12978267890E+04  0.89932312853E+03 0.  0.
        -24    2    4    4    0    0  0.91566463576E+02 -0.10597186869E+03 -0.11605591935E+03  0.19984743537E+03  0.82798350260E+02 0.  0.
         24    2    4    4    0    0 -0.76413793932E+02  0.68630128542E+03  0.84992269837E+03  0.10979793536E+04  0.79633821068E+02 0.  0.
         11    1    3    3    0    0 -0.36843327128E+01 -0.47956514627E+03  0.20125833498E+03  0.52009731899E+03  0.00000000000E+00 0. -1.
        -11    1    3    3    0    0 -0.11468336932E+02 -0.10076427047E+03  0.35482583122E+01  0.10147685003E+03  0.00000000000E+00 0.  1.
          2    1    6    6  502    0 -0.41696355903E+02  0.51078596172E+03  0.57805039391E+03  0.77251740607E+03  0.00000000000E+00 0. -1.
          3    1    5    5  503    0  0.52879537767E+02 -0.23167663575E+02 -0.86107091416E+02  0.10366975134E+03  0.00000000000E+00 0. -1.
         -4    1    5    5    0  503  0.38686925809E+02 -0.82804205111E+02 -0.29948827930E+02  0.96177684038E+02  0.00000000000E+00 0.  1.
         -1    1    6    6    0  502 -0.34717438029E+02  0.17551532370E+03  0.27187230446E+03  0.32546194753E+03  0.00000000000E+00 0.  1.
<mgrwt>
<rscale>  0 0.16742139E+04</rscale>
<asrwt>0</asrwt>
<pdfrwt beam="1">  1        2 0.21985187E+00 0.16742139E+04</pdfrwt>
<pdfrwt beam="2">  1       -2 0.75440584E-01 0.16742139E+04</pdfrwt>
<totfact> 0.20930957E+01</totfact>
</mgrwt>
</event>
<event>
12    1  0.2404959E-007  0.3797128E+04  0.7818608E-02  0.8046772E-01
         -2   -1    0    0    0  501 -0.00000000000E+00  0.00000000000E+00  0.11584081700E+04  0.11584081700E+04  0.00000000000E+00 0.  1.
          2   -1    0    0  501    0  0.00000000000E+00 -0.00000000000E+00 -0.31116361188E+04  0.31116361188E+04  0.00000000000E+00 0. -1.
         23    2    1    2    0    0  0.26962241052E+03 -0.16722643388E+04 -0.15831127852E+04  0.23202328331E+04  0.89833434209E+02 0.  0.
        254    2    1    2    0    0 -0.26962241052E+03  0.16722643388E+04 -0.37011516355E+03  0.19498114558E+04  0.89197265410E+03 0.  0.
        -24    2    4    4    0    0 -0.26161864022E+03  0.55396537397E+03 -0.53423504708E+03  0.81674791557E+03  0.79675112789E+02 0.  0.
         24    2    4    4    0    0 -0.80037703040E+01  0.11182989648E+04  0.16411988353E+03  0.11330635402E+04  0.79000094074E+02 0.  0.
         11    1    3    3    0    0  0.20038604116E+03 -0.10106318880E+04 -0.99414566891E+03  0.14317321641E+04  0.00000000000E+00 0. -1.
        -11    1    3    3    0    0  0.69236369363E+02 -0.66163245075E+03 -0.58896711630E+03  0.88850066900E+03  0.00000000000E+00 0.  1.
          4    1    6    6  502    0  0.24451163894E+02  0.76667452841E+03  0.13378667525E+03  0.77864405630E+03  0.00000000000E+00 0. -1.
          3    1    5    5  503    0 -0.18501160237E+03  0.32421105206E+03 -0.28903728287E+03  0.47210660891E+03  0.00000000000E+00 0. -1.
         -4    1    5    5    0  503 -0.76607037853E+02  0.22975432191E+03 -0.24519776421E+03  0.34464130667E+03  0.00000000000E+00 0.  1.
         -3    1    6    6    0  502 -0.32454934198E+02  0.35162443640E+03  0.30333208277E+02  0.35441948388E+03  0.00000000000E+00 0.  1.
<mgrwt>
<rscale>  0 0.37971277E+04</rscale>
<asrwt>0</asrwt>
<pdfrwt beam="1">  1        2 0.47871324E+00 0.37971277E+04</pdfrwt>
<pdfrwt beam="2">  1       -2 0.17821664E+00 0.37971277E+04</pdfrwt>
<totfact> 0.22114454E-01</totfact>
</mgrwt>
</event>
<event>
12    1  0.2404959E-007  0.1773427E+04  0.7818608E-02  0.8720560E-01
         -1   -1    0    0    0  501 -0.00000000000E+00  0.00000000000E+00  0.53951467496E+03  0.53951467496E+03  0.00000000000E+00 0.  1.
          1   -1    0    0  501    0  0.00000000000E+00 -0.00000000000E+00 -0.14573483592E+04  0.14573483592E+04  0.00000000000E+00 0. -1.
         23    2    1    2    0    0  0.54641647018E+03  0.27594610942E+03 -0.59864948717E+03  0.86111723033E+03  0.91784866386E+02 0.  0.
        254    2    1    2    0    0 -0.54641647018E+03 -0.27594610942E+03 -0.31918419706E+03  0.11357458038E+04  0.90184409132E+03 0.  0.
        -24    2    4    4    0    0 -0.60374590754E+03  0.91425362403E+02 -0.41602109122E+03  0.74313013001E+03  0.79379619732E+02 0.  0.
         24    2    4    4    0    0  0.57329437360E+02 -0.36737147182E+03  0.96836894154E+02  0.39261567380E+03  0.80754074523E+02 0.  0.
         11    1    3    3    0    0  0.28027915824E+03  0.14651773919E+03 -0.37255620963E+03  0.48869416180E+03  0.00000000000E+00 0. -1.
        -11    1    3    3    0    0  0.26613731194E+03  0.12942837023E+03 -0.22609327754E+03  0.37242306853E+03  0.00000000000E+00 0.  1.
          4    1    6    6  502    0  0.18805101861E+00 -0.13114174882E+03  0.40768963987E+00  0.13114251735E+03  0.00000000000E+00 0. -1.
          3    1    5    5  503    0 -0.28021748406E+03  0.73215574189E+02 -0.16579795792E+03  0.33372342070E+03  0.00000000000E+00 0. -1.
         -4    1    5    5    0  503 -0.32352842348E+03  0.18209788215E+02 -0.25022313330E+03  0.40940670931E+03  0.00000000000E+00 0.  1.
         -3    1    6    6    0  502  0.57141386341E+02 -0.23622972300E+03  0.96429204514E+02  0.26147315646E+03  0.00000000000E+00 0.  1.
<mgrwt>
<rscale>  0 0.17734270E+04</rscale>
<asrwt>0</asrwt>
<pdfrwt beam="1">  1        1 0.22420744E+00 0.17734270E+04</pdfrwt>
<pdfrwt beam="2">  1       -1 0.83002258E-01 0.17734270E+04</pdfrwt>
<totfact> 0.95478942E+00</totfact>
</mgrwt>
</event>
<event>
12    1  0.2404959E-007  0.1712795E+04  0.7818608E-02  0.8754100E-01
         -1   -1    0    0    0  501 -0.00000000000E+00  0.00000000000E+00  0.72878580116E+03  0.72878580116E+03  0.00000000000E+00 0.  1.
          1   -1    0    0  501    0  0.00000000000E+00 -0.00000000000E+00 -0.10063543089E+04  0.10063543089E+04  0.00000000000E+00 0. -1.
         23    2    1    2    0    0  0.36920109398E+03  0.42845819146E+03 -0.34876545089E+03  0.67063103205E+03  0.90679500338E+02 0.  0.
        254    2    1    2    0    0 -0.36920109398E+03 -0.42845819146E+03  0.71196943169E+02  0.10645090780E+04  0.89901318276E+03 0.  0.
        -24    2    4    4    0    0  0.27658987936E+03 -0.26374721337E+02  0.79336399150E+02  0.29974341189E+03  0.79713621488E+02 0.  0.
         24    2    4    4    0    0 -0.64579097335E+03 -0.40208347012E+03 -0.81394559812E+01  0.76476566610E+03  0.77994711962E+02 0.  0.
         13    1    3    3    0    0  0.16656054234E+03  0.21224114526E+03 -0.21740775489E+03  0.34648932147E+03  0.00000000000E+00 0. -1.
        -13    1    3    3    0    0  0.20264055164E+03  0.21621704620E+03 -0.13135769600E+03  0.32414171058E+03  0.00000000000E+00 0.  1.
          4    1    6    6  502    0 -0.40013110603E+01  0.36395238991E+01  0.54798295123E+00  0.54366266865E+01  0.00000000000E+00 0. -1.
          1    1    5    5  503    0  0.14678507710E+03  0.10914871403E+02  0.89866023072E+01  0.14746441028E+03  0.00000000000E+00 0. -1.
         -2    1    5    5    0  503  0.12980480226E+03 -0.37289592740E+02  0.70349796843E+02  0.15227900161E+03  0.00000000000E+00 0.  1.
         -3    1    6    6    0  502 -0.64178966228E+03 -0.40572299402E+03 -0.86874389324E+01  0.75932903941E+03  0.00000000000E+00 0.  1.
<mgrwt>
<rscale>  0 0.17127951E+04</rscale>
<asrwt>0</asrwt>
<pdfrwt beam="1">  1        1 0.15482374E+00 0.17127951E+04</pdfrwt>
<pdfrwt beam="2">  1       -1 0.11212089E+00 0.17127951E+04</pdfrwt>
<totfact> 0.10373078E+01</totfact>
</mgrwt>
</event>
<event>
12    1  0.2404959E-007  0.2547018E+04  0.7818608E-02  0.8386424E-01
          1   -1    0    0  501    0  0.00000000000E+00  0.00000000000E+00  0.18966680907E+04  0.18966680907E+04  0.00000000000E+00 0. -1.
         -1   -1    0    0    0  501 -0.00000000000E+00 -0.00000000000E+00 -0.85509141356E+03  0.85509141356E+03  0.00000000000E+00 0.  1.
         23    2    1    2    0    0  0.98096413284E+03 -0.20190343502E+03  0.97828780623E+03  0.14032871586E+04  0.95457795763E+02 0.  0.
        254    2    1    2    0    0 -0.98096413284E+03  0.20190343502E+03  0.63288870922E+02  0.13484723457E+04  0.90073112460E+03 0.  0.
        -24    2    4    4    0    0 -0.18865341950E+03 -0.30896418056E+03  0.14613885522E+03  0.39865651449E+03  0.80755643650E+02 0.  0.
         24    2    4    4    0    0 -0.79231071334E+03  0.51086761558E+03 -0.82849984294E+02  0.94981583116E+03  0.80895031440E+02 0.  0.
         13    1    3    3    0    0  0.55575369147E+03 -0.65969295069E+02  0.54435819494E+03  0.78073040025E+03  0.00000000000E+00 0.  1.
        -13    1    3    3    0    0  0.42521044136E+03 -0.13593413995E+03  0.43392961129E+03  0.62255675838E+03  0.00000000000E+00 0. -1.
          2    1    6    6  502    0 -0.17153712562E+03  0.14918332230E+03 -0.80091015857E+01  0.22747482240E+03  0.00000000000E+00 0. -1.
          3    1    5    5  503    0 -0.54120497527E+02 -0.33640124632E+02  0.15793719591E+02  0.65651563701E+02  0.00000000000E+00 0. -1.
         -4    1    5    5    0  503 -0.13453292197E+03 -0.27532405593E+03  0.13034513562E+03  0.33300495079E+03  0.00000000000E+00 0.  1.
         -1    1    6    6    0  502 -0.62077358772E+03  0.36168429328E+03 -0.74840882708E+02  0.72234100876E+03  0.00000000000E+00 0.  1.
<mgrwt>
<rscale>  0 0.25470175E+04</rscale>
<asrwt>0</asrwt>
<pdfrwt beam="1">  1        1 0.29179509E+00 0.25470175E+04</pdfrwt>
<pdfrwt beam="2">  1       -1 0.13155253E+00 0.25470175E+04</pdfrwt>
<totfact> 0.15247737E+00</totfact>
</mgrwt>
</event>
<event>
12    1  0.2404959E-007  0.1706405E+04  0.7818608E-02  0.8757720E-01
          2   -1    0    0  501    0  0.00000000000E+00  0.00000000000E+00  0.29729033180E+04  0.29729033180E+04  0.00000000000E+00 0. -1.
         -2   -1    0    0    0  501 -0.00000000000E+00 -0.00000000000E+00 -0.24486306137E+03  0.24486306137E+03  0.00000000000E+00 0.  1.
         23    2    1    2    0    0  0.29718671925E+03  0.51983933872E+03  0.75600961413E+03  0.96866683665E+03  0.90620194188E+02 0.  0.
        254    2    1    2    0    0 -0.29718671925E+03 -0.51983933872E+03  0.19720306425E+04  0.22490995427E+04  0.90055039499E+03 0.  0.
        -24    2    4    4    0    0 -0.61355221900E+03 -0.32311121120E+03  0.13561774780E+04  0.15249417390E+04  0.73367400701E+02 0.  0.
         24    2    4    4    0    0  0.31636549975E+03 -0.19672812752E+03  0.61585316457E+03  0.72415780371E+03  0.79626118644E+02 0.  0.
         11    1    3    3    0    0  0.25404008820E+03  0.39343229296E+03  0.63034082410E+03  0.78527376760E+03  0.00000000000E+00 0. -1.
        -11    1    3    3    0    0  0.43146631054E+02  0.12640704576E+03  0.12566879003E+03  0.18339306905E+03  0.00000000000E+00 0.  1.
          4    1    6    6  502    0  0.13940851896E+02  0.18716527378E+00  0.58741731517E+02  0.60373615131E+02  0.00000000000E+00 0. -1.
          3    1    5    5  503    0 -0.33778292676E+03 -0.15534709059E+03  0.65845700655E+03  0.75617170910E+03  0.00000000000E+00 0. -1.
         -4    1    5    5    0  503 -0.27576929224E+03 -0.16776412061E+03  0.69772047141E+03  0.76877002994E+03  0.00000000000E+00 0.  1.
         -3    1    6    6    0  502  0.30242464786E+03 -0.19691529279E+03  0.55711143306E+03  0.66378418858E+03  0.00000000000E+00 0.  1.
<mgrwt>
<rscale>  0 0.17064047E+04</rscale>
<asrwt>0</asrwt>
<pdfrwt beam="1">  1        2 0.45736972E+00 0.17064047E+04</pdfrwt>
<pdfrwt beam="2">  1       -2 0.37671242E-01 0.17064047E+04</pdfrwt>
<totfact> 0.11499758E+01</totfact>
</mgrwt>
</event>
<event>
12    1  0.2404959E-007  0.1970310E+04  0.7818608E-02  0.8620629E-01
         -2   -1    0    0    0  501 -0.00000000000E+00  0.00000000000E+00  0.85435030300E+03  0.85435030300E+03  0.00000000000E+00 0.  1.
          2   -1    0    0  501    0  0.00000000000E+00 -0.00000000000E+00 -0.11359863258E+04  0.11359863258E+04  0.00000000000E+00 0. -1.
         23    2    1    2    0    0  0.65994853583E+03 -0.27760728893E+03  0.19193824139E+03  0.74673949857E+03  0.90452824145E+02 0.  0.
        254    2    1    2    0    0 -0.65994853583E+03  0.27760728893E+03 -0.47357426419E+03  0.12435971302E+04  0.89981295935E+03 0.  0.
        -24    2    4    4    0    0 -0.10013375876E+03 -0.25160193006E+03 -0.36742071419E+03  0.46185675681E+03  0.70593071513E+02 0.  0.
         24    2    4    4    0    0 -0.55981477707E+03  0.52920921899E+03 -0.10615355000E+03  0.78174037343E+03  0.79965324833E+02 0.  0.
         11    1    3    3    0    0  0.53598915469E+03 -0.19510395277E+03  0.12739523344E+03  0.58444800610E+03  0.00000000000E+00 0.  1.
        -11    1    3    3    0    0  0.12395938114E+03 -0.82503336163E+02  0.64543007955E+02  0.16229149246E+03  0.00000000000E+00 0. -1.
          4    1    6    6  502    0 -0.18032846388E+03  0.12112497725E+03 -0.30939751905E+02  0.21942398056E+03  0.00000000000E+00 0. -1.
          3    1    5    5  503    0  0.34142189872E+01 -0.54897515240E+02 -0.99812344772E+02  0.11396446042E+03  0.00000000000E+00 0. -1.
         -4    1    5    5    0  503 -0.10354797775E+03 -0.19670441481E+03 -0.26760836942E+03  0.34789229639E+03  0.00000000000E+00 0.  1.
         -3    1    6    6    0  502 -0.37948631319E+03  0.40808424174E+03 -0.75213798095E+02  0.56231639286E+03  0.00000000000E+00 0.  1.
<mgrwt>
<rscale>  0 0.19703099E+04</rscale>
<asrwt>0</asrwt>
<pdfrwt beam="1">  1        2 0.17476713E+00 0.19703099E+04</pdfrwt>
<pdfrwt beam="2">  1       -2 0.13143851E+00 0.19703099E+04</pdfrwt>
<totfact> 0.81446411E+00</totfact>
</mgrwt>
</event>
<event>
12    1  0.2404959E-007  0.4201855E+04  0.7818608E-02  0.7965020E-01
          2   -1    0    0  501    0  0.00000000000E+00  0.00000000000E+00  0.14349675700E+04  0.14349675700E+04  0.00000000000E+00 0. -1.
         -2   -1    0    0    0  501 -0.00000000000E+00 -0.00000000000E+00 -0.30759551860E+04  0.30759551860E+04  0.00000000000E+00 0.  1.
         23    2    1    2    0    0 -0.19730459489E+04 -0.27405717061E+03 -0.10121258834E+04  0.22362382779E+04  0.91351972254E+02 0.  0.
        254    2    1    2    0    0  0.19730459489E+04  0.27405717061E+03 -0.62886173262E+03  0.22746844780E+04  0.90039144074E+03 0.  0.
        -24    2    4    4    0    0  0.90993446175E+03 -0.65974772674E+02 -0.70070202821E+03  0.11532827611E+04  0.82124291710E+02 0.  0.
         24    2    4    4    0    0  0.10631114871E+04  0.34003194329E+03  0.71840295595E+02  0.11214017169E+04  0.80950763975E+02 0.  0.
         11    1    3    3    0    0 -0.14621156829E+04 -0.24180846021E+03 -0.76454513007E+03  0.16675679469E+04  0.00000000000E+00 0. -1.
        -11    1    3    3    0    0 -0.51093026594E+03 -0.32248710405E+02 -0.24758075333E+03  0.56867033103E+03  0.00000000000E+00 0.  1.
          4    1    6    6  502    0  0.91639360520E+03  0.28208832886E+03  0.35289445987E+02  0.95947715446E+03  0.00000000000E+00 0. -1.
          3    1    5    5  503    0  0.56374717466E+03 -0.76984754132E+02 -0.45682710637E+03  0.72967700691E+03  0.00000000000E+00 0. -1.
         -4    1    5    5    0  503  0.34618728709E+03  0.11009981457E+02 -0.24387492185E+03  0.42360575414E+03  0.00000000000E+00 0.  1.
         -3    1    6    6    0  502  0.14671788190E+03  0.57943614433E+02  0.36550849608E+02  0.16192456246E+03  0.00000000000E+00 0.  1.
<mgrwt>
<rscale>  0 0.42018548E+04</rscale>
<asrwt>0</asrwt>
<pdfrwt beam="1">  1        2 0.22076424E+00 0.42018548E+04</pdfrwt>
<pdfrwt beam="2">  1       -2 0.47322388E+00 0.42018548E+04</pdfrwt>
<totfact> 0.26237050E-02</totfact>
</mgrwt>
</event>
<event>
12    1  0.2404959E-007  0.3513484E+04  0.7818608E-02  0.8110602E-01
         -2   -1    0    0    0  501 -0.00000000000E+00  0.00000000000E+00  0.41673314204E+04  0.41673314204E+04  0.00000000000E+00 0.  1.
          2   -1    0    0  501    0  0.00000000000E+00 -0.00000000000E+00 -0.74055594807E+03  0.74055594807E+03  0.00000000000E+00 0. -1.
         23    2    1    2    0    0 -0.13286927877E+04  0.68971850870E+03  0.25356277072E+04  0.29458645765E+04  0.87029236625E+02 0.  0.
        254    2    1    2    0    0  0.13286927877E+04 -0.68971850870E+03  0.89114776510E+03  0.19620227920E+04  0.90235965773E+03 0.  0.
        -24    2    4    4    0    0  0.13948410168E+03 -0.33131324537E+02 -0.17057716396E+03  0.23606569002E+03  0.77954742334E+02 0.  0.
         24    2    4    4    0    0  0.11892086860E+04 -0.65658718416E+03  0.10617249291E+04  0.17259571020E+04  0.79649630858E+02 0.  0.
         13    1    3    3    0    0 -0.32050681201E+03  0.20823580229E+03  0.63162661977E+03  0.73826753464E+03  0.00000000000E+00 0. -1.
        -13    1    3    3    0    0 -0.10081859756E+04  0.48148270641E+03  0.19040010875E+04  0.22075970418E+04  0.00000000000E+00 0.  1.
          4    1    6    6  502    0  0.50056702950E+01 -0.61173200254E+01  0.49743634822E+00  0.79199610047E+01  0.00000000000E+00 0. -1.
          1    1    5    5  503    0  0.52181402850E+02  0.25375626773E+02 -0.57396023401E+02  0.81615713804E+02  0.00000000000E+00 0. -1.
         -2    1    5    5    0  503  0.87302698834E+02 -0.58506951309E+02 -0.11318114056E+03  0.15444997622E+03  0.00000000000E+00 0.  1.
         -3    1    6    6    0  502  0.11842030157E+04 -0.65046986414E+03  0.10612274927E+04  0.17180371410E+04  0.00000000000E+00 0.  1.
<mgrwt>
<rscale>  0 0.35134838E+04</rscale>
<asrwt>0</asrwt>
<pdfrwt beam="1">  1        2 0.11393169E+00 0.35134838E+04</pdfrwt>
<pdfrwt beam="2">  1       -2 0.64112790E+00 0.35134838E+04</pdfrwt>
<totfact> 0.11183760E-02</totfact>
</mgrwt>
</event>
<event>
12    1  0.2404959E-007  0.1052259E+04  0.7818608E-02  0.9253015E-01
         -1   -1    0    0    0  501 -0.00000000000E+00  0.00000000000E+00  0.39688885881E+03  0.39688885881E+03  0.00000000000E+00 0.  1.
          1   -1    0    0  501    0  0.00000000000E+00 -0.00000000000E+00 -0.69745535617E+03  0.69745535617E+03  0.00000000000E+00 0. -1.
         23    2    1    2    0    0  0.43496771547E+02  0.54605051492E+02 -0.13439668398E+03  0.17561906470E+03  0.88915164284E+02 0.  0.
        254    2    1    2    0    0 -0.43496771547E+02 -0.54605051492E+02 -0.16616981339E+03  0.91872515028E+03  0.90087169680E+03 0.  0.
        -24    2    4    4    0    0  0.27746985427E+03 -0.29208053235E+03  0.11175577554E+03  0.42546958314E+03  0.78958567637E+02 0.  0.
         24    2    4    4    0    0 -0.32096662582E+03  0.23747548086E+03 -0.27792558893E+03  0.49325556714E+03  0.81512223886E+02 0.  0.
         11    1    3    3    0    0  0.14040647814E+02  0.32045085209E-01 -0.10683734355E+03  0.10775601512E+03  0.00000000000E+00 0. -1.
        -11    1    3    3    0    0  0.29456123733E+02  0.54573006407E+02 -0.27559340425E+02  0.67863049580E+02  0.00000000000E+00 0.  1.
          2    1    6    6  502    0 -0.29705162276E+03  0.24199907625E+03 -0.26230317125E+03  0.46433411800E+03  0.00000000000E+00 0. -1.
          3    1    5    5  503    0  0.18333304670E+03 -0.24255391563E+03  0.87186417836E+02  0.31629871870E+03  0.00000000000E+00 0. -1.
         -4    1    5    5    0  503  0.94136807570E+02 -0.49526616721E+02  0.24569357704E+02  0.10917086443E+03  0.00000000000E+00 0.  1.
         -1    1    6    6    0  502 -0.23915003061E+02 -0.45235953958E+01 -0.15622417680E+02  0.28921449149E+02  0.00000000000E+00 0.  1.
<mgrwt>
<rscale>  0 0.10522590E+04</rscale>
<asrwt>0</asrwt>
<pdfrwt beam="1">  1        1 0.10730082E+00 0.10522590E+04</pdfrwt>
<pdfrwt beam="2">  1       -1 0.61059824E-01 0.10522590E+04</pdfrwt>
<totfact> 0.74497135E+01</totfact>
</mgrwt>
</event>
<event>
12    1  0.2404959E-007  0.4361918E+04  0.7818608E-02  0.7935267E-01
          2   -1    0    0  501    0  0.00000000000E+00  0.00000000000E+00  0.11802776136E+04  0.11802776136E+04  0.00000000000E+00 0. -1.
         -2   -1    0    0    0  501 -0.00000000000E+00 -0.00000000000E+00 -0.40300533233E+04  0.40300533233E+04  0.00000000000E+00 0.  1.
         23    2    1    2    0    0 -0.13885383734E+04  0.15234039021E+04 -0.97914386678E+03  0.22839032630E+04  0.93237006824E+02 0.  0.
        254    2    1    2    0    0  0.13885383734E+04 -0.15234039021E+04 -0.18706318429E+04  0.29264276739E+04  0.90328133815E+03 0.  0.
        -24    2    4    4    0    0  0.98994543255E+03 -0.11400562421E+04 -0.18186093310E+04  0.23651028053E+04  0.81554803328E+02 0.  0.
         24    2    4    4    0    0  0.39859294080E+03 -0.38334766006E+03 -0.52022511817E+02  0.56132486867E+03  0.80916657844E+02 0.  0.
         11    1    3    3    0    0 -0.77967161208E+02  0.12044684133E+03 -0.65316808009E+02  0.15764709075E+03  0.00000000000E+00 0. -1.
        -11    1    3    3    0    0 -0.13105712121E+04  0.14029570608E+04 -0.91382705877E+03  0.21262561722E+04  0.00000000000E+00 0.  1.
          4    1    6    6  502    0  0.17848088811E+03 -0.21532697856E+03 -0.51666282499E+02  0.28441262254E+03  0.00000000000E+00 0. -1.
          3    1    5    5  503    0  0.16968059921E+03 -0.18272886255E+03 -0.34754945805E+03  0.42775222822E+03  0.00000000000E+00 0. -1.
         -4    1    5    5    0  503  0.82026483334E+03 -0.95732737954E+03 -0.14710598730E+04  0.19373505770E+04  0.00000000000E+00 0.  1.
         -3    1    6    6    0  502  0.22011205269E+03 -0.16802068150E+03 -0.35622931797E+00  0.27691224612E+03  0.00000000000E+00 0.  1.
<mgrwt>
<rscale>  0 0.43619178E+04</rscale>
<asrwt>0</asrwt>
<pdfrwt beam="1">  1        2 0.18158117E+00 0.43619178E+04</pdfrwt>
<pdfrwt beam="2">  1       -2 0.62000820E+00 0.43619178E+04</pdfrwt>
<totfact> 0.63820184E-03</totfact>
</mgrwt>
</event>
<event>
12    1  0.2404959E-007  0.1349051E+04  0.7818608E-02  0.8991547E-01
          1   -1    0    0  501    0  0.00000000000E+00  0.00000000000E+00  0.81497892303E+03  0.81497892303E+03  0.00000000000E+00 0. -1.
         -1   -1    0    0    0  501 -0.00000000000E+00 -0.00000000000E+00 -0.55827748735E+03  0.55827748735E+03  0.00000000000E+00 0.  1.
         23    2    1    2    0    0 -0.31067243954E+03  0.59224387075E+01 -0.12672933089E+03  0.34796183175E+03  0.92003657940E+02 0.  0.
        254    2    1    2    0    0  0.31067243954E+03 -0.59224387075E+01  0.38343076658E+03  0.10252945786E+04  0.89869760222E+03 0.  0.
        -24    2    4    4    0    0  0.22363796838E+03 -0.32320076032E+03  0.52314734838E+03  0.65910568863E+03  0.79148520443E+02 0.  0.
         24    2    4    4    0    0  0.87034471160E+02  0.31727832161E+03 -0.13971658180E+03  0.36618889000E+03  0.79580446075E+02 0.  0.
         11    1    3    3    0    0 -0.12671264255E+03 -0.21287263935E+02 -0.93857113464E+02  0.15911756388E+03  0.00000000000E+00 0.  1.
        -11    1    3    3    0    0 -0.18395979700E+03  0.27209702643E+02 -0.32872217427E+02  0.18884426787E+03  0.00000000000E+00 0. -1.
          4    1    6    6  502    0  0.59361522375E+02  0.27588085529E+03 -0.14285804687E+03  0.31629489122E+03  0.00000000000E+00 0. -1.
          3    1    5    5  503    0  0.21553489553E+03 -0.32645236428E+03  0.51746517874E+03  0.64868840636E+03  0.00000000000E+00 0. -1.
         -4    1    5    5    0  503  0.81030728482E+01  0.32516039653E+01  0.56821696375E+01  0.10417282262E+02  0.00000000000E+00 0.  1.
         -3    1    6    6    0  502  0.27672948784E+02  0.41397466314E+02  0.31414650672E+01  0.49893998781E+02  0.00000000000E+00 0.  1.
<mgrwt>
<rscale>  0 0.13490506E+04</rscale>
<asrwt>0</asrwt>
<pdfrwt beam="1">  1        1 0.12538137E+00 0.13490506E+04</pdfrwt>
<pdfrwt beam="2">  1       -1 0.85888844E-01 0.13490506E+04</pdfrwt>
<totfact> 0.28124399E+01</totfact>
</mgrwt>
</event>
<event>
12    1  0.2404959E-007  0.1738508E+04  0.7818608E-02  0.8739702E-01
          1   -1    0    0  501    0  0.00000000000E+00  0.00000000000E+00  0.11598340442E+04  0.11598340442E+04  0.00000000000E+00 0. -1.
         -1   -1    0    0    0  501 -0.00000000000E+00 -0.00000000000E+00 -0.65147431829E+03  0.65147431829E+03  0.00000000000E+00 0.  1.
         23    2    1    2    0    0 -0.29400638634E+03  0.54950423439E+03  0.80735021132E+02  0.63491806352E+03  0.90598813049E+02 0.  0.
        254    2    1    2    0    0  0.29400638634E+03 -0.54950423439E+03  0.42762470479E+03  0.11763902990E+04  0.90146358139E+03 0.  0.
        -24    2    4    4    0    0 -0.20911663049E+03 -0.30685788423E+03  0.47710778065E+03  0.60988819779E+03  0.80251188067E+02 0.  0.
         24    2    4    4    0    0  0.50312301683E+03 -0.24264635016E+03 -0.49483075865E+02  0.56650210119E+03  0.80411656752E+02 0.  0.
         13    1    3    3    0    0 -0.10547245296E+03  0.19042907567E+03  0.71923075554E+02  0.22926098663E+03  0.00000000000E+00 0. -1.
        -13    1    3    3    0    0 -0.18853393339E+03  0.35907515872E+03  0.88119455783E+01  0.40565707689E+03  0.00000000000E+00 0.  1.
          2    1    6    6  502    0  0.37723358905E+03 -0.20440839708E+03 -0.10130444224E+02  0.42917432286E+03  0.00000000000E+00 0. -1.
          1    1    5    5  503    0 -0.77637048124E+02 -0.75670956813E+02  0.18827252164E+03  0.21725594895E+03  0.00000000000E+00 0. -1.
         -2    1    5    5    0  503 -0.13147958236E+03 -0.23118692742E+03  0.28883525901E+03  0.39263224885E+03  0.00000000000E+00 0.  1.
         -1    1    6    6    0  502  0.12588942778E+03 -0.38237953083E+02 -0.39352631641E+02  0.13732777833E+03  0.00000000000E+00 0.  1.
<mgrwt>
<rscale>  0 0.17385075E+04</rscale>
<asrwt>0</asrwt>
<pdfrwt beam="1">  1        1 0.17843601E+00 0.17385075E+04</pdfrwt>
<pdfrwt beam="2">  1       -1 0.10022682E+00 0.17385075E+04</pdfrwt>
<totfact> 0.10289150E+01</totfact>
</mgrwt>
</event>
<event>
12    1  0.2404959E-007  0.1498046E+04  0.7818608E-02  0.8885754E-01
          2   -1    0    0  501    0  0.00000000000E+00  0.00000000000E+00  0.26718591092E+04  0.26718591092E+04  0.00000000000E+00 0. -1.
         -2   -1    0    0    0  501 -0.00000000000E+00 -0.00000000000E+00 -0.20997935007E+03  0.20997935007E+03  0.00000000000E+00 0.  1.
         23    2    1    2    0    0  0.26496965930E+02 -0.47039640787E+03  0.86269393222E+03  0.98734919282E+03  0.92966328014E+02 0.  0.
        254    2    1    2    0    0 -0.26496965930E+02  0.47039640787E+03  0.15991858269E+04  0.18944892664E+04  0.89984409866E+03 0.  0.
        -24    2    4    4    0    0 -0.39807897704E+03  0.46079270388E+03  0.11686384104E+04  0.13200554918E+04  0.77678693843E+02 0.  0.
         24    2    4    4    0    0  0.37158201111E+03  0.96037039887E+01  0.43054741654E+03  0.57443377457E+03  0.80235038342E+02 0.  0.
         11    1    3    3    0    0  0.30761343307E+02 -0.37637856293E+03  0.75605512903E+03  0.84511918745E+03  0.00000000000E+00 0. -1.
        -11    1    3    3    0    0 -0.42643773767E+01 -0.94017844939E+02  0.10663880319E+03  0.14223000537E+03  0.00000000000E+00 0.  1.
          4    1    6    6  502    0  0.27813106796E+03  0.41590827237E+02  0.30899620526E+03  0.41781017548E+03  0.00000000000E+00 0. -1.
          3    1    5    5  503    0 -0.40153308041E+03  0.45930571102E+03  0.11603902389E+04  0.13109904872E+04  0.00000000000E+00 0. -1.
         -4    1    5    5    0  503  0.34541033752E+01  0.14869928644E+01  0.82481714355E+01  0.90650046848E+01  0.00000000000E+00 0.  1.
         -3    1    6    6    0  502  0.93450943148E+02 -0.31987123248E+02  0.12155121128E+03  0.15662359909E+03  0.00000000000E+00 0.  1.
<mgrwt>
<rscale>  0 0.14980457E+04</rscale>
<asrwt>0</asrwt>
<pdfrwt beam="1">  1        2 0.41105522E+00 0.14980457E+04</pdfrwt>
<pdfrwt beam="2">  1       -2 0.32304517E-01 0.14980457E+04</pdfrwt>
<totfact> 0.23895846E+01</totfact>
</mgrwt>
</event>
<event>
12    1  0.2404959E-007  0.1650708E+04  0.7818608E-02  0.8789988E-01
         -1   -1    0    0    0  501 -0.00000000000E+00  0.00000000000E+00  0.43785531172E+03  0.43785531172E+03  0.00000000000E+00 0.  1.
          1   -1    0    0  501    0  0.00000000000E+00 -0.00000000000E+00 -0.15557863083E+04  0.15557863083E+04  0.00000000000E+00 0. -1.
         23    2    1    2    0    0 -0.49610704291E+03 -0.54884526305E+02 -0.47796252042E+02  0.50920912492E+03  0.88740869574E+02 0.  0.
        254    2    1    2    0    0  0.49610704291E+03  0.54884526305E+02 -0.10701347445E+04  0.14844324951E+04  0.89956486803E+03 0.  0.
        -24    2    4    4    0    0  0.48869030673E+02 -0.31587450372E+03 -0.74442870135E+03  0.81394474014E+03  0.78530658698E+02 0.  0.
         24    2    4    4    0    0  0.44723801224E+03  0.37075903002E+03 -0.32570604315E+03  0.67048775493E+03  0.77364753185E+02 0.  0.
         13    1    3    3    0    0 -0.41952427045E+03 -0.42022344382E+02 -0.74304642547E+01  0.42168910672E+03  0.00000000000E+00 0.  1.
        -13    1    3    3    0    0 -0.76582772459E+02 -0.12862181923E+02 -0.40365787787E+02  0.87520018195E+02  0.00000000000E+00 0. -1.
          2    1    6    6  502    0  0.10517321453E+03  0.12573846538E+03 -0.71044210643E+02  0.17865846355E+03  0.00000000000E+00 0. -1.
          3    1    5    5  503    0  0.66382738893E+02 -0.20888023054E+03 -0.53396935793E+03  0.57720091297E+03  0.00000000000E+00 0. -1.
         -4    1    5    5    0  503 -0.17513708221E+02 -0.10699427318E+03 -0.21045934343E+03  0.23674382717E+03  0.00000000000E+00 0.  1.
         -1    1    6    6    0  502  0.34206479771E+03  0.24502056464E+03 -0.25466183251E+03  0.49182929139E+03  0.00000000000E+00 0.  1.
<mgrwt>
<rscale>  0 0.16507081E+04</rscale>
<asrwt>0</asrwt>
<pdfrwt beam="1">  1        1 0.23935174E+00 0.16507081E+04</pdfrwt>
<pdfrwt beam="2">  1       -1 0.67362355E-01 0.16507081E+04</pdfrwt>
<totfact> 0.12764831E+01</totfact>
</mgrwt>
</event>
<event>
12    1  0.2404959E-007  0.3113759E+04  0.7818608E-02  0.8211972E-01
          2   -1    0    0  501    0  0.00000000000E+00  0.00000000000E+00  0.12782931565E+04  0.12782931565E+04  0.00000000000E+00 0. -1.
         -2   -1    0    0    0  501 -0.00000000000E+00 -0.00000000000E+00 -0.18961797354E+04  0.18961797354E+04  0.00000000000E+00 0.  1.
         23    2    1    2    0    0  0.47696149864E+03 -0.13164217934E+04 -0.55455358802E+03  0.15087942867E+04  0.92042969544E+02 0.  0.
        254    2    1    2    0    0 -0.47696149864E+03  0.13164217934E+04 -0.63332990842E+02  0.16656786052E+04  0.90000863254E+03 0.  0.
        -24    2    4    4    0    0 -0.72782835661E+03  0.11053101593E+04 -0.25473212081E+02  0.13261136085E+04  0.80521755955E+02 0.  0.
         24    2    4    4    0    0  0.25086685797E+03  0.21111163412E+03 -0.37859778760E+02  0.33956499667E+03  0.79804270764E+02 0.  0.
         11    1    3    3    0    0  0.17648227550E+03 -0.60697005161E+03 -0.22765776516E+03  0.67185317976E+03  0.00000000000E+00 0.  1.
        -11    1    3    3    0    0  0.30047922314E+03 -0.70945174183E+03 -0.32689582286E+03  0.83694110696E+03  0.00000000000E+00 0. -1.
          4    1    6    6  502    0  0.23863473319E+03  0.16715628731E+03 -0.26574829934E+02  0.29256449179E+03  0.00000000000E+00 0. -1.
          3    1    5    5  503    0 -0.11257345946E+03  0.20449588213E+03 -0.29048440142E+02  0.23523426931E+03  0.00000000000E+00 0. -1.
         -4    1    5    5    0  503 -0.61525489715E+03  0.90081427719E+03  0.35752280610E+01  0.10908793392E+04  0.00000000000E+00 0.  1.
         -3    1    6    6    0  502  0.12232124784E+02  0.43955346802E+02 -0.11284948827E+02  0.47000504883E+02  0.00000000000E+00 0.  1.
<mgrwt>
<rscale>  0 0.31137589E+04</rscale>
<asrwt>0</asrwt>
<pdfrwt beam="1">  1        2 0.19666049E+00 0.31137589E+04</pdfrwt>
<pdfrwt beam="2">  1       -2 0.29171996E+00 0.31137589E+04</pdfrwt>
<totfact> 0.51553603E-01</totfact>
</mgrwt>
</event>
<event>
12    1  0.2404959E-007  0.2030246E+04  0.7818608E-02  0.8592609E-01
         -1   -1    0    0    0  501 -0.00000000000E+00  0.00000000000E+00  0.37986185942E+03  0.37986185942E+03  0.00000000000E+00 0.  1.
          1   -1    0    0  501    0  0.00000000000E+00 -0.00000000000E+00 -0.27127614920E+04  0.27127614920E+04  0.00000000000E+00 0. -1.
         23    2    1    2    0    0  0.61984291528E+03 -0.44538393434E+03 -0.13654194786E+04  0.15669501435E+04  0.91598640886E+02 0.  0.
        254    2    1    2    0    0 -0.61984291528E+03  0.44538393434E+03 -0.96748015397E+03  0.15256732079E+04  0.89949363560E+03 0.  0.
        -24    2    4    4    0    0  0.18040356432E+03  0.19172840338E+03 -0.47534909788E+03  0.54921823726E+03  0.79866642627E+02 0.  0.
         24    2    4    4    0    0 -0.80024647960E+03  0.25365553096E+03 -0.49213105610E+03  0.97645497067E+03  0.80844151774E+02 0.  0.
         13    1    3    3    0    0  0.34077844234E+02 -0.94415511974E+01 -0.98752378480E+02  0.10489268140E+03  0.00000000000E+00 0. -1.
        -13    1    3    3    0    0  0.58576507104E+03 -0.43594238314E+03 -0.12666671001E+04  0.14620574621E+04  0.00000000000E+00 0.  1.
          2    1    6    6  502    0 -0.28547549078E+02  0.13280940435E-01 -0.41776939609E+01  0.28851618006E+02  0.00000000000E+00 0. -1.
          3    1    5    5  503    0  0.19162662287E+02  0.20664329679E+02 -0.14084666016E+02  0.31505554491E+02  0.00000000000E+00 0. -1.
         -4    1    5    5    0  503  0.16124090204E+03  0.17106407370E+03 -0.46126443186E+03  0.51771268277E+03  0.00000000000E+00 0.  1.
         -1    1    6    6    0  502 -0.77169893052E+03  0.25364225002E+03 -0.48795336213E+03  0.94760335267E+03  0.00000000000E+00 0.  1.
<mgrwt>
<rscale>  0 0.20302459E+04</rscale>
<asrwt>0</asrwt>
<pdfrwt beam="1">  1        1 0.41734790E+00 0.20302459E+04</pdfrwt>
<pdfrwt beam="2">  1       -1 0.58440289E-01 0.20302459E+04</pdfrwt>
<totfact> 0.26410140E+00</totfact>
</mgrwt>
</event>
<event>
12    1  0.2404959E-007  0.1580471E+04  0.7818608E-02  0.8832636E-01
          2   -1    0    0  501    0  0.00000000000E+00  0.00000000000E+00  0.18716067345E+04  0.18716067345E+04  0.00000000000E+00 0.  1.
         -2   -1    0    0    0  501 -0.00000000000E+00 -0.00000000000E+00 -0.33365559742E+03  0.33365559742E+03  0.00000000000E+00 0. -1.
         23    2    1    2    0    0 -0.10586843524E+03  0.38275638195E+03  0.10105486453E+04  0.10890960661E+04  0.84918215052E+02 0.  0.
        254    2    1    2    0    0  0.10586843524E+03 -0.38275638195E+03  0.52740249181E+03  0.11161662658E+04  0.89997953926E+03 0.  0.
        -24    2    4    4    0    0 -0.27076808404E+02  0.17323778781E+03 -0.13680999623E+03  0.23611607126E+03  0.79305355167E+02 0.  0.
         24    2    4    4    0    0  0.13294524364E+03 -0.55599416976E+03  0.66421248804E+03  0.88005019456E+03  0.80660777727E+02 0.  0.
         11    1    3    3    0    0 -0.25572003808E+02  0.22629254365E+03  0.62933849314E+03  0.66927511655E+03  0.00000000000E+00 0.  1.
        -11    1    3    3    0    0 -0.80296431428E+02  0.15646383830E+03  0.38121015212E+03  0.41982094955E+03  0.00000000000E+00 0. -1.
          4    1    6    6  502    0  0.24254252316E+02 -0.39415300918E+02  0.81935463367E+02  0.94102363727E+02  0.00000000000E+00 0. -1.
          1    1    5    5  503    0 -0.42990292504E+02  0.12418595385E+03 -0.62134673525E+02  0.14536517478E+03  0.00000000000E+00 0. -1.
         -2    1    5    5    0  503  0.15913484100E+02  0.49051833962E+02 -0.74675322705E+02  0.90750896483E+02  0.00000000000E+00 0.  1.
         -1    1    6    6    0  502  0.10869099132E+03 -0.51657886885E+03  0.58227702467E+03  0.78594783083E+03  0.00000000000E+00 0.  1.
<mgrwt>
<rscale>  0 0.15804709E+04</rscale>
<asrwt>0</asrwt>
<pdfrwt beam="1">  1        2 0.28793949E+00 0.15804709E+04</pdfrwt>
<pdfrwt beam="2">  1       -2 0.51331631E-01 0.15804709E+04</pdfrwt>
<totfact> 0.27117168E+01</totfact>
</mgrwt>
</event>
<event>
12    1  0.2404959E-007  0.2612849E+04  0.7818608E-02  0.8363850E-01
         -2   -1    0    0    0  501 -0.00000000000E+00  0.00000000000E+00  0.90829975919E+03  0.90829975919E+03  0.00000000000E+00 0.  1.
          2   -1    0    0  501    0  0.00000000000E+00 -0.00000000000E+00 -0.18790544408E+04  0.18790544408E+04  0.00000000000E+00 0. -1.
         23    2    1    2    0    0 -0.17701674157E+03  0.52709233298E+03 -0.15012753289E+04  0.16037725334E+04  0.95380665855E+02 0.  0.
        254    2    1    2    0    0  0.17701674157E+03 -0.52709233298E+03  0.53052064730E+03  0.11835816666E+04  0.90014007242E+03 0.  0.
        -24    2    4    4    0    0  0.50802360493E+03 -0.37281400458E+03  0.15487835424E+03  0.65380683585E+03  0.79986303977E+02 0.  0.
         24    2    4    4    0    0 -0.33100686335E+03 -0.15427832840E+03  0.37564229306E+03  0.52977483073E+03  0.78656803540E+02 0.  0.
         13    1    3    3    0    0 -0.15693283505E+03  0.35100141337E+03 -0.95613993960E+03  0.10305500915E+04  0.00000000000E+00 0.  1.
        -13    1    3    3    0    0 -0.20083906519E+02  0.17609091961E+03 -0.54513538933E+03  0.57322244196E+03  0.00000000000E+00 0. -1.
          4    1    6    6  502    0 -0.29887396143E+03 -0.11595395667E+03  0.34578526532E+03  0.47152774531E+03  0.00000000000E+00 0. -1.
          3    1    5    5  503    0  0.30085913570E+03 -0.18707970923E+03  0.56876309380E+02  0.35881743507E+03  0.00000000000E+00 0. -1.
         -4    1    5    5    0  503  0.20716446922E+03 -0.18573429535E+03  0.98002044862E+02  0.29498940078E+03  0.00000000000E+00 0.  1.
         -3    1    6    6    0  502 -0.32132901925E+02 -0.38324371733E+02  0.29857027744E+02  0.58247085425E+02  0.00000000000E+00 0.  1.
<mgrwt>
<rscale>  0 0.26128488E+04</rscale>
<asrwt>0</asrwt>
<pdfrwt beam="1">  1        2 0.28908530E+00 0.26128488E+04</pdfrwt>
<pdfrwt beam="2">  1       -2 0.13973843E+00 0.26128488E+04</pdfrwt>
<totfact> 0.24875973E+00</totfact>
</mgrwt>
</event>
<event>
12    1  0.2404959E-007  0.1576398E+04  0.7818608E-02  0.8835180E-01
         -2   -1    0    0    0  501 -0.00000000000E+00  0.00000000000E+00  0.16082962470E+03  0.16082962470E+03  0.00000000000E+00 0.  1.
          2   -1    0    0  501    0  0.00000000000E+00 -0.00000000000E+00 -0.38628313913E+04  0.38628313913E+04  0.00000000000E+00 0. -1.
         23    2    1    2    0    0 -0.45752321975E+03  0.25946576867E+03 -0.12826894340E+04  0.13893492063E+04  0.91373142996E+02 0.  0.
        254    2    1    2    0    0  0.45752321975E+03 -0.25946576867E+03 -0.24193123326E+04  0.26343118097E+04  0.89993142311E+03 0.  0.
        -24    2    4    4    0    0  0.64644355200E+02  0.14881696970E+03 -0.17285668751E+04  0.17379972255E+04  0.79784277671E+02 0.  0.
         24    2    4    4    0    0  0.39287886455E+03 -0.40828273837E+03 -0.69074545755E+03  0.89631458426E+03  0.72124546224E+02 0.  0.
         13    1    3    3    0    0 -0.27918060294E+03  0.11948931310E+03 -0.65504620142E+03  0.72201456426E+03  0.00000000000E+00 0. -1.
        -13    1    3    3    0    0 -0.17834261681E+03  0.13997645557E+03 -0.62764323254E+03  0.66733464202E+03  0.00000000000E+00 0.  1.
          4    1    6    6  502    0  0.22198876685E+02 -0.49115668453E+02 -0.49803678502E+02  0.73386275324E+02  0.00000000000E+00 0. -1.
          3    1    5    5  503    0  0.71099775183E+01  0.50854513297E+01 -0.45087663907E+03  0.45096137002E+03  0.00000000000E+00 0. -1.
         -2    1    5    5    0  503  0.57534377682E+02  0.14373151837E+03 -0.12776902360E+04  0.12870358554E+04  0.00000000000E+00 0.  1.
         -3    1    6    6    0  502  0.37067998787E+03 -0.35916706992E+03 -0.64094177905E+03  0.82292830894E+03  0.00000000000E+00 0.  1.
<mgrwt>
<rscale>  0 0.15763981E+04</rscale>
<asrwt>0</asrwt>
<pdfrwt beam="1">  1        2 0.59428170E+00 0.15763981E+04</pdfrwt>
<pdfrwt beam="2">  1       -2 0.24743021E-01 0.15763981E+04</pdfrwt>
<totfact> 0.62854608E+00</totfact>
</mgrwt>
</event>
<event>
12    1  0.2404959E-007  0.1901095E+04  0.7818608E-02  0.8654312E-01
          1   -1    0    0  501    0  0.00000000000E+00  0.00000000000E+00  0.82793094076E+03  0.82793094076E+03  0.00000000000E+00 0. -1.
         -1   -1    0    0    0  501 -0.00000000000E+00 -0.00000000000E+00 -0.10913234833E+04  0.10913234833E+04  0.00000000000E+00 0.  1.
         23    2    1    2    0    0 -0.10389698647E+03  0.72077332203E+03 -0.19027932684E+03  0.75832853478E+03  0.92450953919E+02 0.  0.
        254    2    1    2    0    0  0.10389698647E+03 -0.72077332203E+03 -0.73113215669E+02  0.11609258892E+04  0.90116292227E+03 0.  0.
        -24    2    4    4    0    0  0.28625550771E+03 -0.54634223745E+03  0.31025723755E+03  0.69511738145E+03  0.80601268135E+02 0.  0.
         24    2    4    4    0    0 -0.18235852124E+03 -0.17443108458E+03 -0.38337045322E+03  0.46580850780E+03  0.79522499965E+02 0.  0.
         13    1    3    3    0    0 -0.62827567860E+02  0.37623589878E+03 -0.14645674912E+03  0.40859556309E+03  0.00000000000E+00 0. -1.
        -13    1    3    3    0    0 -0.41069418609E+02  0.34453742326E+03 -0.43822577726E+02  0.34973297169E+03  0.00000000000E+00 0.  1.
          2    1    6    6  502    0 -0.18286984353E+03 -0.17996328335E+03 -0.36183650838E+03  0.44356941038E+03  0.00000000000E+00 0. -1.
          1    1    5    5  503    0  0.26925968471E+03 -0.46633778429E+03  0.28642033535E+03  0.60992484404E+03  0.00000000000E+00 0. -1.
         -2    1    5    5    0  503  0.16995822999E+02 -0.80004453160E+02  0.23836902197E+02  0.85192537415E+02  0.00000000000E+00 0.  1.
         -1    1    6    6    0  502  0.51132229038E+00  0.55321987719E+01 -0.21533944841E+02  0.22239097422E+02  0.00000000000E+00 0.  1.
<mgrwt>
<rscale>  0 0.19010949E+04</rscale>
<asrwt>0</asrwt>
<pdfrwt beam="1">  1        1 0.12737399E+00 0.19010949E+04</pdfrwt>
<pdfrwt beam="2">  1       -1 0.16789592E+00 0.19010949E+04</pdfrwt>
<totfact> 0.49894113E+00</totfact>
</mgrwt>
</event>
<event>
12    1  0.2404959E-007  0.2124523E+04  0.7818608E-02  0.8550517E-01
          2   -1    0    0  501    0  0.00000000000E+00  0.00000000000E+00  0.22548849400E+04  0.22548849400E+04  0.00000000000E+00 0. -1.
         -2   -1    0    0    0  501 -0.00000000000E+00 -0.00000000000E+00 -0.50042453068E+03  0.50042453068E+03  0.00000000000E+00 0.  1.
         23    2    1    2    0    0 -0.42037998917E+03  0.67011767096E+03  0.25468699985E+03  0.83601862675E+03  0.91020042514E+02 0.  0.
        254    2    1    2    0    0  0.42037998917E+03 -0.67011767096E+03  0.14997734095E+04  0.19192908440E+04  0.89921078488E+03 0.  0.
        -24    2    4    4    0    0  0.19748515851E+03 -0.61366205938E+03  0.15413612742E+04  0.16727930049E+04  0.82827221602E+02 0.  0.
         24    2    4    4    0    0  0.22289483067E+03 -0.56455611581E+02 -0.41587864754E+02  0.24649783903E+03  0.78500270917E+02 0.  0.
         11    1    3    3    0    0 -0.14190594296E+03  0.18945423202E+03  0.11529283434E+03  0.26329192986E+03  0.00000000000E+00 0. -1.
        -11    1    3    3    0    0 -0.27847404621E+03  0.48066343894E+03  0.13939416551E+03  0.57272669689E+03  0.00000000000E+00 0.  1.
          2    1    6    6  502    0  0.78258885621E+02 -0.19157272846E+02  0.22963955037E+02  0.83778263962E+02  0.00000000000E+00 0. -1.
          1    1    5    5  503    0  0.24567345044E+02 -0.90080252725E+02  0.15708336088E+03  0.18273803282E+03  0.00000000000E+00 0. -1.
         -2    1    5    5    0  503  0.17291781346E+03 -0.52358180666E+03  0.13842779134E+04  0.14900549721E+04  0.00000000000E+00 0.  1.
         -1    1    6    6    0  502  0.14463594505E+03 -0.37298338734E+02 -0.64551819791E+02  0.16271957507E+03  0.00000000000E+00 0.  1.
<mgrwt>
<rscale>  0 0.21245232E+04</rscale>
<asrwt>0</asrwt>
<pdfrwt beam="1">  1        2 0.34690537E+00 0.21245232E+04</pdfrwt>
<pdfrwt beam="2">  1       -2 0.76988391E-01 0.21245232E+04</pdfrwt>
<totfact> 0.66618551E+00</totfact>
</mgrwt>
</event>
<event>
12    1  0.2404959E-007  0.2605176E+04  0.7818608E-02  0.8366445E-01
          1   -1    0    0  501    0  0.00000000000E+00  0.00000000000E+00  0.17658631341E+04  0.17658631341E+04  0.00000000000E+00 0. -1.
         -1   -1    0    0    0  501 -0.00000000000E+00 -0.00000000000E+00 -0.96085315739E+03  0.96085315739E+03  0.00000000000E+00 0.  1.
         23    2    1    2    0    0 -0.29267769833E+03  0.43258470248E+03  0.14213208291E+04  0.15169625556E+04  0.90734425594E+02 0.  0.
        254    2    1    2    0    0  0.29267769833E+03 -0.43258470248E+03 -0.61631085238E+03  0.12097537359E+04  0.90048613249E+03 0.  0.
        -24    2    4    4    0    0  0.37791219355E+03 -0.38347985324E+03  0.35424710596E+02  0.54542758452E+03  0.79761619584E+02 0.  0.
         24    2    4    4    0    0 -0.85234495220E+02 -0.49104849235E+02 -0.65173556297E+03  0.66432615136E+03  0.83028826012E+02 0.  0.
         11    1    3    3    0    0 -0.81883207717E+02  0.63872888784E+02  0.32793637269E+03  0.34398672962E+03  0.00000000000E+00 0. -1.
        -11    1    3    3    0    0 -0.21079449061E+03  0.36871181369E+03  0.10933844564E+04  0.11729758260E+04  0.00000000000E+00 0.  1.
          4    1    6    6  502    0  0.11211833454E+01 -0.15556338258E+02 -0.30588209819E+03  0.30627947157E+03  0.00000000000E+00 0. -1.
          3    1    5    5  503    0  0.56901256982E+02 -0.91913945990E+02  0.28161422932E+02  0.11170940988E+03  0.00000000000E+00 0. -1.
         -2    1    5    5    0  503  0.32101093657E+03 -0.29156590725E+03  0.72632876639E+01  0.43371817464E+03  0.00000000000E+00 0.  1.
         -3    1    6    6    0  502 -0.86355678565E+02 -0.33548510976E+02 -0.34585346478E+03  0.35804667979E+03  0.00000000000E+00 0.  1.
<mgrwt>
<rscale>  0 0.26051757E+04</rscale>
<asrwt>0</asrwt>
<pdfrwt beam="1">  1        1 0.27167125E+00 0.26051757E+04</pdfrwt>
<pdfrwt beam="2">  1       -1 0.14782356E+00 0.26051757E+04</pdfrwt>
<totfact> 0.13730156E+00</totfact>
</mgrwt>
</event>
<event>
12    1  0.2404959E-007  0.2317427E+04  0.7818608E-02  0.8471081E-01
         -1   -1    0    0    0  501 -0.00000000000E+00  0.00000000000E+00  0.16828145431E+04  0.16828145431E+04  0.00000000000E+00 0.  1.
          1   -1    0    0  501    0  0.00000000000E+00 -0.00000000000E+00 -0.79784010514E+03  0.79784010514E+03  0.00000000000E+00 0. -1.
         23    2    1    2    0    0  0.79753765743E+03  0.57183630132E+03  0.38340834540E+03  0.10575493966E+04  0.91354782986E+02 0.  0.
        254    2    1    2    0    0 -0.79753765743E+03 -0.57183630132E+03  0.50156609256E+03  0.14231052516E+04  0.90033157310E+03 0.  0.
        -24    2    4    4    0    0 -0.86852606433E+03 -0.39223370306E+03  0.88827257474E+02  0.96037842619E+03  0.79067297795E+02 0.  0.
         24    2    4    4    0    0  0.70988406904E+02 -0.17960259826E+03  0.41273883509E+03  0.46272682545E+03  0.80413442842E+02 0.  0.
         11    1    3    3    0    0  0.35594347200E+03  0.20062121886E+03  0.16705688347E+03  0.44142114928E+03  0.00000000000E+00 0. -1.
        -11    1    3    3    0    0  0.44159418543E+03  0.37121508247E+03  0.21635146193E+03  0.61612824732E+03  0.00000000000E+00 0.  1.
          2    1    6    6  502    0  0.30052083950E+02 -0.15099028034E+03  0.35126935717E+03  0.38352490636E+03  0.00000000000E+00 0. -1.
          1    1    5    5  503    0 -0.74602952029E+03 -0.36380327879E+03  0.87623901598E+02  0.83462016446E+03  0.00000000000E+00 0. -1.
         -2    1    5    5    0  503 -0.12249654405E+03 -0.28430424273E+02  0.12033558754E+01  0.12575826173E+03  0.00000000000E+00 0.  1.
         -1    1    6    6    0  502  0.40936322954E+02 -0.28612317922E+02  0.61469477911E+02  0.79201919096E+02  0.00000000000E+00 0.  1.
<mgrwt>
<rscale>  0 0.23174270E+04</rscale>
<asrwt>0</asrwt>
<pdfrwt beam="1">  1        1 0.12274463E+00 0.23174270E+04</pdfrwt>
<pdfrwt beam="2">  1       -1 0.25889454E+00 0.23174270E+04</pdfrwt>
<totfact> 0.12225632E+00</totfact>
</mgrwt>
</event>
<event>
12    1  0.2404959E-007  0.1445106E+04  0.7818608E-02  0.8921800E-01
          2   -1    0    0  501    0  0.00000000000E+00  0.00000000000E+00  0.94447031221E+03  0.94447031221E+03  0.00000000000E+00 0. -1.
         -2   -1    0    0    0  501 -0.00000000000E+00 -0.00000000000E+00 -0.55277861324E+03  0.55277861324E+03  0.00000000000E+00 0.  1.
         23    2    1    2    0    0  0.20400300818E+03  0.32980482824E+03 -0.63603617855E+02  0.40299627499E+03  0.89286759235E+02 0.  0.
        254    2    1    2    0    0 -0.20400300818E+03 -0.32980482824E+03  0.45529531683E+03  0.10942526505E+04  0.91635505424E+03 0.  0.
        -24    2    4    4    0    0  0.30659221565E+03 -0.31179165991E+03  0.35196223871E+03  0.56713507409E+03  0.80944109747E+02 0.  0.
         24    2    4    4    0    0 -0.51059522384E+03 -0.18013168330E+02  0.10333307812E+03  0.52711757637E+03  0.78378934945E+02 0.  0.
         11    1    3    3    0    0  0.13697878063E+03  0.24132853685E+03 -0.84448756857E+02  0.29005903120E+03  0.00000000000E+00 0.  1.
        -11    1    3    3    0    0  0.67024227548E+02  0.88476291384E+02  0.20845139002E+02  0.11293724379E+03  0.00000000000E+00 0. -1.
          2    1    6    6  502    0 -0.14576919983E+03 -0.25826061577E+02  0.66808837361E+00  0.14804084375E+03  0.00000000000E+00 0. -1.
          3    1    5    5  503    0  0.25087587063E+03 -0.22118937370E+03  0.29756049176E+03  0.44766693842E+03  0.00000000000E+00 0. -1.
         -4    1    5    5    0  503  0.55716345026E+02 -0.90602286210E+02  0.54401746946E+02  0.11946813567E+03  0.00000000000E+00 0.  1.
         -1    1    6    6    0  502 -0.36482602401E+03  0.78128932469E+01  0.10266498974E+03  0.37907673262E+03  0.00000000000E+00 0.  1.
<mgrwt>
<rscale>  0 0.14451062E+04</rscale>
<asrwt>0</asrwt>
<pdfrwt beam="1">  1        2 0.14530312E+00 0.14451062E+04</pdfrwt>
<pdfrwt beam="2">  1       -2 0.85042864E-01 0.14451062E+04</pdfrwt>
<totfact> 0.31976143E+01</totfact>
</mgrwt>
</event>
<event>
12    1  0.2404959E-007  0.2521267E+04  0.7818608E-02  0.8395448E-01
          1   -1    0    0  501    0  0.00000000000E+00  0.00000000000E+00  0.19774470344E+04  0.19774470344E+04  0.00000000000E+00 0. -1.
         -1   -1    0    0    0  501 -0.00000000000E+00 -0.00000000000E+00 -0.80366093598E+03  0.80366093598E+03  0.00000000000E+00 0.  1.
         23    2    1    2    0    0 -0.10075985965E+04 -0.39174845457E+03  0.29006385362E+03  0.11230833977E+04  0.91964643159E+02 0.  0.
        254    2    1    2    0    0  0.10075985965E+04  0.39174845457E+03  0.88372224485E+03  0.16580245727E+04  0.89406861838E+03 0.  0.
        -24    2    4    4    0    0  0.11445694539E+04  0.43707772370E+03  0.71174845454E+03  0.14191308404E+04  0.79185277730E+02 0.  0.
         24    2    4    4    0    0 -0.13697085734E+03 -0.45329269131E+02  0.17197379031E+03  0.23889373239E+03  0.81728039375E+02 0.  0.
         13    1    3    3    0    0 -0.58604949764E+03 -0.20494152679E+03  0.20789388323E+03  0.65473270101E+03  0.00000000000E+00 0. -1.
        -13    1    3    3    0    0 -0.42154909889E+03 -0.18680692778E+03  0.82169970387E+02  0.46835069668E+03  0.00000000000E+00 0.  1.
          2    1    6    6  502    0 -0.66494291477E+02 -0.84729515218E+01  0.13596309648E+03  0.15158906726E+03  0.00000000000E+00 0. -1.
          3    1    5    5  503    0  0.69604681678E+03  0.23297206712E+03  0.39823140016E+03  0.83507209466E+03  0.00000000000E+00 0. -1.
         -4    1    5    5    0  503  0.44852263709E+03  0.20410565659E+03  0.31351705438E+03  0.58405874569E+03  0.00000000000E+00 0.  1.
         -1    1    6    6    0  502 -0.70476565863E+02 -0.36856317609E+02  0.36010693825E+02  0.87304665129E+02  0.00000000000E+00 0.  1.
<mgrwt>
<rscale>  0 0.25212671E+04</rscale>
<asrwt>0</asrwt>
<pdfrwt beam="1">  1        1 0.30422262E+00 0.25212671E+04</pdfrwt>
<pdfrwt beam="2">  1       -1 0.12364014E+00 0.25212671E+04</pdfrwt>
<totfact> 0.15739180E+00</totfact>
</mgrwt>
</event>
<event>
12    1  0.2404959E-007  0.4297281E+04  0.7818608E-02  0.7947121E-01
          2   -1    0    0  501    0  0.00000000000E+00  0.00000000000E+00  0.23211500075E+04  0.23211500075E+04  0.00000000000E+00 0. -1.
         -2   -1    0    0    0  501 -0.00000000000E+00 -0.00000000000E+00 -0.19889521033E+04  0.19889521033E+04  0.00000000000E+00 0.  1.
         23    2    1    2    0    0 -0.10108511300E+04 -0.11837506532E+04 -0.11837410507E+04  0.19577277951E+04  0.91485674632E+02 0.  0.
        254    2    1    2    0    0  0.10108511300E+04  0.11837506532E+04  0.15159389549E+04  0.23523743156E+04  0.90139247272E+03 0.  0.
        -24    2    4    4    0    0 -0.13326312470E+03  0.19475050739E+03  0.73148065166E+02  0.26068366881E+03  0.83177612480E+02 0.  0.
         24    2    4    4    0    0  0.11441142547E+04  0.98900014584E+03  0.14427908897E+04  0.20916906468E+04  0.80034331774E+02 0.  0.
         11    1    3    3    0    0 -0.83854172494E+03 -0.93671400875E+03 -0.92818888430E+03  0.15627283717E+04  0.00000000000E+00 0. -1.
        -11    1    3    3    0    0 -0.17230940506E+03 -0.24703664448E+03 -0.25555216642E+03  0.39499942348E+03  0.00000000000E+00 0.  1.
          2    1    6    6  502    0  0.91719819640E+03  0.78478473223E+03  0.11068110095E+04  0.16377332561E+04  0.00000000000E+00 0. -1.
          3    1    5    5  503    0 -0.13395467421E+03  0.14755291012E+03  0.76254994122E+02  0.21337886530E+03  0.00000000000E+00 0. -1.
         -4    1    5    5    0  503  0.69154951085E+00  0.47197597262E+02 -0.31069289558E+01  0.47304803514E+02  0.00000000000E+00 0.  1.
         -1    1    6    6    0  502  0.22691605831E+03  0.20421541362E+03  0.33597988020E+03  0.45395739070E+03  0.00000000000E+00 0.  1.
<mgrwt>
<rscale>  0 0.42972811E+04</rscale>
<asrwt>0</asrwt>
<pdfrwt beam="1">  1        2 0.35710000E+00 0.42972811E+04</pdfrwt>
<pdfrwt beam="2">  1       -2 0.30599263E+00 0.42972811E+04</pdfrwt>
<totfact> 0.99196764E-02</totfact>
</mgrwt>
</event>
<event>
12    1  0.2404959E-007  0.3117599E+04  0.7818608E-02  0.8210925E-01
         -2   -1    0    0    0  501 -0.00000000000E+00  0.00000000000E+00  0.55064963683E+03  0.55064963683E+03  0.00000000000E+00 0.  1.
          2   -1    0    0  501    0  0.00000000000E+00 -0.00000000000E+00 -0.44127081987E+04  0.44127081987E+04  0.00000000000E+00 0. -1.
         23    2    1    2    0    0  0.11569138648E+04  0.74689821907E+03 -0.11689937930E+04  0.18071794379E+04  0.55176011913E+02 0.  0.
        254    2    1    2    0    0 -0.11569138648E+04 -0.74689821907E+03 -0.26930647688E+04  0.31561783976E+04  0.90141976251E+03 0.  0.
        -24    2    4    4    0    0 -0.86812064349E+03 -0.85867063436E+03 -0.15819293540E+04  0.19999848249E+04  0.80561212424E+02 0.  0.
         24    2    4    4    0    0 -0.28879322135E+03  0.11177241529E+03 -0.11111354148E+04  0.11561935727E+04  0.79164827686E+02 0.  0.
         11    1    3    3    0    0  0.53744414154E+03  0.37950118526E+03 -0.55341148453E+03  0.85972764647E+03  0.00000000000E+00 0. -1.
        -11    1    3    3    0    0  0.61946972330E+03  0.36739703380E+03 -0.61558230850E+03  0.94745179142E+03  0.00000000000E+00 0.  1.
          2    1    6    6  502    0 -0.12346239963E+03  0.51148224504E+02 -0.34259561866E+03  0.36773749185E+03  0.00000000000E+00 0. -1.
          3    1    5    5  503    0 -0.37521372769E+03 -0.39957290208E+03 -0.76653218395E+03  0.94234570862E+03  0.00000000000E+00 0. -1.
         -4    1    5    5    0  503 -0.49290691580E+03 -0.45909773229E+03 -0.81539717004E+03  0.10576391163E+04  0.00000000000E+00 0.  1.
         -1    1    6    6    0  502 -0.16533082172E+03  0.60624190790E+02 -0.76853979615E+03  0.78845608082E+03  0.00000000000E+00 0.  1.
<mgrwt>
<rscale>  0 0.31175992E+04</rscale>
<asrwt>0</asrwt>
<pdfrwt beam="1">  1        2 0.67887819E+00 0.31175992E+04</pdfrwt>
<pdfrwt beam="2">  1       -2 0.84715328E-01 0.31175992E+04</pdfrwt>
<totfact> 0.15341280E-01</totfact>
</mgrwt>
</event>
<event>
12    1  0.2404959E-007  0.1719680E+04  0.7818608E-02  0.8750219E-01
         -2   -1    0    0    0  501 -0.00000000000E+00  0.00000000000E+00  0.60257141104E+03  0.60257141104E+03  0.00000000000E+00 0.  1.
          2   -1    0    0  501    0  0.00000000000E+00 -0.00000000000E+00 -0.12269502756E+04  0.12269502756E+04  0.00000000000E+00 0. -1.
         23    2    1    2    0    0 -0.19983560088E+03  0.56870495590E+03 -0.73094977058E+02  0.61411513589E+03  0.91841876175E+02 0.  0.
        254    2    1    2    0    0  0.19983560088E+03 -0.56870495590E+03 -0.55128388749E+03  0.12154065507E+04  0.89996642423E+03 0.  0.
        -24    2    4    4    0    0  0.11549312419E+03 -0.67945373599E+03 -0.70811864786E+03  0.99145762134E+03  0.80994779979E+02 0.  0.
         24    2    4    4    0    0  0.84342476692E+02  0.11074878010E+03  0.15683476036E+03  0.22394892940E+03  0.78594117183E+02 0.  0.
         11    1    3    3    0    0 -0.12075029012E+03  0.20842119637E+03 -0.30946592223E+02  0.24285328746E+03  0.00000000000E+00 0.  1.
        -11    1    3    3    0    0 -0.79085310762E+02  0.36028375952E+03 -0.42148384835E+02  0.37126184843E+03  0.00000000000E+00 0. -1.
          4    1    6    6  502    0  0.69686471119E+02  0.35343987476E+02  0.10658155826E+03  0.13215532630E+03  0.00000000000E+00 0. -1.
          1    1    5    5  503    0  0.25522010319E+02 -0.26550118112E+03 -0.32355159708E+03  0.41931835896E+03  0.00000000000E+00 0. -1.
         -2    1    5    5    0  503  0.89971113868E+02 -0.41395255487E+03 -0.38456705078E+03  0.57213926238E+03  0.00000000000E+00 0.  1.
         -1    1    6    6    0  502  0.14656005573E+02  0.75404792621E+02  0.50253202100E+02  0.91793603104E+02  0.00000000000E+00 0.  1.
<mgrwt>
<rscale>  0 0.17196804E+04</rscale>
<asrwt>0</asrwt>
<pdfrwt beam="1">  1        2 0.18876158E+00 0.17196804E+04</pdfrwt>
<pdfrwt beam="2">  1       -2 0.92703295E-01 0.17196804E+04</pdfrwt>
<totfact> 0.17114595E+01</totfact>
</mgrwt>
</event>
<event>
12    1  0.2404959E-007  0.1763004E+04  0.7818608E-02  0.8726225E-01
          1   -1    0    0  501    0  0.00000000000E+00  0.00000000000E+00  0.10685078853E+04  0.10685078853E+04  0.00000000000E+00 0. -1.
         -1   -1    0    0    0  501 -0.00000000000E+00 -0.00000000000E+00 -0.72722501842E+03  0.72722501842E+03  0.00000000000E+00 0.  1.
         23    2    1    2    0    0 -0.62710459713E+03 -0.12065029404E+03  0.15352548011E+02  0.64518694747E+03  0.90630167544E+02 0.  0.
        254    2    1    2    0    0  0.62710459713E+03  0.12065029404E+03  0.32593031883E+03  0.11505459562E+04  0.89983818291E+03 0.  0.
        -24    2    4    4    0    0  0.33011180622E+02 -0.23002218790E+03 -0.16849325991E+03  0.29809890599E+03  0.80455168529E+02 0.  0.
         24    2    4    4    0    0  0.59409341651E+03  0.35067248194E+03  0.49442357875E+03  0.85244705022E+03  0.79329194374E+02 0.  0.
         13    1    3    3    0    0 -0.37501276992E+03 -0.40565394062E+02  0.41085259674E+02  0.37943132100E+03  0.00000000000E+00 0. -1.
        -13    1    3    3    0    0 -0.25209182721E+03 -0.80084899975E+02 -0.25732711663E+02  0.26575562647E+03  0.00000000000E+00 0.  1.
          2    1    6    6  502    0  0.45639542113E+03  0.30143736111E+03  0.36897174781E+03  0.65977375955E+03  0.00000000000E+00 0. -1.
          1    1    5    5  503    0  0.23867291922E+02 -0.15066117031E+03 -0.61263181192E+02  0.16438252107E+03  0.00000000000E+00 0. -1.
         -2    1    5    5    0  503  0.91438886999E+01 -0.79361017589E+02 -0.10723007872E+03  0.13371638492E+03  0.00000000000E+00 0.  1.
         -1    1    6    6    0  502  0.13769799537E+03  0.49235120827E+02  0.12545183093E+03  0.19267329067E+03  0.00000000000E+00 0.  1.
<mgrwt>
<rscale>  0 0.17630039E+04</rscale>
<asrwt>0</asrwt>
<pdfrwt beam="1">  1        1 0.16438583E+00 0.17630039E+04</pdfrwt>
<pdfrwt beam="2">  1       -1 0.11188077E+00 0.17630039E+04</pdfrwt>
<totfact> 0.92966604E+00</totfact>
</mgrwt>
</event>
<event>
12    1  0.2404959E-007  0.1679656E+04  0.7818608E-02  0.8773053E-01
         -2   -1    0    0    0  501 -0.00000000000E+00  0.00000000000E+00  0.73445909264E+03  0.73445909264E+03  0.00000000000E+00 0.  1.
          2   -1    0    0  501    0  0.00000000000E+00 -0.00000000000E+00 -0.96031401106E+03  0.96031401106E+03  0.00000000000E+00 0. -1.
         23    2    1    2    0    0  0.38817157915E+03 -0.21097882266E+03 -0.47914590483E+03  0.65769374931E+03  0.88266818795E+02 0.  0.
        254    2    1    2    0    0 -0.38817157915E+03  0.21097882266E+03  0.25329098640E+03  0.10370793544E+04  0.90343125086E+03 0.  0.
        -24    2    4    4    0    0 -0.25247163939E+03 -0.22931442938E+03 -0.18499868682E+03  0.39591513744E+03  0.78722587079E+02 0.  0.
         24    2    4    4    0    0 -0.13569993976E+03  0.44029325204E+03  0.43828967322E+03  0.64116421694E+03  0.81982278525E+02 0.  0.
         13    1    3    3    0    0  0.17948412490E+03 -0.14672730939E+03 -0.23373244946E+03  0.32920254000E+03  0.00000000000E+00 0.  1.
        -13    1    3    3    0    0  0.20868745425E+03 -0.64251513265E+02 -0.24541345537E+03  0.32849120931E+03  0.00000000000E+00 0. -1.
          2    1    6    6  502    0 -0.70456663620E+02  0.21179146283E+03  0.26821414023E+03  0.34893923568E+03  0.00000000000E+00 0. -1.
          1    1    5    5  503    0 -0.97188243658E+02 -0.61662168545E+02 -0.98776106813E+02  0.15167233437E+03  0.00000000000E+00 0. -1.
         -2    1    5    5    0  503 -0.15528339573E+03 -0.16765226084E+03 -0.86222580002E+02  0.24424280308E+03  0.00000000000E+00 0.  1.
         -1    1    6    6    0  502 -0.65243276142E+02  0.22850178921E+03  0.17007553299E+03  0.29222498127E+03  0.00000000000E+00 0.  1.
<mgrwt>
<rscale>  0 0.16796563E+04</rscale>
<asrwt>0</asrwt>
<pdfrwt beam="1">  1        2 0.14774062E+00 0.16796563E+04</pdfrwt>
<pdfrwt beam="2">  1       -2 0.11299371E+00 0.16796563E+04</pdfrwt>
<totfact> 0.15681630E+01</totfact>
</mgrwt>
</event>
<event>
12    1  0.3417977E-007  0.2162859E+04  0.7818608E-02  0.8534048E-01
          2   -1    0    0  501    0  0.00000000000E+00  0.00000000000E+00  0.19193921118E+04  0.19193921118E+04  0.00000000000E+00 0. -1.
         -2   -1    0    0    0  501 -0.00000000000E+00 -0.00000000000E+00 -0.60930226819E+03  0.60930226819E+03  0.00000000000E+00 0.  1.
         23    2    1    2    0    0  0.46536994429E+03  0.56447686379E+03 -0.46800624334E+02  0.73885252111E+03  0.92246597254E+02 0.  0.
        254    2    1    2    0    0 -0.46536994429E+03 -0.56447686379E+03  0.13568904679E+04  0.17898418589E+04  0.90949371795E+03 0.  0.
        -24    2    4    4    0    0 -0.66404489220E+03 -0.12700389802E+03  0.80327925767E+03  0.10529118680E+04  0.79247883108E+02 0.  0.
         24    2    4    4    0    0  0.19867494791E+03 -0.43747296577E+03  0.55361121026E+03  0.73692999088E+03  0.75671055398E+02 0.  0.
         13    1    3    3    0    0  0.20908438840E+03  0.21627469455E+03  0.19496599054E+02  0.30144840744E+03  0.00000000000E+00 0. -1.
        -13    1    3    3    0    0  0.25628555590E+03  0.34820216924E+03 -0.66297223388E+02  0.43740411367E+03  0.00000000000E+00 0.  1.
          2    1    6    6  502    0 -0.45281994539E+01 -0.31189559888E+01  0.13956472391E+02  0.15000519936E+02  0.00000000000E+00 0. -1.
          1    1    5    5  503    0 -0.76641354293E+02 -0.26969986569E+02  0.64209235407E+02  0.10355724637E+03  0.00000000000E+00 0. -1.
         -2    1    5    5    0  503 -0.58740353791E+03 -0.10003391145E+03  0.73907002226E+03  0.94935462162E+03  0.00000000000E+00 0.  1.
         -1    1    6    6    0  502  0.20320314736E+03 -0.43435400979E+03  0.53965473787E+03  0.72192947095E+03  0.00000000000E+00 0.  1.
<mgrwt>
<rscale>  0 0.21628592E+04</rscale>
<asrwt>0</asrwt>
<pdfrwt beam="1">  1        2 0.29529109E+00 0.21628592E+04</pdfrwt>
<pdfrwt beam="2">  1       -2 0.93738811E-01 0.21628592E+04</pdfrwt>
<totfact> 0.65299247E+00</totfact>
</mgrwt>
</event>
<event>
12    1  0.2404959E-007  0.2069780E+04  0.7818608E-02  0.8574673E-01
          2   -1    0    0  501    0  0.00000000000E+00  0.00000000000E+00  0.12088177383E+04  0.12088177383E+04  0.00000000000E+00 0.  1.
         -2   -1    0    0    0  501 -0.00000000000E+00 -0.00000000000E+00 -0.88598774208E+03  0.88598774208E+03  0.00000000000E+00 0. -1.
         23    2    1    2    0    0  0.28466130849E+03  0.77523734959E+03 -0.37077643565E+01  0.83082971243E+03  0.90770340889E+02 0.  0.
        254    2    1    2    0    0 -0.28466130849E+03 -0.77523734959E+03  0.32653776057E+03  0.12639757679E+04  0.89943472477E+03 0.  0.
        -24    2    4    4    0    0  0.11210919020E+03 -0.47647435121E+02 -0.22229274804E+03  0.26722439440E+03  0.84593513527E+02 0.  0.
         24    2    4    4    0    0 -0.39677049869E+03 -0.72758991447E+03  0.54883050861E+03  0.99675137355E+03  0.74057148301E+02 0.  0.
         13    1    3    3    0    0  0.26934311455E+03  0.63609961337E+03 -0.70977003977E+01  0.69081025531E+03  0.00000000000E+00 0.  1.
        -13    1    3    3    0    0  0.15318193938E+02  0.13913773622E+03  0.33899360412E+01  0.14001945712E+03  0.00000000000E+00 0. -1.
          2    1    6    6  502    0 -0.36726759952E+02 -0.11966285357E+03  0.72755344607E+02  0.14478050141E+03  0.00000000000E+00 0. -1.
          1    1    5    5  503    0 -0.22956249036E+01 -0.25381980251E+02 -0.15445250520E+02  0.29800513062E+02  0.00000000000E+00 0. -1.
         -2    1    5    5    0  503  0.11440481511E+03 -0.22265454870E+02 -0.20684749752E+03  0.23742388134E+03  0.00000000000E+00 0.  1.
         -3    1    6    6    0  502 -0.36004373874E+03 -0.60792706090E+03  0.47607516400E+03  0.85197087213E+03  0.00000000000E+00 0.  1.
<mgrwt>
<rscale>  0 0.20697804E+04</rscale>
<asrwt>0</asrwt>
<pdfrwt beam="1">  1        2 0.18597196E+00 0.20697804E+04</pdfrwt>
<pdfrwt beam="2">  1       -2 0.13630581E+00 0.20697804E+04</pdfrwt>
<totfact> 0.66546443E+00</totfact>
</mgrwt>
</event>
<event>
12    1  0.2404959E-007  0.1619382E+04  0.7818608E-02  0.8808729E-01
         -1   -1    0    0    0  501 -0.00000000000E+00  0.00000000000E+00  0.71551037313E+03  0.71551037313E+03  0.00000000000E+00 0.  1.
          1   -1    0    0  501    0  0.00000000000E+00 -0.00000000000E+00 -0.91626845500E+03  0.91626845500E+03  0.00000000000E+00 0. -1.
         23    2    1    2    0    0  0.94574213268E+02  0.54158204803E+03  0.39059381445E+01  0.55750515447E+03  0.92419393717E+02 0.  0.
        254    2    1    2    0    0 -0.94574213268E+02 -0.54158204803E+03 -0.20466402002E+03  0.10742736737E+04  0.89995620353E+03 0.  0.
        -24    2    4    4    0    0 -0.47540371361E+03 -0.39616411013E+03 -0.21252883698E+03  0.65906083030E+03  0.78980873774E+02 0.  0.
         24    2    4    4    0    0  0.38082950034E+03 -0.14541793790E+03  0.78648169595E+01  0.41521284336E+03  0.78500732198E+02 0.  0.
         11    1    3    3    0    0  0.98105096465E+02  0.38227353926E+03 -0.25428952855E+02  0.39547983566E+03  0.00000000000E+00 0. -1.
        -11    1    3    3    0    0 -0.35308831971E+01  0.15930850877E+03  0.29334891000E+02  0.16202531880E+03  0.00000000000E+00 0.  1.
          2    1    6    6  502    0  0.20851903418E+03 -0.42666388030E+02 -0.14591403604E+02  0.21333897286E+03  0.00000000000E+00 0. -1.
          1    1    5    5  503    0 -0.56741104588E+02 -0.74247974070E+02 -0.12268177474E+02  0.94248728277E+02  0.00000000000E+00 0. -1.
         -2    1    5    5    0  503 -0.41866260902E+03 -0.32191613606E+03 -0.20026065950E+03  0.56481210203E+03  0.00000000000E+00 0.  1.
         -1    1    6    6    0  502  0.17231046616E+03 -0.10275154987E+03  0.22456220564E+02  0.20187387050E+03  0.00000000000E+00 0.  1.
<mgrwt>
<rscale>  0 0.16193821E+04</rscale>
<asrwt>0</asrwt>
<pdfrwt beam="1">  1        1 0.14096438E+00 0.16193821E+04</pdfrwt>
<pdfrwt beam="2">  1       -1 0.11007852E+00 0.16193821E+04</pdfrwt>
<totfact> 0.12884242E+01</totfact>
</mgrwt>
</event>
<event>
12    1  0.2404959E-007  0.2253057E+04  0.7818608E-02  0.8496664E-01
         -2   -1    0    0    0  501 -0.00000000000E+00  0.00000000000E+00  0.81025011962E+03  0.81025011962E+03  0.00000000000E+00 0.  1.
          2   -1    0    0  501    0  0.00000000000E+00 -0.00000000000E+00 -0.15662644876E+04  0.15662644876E+04  0.00000000000E+00 0. -1.
         23    2    1    2    0    0 -0.70711474155E+03  0.46317253539E+03 -0.76217721640E+03  0.11418216754E+04  0.91118460976E+02 0.  0.
        254    2    1    2    0    0  0.70711474155E+03 -0.46317253539E+03  0.61628484200E+01  0.12346929318E+04  0.89993810896E+03 0.  0.
        -24    2    4    4    0    0 -0.86228136019E+02 -0.35835636150E+03 -0.16577850982E+03  0.41228069274E+03  0.81475652926E+02 0.  0.
         24    2    4    4    0    0  0.79334287757E+03 -0.10481617388E+03  0.17194135824E+03  0.82241223908E+03  0.80116843572E+02 0.  0.
         13    1    3    3    0    0 -0.40437534166E+03  0.22483670924E+03 -0.37457883135E+03  0.59529846603E+03  0.00000000000E+00 0.  1.
        -13    1    3    3    0    0 -0.30273939989E+03  0.23833582615E+03 -0.38759838505E+03  0.54652320936E+03  0.00000000000E+00 0. -1.
          4    1    6    6  502    0  0.78492864115E+03 -0.10960097321E+03  0.16278594251E+03  0.80908875168E+03  0.00000000000E+00 0. -1.
          3    1    5    5  503    0 -0.80949028613E+02 -0.16995608929E+03 -0.69776966684E+02  0.20076514289E+03  0.00000000000E+00 0. -1.
         -4    1    5    5    0  503 -0.52791074061E+01 -0.18840027222E+03 -0.96001543139E+02  0.21151554986E+03  0.00000000000E+00 0.  1.
         -3    1    6    6    0  502  0.84142364218E+01  0.47847993307E+01  0.91554157378E+01  0.13323487401E+02  0.00000000000E+00 0.  1.
<mgrwt>
<rscale>  0 0.22530566E+04</rscale>
<asrwt>0</asrwt>
<pdfrwt beam="1">  1        2 0.24096376E+00 0.22530566E+04</pdfrwt>
<pdfrwt beam="2">  1       -2 0.12465387E+00 0.22530566E+04</pdfrwt>
<totfact> 0.51193444E+00</totfact>
</mgrwt>
</event>
<event>
12    1  0.2404959E-007  0.2491772E+04  0.7818608E-02  0.8405923E-01
         -2   -1    0    0    0  501 -0.00000000000E+00  0.00000000000E+00  0.31850832377E+03  0.31850832377E+03  0.00000000000E+00 0.  1.
          2   -1    0    0  501    0  0.00000000000E+00 -0.00000000000E+00 -0.48734432369E+04  0.48734432369E+04  0.00000000000E+00 0. -1.
         23    2    1    2    0    0  0.10622177498E+04 -0.20018475980E+03 -0.18916160011E+04  0.21805504464E+04  0.90601699410E+02 0.  0.
        254    2    1    2    0    0 -0.10622177498E+04  0.20018475980E+03 -0.26633189120E+04  0.30114011142E+04  0.89826975767E+03 0.  0.
        -24    2    4    4    0    0 -0.14538084744E+03  0.38065817592E+03 -0.12325201854E+04  0.13006670945E+04  0.81195107481E+02 0.  0.
         24    2    4    4    0    0 -0.91683690233E+03 -0.18047341612E+03 -0.14307987266E+04  0.17107340197E+04  0.79153842795E+02 0.  0.
         11    1    3    3    0    0  0.22632308410E+03 -0.45130662391E+02 -0.48222422008E+03  0.53460182708E+03  0.00000000000E+00 0.  1.
        -11    1    3    3    0    0  0.83589466567E+03 -0.15505409741E+03 -0.14093917810E+04  0.16459486193E+04  0.00000000000E+00 0. -1.
          2    1    6    6  502    0 -0.64640408394E+03 -0.92474342599E+02 -0.10194871927E+04  0.12106790986E+04  0.00000000000E+00 0. -1.
          1    1    5    5  503    0 -0.58219108141E+01  0.11718552551E+03 -0.35075822104E+03  0.36986169261E+03  0.00000000000E+00 0. -1.
         -2    1    5    5    0  503 -0.13955893662E+03  0.26347265041E+03 -0.88176196440E+03  0.93080540188E+03  0.00000000000E+00 0.  1.
         -1    1    6    6    0  502 -0.27043281838E+03 -0.87999073520E+02 -0.41131153392E+03  0.50005492112E+03  0.00000000000E+00 0.  1.
<mgrwt>
<rscale>  0 0.24917722E+04</rscale>
<asrwt>0</asrwt>
<pdfrwt beam="1">  1        2 0.74976059E+00 0.24917722E+04</pdfrwt>
<pdfrwt beam="2">  1       -2 0.49001275E-01 0.24917722E+04</pdfrwt>
<totfact> 0.17388135E-01</totfact>
</mgrwt>
</event>
<event>
12    1  0.2404959E-007  0.2189283E+04  0.7818608E-02  0.8522902E-01
          2   -1    0    0  501    0  0.00000000000E+00  0.00000000000E+00  0.23618830578E+04  0.23618830578E+04  0.00000000000E+00 0. -1.
         -2   -1    0    0    0  501 -0.00000000000E+00 -0.00000000000E+00 -0.50732397958E+03  0.50732397958E+03  0.00000000000E+00 0.  1.
         23    2    1    2    0    0  0.59978885712E+03  0.11164588379E+03 -0.10652654396E+03  0.62579145917E+03  0.89752823419E+02 0.  0.
        254    2    1    2    0    0 -0.59978885712E+03 -0.11164588379E+03  0.19610856221E+04  0.22434155782E+04  0.90268774367E+03 0.  0.
        -24    2    4    4    0    0 -0.78901848823E+03 -0.26134050890E+03  0.15133324131E+04  0.17286226145E+04  0.84333353461E+02 0.  0.
         24    2    4    4    0    0  0.18922963111E+03  0.14969462512E+03  0.44775320906E+03  0.51479296369E+03  0.79451401242E+02 0.  0.
         13    1    3    3    0    0  0.51231419006E+03  0.10091625735E+03 -0.58502799939E+02  0.52542601567E+03  0.00000000000E+00 0. -1.
        -13    1    3    3    0    0  0.87474667052E+02  0.10729626438E+02 -0.48023744021E+02  0.10036544350E+03  0.00000000000E+00 0.  1.
          4    1    6    6  502    0  0.58093550823E+02  0.96233194234E+02  0.19909318071E+03  0.22863460570E+03  0.00000000000E+00 0. -1.
          3    1    5    5  503    0 -0.42164163092E+03 -0.17954656169E+03  0.79336649046E+03  0.91621450595E+03  0.00000000000E+00 0. -1.
         -4    1    5    5    0  503 -0.36737685730E+03 -0.81793947217E+02  0.71996592262E+03  0.81240810854E+03  0.00000000000E+00 0.  1.
         -3    1    6    6    0  502  0.13113608029E+03  0.53461430883E+02  0.24866002836E+03  0.28615835799E+03  0.00000000000E+00 0.  1.
<mgrwt>
<rscale>  0 0.21892829E+04</rscale>
<asrwt>0</asrwt>
<pdfrwt beam="1">  1        2 0.36336662E+00 0.21892829E+04</pdfrwt>
<pdfrwt beam="2">  1       -2 0.78049844E-01 0.21892829E+04</pdfrwt>
<totfact> 0.55873402E+00</totfact>
</mgrwt>
</event>
<event>
12    1  0.2404959E-007  0.1368088E+04  0.7818608E-02  0.8977247E-01
         -1   -1    0    0    0  501 -0.00000000000E+00  0.00000000000E+00  0.30245495223E+03  0.30245495223E+03  0.00000000000E+00 0.  1.
          1   -1    0    0  501    0  0.00000000000E+00 -0.00000000000E+00 -0.15470615681E+04  0.15470615681E+04  0.00000000000E+00 0. -1.
         23    2    1    2    0    0 -0.88783781160E+02  0.35574660445E+03 -0.22860647315E+03  0.44322530808E+03  0.98739798384E+02 0.  0.
        254    2    1    2    0    0  0.88783781160E+02 -0.35574660445E+03 -0.10160001427E+04  0.14062912122E+04  0.90053344038E+03 0.  0.
        -24    2    4    4    0    0  0.35626601708E+03 -0.30068652970E+03 -0.15103102031E+03  0.49582091657E+03  0.75433070595E+02 0.  0.
         24    2    4    4    0    0 -0.26748223592E+03 -0.55060074747E+02 -0.86496912242E+03  0.91047029568E+03  0.78779554580E+02 0.  0.
         11    1    3    3    0    0 -0.66635760288E+02  0.21508529491E+03 -0.84137557078E+02  0.24037707284E+03  0.00000000000E+00 0.  1.
        -11    1    3    3    0    0 -0.22148020872E+02  0.14066130953E+03 -0.14446891607E+03  0.20284823524E+03  0.00000000000E+00 0. -1.
          2    1    6    6  502    0 -0.26679938114E+03 -0.54820049983E+02 -0.86675487546E+03  0.90854342868E+03  0.00000000000E+00 0. -1.
          1    1    5    5  503    0  0.23250756901E+03 -0.23958464809E+03 -0.97744853794E+02  0.34787157069E+03  0.00000000000E+00 0. -1.
         -2    1    5    5    0  503  0.12375844807E+03 -0.61101881611E+02 -0.53286166517E+02  0.14794934588E+03  0.00000000000E+00 0.  1.
         -1    1    6    6    0  502 -0.68285478033E+00 -0.24002476430E+00  0.17857530414E+01  0.19268670072E+01  0.00000000000E+00 0.  1.
<mgrwt>
<rscale>  0 0.13680883E+04</rscale>
<asrwt>0</asrwt>
<pdfrwt beam="1">  1        1 0.23800948E+00 0.13680883E+04</pdfrwt>
<pdfrwt beam="2">  1       -1 0.46531530E-01 0.13680883E+04</pdfrwt>
<totfact> 0.27283055E+01</totfact>
</mgrwt>
</event>
<event>
12    1  0.2404959E-007  0.1506547E+04  0.7818608E-02  0.8880111E-01
          2   -1    0    0  501    0  0.00000000000E+00  0.00000000000E+00  0.88320333751E+03  0.88320333751E+03  0.00000000000E+00 0. -1.
         -2   -1    0    0    0  501 -0.00000000000E+00 -0.00000000000E+00 -0.64245823637E+03  0.64245823637E+03  0.00000000000E+00 0.  1.
         23    2    1    2    0    0 -0.15922725432E+03  0.26893466642E+03 -0.28564882751E+03  0.43494852089E+03  0.99527834533E+02 0.  0.
        254    2    1    2    0    0  0.15922725432E+03 -0.26893466642E+03  0.52639392865E+03  0.10907130530E+04  0.90270993266E+03 0.  0.
        -24    2    4    4    0    0  0.19699854143E+03 -0.11870489033E+03  0.76058410601E+03  0.79863263565E+03  0.80166252834E+02 0.  0.
         24    2    4    4    0    0 -0.37771287111E+02 -0.15022977609E+03 -0.23419017736E+03  0.29208041734E+03  0.80438021271E+02 0.  0.
         11    1    3    3    0    0 -0.83292539295E+02  0.14268487169E+03 -0.21612507302E+03  0.27204166391E+03  0.00000000000E+00 0.  1.
        -11    1    3    3    0    0 -0.75934715027E+02  0.12624979472E+03 -0.69523754487E+02  0.16290685698E+03  0.00000000000E+00 0. -1.
          2    1    6    6  502    0 -0.62029577948E+02 -0.91408326594E+02 -0.13834427813E+03  0.17703753840E+03  0.00000000000E+00 0. -1.
          3    1    5    5  503    0  0.17708919463E+03 -0.12140363134E+03  0.60936071095E+03  0.64608041342E+03  0.00000000000E+00 0. -1.
         -4    1    5    5    0  503  0.19909346809E+02  0.26987410126E+01  0.15122339506E+03  0.15255222223E+03  0.00000000000E+00 0.  1.
         -1    1    6    6    0  502  0.24258290837E+02 -0.58821449496E+02 -0.95845899233E+02  0.11504287894E+03  0.00000000000E+00 0.  1.
<mgrwt>
<rscale>  0 0.15065474E+04</rscale>
<asrwt>0</asrwt>
<pdfrwt beam="1">  1        2 0.13587744E+00 0.15065474E+04</pdfrwt>
<pdfrwt beam="2">  1       -2 0.98839729E-01 0.15065474E+04</pdfrwt>
<totfact> 0.24691633E+01</totfact>
</mgrwt>
</event>
<event>
12    1  0.2404959E-007  0.2388090E+04  0.7818608E-02  0.8443976E-01
         -1   -1    0    0    0  501 -0.00000000000E+00  0.00000000000E+00  0.12527983694E+04  0.12527983694E+04  0.00000000000E+00 0.  1.
          1   -1    0    0  501    0  0.00000000000E+00 -0.00000000000E+00 -0.11380473207E+04  0.11380473207E+04  0.00000000000E+00 0. -1.
         23    2    1    2    0    0 -0.39557073789E+03 -0.62640163512E+03  0.75350912893E+03  0.10608996969E+04  0.94217526701E+02 0.  0.
        254    2    1    2    0    0  0.39557073789E+03  0.62640163512E+03 -0.63875808019E+03  0.13299459932E+04  0.90104896800E+03 0.  0.
        -24    2    4    4    0    0 -0.19970913194E+03 -0.83505240806E+02 -0.18174253944E+03  0.29383081186E+03  0.80307737667E+02 0.  0.
         24    2    4    4    0    0  0.59527986984E+03  0.70990687593E+03 -0.45701554075E+03  0.10361151814E+04  0.79659077746E+02 0.  0.
         11    1    3    3    0    0 -0.11690693721E+03 -0.26931324039E+03  0.31031177833E+03  0.42718877933E+03  0.00000000000E+00 0. -1.
        -11    1    3    3    0    0 -0.27866380068E+03 -0.35708839473E+03  0.44319735061E+03  0.63371091757E+03  0.00000000000E+00 0.  1.
          4    1    6    6  502    0  0.32808857272E+03  0.44982563283E+03 -0.26209838753E+03  0.61537043823E+03  0.00000000000E+00 0. -1.
          3    1    5    5  503    0 -0.96637872784E+01 -0.31697597702E+02 -0.18190280649E+02  0.37802285576E+02  0.00000000000E+00 0. -1.
         -4    1    5    5    0  503 -0.19004534466E+03 -0.51807643104E+02 -0.16355225879E+03  0.25602852628E+03  0.00000000000E+00 0.  1.
         -3    1    6    6    0  502  0.26719129711E+03  0.26008124310E+03 -0.19491715322E+03  0.42074474314E+03  0.00000000000E+00 0.  1.
<mgrwt>
<rscale>  0 0.23880903E+04</rscale>
<asrwt>0</asrwt>
<pdfrwt beam="1">  1        1 0.17508420E+00 0.23880903E+04</pdfrwt>
<pdfrwt beam="2">  1       -1 0.19273821E+00 0.23880903E+04</pdfrwt>
<totfact> 0.18005961E+00</totfact>
</mgrwt>
</event>
<event>
12    1  0.2404959E-007  0.3073654E+04  0.7818608E-02  0.8223006E-01
         -2   -1    0    0    0  501 -0.00000000000E+00  0.00000000000E+00  0.73597160880E+03  0.73597160880E+03  0.00000000000E+00 0.  1.
          2   -1    0    0  501    0  0.00000000000E+00 -0.00000000000E+00 -0.32091413198E+04  0.32091413198E+04  0.00000000000E+00 0. -1.
         23    2    1    2    0    0 -0.30062373585E+03 -0.63495765463E+03 -0.26905670409E+04  0.27823003172E+04  0.92185678600E+02 0.  0.
        254    2    1    2    0    0  0.30062373585E+03  0.63495765463E+03  0.21739732991E+03  0.11628126115E+04  0.90073620811E+03 0.  0.
        -24    2    4    4    0    0  0.36872106847E+03  0.46946990896E+03 -0.25279015981E+03  0.65327058894E+03  0.80637309793E+02 0.  0.
         24    2    4    4    0    0 -0.68097332619E+02  0.16548774567E+03  0.47018748972E+03  0.50954202252E+03  0.80829181325E+02 0.  0.
         13    1    3    3    0    0 -0.12718411249E+03 -0.32614519647E+03 -0.11844834766E+04  0.12351305980E+04  0.00000000000E+00 0.  1.
        -13    1    3    3    0    0 -0.17343962336E+03 -0.30881245816E+03 -0.15060835643E+04  0.15471697192E+04  0.00000000000E+00 0. -1.
          4    1    6    6  502    0 -0.64266536379E+02  0.15525957550E+03  0.34363334071E+03  0.38251744578E+03  0.00000000000E+00 0. -1.
          1    1    5    5  503    0  0.17666478503E+03  0.17126168192E+03 -0.12724207906E+03  0.27700461485E+03  0.00000000000E+00 0. -1.
         -2    1    5    5    0  503  0.19205628344E+03  0.29820822703E+03 -0.12554808075E+03  0.37626597409E+03  0.00000000000E+00 0.  1.
         -3    1    6    6    0  502 -0.38307962397E+01  0.10228170175E+02  0.12655414901E+03  0.12702457674E+03  0.00000000000E+00 0.  1.
<mgrwt>
<rscale>  0 0.30736538E+04</rscale>
<asrwt>0</asrwt>
<pdfrwt beam="1">  1        2 0.49371405E+00 0.30736538E+04</pdfrwt>
<pdfrwt beam="2">  1       -2 0.11322640E+00 0.30736538E+04</pdfrwt>
<totfact> 0.66596210E-01</totfact>
</mgrwt>
</event>
<event>
12    1  0.2404959E-007  0.3414562E+04  0.7818608E-02  0.8134342E-01
          1   -1    0    0  501    0  0.00000000000E+00  0.00000000000E+00  0.21617724496E+04  0.21617724496E+04  0.00000000000E+00 0. -1.
         -1   -1    0    0    0  501 -0.00000000000E+00 -0.00000000000E+00 -0.13483417871E+04  0.13483417871E+04  0.00000000000E+00 0.  1.
         23    2    1    2    0    0  0.11993201449E+04 -0.39089721262E+03 -0.60994653980E+03  0.14060892465E+04  0.11782506886E+03 0.  0.
        254    2    1    2    0    0 -0.11993201449E+04  0.39089721262E+03  0.14233772023E+04  0.21040249902E+04  0.89986057727E+03 0.  0.
        -24    2    4    4    0    0 -0.15009594432E+03 -0.17894921707E+03  0.60753101782E+03  0.65580705715E+03  0.80233059300E+02 0.  0.
         24    2    4    4    0    0 -0.10492242006E+04  0.56984642968E+03  0.81584618446E+03  0.14482179330E+04  0.78318633394E+02 0.  0.
         13    1    3    3    0    0  0.48398573368E+03 -0.20031703522E+03 -0.29914867108E+03  0.60320728810E+03  0.00000000000E+00 0.  1.
        -13    1    3    3    0    0  0.71533441122E+03 -0.19058017740E+03 -0.31079786872E+03  0.80288195838E+03  0.00000000000E+00 0. -1.
          4    1    6    6  502    0 -0.64777208589E+03  0.31039271443E+03  0.47517799701E+03  0.86124702686E+03  0.00000000000E+00 0. -1.
          3    1    5    5  503    0  0.69712334578E+01  0.20668526984E+01  0.19633278611E+02  0.20936465915E+02  0.00000000000E+00 0. -1.
         -4    1    5    5    0  503 -0.15706717777E+03 -0.18101606976E+03  0.58789773921E+03  0.63487059123E+03  0.00000000000E+00 0.  1.
         -3    1    6    6    0  502 -0.40145211469E+03  0.25945371525E+03  0.34066818745E+03  0.58697090617E+03  0.00000000000E+00 0.  1.
<mgrwt>
<rscale>  0 0.34145618E+04</rscale>
<asrwt>0</asrwt>
<pdfrwt beam="1">  1        1 0.33258038E+00 0.34145618E+04</pdfrwt>
<pdfrwt beam="2">  1       -1 0.20743720E+00 0.34145618E+04</pdfrwt>
<totfact> 0.25438422E-01</totfact>
</mgrwt>
</event>
<event>
12    1  0.2404959E-007  0.1137670E+04  0.7818608E-02  0.9169235E-01
         -1   -1    0    0    0  501 -0.00000000000E+00  0.00000000000E+00  0.33605369678E+03  0.33605369678E+03  0.00000000000E+00 0.  1.
          1   -1    0    0  501    0  0.00000000000E+00 -0.00000000000E+00 -0.96286118678E+03  0.96286118678E+03  0.00000000000E+00 0. -1.
         23    2    1    2    0    0  0.57105582046E+02 -0.15801265479E+03 -0.37860728314E+01  0.19202821894E+03  0.92905629255E+02 0.  0.
        254    2    1    2    0    0 -0.57105582046E+02  0.15801265479E+03 -0.62302141717E+03  0.11068866646E+04  0.89934051143E+03 0.  0.
        -24    2    4    4    0    0 -0.69397514903E+02  0.23873241359E+03 -0.83035678388E+03  0.87045034222E+03  0.79888856357E+02 0.  0.
         24    2    4    4    0    0  0.12291932857E+02 -0.80719758791E+02  0.20733536671E+03  0.23643632240E+03  0.79040554071E+02 0.  0.
         13    1    3    3    0    0  0.74865358928E+02 -0.71893908168E+02  0.29690502672E+01  0.10383819749E+03  0.00000000000E+00 0.  1.
        -13    1    3    3    0    0 -0.17759776882E+02 -0.86118746626E+02 -0.67551230986E+01  0.88190021451E+02  0.00000000000E+00 0. -1.
          2    1    6    6  502    0  0.22597038298E+02 -0.90440154779E+02  0.19960011584E+03  0.22029583287E+03  0.00000000000E+00 0. -1.
          3    1    5    5  503    0 -0.85183305326E+02  0.16876230475E+03 -0.62195976500E+03  0.65005450563E+03  0.00000000000E+00 0. -1.
         -2    1    5    5    0  503  0.15785790423E+02  0.69970108833E+02 -0.20839701888E+03  0.22039583659E+03  0.00000000000E+00 0.  1.
         -1    1    6    6    0  502 -0.10305105441E+02  0.97203959878E+01  0.77352508775E+01  0.16140489536E+02  0.00000000000E+00 0.  1.
<mgrwt>
<rscale>  0 0.11376697E+04</rscale>
<asrwt>0</asrwt>
<pdfrwt beam="1">  1        1 0.14813249E+00 0.11376697E+04</pdfrwt>
<pdfrwt beam="2">  1       -1 0.51700569E-01 0.11376697E+04</pdfrwt>
<totfact> 0.60566123E+01</totfact>
</mgrwt>
</event>
<event>
12    1  0.2404959E-007  0.2623114E+04  0.7818608E-02  0.8360392E-01
         -2   -1    0    0    0  501 -0.00000000000E+00  0.00000000000E+00  0.83578535056E+03  0.83578535056E+03  0.00000000000E+00 0.  1.
          2   -1    0    0  501    0  0.00000000000E+00 -0.00000000000E+00 -0.20581620109E+04  0.20581620109E+04  0.00000000000E+00 0. -1.
         23    2    1    2    0    0  0.79091925985E+03 -0.50479225649E+03  0.20328161449E+03  0.96427250466E+03  0.90164020740E+02 0.  0.
        254    2    1    2    0    0 -0.79091925985E+03  0.50479225649E+03 -0.14256582748E+04  0.19296748568E+04  0.90043047404E+03 0.  0.
        -24    2    4    4    0    0 -0.32690323124E+02 -0.16407951205E+03 -0.67101384468E+01  0.18553433359E+03  0.79920081850E+02 0.  0.
         24    2    4    4    0    0 -0.75822893672E+03  0.66887176854E+03 -0.14189481364E+04  0.17441405232E+04  0.79446760349E+02 0.  0.
         13    1    3    3    0    0  0.72391834813E+03 -0.45915046196E+03  0.21100316162E+03  0.88283591663E+03  0.00000000000E+00 0.  1.
        -13    1    3    3    0    0  0.67000911724E+02 -0.45641794527E+02 -0.77215471387E+01  0.81436588028E+02  0.00000000000E+00 0. -1.
          2    1    6    6  502    0 -0.72525842971E+03  0.65844193141E+03 -0.13739426066E+04  0.16873837303E+04  0.00000000000E+00 0. -1.
          1    1    5    5  503    0 -0.57921250043E+02 -0.94118301150E+02 -0.10869592706E+02  0.11104626902E+03  0.00000000000E+00 0. -1.
         -2    1    5    5    0  503  0.25230926919E+02 -0.69961210901E+02  0.41594542589E+01  0.74488064572E+02  0.00000000000E+00 0.  1.
         -1    1    6    6    0  502 -0.32970507015E+02  0.10429837129E+02 -0.45005529722E+02  0.56756792905E+02  0.00000000000E+00 0.  1.
<mgrwt>
<rscale>  0 0.26231139E+04</rscale>
<asrwt>0</asrwt>
<pdfrwt beam="1">  1        2 0.31664031E+00 0.26231139E+04</pdfrwt>
<pdfrwt beam="2">  1       -2 0.12858236E+00 0.26231139E+04</pdfrwt>
<totfact> 0.24444834E+00</totfact>
</mgrwt>
</event>
<event>
12    1  0.2404959E-007  0.2248400E+04  0.7818608E-02  0.8498549E-01
          2   -1    0    0  501    0  0.00000000000E+00  0.00000000000E+00  0.10841194966E+04  0.10841194966E+04  0.00000000000E+00 0. -1.
         -2   -1    0    0    0  501 -0.00000000000E+00 -0.00000000000E+00 -0.11657622503E+04  0.11657622503E+04  0.00000000000E+00 0.  1.
         23    2    1    2    0    0  0.87115726930E+03  0.33788431734E+03 -0.13364642939E+03  0.94804252757E+03  0.88557699996E+02 0.  0.
        254    2    1    2    0    0 -0.87115726930E+03 -0.33788431734E+03  0.52003675677E+02  0.13018392194E+04  0.90498628224E+03 0.  0.
        -24    2    4    4    0    0 -0.84344600725E+03 -0.58313350233E+03 -0.32824840474E+02  0.10290597887E+04  0.80254158063E+02 0.  0.
         24    2    4    4    0    0 -0.27711262057E+02  0.24524918499E+03  0.84828516152E+02  0.27277943067E+03  0.79357821668E+02 0.  0.
         13    1    3    3    0    0  0.73604226740E+03  0.28534457178E+03 -0.79985022347E+02  0.79345910281E+03  0.00000000000E+00 0. -1.
        -13    1    3    3    0    0  0.13511500191E+03  0.52539745559E+02 -0.53661407039E+02  0.15458342476E+03  0.00000000000E+00 0.  1.
          4    1    6    6  502    0 -0.14872136041E+02  0.24505139807E+03  0.85384678600E+02  0.25992674250E+03  0.00000000000E+00 0. -1.
          1    1    5    5  503    0 -0.42661383858E+03 -0.24699576820E+03 -0.85444829105E+01  0.49303071401E+03  0.00000000000E+00 0. -1.
         -2    1    5    5    0  503 -0.41683216867E+03 -0.33613773413E+03 -0.24280357564E+02  0.53602907468E+03  0.00000000000E+00 0.  1.
         -3    1    6    6    0  502 -0.12839126016E+02  0.19778692147E+00 -0.55616244835E+00  0.12852688170E+02  0.00000000000E+00 0.  1.
<mgrwt>
<rscale>  0 0.22484000E+04</rscale>
<asrwt>0</asrwt>
<pdfrwt beam="1">  1        2 0.16678762E+00 0.22484000E+04</pdfrwt>
<pdfrwt beam="2">  1       -2 0.17934804E+00 0.22484000E+04</pdfrwt>
<totfact> 0.37170944E+00</totfact>
</mgrwt>
</event>
<event>
12    1  0.2404959E-007  0.1734680E+04  0.7818608E-02  0.8741829E-01
         -1   -1    0    0    0  501 -0.00000000000E+00  0.00000000000E+00  0.22755088830E+03  0.22755088830E+03  0.00000000000E+00 0.  1.
          1   -1    0    0  501    0  0.00000000000E+00 -0.00000000000E+00 -0.33059780923E+04  0.33059780923E+04  0.00000000000E+00 0. -1.
         23    2    1    2    0    0  0.53845963349E+03  0.22753440370E+02 -0.17950504741E+04  0.18763639152E+04  0.89882377988E+02 0.  0.
        254    2    1    2    0    0 -0.53845963349E+03 -0.22753440370E+02 -0.12833767299E+04  0.16571650654E+04  0.89926843994E+03 0.  0.
        -24    2    4    4    0    0 -0.58549660745E+03  0.33331961062E+03 -0.88464124911E+03  0.11147701273E+04  0.78829290448E+02 0.  0.
         24    2    4    4    0    0  0.47036973960E+02 -0.35607305099E+03 -0.39873548079E+03  0.54239493802E+03  0.78751448172E+02 0.  0.
         11    1    3    3    0    0  0.66255163154E+02  0.25240223718E+02 -0.17267350678E+03  0.18666267833E+03  0.00000000000E+00 0.  1.
        -11    1    3    3    0    0  0.47220447034E+03 -0.24867833482E+01 -0.16223769673E+04  0.16897012369E+04  0.00000000000E+00 0. -1.
          4    1    6    6  502    0  0.27163283498E+02 -0.33743042304E+03 -0.35249381066E+03  0.48872182365E+03  0.00000000000E+00 0. -1.
          3    1    5    5  503    0 -0.10057910073E+03  0.93460948114E+02 -0.17506478971E+03  0.22248322391E+03  0.00000000000E+00 0. -1.
         -4    1    5    5    0  503 -0.48491750672E+03  0.23985866251E+03 -0.70957645941E+03  0.89228690344E+03  0.00000000000E+00 0.  1.
         -3    1    6    6    0  502  0.19873690461E+02 -0.18642627954E+02 -0.46241670129E+02  0.53673114368E+02  0.00000000000E+00 0.  1.
<mgrwt>
<rscale>  0 0.17346795E+04</rscale>
<asrwt>0</asrwt>
<pdfrwt beam="1">  1        1 0.50861202E+00 0.17346795E+04</pdfrwt>
<pdfrwt beam="2">  1       -1 0.35007829E-01 0.17346795E+04</pdfrwt>
<totfact> 0.26161503E+00</totfact>
</mgrwt>
</event>
<event>
12    1  0.2404959E-007  0.1387951E+04  0.7818608E-02  0.8962586E-01
          1   -1    0    0  501    0  0.00000000000E+00  0.00000000000E+00  0.88248788448E+03  0.88248788448E+03  0.00000000000E+00 0. -1.
         -1   -1    0    0    0  501 -0.00000000000E+00 -0.00000000000E+00 -0.54573234168E+03  0.54573234168E+03  0.00000000000E+00 0.  1.
         23    2    1    2    0    0 -0.16018498219E+01  0.27399772676E+03 -0.19142930187E+03  0.34610155003E+03  0.89798580855E+02 0.  0.
        254    2    1    2    0    0  0.16018498219E+01 -0.27399772676E+03  0.52818484467E+03  0.10821186761E+04  0.90383863544E+03 0.  0.
        -24    2    4    4    0    0 -0.34618783179E+03 -0.94424411302E+01  0.52832568647E+03  0.63683666211E+03  0.80608489947E+02 0.  0.
         24    2    4    4    0    0  0.34778968161E+03 -0.26455528563E+03 -0.14084180101E+00  0.44528201403E+03  0.85608938717E+02 0.  0.
         11    1    3    3    0    0  0.20808524075E+02  0.25695961053E+03 -0.15787053222E+03  0.30229843047E+03  0.00000000000E+00 0. -1.
        -11    1    3    3    0    0 -0.22410373897E+02  0.17038116229E+02 -0.33558769649E+02  0.43803119561E+02  0.00000000000E+00 0.  1.
          4    1    6    6  502    0  0.34214236653E+03 -0.23521667461E+03 -0.35425962117E+01  0.41521179292E+03  0.00000000000E+00 0. -1.
          1    1    5    5  503    0 -0.21779049613E+03 -0.44872763242E+02  0.32778520655E+03  0.39609267441E+03  0.00000000000E+00 0. -1.
         -4    1    5    5    0  503 -0.12839733565E+03  0.35430322112E+02  0.20054047992E+03  0.24074398770E+03  0.00000000000E+00 0.  1.
         -3    1    6    6    0  502  0.56473150750E+01 -0.29338611020E+02  0.34017544107E+01  0.30070221104E+02  0.00000000000E+00 0.  1.
<mgrwt>
<rscale>  0 0.13879513E+04</rscale>
<asrwt>0</asrwt>
<pdfrwt beam="1">  1        1 0.13576737E+00 0.13879513E+04</pdfrwt>
<pdfrwt beam="2">  1       -1 0.83958822E-01 0.13879513E+04</pdfrwt>
<totfact> 0.25826535E+01</totfact>
</mgrwt>
</event>
<event>
12    1  0.2404959E-007  0.1769771E+04  0.7818608E-02  0.8722542E-01
         -2   -1    0    0    0  501 -0.00000000000E+00  0.00000000000E+00  0.63607828908E+03  0.63607828908E+03  0.00000000000E+00 0.  1.
          2   -1    0    0  501    0  0.00000000000E+00 -0.00000000000E+00 -0.12310150170E+04  0.12310150170E+04  0.00000000000E+00 0. -1.
         23    2    1    2    0    0  0.29650803224E+03  0.35860048063E+03 -0.69924036119E+03  0.84491524491E+03  0.91833384308E+02 0.  0.
        254    2    1    2    0    0 -0.29650803224E+03 -0.35860048063E+03  0.10430363326E+03  0.10221780612E+04  0.90413352054E+03 0.  0.
        -24    2    4    4    0    0 -0.37910846379E+03  0.12712737501E+03 -0.18200403948E+03  0.44674545991E+03  0.81064411238E+02 0.  0.
         24    2    4    4    0    0  0.82600431556E+02 -0.48572785564E+03  0.28630767274E+03  0.57543260127E+03  0.79976334592E+02 0.  0.
         13    1    3    3    0    0  0.20455263194E+03  0.27732135573E+03 -0.57448865949E+03  0.66991501958E+03  0.00000000000E+00 0. -1.
        -13    1    3    3    0    0  0.91955400292E+02  0.81279124900E+02 -0.12475170170E+03  0.17500022533E+03  0.00000000000E+00 0.  1.
          4    1    6    6  502    0  0.62518632392E+01 -0.26807171381E+03  0.14320327699E+03  0.30398800648E+03  0.00000000000E+00 0. -1.
          1    1    5    5  503    0 -0.16570466796E+03  0.97922318454E+02 -0.91341124112E+02  0.21304933323E+03  0.00000000000E+00 0. -1.
         -2    1    5    5    0  503 -0.21340379583E+03  0.29205056560E+02 -0.90662915366E+02  0.23369612669E+03  0.00000000000E+00 0.  1.
         -3    1    6    6    0  502  0.76348568317E+02 -0.21765614183E+03  0.14310439575E+03  0.27144459479E+03  0.00000000000E+00 0.  1.
<mgrwt>
<rscale>  0 0.17697705E+04</rscale>
<asrwt>0</asrwt>
<pdfrwt beam="1">  1        2 0.18938692E+00 0.17697705E+04</pdfrwt>
<pdfrwt beam="2">  1       -2 0.97858199E-01 0.17697705E+04</pdfrwt>
<totfact> 0.14935888E+01</totfact>
</mgrwt>
</event>
<event>
12    1  0.2404959E-007  0.1940740E+04  0.7818608E-02  0.8634839E-01
          2   -1    0    0  501    0  0.00000000000E+00  0.00000000000E+00  0.27468684555E+04  0.27468684555E+04  0.00000000000E+00 0. -1.
         -2   -1    0    0    0  501 -0.00000000000E+00 -0.00000000000E+00 -0.34279690548E+03  0.34279690548E+03  0.00000000000E+00 0.  1.
         23    2    1    2    0    0 -0.43877167180E+03  0.47145783361E+03  0.15831181955E+04  0.17115089883E+04  0.90590988764E+02 0.  0.
        254    2    1    2    0    0  0.43877167180E+03 -0.47145783361E+03  0.82095335447E+03  0.13781563726E+04  0.90030967359E+03 0.  0.
        -24    2    4    4    0    0 -0.37597980711E+02 -0.59329197478E+03  0.53537731356E+03  0.80407608661E+03  0.80625738358E+02 0.  0.
         24    2    4    4    0    0  0.47636965251E+03  0.12183414117E+03  0.28557604091E+03  0.57408028602E+03  0.79011998265E+02 0.  0.
         11    1    3    3    0    0 -0.86846153181E+02  0.46128332053E+02  0.23946985002E+03  0.25887426757E+03  0.00000000000E+00 0.  1.
        -11    1    3    3    0    0 -0.35192551862E+03  0.42532950156E+03  0.13436483455E+04  0.14526347207E+04  0.00000000000E+00 0. -1.
          4    1    6    6  502    0  0.51983175887E+02  0.40297994978E+02  0.34091790881E+02  0.74083933346E+02  0.00000000000E+00 0. -1.
          3    1    5    5  503    0  0.15290915817E+02 -0.64458869958E+02  0.82613978504E+02  0.10589536093E+03  0.00000000000E+00 0. -1.
         -4    1    5    5    0  503 -0.52888896528E+02 -0.52883310482E+03  0.45276333506E+03  0.69818072568E+03  0.00000000000E+00 0.  1.
         -3    1    6    6    0  502  0.42438647662E+03  0.81536146192E+02  0.25148425003E+03  0.49999635267E+03  0.00000000000E+00 0.  1.
<mgrwt>
<rscale>  0 0.19407401E+04</rscale>
<asrwt>0</asrwt>
<pdfrwt beam="1">  1        2 0.42259513E+00 0.19407401E+04</pdfrwt>
<pdfrwt beam="2">  1       -2 0.52737987E-01 0.19407401E+04</pdfrwt>
<totfact> 0.78946480E+00</totfact>
</mgrwt>
</event>
<event>
12    1  0.2404959E-007  0.1768986E+04  0.7818608E-02  0.8722968E-01
         -2   -1    0    0    0  501 -0.00000000000E+00  0.00000000000E+00  0.29364936327E+03  0.29364936327E+03  0.00000000000E+00 0. -1.
          2   -1    0    0  501    0  0.00000000000E+00 -0.00000000000E+00 -0.26641566494E+04  0.26641566494E+04  0.00000000000E+00 0.  1.
         23    2    1    2    0    0 -0.53131808077E+03  0.28961144665E+03 -0.47600056514E+03  0.77511123791E+03  0.89706187929E+02 0.  0.
        254    2    1    2    0    0  0.53131808077E+03 -0.28961144665E+03 -0.18945067210E+04  0.21826947747E+04  0.89934813662E+03 0.  0.
        -24    2    4    4    0    0 -0.12983637956E+03 -0.38023524593E+03 -0.77281926034E+03  0.87473981231E+03  0.80522061455E+02 0.  0.
         24    2    4    4    0    0  0.66115446032E+03  0.90623799286E+02 -0.11216874606E+04  0.13079549624E+04  0.85003123357E+02 0.  0.
         11    1    3    3    0    0 -0.20553341023E+03  0.67453622490E+02 -0.14669642133E+03  0.26136911435E+03  0.00000000000E+00 0.  1.
        -11    1    3    3    0    0 -0.32578467054E+03  0.22215782416E+03 -0.32930414381E+03  0.51374212356E+03  0.00000000000E+00 0. -1.
          2    1    6    6  502    0  0.13742789503E+03 -0.13503309901E+02 -0.20768618983E+03  0.24940392771E+03  0.00000000000E+00 0. -1.
          1    1    5    5  503    0 -0.12048928861E+03 -0.28178447013E+03 -0.63528694758E+03  0.70534364819E+03  0.00000000000E+00 0. -1.
         -2    1    5    5    0  503 -0.93470909470E+01 -0.98450775803E+02 -0.13753231276E+03  0.16939616412E+03  0.00000000000E+00 0.  1.
         -1    1    6    6    0  502  0.52372656529E+03  0.10412710919E+03 -0.91400127079E+03  0.10585510347E+04  0.00000000000E+00 0.  1.
<mgrwt>
<rscale>  0 0.17689860E+04</rscale>
<asrwt>0</asrwt>
<pdfrwt beam="1">  1        2 0.40987025E+00 0.17689860E+04</pdfrwt>
<pdfrwt beam="2">  1       -2 0.45176826E-01 0.17689860E+04</pdfrwt>
<totfact> 0.12290279E+01</totfact>
</mgrwt>
</event>
<event>
12    1  0.2404959E-007  0.1884292E+04  0.7818608E-02  0.8662715E-01
          2   -1    0    0  501    0  0.00000000000E+00  0.00000000000E+00  0.20043463941E+04  0.20043463941E+04  0.00000000000E+00 0. -1.
         -2   -1    0    0    0  501 -0.00000000000E+00 -0.00000000000E+00 -0.44285730838E+03  0.44285730838E+03  0.00000000000E+00 0.  1.
         23    2    1    2    0    0 -0.46458603521E+03 -0.45812753664E+03  0.19865435276E+03  0.68811135786E+03  0.91173817500E+02 0.  0.
        254    2    1    2    0    0  0.46458603521E+03  0.45812753664E+03  0.13628347329E+04  0.17590923446E+04  0.90075875994E+03 0.  0.
        -24    2    4    4    0    0  0.66796129722E+03  0.12798521022E+03  0.10558570345E+04  0.12584556734E+04  0.79524184245E+02 0.  0.
         24    2    4    4    0    0 -0.20337526200E+03  0.33014232642E+03  0.30697769841E+03  0.50063667123E+03  0.77758063076E+02 0.  0.
         11    1    3    3    0    0 -0.22613842867E+03 -0.25325131687E+03  0.61168062104E+02  0.34498746389E+03  0.00000000000E+00 0.  1.
        -11    1    3    3    0    0 -0.23844760655E+03 -0.20487621976E+03  0.13748629066E+03  0.34312389397E+03  0.00000000000E+00 0. -1.
          4    1    6    6  502    0 -0.92145328641E+02  0.13416925584E+03  0.82149180344E+02  0.18232015422E+03  0.00000000000E+00 0. -1.
          3    1    5    5  503    0  0.25460155011E+03  0.16924779442E+02  0.43607308364E+03  0.50524066716E+03  0.00000000000E+00 0. -1.
         -4    1    5    5    0  503  0.41335974711E+03  0.11106043077E+03  0.61978395089E+03  0.75321500622E+03  0.00000000000E+00 0.  1.
         -3    1    6    6    0  502 -0.11122993336E+03  0.19597307058E+03  0.22482851807E+03  0.31831651701E+03  0.00000000000E+00 0.  1.
<mgrwt>
<rscale>  0 0.18842924E+04</rscale>
<asrwt>0</asrwt>
<pdfrwt beam="1">  1        2 0.30836098E+00 0.18842924E+04</pdfrwt>
<pdfrwt beam="2">  1       -2 0.68131895E-01 0.18842924E+04</pdfrwt>
<totfact> 0.12284836E+01</totfact>
</mgrwt>
</event>
<event>
12    1  0.2404959E-007  0.4316063E+04  0.7818608E-02  0.7943655E-01
          1   -1    0    0  501    0  0.00000000000E+00  0.00000000000E+00  0.23405295192E+04  0.23405295192E+04  0.00000000000E+00 0. -1.
         -1   -1    0    0    0  501 -0.00000000000E+00 -0.00000000000E+00 -0.19897635122E+04  0.19897635122E+04  0.00000000000E+00 0.  1.
         23    2    1    2    0    0 -0.11351717877E+04  0.15276312539E+04  0.96723235802E+03  0.21368290961E+04  0.90707860779E+02 0.  0.
        254    2    1    2    0    0  0.11351717877E+04 -0.15276312539E+04 -0.61646635099E+03  0.21934639353E+04  0.89943373201E+03 0.  0.
        -24    2    4    4    0    0  0.88306616243E+02 -0.36380185189E+03 -0.48912882868E+03  0.62094086684E+03  0.78553823307E+02 0.  0.
         24    2    4    4    0    0  0.10468651714E+04 -0.11638294020E+04 -0.12733752231E+03  0.15725230685E+04  0.78666334637E+02 0.  0.
         13    1    3    3    0    0 -0.63032664679E+03  0.89255035196E+03  0.59563432183E+03  0.12444830484E+04  0.00000000000E+00 0. -1.
        -13    1    3    3    0    0 -0.50484514088E+03  0.63508090196E+03  0.37159803619E+03  0.89234604768E+03  0.00000000000E+00 0.  1.
          2    1    6    6  502    0  0.22228741191E+03 -0.20098490253E+03 -0.26211736683E+02  0.30082167422E+03  0.00000000000E+00 0. -1.
          1    1    5    5  503    0  0.41628264331E+02 -0.28768095007E+03 -0.34204393107E+03  0.44887335876E+03  0.00000000000E+00 0. -1.
         -2    1    5    5    0  503  0.46678351912E+02 -0.76120901814E+02 -0.14708489761E+03  0.17206750808E+03  0.00000000000E+00 0.  1.
         -1    1    6    6    0  502  0.82457775952E+03 -0.96284449951E+03 -0.10112578562E+03  0.12717013943E+04  0.00000000000E+00 0.  1.
<mgrwt>
<rscale>  0 0.43160631E+04</rscale>
<asrwt>0</asrwt>
<pdfrwt beam="1">  1        1 0.36008147E+00 0.43160631E+04</pdfrwt>
<pdfrwt beam="2">  1       -1 0.30611746E+00 0.43160631E+04</pdfrwt>
<totfact> 0.40132086E-02</totfact>
</mgrwt>
</event>
<event>
12    1  0.2404959E-007  0.2528028E+04  0.7818608E-02  0.8393068E-01
          2   -1    0    0  501    0  0.00000000000E+00  0.00000000000E+00  0.23227315353E+04  0.23227315353E+04  0.00000000000E+00 0. -1.
         -2   -1    0    0    0  501 -0.00000000000E+00 -0.00000000000E+00 -0.68786763696E+03  0.68786763696E+03  0.00000000000E+00 0.  1.
         23    2    1    2    0    0 -0.27523431190E+03 -0.27780007265E+03  0.19413053081E+04  0.19826846027E+04  0.97186046301E+02 0.  0.
        254    2    1    2    0    0  0.27523431190E+03  0.27780007265E+03 -0.30644140976E+03  0.10279145696E+04  0.89987511242E+03 0.  0.
        -24    2    4    4    0    0 -0.23310138726E+03  0.47796626613E+02  0.15926784822E+03  0.29661122624E+03  0.77402828093E+02 0.  0.
         24    2    4    4    0    0  0.50833569916E+03  0.23000344604E+03 -0.46570925798E+03  0.73130334336E+03  0.81318502266E+02 0.  0.
         11    1    3    3    0    0 -0.86676324673E+02 -0.66205557500E+02  0.76395445706E+03  0.77170096123E+03  0.00000000000E+00 0. -1.
        -11    1    3    3    0    0 -0.18855798723E+03 -0.21159451515E+03  0.11773508511E+04  0.12109836415E+04  0.00000000000E+00 0.  1.
          2    1    6    6  502    0  0.43732422363E+03  0.21401246951E+03 -0.43273381667E+03  0.65139263871E+03  0.00000000000E+00 0. -1.
          1    1    5    5  503    0 -0.15485777761E+03  0.10618646185E+02  0.13732481102E+03  0.20724813788E+03  0.00000000000E+00 0. -1.
         -2    1    5    5    0  503 -0.78243609644E+02  0.37177980428E+02  0.21943037200E+02  0.89363088355E+02  0.00000000000E+00 0.  1.
         -1    1    6    6    0  502  0.71011475532E+02  0.15990976527E+02 -0.32975441305E+02  0.79910704645E+02  0.00000000000E+00 0.  1.
<mgrwt>
<rscale>  0 0.25280284E+04</rscale>
<asrwt>0</asrwt>
<pdfrwt beam="1">  1        2 0.35734331E+00 0.25280284E+04</pdfrwt>
<pdfrwt beam="2">  1       -2 0.10582579E+00 0.25280284E+04</pdfrwt>
<totfact> 0.28243114E+00</totfact>
</mgrwt>
</event>
<event>
12    1  0.2404959E-007  0.1129575E+04  0.7818608E-02  0.9176836E-01
         -1   -1    0    0    0  501 -0.00000000000E+00  0.00000000000E+00  0.11749677005E+04  0.11749677005E+04  0.00000000000E+00 0.  1.
          1   -1    0    0  501    0  0.00000000000E+00 -0.00000000000E+00 -0.27148405782E+03  0.27148405782E+03  0.00000000000E+00 0. -1.
         23    2    1    2    0    0  0.51872694229E+01 -0.11561296161E+03 -0.23929718802E+02  0.14857647778E+03  0.90050395071E+02 0.  0.
        254    2    1    2    0    0 -0.51872694229E+01  0.11561296161E+03  0.92741336144E+03  0.12978752805E+04  0.90055062940E+03 0.  0.
        -24    2    4    4    0    0  0.35736640647E+03  0.74438194699E+02  0.83263127752E+03  0.91237742253E+03  0.76850006807E+02 0.  0.
         24    2    4    4    0    0 -0.36255367590E+03  0.41174766906E+02  0.94782083928E+02  0.38549785798E+03  0.80525932065E+02 0.  0.
         13    1    3    3    0    0  0.22582555906E+02 -0.96913141720E+02  0.16388330691E+02  0.10084991945E+03  0.00000000000E+00 0.  1.
        -13    1    3    3    0    0 -0.17395286483E+02 -0.18699819885E+02 -0.40318049493E+02  0.47726558335E+02  0.00000000000E+00 0. -1.
          2    1    6    6  502    0 -0.25195528899E+03  0.61743165845E+02  0.83113472058E+02  0.27239958777E+03  0.00000000000E+00 0. -1.
          3    1    5    5  503    0  0.27635719512E+03  0.31568376121E+02  0.57076514599E+03  0.63493520421E+03  0.00000000000E+00 0. -1.
         -4    1    5    5    0  503  0.81009211350E+02  0.42869818578E+02  0.26186613153E+03  0.27744221833E+03  0.00000000000E+00 0.  1.
         -1    1    6    6    0  502 -0.11059838690E+03 -0.20568398939E+02  0.11668611870E+02  0.11309827021E+03  0.00000000000E+00 0.  1.
<mgrwt>
<rscale>  0 0.11295751E+04</rscale>
<asrwt>0</asrwt>
<pdfrwt beam="1">  1        1 0.41766779E-01 0.11295751E+04</pdfrwt>
<pdfrwt beam="2">  1       -1 0.18076426E+00 0.11295751E+04</pdfrwt>
<totfact> 0.20417591E+01</totfact>
</mgrwt>
</event>
<event>
12    1  0.2404959E-007  0.1465591E+04  0.7818608E-02  0.8907663E-01
         -2   -1    0    0    0  501 -0.00000000000E+00  0.00000000000E+00  0.55595533412E+03  0.55595533412E+03  0.00000000000E+00 0.  1.
          2   -1    0    0  501    0  0.00000000000E+00 -0.00000000000E+00 -0.96588528246E+03  0.96588528246E+03  0.00000000000E+00 0. -1.
         23    2    1    2    0    0  0.16823149471E+03  0.36635349452E+03  0.77286797666E+02  0.42132369033E+03  0.94993074387E+02 0.  0.
        254    2    1    2    0    0 -0.16823149471E+03 -0.36635349452E+03 -0.48721674601E+03  0.11005169262E+04  0.90068897440E+03 0.  0.
        -24    2    4    4    0    0 -0.85667315566E+02 -0.19895859542E+03  0.24759916313E+03  0.33797885109E+03  0.77465776673E+02 0.  0.
         24    2    4    4    0    0 -0.82564179140E+02 -0.16739489910E+03 -0.73481590914E+03  0.76253807515E+03  0.81682310296E+02 0.  0.
         13    1    3    3    0    0  0.12382160762E+03  0.22476581730E+03  0.91069329150E+02  0.27229595269E+03  0.00000000000E+00 0.  1.
        -13    1    3    3    0    0  0.44409887090E+02  0.14158767723E+03 -0.13782531484E+02  0.14902773765E+03  0.00000000000E+00 0. -1.
          4    1    6    6  502    0 -0.64465962623E+01 -0.10382495920E+03 -0.40395084390E+03  0.41713003374E+03  0.00000000000E+00 0. -1.
          3    1    5    5  503    0 -0.61284438745E+02 -0.19571869429E+03  0.22668639252E+03  0.30569316362E+03  0.00000000000E+00 0. -1.
         -4    1    5    5    0  503 -0.24382876821E+02 -0.32399011317E+01  0.20912770606E+02  0.32285687477E+02  0.00000000000E+00 0.  1.
         -3    1    6    6    0  502 -0.76117582878E+02 -0.63569939906E+02 -0.33086506524E+03  0.34540804142E+03  0.00000000000E+00 0.  1.
<mgrwt>
<rscale>  0 0.14655908E+04</rscale>
<asrwt>0</asrwt>
<pdfrwt beam="1">  1        2 0.14859774E+00 0.14655908E+04</pdfrwt>
<pdfrwt beam="2">  1       -2 0.85531590E-01 0.14655908E+04</pdfrwt>
<totfact> 0.30507260E+01</totfact>
</mgrwt>
</event>
<event>
12    1  0.2404959E-007  0.1626609E+04  0.7818608E-02  0.8804366E-01
          2   -1    0    0  501    0  0.00000000000E+00  0.00000000000E+00  0.24464991778E+04  0.24464991778E+04  0.00000000000E+00 0. -1.
         -2   -1    0    0    0  501 -0.00000000000E+00 -0.00000000000E+00 -0.27037185038E+03  0.27037185038E+03  0.00000000000E+00 0.  1.
         23    2    1    2    0    0 -0.48449429571E+03 -0.18739597312E+03  0.11053933808E+04  0.12249086124E+04  0.93030151190E+02 0.  0.
        254    2    1    2    0    0  0.48449429571E+03  0.18739597312E+03  0.10707339466E+04  0.14919624158E+04  0.89979369436E+03 0.  0.
        -24    2    4    4    0    0  0.69928550881E+03  0.10137524152E+03  0.49553564230E+03  0.86696304552E+03  0.82414726195E+02 0.  0.
         24    2    4    4    0    0 -0.21479121310E+03  0.86020731599E+02  0.57519830433E+03  0.62499937029E+03  0.78970197322E+02 0.  0.
         11    1    3    3    0    0 -0.10028550182E+03 -0.54257058439E+02  0.33365540337E+03  0.35260025307E+03  0.00000000000E+00 0. -1.
        -11    1    3    3    0    0 -0.38420879389E+03 -0.13313891468E+03  0.77173797742E+03  0.87230835930E+03  0.00000000000E+00 0.  1.
          4    1    6    6  502    0 -0.19648825914E+02  0.36731647615E+02  0.12767166655E+03  0.13429573611E+03  0.00000000000E+00 0. -1.
          3    1    5    5  503    0  0.71474672441E+02 -0.71766937470E+01  0.73264811553E+02  0.10260539141E+03  0.00000000000E+00 0. -1.
         -4    1    5    5    0  503  0.62781083637E+03  0.10855193527E+03  0.42227083074E+03  0.76435765412E+03  0.00000000000E+00 0.  1.
         -3    1    6    6    0  502 -0.19514238718E+03  0.49289083983E+02  0.44752663778E+03  0.49070363418E+03  0.00000000000E+00 0.  1.
<mgrwt>
<rscale>  0 0.16266094E+04</rscale>
<asrwt>0</asrwt>
<pdfrwt beam="1">  1        2 0.37638447E+00 0.16266094E+04</pdfrwt>
<pdfrwt beam="2">  1       -2 0.41595671E-01 0.16266094E+04</pdfrwt>
<totfact> 0.19623924E+01</totfact>
</mgrwt>
</event>
<event>
12    1  0.2404959E-007  0.1150413E+04  0.7818608E-02  0.9157403E-01
         -2   -1    0    0    0  501 -0.00000000000E+00  0.00000000000E+00  0.14420856273E+04  0.14420856273E+04  0.00000000000E+00 0.  1.
          2   -1    0    0  501    0  0.00000000000E+00 -0.00000000000E+00 -0.22943336020E+03  0.22943336020E+03  0.00000000000E+00 0. -1.
         23    2    1    2    0    0  0.86183994409E+02  0.60950579455E+02 -0.37622891109E+02  0.12849095545E+03  0.62863261687E+02 0.  0.
        254    2    1    2    0    0 -0.86183994409E+02 -0.60950579455E+02  0.12502751582E+04  0.15430280321E+04  0.89811184295E+03 0.  0.
        -24    2    4    4    0    0  0.25303359033E+02  0.20959353497E+03 -0.29283992840E+02  0.22773433929E+03  0.80222610117E+02 0.  0.
         24    2    4    4    0    0 -0.11148735344E+03 -0.27054411443E+03  0.12795591511E+04  0.13152936928E+04  0.84275318812E+02 0.  0.
         13    1    3    3    0    0  0.40229007095E+02  0.51204921996E+02 -0.47355679387E+02  0.80516317717E+02  0.00000000000E+00 0. -1.
        -13    1    3    3    0    0  0.45954987314E+02  0.97456574592E+01  0.97327882778E+01  0.47974637737E+02  0.00000000000E+00 0.  1.
          4    1    6    6  502    0 -0.28603497300E+02 -0.33787064989E+02  0.33823909483E+03  0.34112374747E+03  0.00000000000E+00 0. -1.
          3    1    5    5  503    0  0.47860721416E+02  0.72621103979E+02 -0.13666136713E+02  0.88041107957E+02  0.00000000000E+00 0. -1.
         -2    1    5    5    0  503 -0.22557362383E+02  0.13697243100E+03 -0.15617856127E+02  0.13969323133E+03  0.00000000000E+00 0.  1.
         -3    1    6    6    0  502 -0.82883856142E+02 -0.23675704944E+03  0.94132005624E+03  0.97416994531E+03  0.00000000000E+00 0.  1.
<mgrwt>
<rscale>  0 0.11504131E+04</rscale>
<asrwt>0</asrwt>
<pdfrwt beam="1">  1        2 0.35297441E-01 0.11504131E+04</pdfrwt>
<pdfrwt beam="2">  1       -2 0.22185932E+00 0.11504131E+04</pdfrwt>
<totfact> 0.14125446E+01</totfact>
</mgrwt>
</event>
<event>
12    1  0.2404959E-007  0.3181399E+04  0.7818608E-02  0.8193747E-01
          1   -1    0    0  501    0  0.00000000000E+00  0.00000000000E+00  0.11949804184E+04  0.11949804184E+04  0.00000000000E+00 0. -1.
         -1   -1    0    0    0  501 -0.00000000000E+00 -0.00000000000E+00 -0.21174613588E+04  0.21174613588E+04  0.00000000000E+00 0.  1.
         23    2    1    2    0    0  0.72543563104E+02 -0.14596374352E+04 -0.42566745399E+03  0.15249085555E+04  0.91374562179E+02 0.  0.
        254    2    1    2    0    0 -0.72543563104E+02  0.14596374352E+04 -0.49681348636E+03  0.17875332216E+04  0.90146955986E+03 0.  0.
        -24    2    4    4    0    0  0.25419757169E+03  0.40069731026E+03 -0.47565752633E+03  0.67633436918E+03  0.77481331152E+02 0.  0.
         24    2    4    4    0    0 -0.32674113479E+03  0.10589401249E+04 -0.21155960031E+02  0.11111988524E+04  0.78748699164E+02 0.  0.
         11    1    3    3    0    0 -0.12654450176E+02 -0.60700702676E+03 -0.19116360183E+03  0.63652273196E+03  0.00000000000E+00 0. -1.
        -11    1    3    3    0    0  0.85198013280E+02 -0.85263040845E+03 -0.23450385215E+03  0.88838582359E+03  0.00000000000E+00 0.  1.
          2    1    6    6  502    0 -0.13943384585E+03  0.46554450053E+03  0.29592524805E+02  0.48687698330E+03  0.00000000000E+00 0. -1.
          3    1    5    5  503    0  0.12840073603E+03  0.20820024873E+03 -0.29927687406E+03  0.38652391897E+03  0.00000000000E+00 0. -1.
         -4    1    5    5    0  503  0.12579683565E+03  0.19249706153E+03 -0.17638065227E+03  0.28981045021E+03  0.00000000000E+00 0.  1.
         -1    1    6    6    0  502 -0.18730728894E+03  0.59339562442E+03 -0.50748484835E+02  0.62432186914E+03  0.00000000000E+00 0.  1.
<mgrwt>
<rscale>  0 0.31813990E+04</rscale>
<asrwt>0</asrwt>
<pdfrwt beam="1">  1        1 0.18384314E+00 0.31813990E+04</pdfrwt>
<pdfrwt beam="2">  1       -1 0.32576328E+00 0.31813990E+04</pdfrwt>
<totfact> 0.20260359E-01</totfact>
</mgrwt>
</event>
<event>
12    1  0.2404959E-007  0.4245196E+04  0.7818608E-02  0.7956830E-01
          2   -1    0    0  501    0  0.00000000000E+00  0.00000000000E+00  0.21004009933E+04  0.21004009933E+04  0.00000000000E+00 0. -1.
         -2   -1    0    0    0  501 -0.00000000000E+00 -0.00000000000E+00 -0.21450294742E+04  0.21450294742E+04  0.00000000000E+00 0.  1.
         23    2    1    2    0    0 -0.14825815883E+04  0.74886165583E+03  0.11391618523E+04  0.20160852216E+04  0.89821765101E+02 0.  0.
        254    2    1    2    0    0  0.14825815883E+04 -0.74886165583E+03 -0.11837903332E+04  0.22293452459E+04  0.89987706225E+03 0.  0.
        -24    2    4    4    0    0  0.66915988876E+03 -0.81025612800E+03 -0.52427301091E+03  0.11773244438E+04  0.83310900784E+02 0.  0.
         24    2    4    4    0    0  0.81342169950E+03  0.61394472173E+02 -0.65951732230E+03  0.10520208022E+04  0.79752914611E+02 0.  0.
         11    1    3    3    0    0 -0.11612114345E+04  0.55760179168E+03  0.91534068783E+03  0.15802469201E+04  0.00000000000E+00 0.  1.
        -11    1    3    3    0    0 -0.32137015376E+03  0.19125986415E+03  0.22382116447E+03  0.43583830147E+03  0.00000000000E+00 0. -1.
          2    1    6    6  502    0  0.72868313352E+03  0.48634107099E+02 -0.61848390714E+03  0.95700926267E+03  0.00000000000E+00 0. -1.
          1    1    5    5  503    0  0.68390786764E+02 -0.10706961457E+03 -0.39170218240E+02  0.13294926880E+03  0.00000000000E+00 0. -1.
         -2    1    5    5    0  503  0.60076910199E+03 -0.70318651343E+03 -0.48510279267E+03  0.10443751749E+04  0.00000000000E+00 0.  1.
         -1    1    6    6    0  502  0.84738565978E+02  0.12760365074E+02 -0.41033415159E+02  0.95011539512E+02  0.00000000000E+00 0.  1.
<mgrwt>
<rscale>  0 0.42451959E+04</rscale>
<asrwt>0</asrwt>
<pdfrwt beam="1">  1        2 0.32313862E+00 0.42451959E+04</pdfrwt>
<pdfrwt beam="2">  1       -2 0.33000453E+00 0.42451959E+04</pdfrwt>
<totfact> 0.94281231E-02</totfact>
</mgrwt>
</event>
<event>
12    1  0.2404959E-007  0.2195504E+04  0.7818608E-02  0.8520302E-01
         -1   -1    0    0    0  501 -0.00000000000E+00  0.00000000000E+00  0.78540898933E+03  0.78540898933E+03  0.00000000000E+00 0. -1.
          1   -1    0    0  501    0  0.00000000000E+00 -0.00000000000E+00 -0.15343086057E+04  0.15343086057E+04  0.00000000000E+00 0.  1.
         23    2    1    2    0    0  0.83322216798E+03  0.19671922475E+03  0.15342060026E+02  0.86133528854E+03  0.93303086157E+02 0.  0.
        254    2    1    2    0    0 -0.83322216798E+03 -0.19671922475E+03 -0.76424167644E+03  0.14583823065E+04  0.89991998386E+03 0.  0.
        -24    2    4    4    0    0 -0.44848528214E+02 -0.35564306433E+03 -0.32776075193E+02  0.36816363969E+03  0.77309862238E+02 0.  0.
         24    2    4    4    0    0 -0.78837363977E+03  0.15892383958E+03 -0.73146560124E+03  0.10902186668E+04  0.82128149984E+02 0.  0.
         13    1    3    3    0    0  0.60270713117E+03  0.99165182462E+02  0.55422518049E+01  0.61083576838E+03  0.00000000000E+00 0.  1.
        -13    1    3    3    0    0  0.23051503681E+03  0.97554042285E+02  0.97998082213E+01  0.25049952017E+03  0.00000000000E+00 0. -1.
          2    1    6    6  502    0 -0.83540583700E+02  0.41257857261E+02 -0.98856634917E+02  0.13584503737E+03  0.00000000000E+00 0. -1.
          3    1    5    5  503    0 -0.84198456772E+01 -0.12537239307E+01  0.50606123307E+01  0.99033035945E+01  0.00000000000E+00 0. -1.
         -4    1    5    5    0  503 -0.36428682537E+02 -0.35438934040E+03 -0.37836687523E+02  0.35826033610E+03  0.00000000000E+00 0.  1.
         -1    1    6    6    0  502 -0.70483305607E+03  0.11766598232E+03 -0.63260896633E+03  0.95437362945E+03  0.00000000000E+00 0.  1.
<mgrwt>
<rscale>  0 0.21955043E+04</rscale>
<asrwt>0</asrwt>
<pdfrwt beam="1">  1        1 0.23604748E+00 0.21955043E+04</pdfrwt>
<pdfrwt beam="2">  1       -1 0.12083215E+00 0.21955043E+04</pdfrwt>
<totfact> 0.34381417E+00</totfact>
</mgrwt>
</event>
<event>
12    1  0.2404959E-007  0.1831303E+04  0.7818608E-02  0.8689828E-01
          1   -1    0    0  501    0  0.00000000000E+00  0.00000000000E+00  0.72197653628E+03  0.72197653628E+03  0.00000000000E+00 0. -1.
         -1   -1    0    0    0  501 -0.00000000000E+00 -0.00000000000E+00 -0.11612813772E+04  0.11612813772E+04  0.00000000000E+00 0.  1.
         23    2    1    2    0    0 -0.39725538341E+03  0.56098171038E+03 -0.22405680375E+03  0.72939773930E+03  0.96474306183E+02 0.  0.
        254    2    1    2    0    0  0.39725538341E+03 -0.56098171038E+03 -0.21524803717E+03  0.11538601742E+04  0.90141514578E+03 0.  0.
        -24    2    4    4    0    0  0.34404153717E+03 -0.91400960598E+02 -0.48271955696E+03  0.60507506675E+03  0.79868334364E+02 0.  0.
         24    2    4    4    0    0  0.53213846244E+02 -0.46958074979E+03  0.26747151979E+03  0.54878510744E+03  0.79286103711E+02 0.  0.
         11    1    3    3    0    0 -0.39104315434E+03  0.52663802415E+03 -0.22762088272E+03  0.69431521896E+03  0.00000000000E+00 0.  1.
        -11    1    3    3    0    0 -0.62122290772E+01  0.34343686235E+02  0.35640789710E+01  0.35082520337E+02  0.00000000000E+00 0. -1.
          4    1    6    6  502    0  0.33189948544E+02 -0.19797389252E+03  0.70816931186E+02  0.21286209749E+03  0.00000000000E+00 0. -1.
          1    1    5    5  503    0  0.54826347162E+02 -0.21442130790E+02 -0.38272772738E+02  0.70217508137E+02  0.00000000000E+00 0. -1.
         -2    1    5    5    0  503  0.28921519001E+03 -0.69958829808E+02 -0.44444678422E+03  0.53485755861E+03  0.00000000000E+00 0.  1.
         -1    1    6    6    0  502  0.20023897700E+02 -0.27160685726E+03  0.19665458861E+03  0.33592300995E+03  0.00000000000E+00 0.  1.
<mgrwt>
<rscale>  0 0.18313033E+04</rscale>
<asrwt>0</asrwt>
<pdfrwt beam="1">  1        1 0.11107331E+00 0.18313033E+04</pdfrwt>
<pdfrwt beam="2">  1       -1 0.17865867E+00 0.18313033E+04</pdfrwt>
<totfact> 0.52030064E+00</totfact>
</mgrwt>
</event>
<event>
12    1  0.2404959E-007  0.3059319E+04  0.7818608E-02  0.8226992E-01
         -1   -1    0    0    0  501 -0.00000000000E+00  0.00000000000E+00  0.86106431650E+03  0.86106431650E+03  0.00000000000E+00 0.  1.
          1   -1    0    0  501    0  0.00000000000E+00 -0.00000000000E+00 -0.27174025474E+04  0.27174025474E+04  0.00000000000E+00 0. -1.
         23    2    1    2    0    0  0.93281909800E+03 -0.97950722422E+03 -0.44723736967E+03  0.14275887997E+04  0.91665938610E+02 0.  0.
        254    2    1    2    0    0 -0.93281909800E+03  0.97950722422E+03 -0.14091008613E+04  0.21508780642E+04  0.90062497083E+03 0.  0.
        -24    2    4    4    0    0 -0.52650079818E+03  0.10628784442E+04 -0.91006402748E+03  0.14971699894E+04  0.79923498739E+02 0.  0.
         24    2    4    4    0    0 -0.40631829982E+03 -0.83371219939E+02 -0.49903683379E+03  0.65370807479E+03  0.79064305956E+02 0.  0.
         11    1    3    3    0    0  0.18819013460E+03 -0.16964753324E+03 -0.11590622691E+03  0.27862172516E+03  0.00000000000E+00 0. -1.
        -11    1    3    3    0    0  0.74462896340E+03 -0.80985969098E+03 -0.33133114276E+03  0.11489670745E+04  0.00000000000E+00 0.  1.
          4    1    6    6  502    0 -0.95032318925E+02 -0.14185567471E+01 -0.16076002552E+03  0.18675368738E+03  0.00000000000E+00 0. -1.
          3    1    5    5  503    0 -0.20934437998E+03  0.38563988194E+03 -0.29298874114E+03  0.52762258330E+03  0.00000000000E+00 0. -1.
         -4    1    5    5    0  503 -0.31715641820E+03  0.67723856222E+03 -0.61707528633E+03  0.96954740615E+03  0.00000000000E+00 0.  1.
         -3    1    6    6    0  502 -0.31128598090E+03 -0.81952663192E+02 -0.33827680827E+03  0.46695438741E+03  0.00000000000E+00 0.  1.
<mgrwt>
<rscale>  0 0.30593191E+04</rscale>
<asrwt>0</asrwt>
<pdfrwt beam="1">  1        1 0.41806194E+00 0.30593191E+04</pdfrwt>
<pdfrwt beam="2">  1       -1 0.13247143E+00 0.30593191E+04</pdfrwt>
<totfact> 0.39031450E-01</totfact>
</mgrwt>
</event>
<event>
12    1  0.2404959E-007  0.1140851E+04  0.7818608E-02  0.9166266E-01
         -2   -1    0    0    0  501 -0.00000000000E+00  0.00000000000E+00  0.66297025692E+03  0.66297025692E+03  0.00000000000E+00 0. -1.
          2   -1    0    0  501    0  0.00000000000E+00 -0.00000000000E+00 -0.49079905127E+03  0.49079905127E+03  0.00000000000E+00 0.  1.
         23    2    1    2    0    0  0.95736061082E+02 -0.12511696212E+03  0.12085843884E+03  0.21954016318E+03  0.93656144528E+02 0.  0.
        254    2    1    2    0    0 -0.95736061082E+02  0.12511696212E+03  0.51312766803E+02  0.93422914501E+03  0.91941908168E+03 0.  0.
        -24    2    4    4    0    0 -0.45926744743E+03  0.25501802645E+03 -0.26707121832E+02  0.53210366652E+03  0.80375739402E+02 0.  0.
         24    2    4    4    0    0  0.36353138634E+03 -0.12990106433E+03  0.78019888635E+02  0.40212547850E+03  0.81169218689E+02 0.  0.
         11    1    3    3    0    0  0.44297881569E+02 -0.45073182487E+02  0.10575941470E+03  0.12320287289E+03  0.00000000000E+00 0. -1.
        -11    1    3    3    0    0  0.51438179512E+02 -0.80043779630E+02  0.15099024135E+02  0.96337290282E+02  0.00000000000E+00 0.  1.
          2    1    6    6  502    0  0.23484433456E+03 -0.11427450253E+03  0.26063540689E+02  0.26246872491E+03  0.00000000000E+00 0. -1.
          1    1    5    5  503    0 -0.35492755536E+03  0.20174086588E+03 -0.53999611889E+02  0.41181173442E+03  0.00000000000E+00 0. -1.
         -4    1    5    5    0  503 -0.10433989207E+03  0.53277160572E+02  0.27292490056E+02  0.12029193210E+03  0.00000000000E+00 0.  1.
         -1    1    6    6    0  502  0.12868705179E+03 -0.15626561806E+02  0.51956347947E+02  0.13965675359E+03  0.00000000000E+00 0.  1.
<mgrwt>
<rscale>  0 0.11408509E+04</rscale>
<asrwt>0</asrwt>
<pdfrwt beam="1">  1        2 0.75507546E-01 0.11408509E+04</pdfrwt>
<pdfrwt beam="2">  1       -2 0.10199542E+00 0.11408509E+04</pdfrwt>
<totfact> 0.49120981E+01</totfact>
</mgrwt>
</event>
<event>
12    1  0.2404959E-007  0.2001602E+04  0.7818608E-02  0.8605872E-01
         -1   -1    0    0    0  501 -0.00000000000E+00  0.00000000000E+00  0.88091446847E+03  0.88091446847E+03  0.00000000000E+00 0.  1.
          1   -1    0    0  501    0  0.00000000000E+00 -0.00000000000E+00 -0.11370036473E+04  0.11370036473E+04  0.00000000000E+00 0. -1.
         23    2    1    2    0    0  0.66044832659E+03 -0.44179716309E+03 -0.13916313652E+03  0.81173002595E+03  0.90346726818E+02 0.  0.
        254    2    1    2    0    0 -0.66044832659E+03  0.44179716309E+03 -0.11692604235E+03  0.12061880899E+04  0.89991181976E+03 0.  0.
        -24    2    4    4    0    0 -0.47420781218E+02 -0.25154256704E+03 -0.67972508746E+02  0.27600497619E+03  0.77692286684E+02 0.  0.
         24    2    4    4    0    0 -0.61302754537E+03  0.69333973013E+03 -0.48953533599E+02  0.93018311367E+03  0.79507381717E+02 0.  0.
         13    1    3    3    0    0  0.24050841489E+03 -0.18732108533E+03 -0.14851296404E+02  0.30521148020E+03  0.00000000000E+00 0.  1.
        -13    1    3    3    0    0  0.41993991170E+03 -0.25447607776E+03 -0.12431184012E+03  0.50651854575E+03  0.00000000000E+00 0. -1.
          4    1    6    6  502    0 -0.20609146862E+03  0.22359372517E+03 -0.53020507740E+02  0.30867300111E+03  0.00000000000E+00 0. -1.
          3    1    5    5  503    0 -0.41763854793E+02 -0.65679025560E+02  0.54160827248E+00  0.77834743561E+02  0.00000000000E+00 0. -1.
         -4    1    5    5    0  503 -0.56569264251E+01 -0.18586354148E+03 -0.68514117019E+02  0.19817023263E+03  0.00000000000E+00 0.  1.
         -3    1    6    6    0  502 -0.40693607675E+03  0.46974600496E+03  0.40669741406E+01  0.62151011256E+03  0.00000000000E+00 0.  1.
<mgrwt>
<rscale>  0 0.20016023E+04</rscale>
<asrwt>0</asrwt>
<pdfrwt beam="1">  1        1 0.17492364E+00 0.20016023E+04</pdfrwt>
<pdfrwt beam="2">  1       -1 0.13552530E+00 0.20016023E+04</pdfrwt>
<totfact> 0.50318991E+00</totfact>
</mgrwt>
</event>
<event>
12    1  0.2404959E-007  0.1254067E+04  0.7818608E-02  0.9066805E-01
         -2   -1    0    0    0  501 -0.00000000000E+00  0.00000000000E+00  0.29566805886E+03  0.29566805886E+03  0.00000000000E+00 0.  1.
          2   -1    0    0  501    0  0.00000000000E+00 -0.00000000000E+00 -0.13297708416E+04  0.13297708416E+04  0.00000000000E+00 0. -1.
         23    2    1    2    0    0  0.22121855277E+03  0.12494611837E+03 -0.64036059111E+02  0.27746821932E+03  0.91317113855E+02 0.  0.
        254    2    1    2    0    0 -0.22121855277E+03 -0.12494611837E+03 -0.97006672363E+03  0.13479706811E+04  0.90080315736E+03 0.  0.
        -24    2    4    4    0    0  0.33750484315E+03 -0.13070855573E+02 -0.47684826915E+03  0.59021747001E+03  0.83018213040E+02 0.  0.
         24    2    4    4    0    0 -0.55872339592E+03 -0.11187526280E+03 -0.49321845448E+03  0.75775321112E+03  0.78978335951E+02 0.  0.
         11    1    3    3    0    0  0.49774013928E+02 -0.10293264426E+02 -0.39094965628E+01  0.50977327494E+02  0.00000000000E+00 0.  1.
        -11    1    3    3    0    0  0.17144453884E+03  0.13523938280E+03 -0.60126562548E+02  0.22649089183E+03  0.00000000000E+00 0. -1.
          2    1    6    6  502    0 -0.36084444862E+03 -0.11032062733E+03 -0.31906396059E+03  0.49414690919E+03  0.00000000000E+00 0. -1.
          3    1    5    5  503    0  0.32866362077E+03 -0.16784665417E+02 -0.47823743614E+03  0.58052781668E+03  0.00000000000E+00 0. -1.
         -4    1    5    5    0  503  0.88412223755E+01  0.37138098439E+01  0.13891669920E+01  0.96896533262E+01  0.00000000000E+00 0.  1.
         -1    1    6    6    0  502 -0.19787894729E+03 -0.15546354711E+01 -0.17415449389E+03  0.26360630193E+03  0.00000000000E+00 0.  1.
<mgrwt>
<rscale>  0 0.12540666E+04</rscale>
<asrwt>0</asrwt>
<pdfrwt beam="1">  1        2 0.20458013E+00 0.12540666E+04</pdfrwt>
<pdfrwt beam="2">  1       -2 0.45487394E-01 0.12540666E+04</pdfrwt>
<totfact> 0.71550841E+01</totfact>
</mgrwt>
</event>
