<event>
12    1  0.1494110E-007  0.2156587E+04  0.7818608E-02  0.8536718E-01
          2   -1    0    0  501    0  0.00000000000E+00  0.00000000000E+00  0.25235286572E+04  0.25235286572E+04  0.00000000000E+00 0. -1.
         -2   -1    0    0    0  501 -0.00000000000E+00 -0.00000000000E+00 -0.46075030275E+03  0.46075030275E+03  0.00000000000E+00 0.  1.
         23    2    1    2    0    0 -0.48681572736E+03 -0.67280432463E+03  0.43003618920E+03  0.93967176006E+03  0.91633405429E+02 0.  0.
        254    2    1    2    0    0  0.48681572736E+03  0.67280432463E+03  0.16327421652E+04  0.20446071999E+04  0.90824909135E+03 0.  0.
        -24    2    4    4    0    0 -0.93468336337E+02  0.26268507373E+03  0.32650587683E+02  0.29200894300E+03  0.80395174374E+02 0.  0.
         24    2    4    4    0    0  0.58028406370E+03  0.41011925090E+03  0.16000915775E+04  0.17525982569E+04  0.79876146894E+02 0.  0.
         11    1    3    3    0    0 -0.56111325777E+00  0.11576719501E+01  0.70303505729E+01  0.71470890305E+01  0.00000000000E+00 0. -1.
        -11    1    3    3    0    0 -0.48625461411E+03 -0.67396199658E+03  0.42300583863E+03  0.93252467103E+03  0.00000000000E+00 0.  1.
          2    1    6    6  502    0  0.50944886863E+03  0.38923196992E+03  0.14428181848E+04  0.15788489448E+04  0.00000000000E+00 0. -1.
          1    1    5    5  503    0 -0.92472984743E+02  0.26738502420E+03  0.37240680987E+02  0.28536445538E+03  0.00000000000E+00 0. -1.
         -2    1    5    5    0  503 -0.99535159393E+00 -0.46999504745E+01 -0.45900933038E+01  0.66444876248E+01  0.00000000000E+00 0.  1.
         -1    1    6    6    0  502  0.70835195067E+02  0.20887280985E+02  0.15727339273E+03  0.17374931202E+03  0.00000000000E+00 0.  1.
<mgrwt>
<rscale>  0 0.21565867E+04</rscale>
<asrwt>0</asrwt>
<pdfrwt beam="1">  1        2 0.38823517E+00 0.21565867E+04</pdfrwt>
<pdfrwt beam="2">  1       -2 0.70884663E-01 0.21565867E+04</pdfrwt>
<totfact> 0.55972522E+00</totfact>
</mgrwt>
</event>
<event>
12    1  0.1494110E-007  0.1569874E+04  0.7818608E-02  0.8839272E-01
         -1   -1    0    0    0  501 -0.00000000000E+00  0.00000000000E+00  0.27810023286E+03  0.27810023286E+03  0.00000000000E+00 0.  1.
          1   -1    0    0  501    0  0.00000000000E+00 -0.00000000000E+00 -0.22154814991E+04  0.22154814991E+04  0.00000000000E+00 0. -1.
         23    2    1    2    0    0 -0.19091420414E+03  0.52547224003E+02  0.11419830986E+03  0.24641016844E+03  0.92017786563E+02 0.  0.
        254    2    1    2    0    0  0.19091420414E+03 -0.52547224003E+02 -0.20515795761E+04  0.22471715635E+04  0.89531661141E+03 0.  0.
        -24    2    4    4    0    0  0.11062794271E+03 -0.37721917274E+03 -0.42410958928E+03  0.58375611707E+03  0.79808611680E+02 0.  0.
         24    2    4    4    0    0  0.80286261429E+02  0.32467194874E+03 -0.16274699868E+04  0.16634154464E+04  0.80216154260E+02 0.  0.
         13    1    3    3    0    0 -0.33409588408E+02  0.47464146350E+02  0.14138418772E+02  0.59740611578E+02  0.00000000000E+00 0. -1.
        -13    1    3    3    0    0 -0.15750461573E+03  0.50830776526E+01  0.10005989109E+03  0.18666955687E+03  0.00000000000E+00 0.  1.
          4    1    6    6  502    0  0.55569875508E+02  0.96496583664E+02 -0.43250087044E+03  0.44660564780E+03  0.00000000000E+00 0. -1.
          1    1    5    5  503    0  0.42240366410E+02 -0.26348146489E+03 -0.30696835750E+03  0.40673861803E+03  0.00000000000E+00 0. -1.
         -2    1    5    5    0  503  0.68387576301E+02 -0.11373770785E+03 -0.11714123179E+03  0.17701749903E+03  0.00000000000E+00 0.  1.
         -3    1    6    6    0  502  0.24716385921E+02  0.22817536508E+03 -0.11949691164E+04  0.12168097986E+04  0.00000000000E+00 0.  1.
<mgrwt>
<rscale>  0 0.15698738E+04</rscale>
<asrwt>0</asrwt>
<pdfrwt beam="1">  1        1 0.34084330E+00 0.15698738E+04</pdfrwt>
<pdfrwt beam="2">  1       -1 0.42784652E-01 0.15698738E+04</pdfrwt>
<totfact> 0.11014936E+01</totfact>
</mgrwt>
</event>
<event>
12    1  0.1494110E-007  0.1449136E+04  0.7818608E-02  0.8918999E-01
         -2   -1    0    0    0  501 -0.00000000000E+00  0.00000000000E+00  0.13335877269E+04  0.13335877269E+04  0.00000000000E+00 0.  1.
          2   -1    0    0  501    0  0.00000000000E+00 -0.00000000000E+00 -0.39367420272E+03  0.39367420272E+03  0.00000000000E+00 0. -1.
         23    2    1    2    0    0 -0.24756522932E+03  0.18174677483E+03 -0.78582555102E+02  0.32836538439E+03  0.85604759030E+02 0.  0.
        254    2    1    2    0    0  0.24756522932E+03 -0.18174677483E+03  0.10184960793E+04  0.13988965453E+04  0.90843648533E+03 0.  0.
        -24    2    4    4    0    0 -0.11913239871E+03  0.44880112614E+02  0.94212615524E+03  0.95383319348E+03  0.77390669138E+02 0.  0.
         24    2    4    4    0    0  0.36669762802E+03 -0.22662688744E+03  0.76369924065E+02  0.44506335178E+03  0.80138163761E+02 0.  0.
         11    1    3    3    0    0 -0.47685682599E+02  0.24511957693E+02  0.17661556963E+02  0.56450783778E+02  0.00000000000E+00 0.  1.
        -11    1    3    3    0    0 -0.19987954672E+03  0.15723481714E+03 -0.96244112064E+02  0.27191460061E+03  0.00000000000E+00 0. -1.
          4    1    6    6  502    0  0.30043713694E+03 -0.17387931922E+03  0.29777290510E+02  0.34840088681E+03  0.00000000000E+00 0. -1.
          3    1    5    5  503    0 -0.10075132862E+03  0.37269413191E+02  0.50714964360E+03  0.51840196796E+03  0.00000000000E+00 0. -1.
         -4    1    5    5    0  503 -0.18381070089E+02  0.76106994231E+01  0.43497651164E+03  0.43543122553E+03  0.00000000000E+00 0.  1.
         -3    1    6    6    0  502  0.66260491082E+02 -0.52747568228E+02  0.46592633555E+02  0.96662464970E+02  0.00000000000E+00 0.  1.
<mgrwt>
<rscale>  0 0.14491364E+04</rscale>
<asrwt>0</asrwt>
<pdfrwt beam="1">  1        2 0.60565263E-01 0.14491364E+04</pdfrwt>
<pdfrwt beam="2">  1       -2 0.20516734E+00 0.14491364E+04</pdfrwt>
<totfact> 0.96535109E+00</totfact>
</mgrwt>
</event>
<event>
12    1  0.1494110E-007  0.1861409E+04  0.7818608E-02  0.8674308E-01
          1   -1    0    0  501    0  0.00000000000E+00  0.00000000000E+00  0.63103294352E+03  0.63103294352E+03  0.00000000000E+00 0. -1.
         -1   -1    0    0    0  501 -0.00000000000E+00 -0.00000000000E+00 -0.13726874536E+04  0.13726874536E+04  0.00000000000E+00 0.  1.
         23    2    1    2    0    0 -0.61701766404E+03 -0.26222971484E+02 -0.65289710916E+03  0.90291589217E+03  0.87086343517E+02 0.  0.
        254    2    1    2    0    0  0.61701766404E+03  0.26222971484E+02 -0.88757400929E+02  0.11008045050E+04  0.90691468174E+03 0.  0.
        -24    2    4    4    0    0 -0.44072597828E+02 -0.20334210554E+03 -0.29258486302E+03  0.36758494803E+03  0.78882103070E+02 0.  0.
         24    2    4    4    0    0  0.66109026187E+03  0.22956507703E+03  0.20382746209E+03  0.73321955693E+03  0.79528771139E+02 0.  0.
         13    1    3    3    0    0 -0.58434660761E+03 -0.10961168563E+02 -0.63369590078E+03  0.86206241057E+03  0.00000000000E+00 0.  1.
        -13    1    3    3    0    0 -0.32671056426E+02 -0.15261802921E+02 -0.19201208374E+02  0.40853481607E+02  0.00000000000E+00 0. -1.
          2    1    6    6  502    0  0.19863258144E+03  0.10220845516E+03  0.85304147356E+02  0.23911977808E+03  0.00000000000E+00 0. -1.
          1    1    5    5  503    0  0.21540854086E+02 -0.79477909906E+02 -0.10827727532E+03  0.13603203633E+03  0.00000000000E+00 0. -1.
         -2    1    5    5    0  503 -0.65613451914E+02 -0.12386419564E+03 -0.18430758769E+03  0.23155291170E+03  0.00000000000E+00 0.  1.
         -1    1    6    6    0  502  0.46245768043E+03  0.12735662187E+03  0.11852331473E+03  0.49409977885E+03  0.00000000000E+00 0.  1.
<mgrwt>
<rscale>  0 0.18614091E+04</rscale>
<asrwt>0</asrwt>
<pdfrwt beam="1">  1        1 0.97081992E-01 0.18614091E+04</pdfrwt>
<pdfrwt beam="2">  1       -1 0.21118268E+00 0.18614091E+04</pdfrwt>
<totfact> 0.37687742E+00</totfact>
</mgrwt>
</event>
<event>
12    1  0.1494110E-007  0.2477916E+04  0.7818608E-02  0.8410895E-01
          2   -1    0    0  501    0  0.00000000000E+00  0.00000000000E+00  0.15577684205E+04  0.15577684205E+04  0.00000000000E+00 0.  1.
         -2   -1    0    0    0  501 -0.00000000000E+00 -0.00000000000E+00 -0.98539509439E+03  0.98539509439E+03  0.00000000000E+00 0. -1.
         23    2    1    2    0    0  0.57605070002E+03 -0.31594515457E+03  0.11193391812E+04  0.13013313259E+04  0.94272305243E+02 0.  0.
        254    2    1    2    0    0 -0.57605070002E+03  0.31594515457E+03 -0.54696585513E+03  0.12418321889E+04  0.90073291774E+03 0.  0.
        -24    2    4    4    0    0 -0.41497392176E+03  0.62607738758E+03 -0.34377941603E+03  0.82991594272E+03  0.79999588192E+02 0.  0.
         24    2    4    4    0    0 -0.16107677826E+03 -0.31013223300E+03 -0.20318643910E+03  0.41191624622E+03  0.79136176441E+02 0.  0.
         11    1    3    3    0    0  0.56176741973E+03 -0.28876538384E+03  0.10831988049E+04  0.12539089806E+04  0.00000000000E+00 0.  1.
        -11    1    3    3    0    0  0.14283280293E+02 -0.27179770731E+02  0.36140376325E+02  0.47422345301E+02  0.00000000000E+00 0. -1.
          2    1    6    6  502    0 -0.86983998422E+02 -0.10607340353E+03 -0.49111458511E+02  0.14570421502E+03  0.00000000000E+00 0. -1.
          3    1    5    5  503    0 -0.76997896919E+01  0.40407263932E+02 -0.10008821138E+02  0.42334504134E+02  0.00000000000E+00 0. -1.
         -4    1    5    5    0  503 -0.40727413207E+03  0.58567012365E+03 -0.33377059489E+03  0.78758143858E+03  0.00000000000E+00 0.  1.
         -1    1    6    6    0  502 -0.74092779838E+02 -0.20405882947E+03 -0.15407498059E+03  0.26621203120E+03  0.00000000000E+00 0.  1.
<mgrwt>
<rscale>  0 0.24779164E+04</rscale>
<asrwt>0</asrwt>
<pdfrwt beam="1">  1        2 0.23965668E+00 0.24779164E+04</pdfrwt>
<pdfrwt beam="2">  1       -2 0.15159925E+00 0.24779164E+04</pdfrwt>
<totfact> 0.30657098E+00</totfact>
</mgrwt>
</event>
<event>
12    1  0.1494110E-007  0.1762107E+04  0.7818608E-02  0.8726714E-01
          2   -1    0    0  501    0  0.00000000000E+00  0.00000000000E+00  0.80835179489E+03  0.80835179489E+03  0.00000000000E+00 0. -1.
         -2   -1    0    0    0  501 -0.00000000000E+00 -0.00000000000E+00 -0.96029399688E+03  0.96029399688E+03  0.00000000000E+00 0.  1.
         23    2    1    2    0    0 -0.40723366906E+03  0.26539651423E+03  0.37404282343E+03  0.61977131116E+03  0.89072293042E+02 0.  0.
        254    2    1    2    0    0  0.40723366906E+03 -0.26539651423E+03 -0.52598502543E+03  0.11488744806E+04  0.89831940547E+03 0.  0.
        -24    2    4    4    0    0 -0.82492523979E+02 -0.46444484118E+03 -0.32254226418E+03  0.57717237707E+03  0.81119748887E+02 0.  0.
         24    2    4    4    0    0  0.48972619304E+03  0.19904832694E+03 -0.20344276125E+03  0.57170210354E+03  0.77474882929E+02 0.  0.
         11    1    3    3    0    0 -0.88323314728E+02  0.35910122795E+02  0.11398904991E+03  0.14860702656E+03  0.00000000000E+00 0.  1.
        -11    1    3    3    0    0 -0.31891035433E+03  0.22948639144E+03  0.26005377352E+03  0.47116428460E+03  0.00000000000E+00 0. -1.
          4    1    6    6  502    0  0.42490290126E+03  0.18741303484E+03 -0.15371383989E+03  0.48917692678E+03  0.00000000000E+00 0. -1.
          1    1    5    5  503    0 -0.61436447288E+02 -0.38657923191E+03 -0.22837563669E+03  0.45318138866E+03  0.00000000000E+00 0. -1.
         -2    1    5    5    0  503 -0.21056076691E+02 -0.77865609268E+02 -0.94166627490E+02  0.12399098840E+03  0.00000000000E+00 0.  1.
         -3    1    6    6    0  502  0.64823291783E+02  0.11635292104E+02 -0.49728921358E+02  0.82525176761E+02  0.00000000000E+00 0.  1.
<mgrwt>
<rscale>  0 0.17621071E+04</rscale>
<asrwt>0</asrwt>
<pdfrwt beam="1">  1        2 0.12436181E+00 0.17621071E+04</pdfrwt>
<pdfrwt beam="2">  1       -2 0.14773754E+00 0.17621071E+04</pdfrwt>
<totfact> 0.10030309E+01</totfact>
</mgrwt>
</event>
<event>
12    1  0.1494110E-007  0.1280356E+04  0.7818608E-02  0.9045290E-01
         -1   -1    0    0    0  501 -0.00000000000E+00  0.00000000000E+00  0.23403607655E+03  0.23403607655E+03  0.00000000000E+00 0.  1.
          1   -1    0    0  501    0  0.00000000000E+00 -0.00000000000E+00 -0.17511310221E+04  0.17511310221E+04  0.00000000000E+00 0. -1.
         23    2    1    2    0    0 -0.26868360206E+03 -0.11103429721E+03 -0.19266050477E+03  0.36039535413E+03  0.90814360152E+02 0.  0.
        254    2    1    2    0    0  0.26868360206E+03  0.11103429721E+03 -0.13244344408E+04  0.16247717446E+04  0.89511850652E+03 0.  0.
        -24    2    4    4    0    0  0.13289798352E+03  0.28953046250E+03 -0.54708611477E+02  0.33293042174E+03  0.79748798205E+02 0.  0.
         24    2    4    4    0    0  0.13578561854E+03 -0.17849616529E+03 -0.12697258293E+04  0.12918413228E+04  0.79697593498E+02 0.  0.
         13    1    3    3    0    0 -0.90620124484E+02 -0.39313105158E+02 -0.11930790524E+03  0.15489320015E+03  0.00000000000E+00 0. -1.
        -13    1    3    3    0    0 -0.17806347757E+03 -0.71721192051E+02 -0.73352599529E+02  0.20550215398E+03  0.00000000000E+00 0.  1.
          4    1    6    6  502    0  0.92004158339E+02 -0.16630702191E+03 -0.94227278885E+03  0.96124960301E+03  0.00000000000E+00 0. -1.
          1    1    5    5  503    0  0.93845296047E+02  0.26516338979E+03 -0.37414134238E+02  0.28375760838E+03  0.00000000000E+00 0. -1.
         -2    1    5    5    0  503  0.39052687469E+02  0.24367072715E+02 -0.17294477240E+02  0.49172813365E+02  0.00000000000E+00 0.  1.
         -3    1    6    6    0  502  0.43781460202E+02 -0.12189143383E+02 -0.32745304049E+03  0.33059171980E+03  0.00000000000E+00 0.  1.
<mgrwt>
<rscale>  0 0.12803559E+04</rscale>
<asrwt>0</asrwt>
<pdfrwt beam="1">  1        1 0.26940478E+00 0.12803559E+04</pdfrwt>
<pdfrwt beam="2">  1       -1 0.36005549E-01 0.12803559E+04</pdfrwt>
<totfact> 0.31925401E+01</totfact>
</mgrwt>
</event>
<event>
12    1  0.1494110E-007  0.1706816E+04  0.7818608E-02  0.8757487E-01
         -2   -1    0    0    0  501 -0.00000000000E+00  0.00000000000E+00  0.36463834222E+03  0.36463834222E+03  0.00000000000E+00 0.  1.
          2   -1    0    0  501    0  0.00000000000E+00 -0.00000000000E+00 -0.19973354047E+04  0.19973354047E+04  0.00000000000E+00 0. -1.
         23    2    1    2    0    0 -0.60658175628E+03  0.23308731330E+02 -0.45571945348E+03  0.76435313370E+03  0.89837457147E+02 0.  0.
        254    2    1    2    0    0  0.60658175628E+03 -0.23308731330E+02 -0.11769776090E+04  0.15976206132E+04  0.89366134955E+03 0.  0.
        -24    2    4    4    0    0  0.54789814389E+03  0.13739277870E+03 -0.12660762587E+04  0.13886500928E+04  0.79566549510E+02 0.  0.
         24    2    4    4    0    0  0.58683612389E+02 -0.16070151003E+03  0.89098649670E+02  0.20897052039E+03  0.80382630791E+02 0.  0.
         13    1    3    3    0    0 -0.27026663325E+03  0.12248765025E+02 -0.25921165401E+03  0.37467955225E+03  0.00000000000E+00 0. -1.
        -13    1    3    3    0    0 -0.33631512303E+03  0.11059966305E+02 -0.19650779947E+03  0.38967358145E+03  0.00000000000E+00 0.  1.
          2    1    6    6  502    0 -0.12817333991E+02 -0.77784082445E+02  0.28468999024E+02  0.83816057160E+02  0.00000000000E+00 0. -1.
          3    1    5    5  503    0  0.78446478841E+02  0.11906689642E+02 -0.12055809037E+03  0.14432557796E+03  0.00000000000E+00 0. -1.
         -4    1    5    5    0  503  0.46945166505E+03  0.12548608906E+03 -0.11455181683E+04  0.12443245149E+04  0.00000000000E+00 0.  1.
         -1    1    6    6    0  502  0.71500946380E+02 -0.82917427582E+02  0.60629650646E+02  0.12515446323E+03  0.00000000000E+00 0.  1.
<mgrwt>
<rscale>  0 0.17068158E+04</rscale>
<asrwt>0</asrwt>
<pdfrwt beam="1">  1        2 0.30728238E+00 0.17068158E+04</pdfrwt>
<pdfrwt beam="2">  1       -2 0.56098206E-01 0.17068158E+04</pdfrwt>
<totfact> 0.19023371E+01</totfact>
</mgrwt>
</event>
<event>
12    1  0.1494110E-007  0.1851575E+04  0.7818608E-02  0.8679344E-01
          2   -1    0    0  501    0  0.00000000000E+00  0.00000000000E+00  0.16342941501E+04  0.16342941501E+04  0.00000000000E+00 0.  1.
         -2   -1    0    0    0  501 -0.00000000000E+00 -0.00000000000E+00 -0.52443560416E+03  0.52443560416E+03  0.00000000000E+00 0. -1.
         23    2    1    2    0    0 -0.32435682475E+03 -0.47450044079E+03 -0.56412027490E+02  0.58455807107E+03  0.90375901262E+02 0.  0.
        254    2    1    2    0    0  0.32435682475E+03  0.47450044079E+03  0.11662705734E+04  0.15741716832E+04  0.88739586410E+03 0.  0.
        -24    2    4    4    0    0  0.49881414111E+03  0.34729271871E+02  0.88031295429E+03  0.10155650819E+04  0.79999177384E+02 0.  0.
         24    2    4    4    0    0 -0.17445731636E+03  0.43977116892E+03  0.28595761911E+03  0.55860660126E+03  0.80221810002E+02 0.  0.
         11    1    3    3    0    0 -0.42998118222E+02 -0.13000602258E+03 -0.18029417947E+02  0.13811395291E+03  0.00000000000E+00 0.  1.
        -11    1    3    3    0    0 -0.28135870653E+03 -0.34449441821E+03 -0.38382609543E+02  0.44644411815E+03  0.00000000000E+00 0. -1.
          4    1    6    6  502    0 -0.58537318020E+02  0.98868788874E+02  0.10487425269E+03  0.15556434004E+03  0.00000000000E+00 0. -1.
          1    1    5    5  503    0  0.22069298338E+03 -0.23808697104E+02  0.37218319349E+03  0.43335040843E+03  0.00000000000E+00 0. -1.
         -2    1    5    5    0  503  0.27812115774E+03  0.58537968975E+02  0.50812976080E+03  0.58221467347E+03  0.00000000000E+00 0.  1.
         -3    1    6    6    0  502 -0.11591999834E+03  0.34090238005E+03  0.18108336642E+03  0.40304226122E+03  0.00000000000E+00 0.  1.
<mgrwt>
<rscale>  0 0.18515745E+04</rscale>
<asrwt>0</asrwt>
<pdfrwt beam="1">  1        2 0.25142987E+00 0.18515745E+04</pdfrwt>
<pdfrwt beam="2">  1       -2 0.80682402E-01 0.18515745E+04</pdfrwt>
<totfact> 0.13603561E+01</totfact>
</mgrwt>
</event>
<event>
12    1  0.1494110E-007  0.1956974E+04  0.7818608E-02  0.8627005E-01
          1   -1    0    0  501    0  0.00000000000E+00  0.00000000000E+00  0.21983689571E+04  0.21983689571E+04  0.00000000000E+00 0.  1.
         -1   -1    0    0    0  501 -0.00000000000E+00 -0.00000000000E+00 -0.43552151459E+03  0.43552151459E+03  0.00000000000E+00 0. -1.
         23    2    1    2    0    0  0.50235214086E+03  0.21697409945E+03  0.14469681225E+04  0.15496647331E+04  0.91151544894E+02 0.  0.
        254    2    1    2    0    0 -0.50235214086E+03 -0.21697409945E+03  0.31587931999E+03  0.10842257386E+04  0.88109606411E+03 0.  0.
        -24    2    4    4    0    0 -0.46680222438E+03 -0.26951093430E+02 -0.20970277654E+03  0.51854298515E+03  0.79252096756E+02 0.  0.
         24    2    4    4    0    0 -0.35549916474E+02 -0.19002300602E+03  0.52558209653E+03  0.56568275344E+03  0.79924326559E+02 0.  0.
         13    1    3    3    0    0  0.14192204146E+03  0.79269314862E+02  0.32862605923E+03  0.36663411862E+03  0.00000000000E+00 0. -1.
        -13    1    3    3    0    0  0.36043009939E+03  0.13770478458E+03  0.11183420633E+04  0.11830306145E+04  0.00000000000E+00 0.  1.
          4    1    6    6  502    0 -0.54277964174E+01 -0.60778290303E+02  0.27964510669E+03  0.28622516878E+03  0.00000000000E+00 0. -1.
          3    1    5    5  503    0 -0.40613070529E+03 -0.33722535252E+02 -0.20783647942E+03  0.45746624066E+03  0.00000000000E+00 0. -1.
         -4    1    5    5    0  503 -0.60671519094E+02  0.67714418226E+01 -0.18662971145E+01  0.61076744498E+02  0.00000000000E+00 0.  1.
         -3    1    6    6    0  502 -0.30122120057E+02 -0.12924471571E+03  0.24593698983E+03  0.27945758466E+03  0.00000000000E+00 0.  1.
<mgrwt>
<rscale>  0 0.19569742E+04</rscale>
<asrwt>0</asrwt>
<pdfrwt beam="1">  1        1 0.33821060E+00 0.19569742E+04</pdfrwt>
<pdfrwt beam="2">  1       -1 0.67003311E-01 0.19569742E+04</pdfrwt>
<totfact> 0.45892778E+00</totfact>
</mgrwt>
</event>
<event>
12    1  0.1494110E-007  0.1172103E+04  0.7818608E-02  0.9137631E-01
         -2   -1    0    0    0  501 -0.00000000000E+00  0.00000000000E+00  0.11665904179E+03  0.11665904179E+03  0.00000000000E+00 0.  1.
          2   -1    0    0  501    0  0.00000000000E+00 -0.00000000000E+00 -0.29441057692E+04  0.29441057692E+04  0.00000000000E+00 0. -1.
         23    2    1    2    0    0  0.79741683729E+02  0.12468510556E+03 -0.17338615305E+03  0.24496024471E+03  0.89652951677E+02 0.  0.
        254    2    1    2    0    0 -0.79741683729E+02 -0.12468510556E+03 -0.26540605744E+04  0.28158045663E+04  0.92887712400E+03 0.  0.
        -24    2    4    4    0    0  0.36268687815E+03  0.16363900208E+03 -0.11901838782E+04  0.12575485558E+04  0.81063011042E+02 0.  0.
         24    2    4    4    0    0 -0.44242856188E+03 -0.28832410763E+03 -0.14638766962E+04  0.15582560105E+04  0.79705640752E+02 0.  0.
         13    1    3    3    0    0  0.38068706286E+02 -0.35051465036E+01 -0.36927898472E+02  0.53152442426E+02  0.00000000000E+00 0. -1.
        -13    1    3    3    0    0  0.41672977443E+02  0.12819025206E+03 -0.13645825458E+03  0.19180780228E+03  0.00000000000E+00 0.  1.
          2    1    6    6  502    0 -0.30063012312E+01 -0.15403960217E+02 -0.28814058043E+02  0.32811122785E+02  0.00000000000E+00 0. -1.
          1    1    5    5  503    0  0.11350513461E+03  0.93554527090E+02 -0.44641285551E+03  0.47002159811E+03  0.00000000000E+00 0. -1.
         -2    1    5    5    0  503  0.24918174354E+03  0.70084474988E+02 -0.74377102270E+03  0.78752695773E+03  0.00000000000E+00 0.  1.
         -1    1    6    6    0  502 -0.43942226065E+03 -0.27292014742E+03 -0.14350626381E+04  0.15254448877E+04  0.00000000000E+00 0.  1.
<mgrwt>
<rscale>  0 0.11721033E+04</rscale>
<asrwt>0</asrwt>
<pdfrwt beam="1">  1        2 0.45293931E+00 0.11721033E+04</pdfrwt>
<pdfrwt beam="2">  1       -2 0.17947547E-01 0.11721033E+04</pdfrwt>
<totfact> 0.48865006E+01</totfact>
</mgrwt>
</event>
<event>
12    1  0.1494110E-007  0.2650356E+04  0.7818608E-02  0.8351295E-01
          2   -1    0    0  501    0  0.00000000000E+00  0.00000000000E+00  0.16696720120E+04  0.16696720120E+04  0.00000000000E+00 0. -1.
         -2   -1    0    0    0  501 -0.00000000000E+00 -0.00000000000E+00 -0.10517618082E+04  0.10517618082E+04  0.00000000000E+00 0.  1.
         23    2    1    2    0    0 -0.50648644119E+03  0.78920690662E+03  0.99518677290E+03  0.13704590737E+04  0.91571301648E+02 0.  0.
        254    2    1    2    0    0  0.50648644119E+03 -0.78920690662E+03 -0.37727656917E+03  0.13509747465E+04  0.89633648779E+03 0.  0.
        -24    2    4    4    0    0 -0.20277065886E+03 -0.15598552483E+03  0.97726398677E+02  0.28541762982E+03  0.80407402405E+02 0.  0.
         24    2    4    4    0    0  0.70925710005E+03 -0.63322138178E+03 -0.47500296785E+03  0.10655571166E+04  0.75955230360E+02 0.  0.
         11    1    3    3    0    0 -0.31769574461E+02  0.37487202936E+02  0.27300494035E+02  0.56213105411E+02  0.00000000000E+00 0.  1.
        -11    1    3    3    0    0 -0.47471686673E+03  0.75171970368E+03  0.96788627886E+03  0.13142459683E+04  0.00000000000E+00 0. -1.
          2    1    6    6  502    0  0.43739152445E+03 -0.35684189257E+03 -0.25060869695E+03  0.61761816759E+03  0.00000000000E+00 0. -1.
          3    1    5    5  503    0 -0.74989949642E+02 -0.97199972775E+02  0.18991228071E+02  0.12422557707E+03  0.00000000000E+00 0. -1.
         -4    1    5    5    0  503 -0.12778070922E+03 -0.58785552057E+02  0.78735170606E+02  0.16119205275E+03  0.00000000000E+00 0.  1.
         -1    1    6    6    0  502  0.27186557560E+03 -0.27637948921E+03 -0.22439427089E+03  0.44793894904E+03  0.00000000000E+00 0.  1.
<mgrwt>
<rscale>  0 0.26503564E+04</rscale>
<asrwt>0</asrwt>
<pdfrwt beam="1">  1        2 0.25687262E+00 0.26503564E+04</pdfrwt>
<pdfrwt beam="2">  1       -2 0.16180951E+00 0.26503564E+04</pdfrwt>
<totfact> 0.21943002E+00</totfact>
</mgrwt>
</event>
<event>
12    1  0.1494110E-007  0.1236956E+04  0.7818608E-02  0.9081110E-01
          1   -1    0    0  501    0  0.00000000000E+00  0.00000000000E+00  0.86429348810E+03  0.86429348810E+03  0.00000000000E+00 0. -1.
         -1   -1    0    0    0  501 -0.00000000000E+00 -0.00000000000E+00 -0.44257562349E+03  0.44257562349E+03  0.00000000000E+00 0.  1.
         23    2    1    2    0    0 -0.37344176876E+02 -0.12608854320E+03  0.35529434378E+03  0.38975684057E+03  0.91560994866E+02 0.  0.
        254    2    1    2    0    0  0.37344176876E+02  0.12608854320E+03  0.66423520834E+02  0.91711227101E+03  0.90520159371E+03 0.  0.
        -24    2    4    4    0    0 -0.12328997174E+03  0.34928277661E+03  0.34901509239E+03  0.51524002414E+03  0.80385773536E+02 0.  0.
         24    2    4    4    0    0  0.16063414862E+03 -0.22319423341E+03 -0.28259157156E+03  0.40187224687E+03  0.77616434853E+02 0.  0.
         13    1    3    3    0    0 -0.19207824514E+02  0.77616498004E+01  0.86327513642E+02  0.88778507206E+02  0.00000000000E+00 0.  1.
        -13    1    3    3    0    0 -0.18136352362E+02 -0.13385019300E+03  0.26896683014E+03  0.30097833337E+03  0.00000000000E+00 0. -1.
          2    1    6    6  502    0  0.14578416032E+03 -0.22472339312E+03 -0.27845397442E+03  0.38638095280E+03  0.00000000000E+00 0. -1.
          1    1    5    5  503    0 -0.79438087509E+02  0.27266325251E+03  0.30445166149E+03  0.41634898006E+03  0.00000000000E+00 0. -1.
         -2    1    5    5    0  503 -0.43851884236E+02  0.76619524100E+02  0.44563430904E+02  0.98891044075E+02  0.00000000000E+00 0.  1.
         -3    1    6    6    0  502  0.14849988304E+02  0.15291597069E+01 -0.41375971372E+01  0.15491294075E+02  0.00000000000E+00 0.  1.
<mgrwt>
<rscale>  0 0.12369563E+04</rscale>
<asrwt>0</asrwt>
<pdfrwt beam="1">  1        1 0.13296823E+00 0.12369563E+04</pdfrwt>
<pdfrwt beam="2">  1       -1 0.68088558E-01 0.12369563E+04</pdfrwt>
<totfact> 0.42001699E+01</totfact>
</mgrwt>
</event>
<event>
12    1  0.1494110E-007  0.3035379E+04  0.7818608E-02  0.8233700E-01
          1   -1    0    0  501    0  0.00000000000E+00  0.00000000000E+00  0.25580946770E+04  0.25580946770E+04  0.00000000000E+00 0. -1.
         -1   -1    0    0    0  501 -0.00000000000E+00 -0.00000000000E+00 -0.90042837837E+03  0.90042837837E+03  0.00000000000E+00 0.  1.
         23    2    1    2    0    0  0.35363126762E+03 -0.16869425725E+03  0.22700289208E+04  0.23054724616E+04  0.93054523510E+02 0.  0.
        254    2    1    2    0    0 -0.35363126762E+03  0.16869425725E+03 -0.61236262215E+03  0.11530505937E+04  0.89499992448E+03 0.  0.
        -24    2    4    4    0    0  0.13467337464E+03  0.19192918136E+03 -0.60900303436E+03  0.65748011672E+03  0.80135382545E+02 0.  0.
         24    2    4    4    0    0 -0.48830464227E+03 -0.23234924105E+02 -0.33595877896E+01  0.49557047700E+03  0.81225153058E+02 0.  0.
         11    1    3    3    0    0  0.35953640196E+03 -0.16587003099E+03  0.22413916027E+04  0.22760965727E+04  0.00000000000E+00 0. -1.
        -11    1    3    3    0    0 -0.59051343360E+01 -0.28242262630E+01  0.28637318070E+02  0.29375888953E+02  0.00000000000E+00 0.  1.
          2    1    6    6  502    0 -0.28691113208E+03 -0.53565360832E+02 -0.44724780050E+01  0.29190280686E+03  0.00000000000E+00 0. -1.
          1    1    5    5  503    0 -0.48302303976E+01  0.44666506168E+02 -0.11211506894E+03  0.12078168976E+03  0.00000000000E+00 0. -1.
         -2    1    5    5    0  503  0.13950360504E+03  0.14726267519E+03 -0.49688796542E+03  0.53669842696E+03  0.00000000000E+00 0.  1.
         -1    1    6    6    0  502 -0.20139351019E+03  0.30330436726E+02  0.11128902154E+01  0.20366767014E+03  0.00000000000E+00 0.  1.
<mgrwt>
<rscale>  0 0.30353788E+04</rscale>
<asrwt>0</asrwt>
<pdfrwt beam="1">  1        1 0.39355302E+00 0.30353788E+04</pdfrwt>
<pdfrwt beam="2">  1       -1 0.13852744E+00 0.30353788E+04</pdfrwt>
<totfact> 0.45109601E-01</totfact>
</mgrwt>
</event>
<event>
12    1  0.1494110E-007  0.2242622E+04  0.7818608E-02  0.8500894E-01
         -1   -1    0    0    0  501 -0.00000000000E+00  0.00000000000E+00  0.80708268389E+03  0.80708268389E+03  0.00000000000E+00 0.  1.
          1   -1    0    0  501    0  0.00000000000E+00 -0.00000000000E+00 -0.15578806259E+04  0.15578806259E+04  0.00000000000E+00 0. -1.
         23    2    1    2    0    0 -0.18370171327E+03 -0.11179376904E+03 -0.12638720337E+04  0.12853814547E+04  0.92675780224E+02 0.  0.
        254    2    1    2    0    0  0.18370171327E+03  0.11179376904E+03  0.51307409168E+03  0.10795818551E+04  0.92520689149E+03 0.  0.
        -24    2    4    4    0    0 -0.33445883837E+03 -0.10862660739E+03  0.31010017540E+03  0.47599521492E+03  0.82139341670E+02 0.  0.
         24    2    4    4    0    0  0.51816055163E+03  0.22042037643E+03  0.20297391628E+03  0.60358664019E+03  0.77736232905E+02 0.  0.
         13    1    3    3    0    0  0.75615842389E+01 -0.58344518116E+01 -0.14685659523E+03  0.14716683711E+03  0.00000000000E+00 0.  1.
        -13    1    3    3    0    0 -0.19126329751E+03 -0.10595931723E+03 -0.11170154385E+04  0.11382146176E+04  0.00000000000E+00 0. -1.
          4    1    6    6  502    0  0.51846968073E+03  0.21721331584E+03  0.20645288190E+03  0.59884491052E+03  0.00000000000E+00 0. -1.
          3    1    5    5  503    0 -0.31246934578E+03 -0.76444228464E+02  0.28375327194E+03  0.42894840186E+03  0.00000000000E+00 0. -1.
         -4    1    5    5    0  503 -0.21989492581E+02 -0.32182378927E+02  0.26346903464E+02  0.47046813064E+02  0.00000000000E+00 0.  1.
         -1    1    6    6    0  502 -0.30912909256E+00  0.32070605877E+01 -0.34789656227E+01  0.47417296647E+01  0.00000000000E+00 0.  1.
<mgrwt>
<rscale>  0 0.22426221E+04</rscale>
<asrwt>0</asrwt>
<pdfrwt beam="1">  1        1 0.23967394E+00 0.22426221E+04</pdfrwt>
<pdfrwt beam="2">  1       -1 0.12416657E+00 0.22426221E+04</pdfrwt>
<totfact> 0.30833933E+00</totfact>
</mgrwt>
</event>
<event>
12    1  0.1494110E-007  0.1202380E+04  0.7818608E-02  0.9110775E-01
         -2   -1    0    0    0  501 -0.00000000000E+00  0.00000000000E+00  0.11300400104E+04  0.11300400104E+04  0.00000000000E+00 0.  1.
          2   -1    0    0  501    0  0.00000000000E+00 -0.00000000000E+00 -0.31983794958E+03  0.31983794958E+03  0.00000000000E+00 0. -1.
         23    2    1    2    0    0 -0.10670234253E+03 -0.19781006075E+03  0.31128182833E+03  0.39410968102E+03  0.88948603056E+02 0.  0.
        254    2    1    2    0    0  0.10670234253E+03  0.19781006075E+03  0.49892023248E+03  0.10557682790E+04  0.90289038672E+03 0.  0.
        -24    2    4    4    0    0  0.92220964831E+02  0.17506764050E+03 -0.23479719640E+03  0.31736412254E+03  0.80230154771E+02 0.  0.
         24    2    4    4    0    0  0.14481377700E+02  0.22742420258E+02  0.73371742888E+03  0.73840415642E+03  0.78565290050E+02 0.  0.
         11    1    3    3    0    0 -0.46642839832E+02 -0.69789453881E+02  0.19037279436E+03  0.20805749978E+03  0.00000000000E+00 0. -1.
        -11    1    3    3    0    0 -0.60059502699E+02 -0.12802060687E+03  0.12090903397E+03  0.18605218124E+03  0.00000000000E+00 0.  1.
          4    1    6    6  502    0 -0.31146025354E+02  0.14450426448E+02  0.40152509062E+03  0.40299043180E+03  0.00000000000E+00 0. -1.
          3    1    5    5  503    0  0.87021256386E+02  0.80764385719E+02 -0.13971581236E+03  0.18334692058E+03  0.00000000000E+00 0. -1.
         -4    1    5    5    0  503  0.51997084452E+01  0.94303254777E+02 -0.95081384040E+02  0.13401720196E+03  0.00000000000E+00 0.  1.
         -3    1    6    6    0  502  0.45627403054E+02  0.82919938102E+01  0.33219233825E+03  0.33541372462E+03  0.00000000000E+00 0.  1.
<mgrwt>
<rscale>  0 0.12023804E+04</rscale>
<asrwt>0</asrwt>
<pdfrwt beam="1">  1        2 0.49205839E-01 0.12023804E+04</pdfrwt>
<pdfrwt beam="2">  1       -2 0.17385231E+00 0.12023804E+04</pdfrwt>
<totfact> 0.20162063E+01</totfact>
</mgrwt>
</event>
<event>
12    1  0.1494110E-007  0.1557129E+04  0.7818608E-02  0.8847327E-01
          2   -1    0    0  501    0  0.00000000000E+00  0.00000000000E+00  0.16327116609E+04  0.16327116609E+04  0.00000000000E+00 0. -1.
         -2   -1    0    0    0  501 -0.00000000000E+00 -0.00000000000E+00 -0.37126122362E+03  0.37126122362E+03  0.00000000000E+00 0.  1.
         23    2    1    2    0    0 -0.57864768039E+02  0.29423925110E+03 -0.98934495409E+02  0.32421706489E+03  0.73509200212E+02 0.  0.
        254    2    1    2    0    0  0.57864768039E+02 -0.29423925110E+03  0.13603849326E+04  0.16797558196E+04  0.93861993385E+03 0.  0.
        -24    2    4    4    0    0 -0.29917357420E+03 -0.36320902769E+03  0.31888768612E+03  0.57370775537E+03  0.77624782872E+02 0.  0.
         24    2    4    4    0    0  0.35703834224E+03  0.68969776588E+02  0.10414972465E+04  0.11060480642E+04  0.79953723824E+02 0.  0.
         11    1    3    3    0    0 -0.95747272922E+01  0.80126628026E+02 -0.61720172513E+02  0.10159395463E+03  0.00000000000E+00 0.  1.
        -11    1    3    3    0    0 -0.48290040746E+02  0.21411262307E+03 -0.37214322896E+02  0.22262311026E+03  0.00000000000E+00 0. -1.
          2    1    6    6  502    0  0.28659598678E+03  0.86854732782E+02  0.82417096153E+03  0.87689154294E+03  0.00000000000E+00 0. -1.
          3    1    5    5  503    0 -0.23126981238E+03 -0.23138196502E+03  0.19807480928E+03  0.38243557618E+03  0.00000000000E+00 0. -1.
         -4    1    5    5    0  503 -0.67903761813E+02 -0.13182706267E+03  0.12081287684E+03  0.19127217919E+03  0.00000000000E+00 0.  1.
         -1    1    6    6    0  502  0.70442355451E+02 -0.17884956195E+02  0.21732628499E+03  0.22915652129E+03  0.00000000000E+00 0.  1.
<mgrwt>
<rscale>  0 0.15571288E+04</rscale>
<asrwt>0</asrwt>
<pdfrwt beam="1">  1        2 0.25118641E+00 0.15571288E+04</pdfrwt>
<pdfrwt beam="2">  1       -2 0.57117112E-01 0.15571288E+04</pdfrwt>
<totfact> 0.29548490E+01</totfact>
</mgrwt>
</event>
<event>
12    1  0.1494110E-007  0.1582003E+04  0.7818608E-02  0.8831681E-01
         -1   -1    0    0    0  501 -0.00000000000E+00  0.00000000000E+00  0.74266654687E+03  0.74266654687E+03  0.00000000000E+00 0.  1.
          1   -1    0    0  501    0  0.00000000000E+00 -0.00000000000E+00 -0.84248207305E+03  0.84248207305E+03  0.00000000000E+00 0. -1.
         23    2    1    2    0    0  0.27990368454E+03  0.43638073957E+03  0.13842182930E+02  0.52668043098E+03  0.91795685433E+02 0.  0.
        254    2    1    2    0    0 -0.27990368454E+03 -0.43638073957E+03 -0.11365770911E+03  0.10584681889E+04  0.91578524211E+03 0.  0.
        -24    2    4    4    0    0 -0.53090432690E+03 -0.54352763496E+03 -0.39332921374E+02  0.76506104952E+03  0.80558280130E+02 0.  0.
         24    2    4    4    0    0  0.25100064236E+03  0.10714689539E+03 -0.74324787739E+02  0.29340713943E+03  0.77985868829E+02 0.  0.
         11    1    3    3    0    0  0.14769640603E+03  0.16744318180E+03 -0.24271187299E+02  0.22458971040E+03  0.00000000000E+00 0. -1.
        -11    1    3    3    0    0  0.13220727851E+03  0.26893755777E+03  0.38113370230E+02  0.30209072058E+03  0.00000000000E+00 0.  1.
          2    1    6    6  502    0 -0.43414717877E+01  0.24976874933E+01  0.41571572771E+01  0.65091302587E+01  0.00000000000E+00 0. -1.
          3    1    5    5  503    0 -0.57731324444E+02 -0.97832820964E+02  0.32141980378E+01  0.11364197177E+03  0.00000000000E+00 0. -1.
         -4    1    5    5    0  503 -0.47317300246E+03 -0.44569481400E+03 -0.42547119412E+02  0.65141907774E+03  0.00000000000E+00 0.  1.
         -1    1    6    6    0  502  0.25534211415E+03  0.10464920789E+03 -0.78481945016E+02  0.28689800917E+03  0.00000000000E+00 0.  1.
<mgrwt>
<rscale>  0 0.15820028E+04</rscale>
<asrwt>0</asrwt>
<pdfrwt beam="1">  1        1 0.12961263E+00 0.15820028E+04</pdfrwt>
<pdfrwt beam="2">  1       -1 0.11425639E+00 0.15820028E+04</pdfrwt>
<totfact> 0.13619657E+01</totfact>
</mgrwt>
</event>
<event>
12    1  0.1494110E-007  0.1660854E+04  0.7818608E-02  0.8784011E-01
          2   -1    0    0  501    0  0.00000000000E+00  0.00000000000E+00  0.25753219470E+04  0.25753219470E+04  0.00000000000E+00 0. -1.
         -2   -1    0    0    0  501 -0.00000000000E+00 -0.00000000000E+00 -0.26777574370E+03  0.26777574370E+03  0.00000000000E+00 0.  1.
         23    2    1    2    0    0  0.19158511261E+03 -0.51266481550E+03  0.47254253414E+03  0.72905991065E+03  0.93283644488E+02 0.  0.
        254    2    1    2    0    0 -0.19158511261E+03  0.51266481550E+03  0.18350036692E+04  0.21140377801E+04  0.89576068301E+03 0.  0.
        -24    2    4    4    0    0  0.97635061761E+02 -0.21337315152E+02  0.12825044673E+04  0.12892098023E+04  0.85184033085E+02 0.  0.
         24    2    4    4    0    0 -0.28922017437E+03  0.53400213065E+03  0.55249920194E+03  0.82482797778E+03  0.79241655685E+02 0.  0.
         11    1    3    3    0    0  0.17006977239E+02 -0.56447750342E+01  0.81364691821E+01  0.19680012468E+02  0.00000000000E+00 0.  1.
        -11    1    3    3    0    0  0.17457813537E+03 -0.50702004046E+03  0.46440606496E+03  0.70937989818E+03  0.00000000000E+00 0. -1.
          2    1    6    6  502    0 -0.67363125678E+02  0.13741659158E+03  0.18710117085E+03  0.24171875905E+03  0.00000000000E+00 0. -1.
          3    1    5    5  503    0  0.60035761041E+02 -0.43231266084E+02  0.10544417432E+04  0.10570338806E+04  0.00000000000E+00 0. -1.
         -2    1    5    5    0  503  0.37599300720E+02  0.21893950932E+02  0.22806272410E+03  0.23217592172E+03  0.00000000000E+00 0.  1.
         -1    1    6    6    0  502 -0.22185704869E+03  0.39658553907E+03  0.36539803108E+03  0.58310921873E+03  0.00000000000E+00 0.  1.
<mgrwt>
<rscale>  0 0.16608537E+04</rscale>
<asrwt>0</asrwt>
<pdfrwt beam="1">  1        2 0.39620336E+00 0.16608537E+04</pdfrwt>
<pdfrwt beam="2">  1       -2 0.41196270E-01 0.16608537E+04</pdfrwt>
<totfact> 0.16798914E+01</totfact>
</mgrwt>
</event>
<event>
12    1  0.1494110E-007  0.2309442E+04  0.7818608E-02  0.8474208E-01
         -2   -1    0    0    0  501 -0.00000000000E+00  0.00000000000E+00  0.69160802936E+03  0.69160802936E+03  0.00000000000E+00 0.  1.
          2   -1    0    0  501    0  0.00000000000E+00 -0.00000000000E+00 -0.19279428292E+04  0.19279428292E+04  0.00000000000E+00 0. -1.
         23    2    1    2    0    0  0.77442792555E+03  0.51032138086E+03 -0.16981133758E+03  0.94728579906E+03  0.91367232106E+02 0.  0.
        254    2    1    2    0    0 -0.77442792555E+03 -0.51032138086E+03 -0.10665234622E+04  0.16722650595E+04  0.89377380248E+03 0.  0.
        -24    2    4    4    0    0 -0.17819626004E+03  0.25120014094E+03 -0.27876383598E+03  0.42229435684E+03  0.75946228811E+02 0.  0.
         24    2    4    4    0    0 -0.59623166551E+03 -0.76152152180E+03 -0.78775962624E+03  0.12499707026E+04  0.80338667896E+02 0.  0.
         11    1    3    3    0    0  0.30884274471E+03  0.21693600336E+03 -0.11340991373E+03  0.39408993776E+03  0.00000000000E+00 0. -1.
        -11    1    3    3    0    0  0.46558518084E+03  0.29338537750E+03 -0.56401423856E+02  0.55319586130E+03  0.00000000000E+00 0.  1.
          2    1    6    6  502    0 -0.24050785930E+03 -0.26102400271E+03 -0.25509493846E+03  0.43709379772E+03  0.00000000000E+00 0. -1.
          3    1    5    5  503    0 -0.61305401577E+02  0.13726955001E+03 -0.16567588035E+03  0.22371807918E+03  0.00000000000E+00 0. -1.
         -2    1    5    5    0  503 -0.11689085846E+03  0.11393059093E+03 -0.11308795563E+03  0.19857627766E+03  0.00000000000E+00 0.  1.
         -1    1    6    6    0  502 -0.35572380622E+03 -0.50049751909E+03 -0.53266468778E+03  0.81287690491E+03  0.00000000000E+00 0.  1.
<mgrwt>
<rscale>  0 0.23094421E+04</rscale>
<asrwt>0</asrwt>
<pdfrwt beam="1">  1        2 0.29660658E+00 0.23094421E+04</pdfrwt>
<pdfrwt beam="2">  1       -2 0.10640124E+00 0.23094421E+04</pdfrwt>
<totfact> 0.47259044E+00</totfact>
</mgrwt>
</event>
<event>
12    1  0.1494110E-007  0.1069325E+04  0.7818608E-02  0.9235617E-01
          2   -1    0    0  501    0  0.00000000000E+00  0.00000000000E+00  0.96880033081E+03  0.96880033081E+03  0.00000000000E+00 0. -1.
         -2   -1    0    0    0  501 -0.00000000000E+00 -0.00000000000E+00 -0.29507006437E+03  0.29507006437E+03  0.00000000000E+00 0.  1.
         23    2    1    2    0    0  0.11839329825E+03  0.56308171988E+02  0.13626892814E+03  0.20927240292E+03  0.89655644248E+02 0.  0.
        254    2    1    2    0    0 -0.11839329825E+03 -0.56308171988E+02  0.53746133829E+03  0.10545979923E+04  0.89784444745E+03 0.  0.
        -24    2    4    4    0    0  0.13983851256E+01  0.12734812778E+02 -0.24387449662E+03  0.25703781969E+03  0.80184410652E+02 0.  0.
         24    2    4    4    0    0 -0.11979168337E+03 -0.69042984766E+02  0.78133583491E+03  0.79756017257E+03  0.80619853665E+02 0.  0.
         11    1    3    3    0    0  0.95515995556E+02  0.46644430813E+02  0.14766739759E+03  0.18194688413E+03  0.00000000000E+00 0. -1.
        -11    1    3    3    0    0  0.22877302691E+02  0.96637411748E+01 -0.11398469443E+02  0.27325518798E+02  0.00000000000E+00 0.  1.
          2    1    6    6  502    0 -0.89542024429E+01  0.17323472762E+02  0.89733895960E+02  0.91828386320E+02  0.00000000000E+00 0. -1.
          3    1    5    5  503    0  0.18106310849E+02 -0.26093001237E+02 -0.55184272442E+02  0.63670928461E+02  0.00000000000E+00 0. -1.
         -2    1    5    5    0  503 -0.16707925723E+02  0.38827814015E+02 -0.18869022418E+03  0.19336689123E+03  0.00000000000E+00 0.  1.
         -1    1    6    6    0  502 -0.11083748093E+03 -0.86366457528E+02  0.69160193895E+03  0.70573178625E+03  0.00000000000E+00 0.  1.
<mgrwt>
<rscale>  0 0.10693250E+04</rscale>
<asrwt>0</asrwt>
<pdfrwt beam="1">  1        2 0.14904620E+00 0.10693250E+04</pdfrwt>
<pdfrwt beam="2">  1       -2 0.45395395E-01 0.10693250E+04</pdfrwt>
<totfact> 0.12073397E+02</totfact>
</mgrwt>
</event>
<event>
12    1  0.1494110E-007  0.2366299E+04  0.7818608E-02  0.8452229E-01
         -1   -1    0    0    0  501 -0.00000000000E+00  0.00000000000E+00  0.22132734545E+04  0.22132734545E+04  0.00000000000E+00 0.  1.
          1   -1    0    0  501    0  0.00000000000E+00 -0.00000000000E+00 -0.63247636604E+03  0.63247636604E+03  0.00000000000E+00 0. -1.
         23    2    1    2    0    0 -0.19909275342E+02 -0.54704931781E+03  0.16951077336E+04  0.17836183364E+04  0.90800914681E+02 0.  0.
        254    2    1    2    0    0  0.19909275342E+02  0.54704931781E+03 -0.11431064507E+03  0.10621314842E+04  0.90299337251E+03 0.  0.
        -24    2    4    4    0    0  0.73773115148E+02 -0.22995077845E+03  0.48047764470E+02  0.26146653847E+03  0.87956409886E+02 0.  0.
         24    2    4    4    0    0 -0.53863839806E+02  0.77700009626E+03 -0.16235840954E+03  0.80066494574E+03  0.89853432636E+02 0.  0.
         13    1    3    3    0    0 -0.44698859948E+02 -0.48735592945E+03  0.14635367779E+04  0.15431959338E+04  0.00000000000E+00 0.  1.
        -13    1    3    3    0    0  0.24789584606E+02 -0.59693388361E+02  0.23157095569E+03  0.24042240253E+03  0.00000000000E+00 0. -1.
          2    1    6    6  502    0 -0.13697746526E+02  0.82605462091E+02 -0.45705500710E+02  0.95395405667E+02  0.00000000000E+00 0. -1.
          1    1    5    5  503    0  0.29448854903E+02 -0.32781347807E+02  0.39527421441E+02  0.59196865330E+02  0.00000000000E+00 0. -1.
         -2    1    5    5    0  503  0.44324260245E+02 -0.19716943064E+03  0.85203430285E+01  0.20226967314E+03  0.00000000000E+00 0.  1.
         -1    1    6    6    0  502 -0.40166093279E+02  0.69439463417E+03 -0.11665290883E+03  0.70526954007E+03  0.00000000000E+00 0.  1.
<mgrwt>
<rscale>  0 0.23662993E+04</rscale>
<asrwt>0</asrwt>
<pdfrwt beam="1">  1        1 0.97304057E-01 0.23662993E+04</pdfrwt>
<pdfrwt beam="2">  1       -1 0.34050360E+00 0.23662993E+04</pdfrwt>
<totfact> 0.51200270E-01</totfact>
</mgrwt>
</event>
<event>
12    1  0.1494110E-007  0.1399267E+04  0.7818608E-02  0.8954349E-01
          2   -1    0    0  501    0  0.00000000000E+00  0.00000000000E+00  0.32034732537E+03  0.32034732537E+03  0.00000000000E+00 0.  1.
         -2   -1    0    0    0  501 -0.00000000000E+00 -0.00000000000E+00 -0.15279882469E+04  0.15279882469E+04  0.00000000000E+00 0. -1.
         23    2    1    2    0    0 -0.29169165117E+03 -0.27713116928E+03 -0.33720509506E+03  0.53269445282E+03  0.90390262696E+02 0.  0.
        254    2    1    2    0    0  0.29169165117E+03  0.27713116928E+03 -0.87043582651E+03  0.13156411195E+04  0.90075930351E+03 0.  0.
        -24    2    4    4    0    0  0.48710831411E+03 -0.75322993620E+02 -0.21911365252E+03  0.54533837847E+03  0.80219020621E+02 0.  0.
         24    2    4    4    0    0 -0.19541666294E+03  0.35245416290E+03 -0.65132217399E+03  0.77030274101E+03  0.82061741280E+02 0.  0.
         11    1    3    3    0    0 -0.27473220846E+03 -0.23160152242E+03 -0.26858082815E+03  0.44861198468E+03  0.00000000000E+00 0.  1.
        -11    1    3    3    0    0 -0.16959442709E+02 -0.45529646865E+02 -0.68624266906E+02  0.84082468143E+02  0.00000000000E+00 0. -1.
          2    1    6    6  502    0 -0.13453877371E+03  0.16506886301E+03 -0.30771023909E+03  0.37421117355E+03  0.00000000000E+00 0. -1.
          1    1    5    5  503    0  0.19742496697E+03 -0.54827044424E+02 -0.56686014652E+02  0.21259333630E+03  0.00000000000E+00 0. -1.
         -2    1    5    5    0  503  0.28968334713E+03 -0.20495949196E+02 -0.16242763786E+03  0.33274504216E+03  0.00000000000E+00 0.  1.
         -1    1    6    6    0  502 -0.60877889228E+02  0.18738529989E+03 -0.34361193490E+03  0.39609156746E+03  0.00000000000E+00 0.  1.
<mgrwt>
<rscale>  0 0.13992669E+04</rscale>
<asrwt>0</asrwt>
<pdfrwt beam="1">  1        2 0.49284204E-01 0.13992669E+04</pdfrwt>
<pdfrwt beam="2">  1       -2 0.23507511E+00 0.13992669E+04</pdfrwt>
<totfact> 0.78959011E+00</totfact>
</mgrwt>
</event>
<event>
12    1  0.1494110E-007  0.1656545E+04  0.7818608E-02  0.8786544E-01
          2   -1    0    0  501    0  0.00000000000E+00  0.00000000000E+00  0.16740396413E+04  0.16740396413E+04  0.00000000000E+00 0. -1.
         -2   -1    0    0    0  501 -0.00000000000E+00 -0.00000000000E+00 -0.40980816681E+03  0.40980816681E+03  0.00000000000E+00 0.  1.
         23    2    1    2    0    0  0.17032478497E+03 -0.27822031208E+03  0.10445954803E+04  0.11012427008E+04  0.12303940099E+03 0.  0.
        254    2    1    2    0    0 -0.17032478497E+03  0.27822031208E+03  0.21963599420E+03  0.98260510731E+03  0.90047529257E+03 0.  0.
        -24    2    4    4    0    0  0.18520398592E+03  0.82770440843E+02  0.45566906095E+03  0.50562857709E+03  0.82912620187E+02 0.  0.
         24    2    4    4    0    0 -0.35552877089E+03  0.19544987123E+03 -0.23603306675E+03  0.47697653022E+03  0.84815344621E+02 0.  0.
         11    1    3    3    0    0  0.16380254981E+03 -0.28416537278E+03  0.10414417982E+04  0.10918709876E+04  0.00000000000E+00 0. -1.
        -11    1    3    3    0    0  0.65222351580E+01  0.59450607078E+01  0.31536820688E+01  0.93717132301E+01  0.00000000000E+00 0.  1.
          2    1    6    6  502    0 -0.10492945145E+03  0.36531709920E+02 -0.28008703739E+02  0.11458290927E+03  0.00000000000E+00 0. -1.
          3    1    5    5  503    0  0.31008312778E+02  0.21073338451E+02  0.27849435189E+02  0.46703234312E+02  0.00000000000E+00 0. -1.
         -4    1    5    5    0  503  0.15419567315E+03  0.61697102392E+02  0.42781962576E+03  0.45892534278E+03  0.00000000000E+00 0.  1.
         -1    1    6    6    0  502 -0.25059931944E+03  0.15891816131E+03 -0.20802436301E+03  0.36239362095E+03  0.00000000000E+00 0.  1.
<mgrwt>
<rscale>  0 0.16565447E+04</rscale>
<asrwt>0</asrwt>
<pdfrwt beam="1">  1        2 0.25754456E+00 0.16565447E+04</pdfrwt>
<pdfrwt beam="2">  1       -2 0.63047411E-01 0.16565447E+04</pdfrwt>
<totfact> 0.22560450E+01</totfact>
</mgrwt>
</event>
<event>
12    1  0.1494110E-007  0.1763730E+04  0.7818608E-02  0.8725829E-01
          2   -1    0    0  501    0  0.00000000000E+00  0.00000000000E+00  0.14845820811E+04  0.14845820811E+04  0.00000000000E+00 0. -1.
         -2   -1    0    0    0  501 -0.00000000000E+00 -0.00000000000E+00 -0.52384180075E+03  0.52384180075E+03  0.00000000000E+00 0.  1.
         23    2    1    2    0    0 -0.60201625100E+03  0.12346301633E+03  0.60434821711E+03  0.86666973026E+03  0.90625443184E+02 0.  0.
        254    2    1    2    0    0  0.60201625100E+03 -0.12346301633E+03  0.35639206327E+03  0.11417541516E+04  0.89382356039E+03 0.  0.
        -24    2    4    4    0    0 -0.18954312715E+03  0.86379301225E+01 -0.84820010688E+02  0.22158275961E+03  0.76832768105E+02 0.  0.
         24    2    4    4    0    0  0.79155937815E+03 -0.13210094645E+03  0.44121207396E+03  0.92017139201E+03  0.89612428150E+02 0.  0.
         13    1    3    3    0    0 -0.50587478114E+03  0.79790806267E+02  0.46425289334E+03  0.69123557196E+03  0.00000000000E+00 0.  1.
        -13    1    3    3    0    0 -0.96141469863E+02  0.43672210061E+02  0.14009532376E+03  0.17543415830E+03  0.00000000000E+00 0. -1.
          4    1    6    6  502    0  0.50682575723E+03 -0.69058679200E+02  0.23442998236E+03  0.56267118817E+03  0.00000000000E+00 0. -1.
          1    1    5    5  503    0 -0.18329970804E+03  0.36470401598E+01 -0.56034309269E+02  0.19170792285E+03  0.00000000000E+00 0. -1.
         -2    1    5    5    0  503 -0.62434191105E+01  0.49908899627E+01 -0.28785701419E+02  0.29874836753E+02  0.00000000000E+00 0.  1.
         -3    1    6    6    0  502  0.28473362092E+03 -0.63042267251E+02  0.20678209160E+03  0.35750020385E+03  0.00000000000E+00 0.  1.
<mgrwt>
<rscale>  0 0.17637303E+04</rscale>
<asrwt>0</asrwt>
<pdfrwt beam="1">  1        2 0.22839724E+00 0.17637303E+04</pdfrwt>
<pdfrwt beam="2">  1       -2 0.80591047E-01 0.17637303E+04</pdfrwt>
<totfact> 0.16671256E+01</totfact>
</mgrwt>
</event>
<event>
12    1  0.1494110E-007  0.1130331E+04  0.7818608E-02  0.9176123E-01
          2   -1    0    0  501    0  0.00000000000E+00  0.00000000000E+00  0.22886317258E+04  0.22886317258E+04  0.00000000000E+00 0. -1.
         -2   -1    0    0    0  501 -0.00000000000E+00 -0.00000000000E+00 -0.13956465848E+03  0.13956465848E+03  0.00000000000E+00 0.  1.
         23    2    1    2    0    0 -0.49289925353E+02 -0.13570402470E+03  0.69104777718E+03  0.71165583327E+03  0.89788170863E+02 0.  0.
        254    2    1    2    0    0  0.49289925353E+02  0.13570402470E+03  0.14580192901E+04  0.17165405510E+04  0.89434117299E+03 0.  0.
        -24    2    4    4    0    0 -0.19738931719E+03 -0.14754521233E+03  0.59815258307E+02  0.26654987903E+03  0.82090441962E+02 0.  0.
         24    2    4    4    0    0  0.24667924255E+03  0.28324923704E+03  0.13982040318E+04  0.14499906719E+04  0.80110268757E+02 0.  0.
         11    1    3    3    0    0 -0.75486841270E+02 -0.10540951038E+03  0.54578841072E+03  0.56097630730E+03  0.00000000000E+00 0. -1.
        -11    1    3    3    0    0  0.26196915916E+02 -0.30294514325E+02  0.14525936646E+03  0.15067952597E+03  0.00000000000E+00 0.  1.
          2    1    6    6  502    0  0.79294264977E+02  0.96817782371E+02  0.33358170082E+03  0.35628361535E+03  0.00000000000E+00 0. -1.
          1    1    5    5  503    0 -0.27450056347E+02 -0.38998260549E+01 -0.15337822437E+02  0.31685375709E+02  0.00000000000E+00 0. -1.
         -2    1    5    5    0  503 -0.16993926085E+03 -0.14364538628E+03  0.75153080744E+02  0.23486450332E+03  0.00000000000E+00 0.  1.
         -1    1    6    6    0  502  0.16738497757E+03  0.18643145467E+03  0.10646223310E+04  0.10937070566E+04  0.00000000000E+00 0.  1.
<mgrwt>
<rscale>  0 0.11303311E+04</rscale>
<asrwt>0</asrwt>
<pdfrwt beam="1">  1        2 0.35209716E+00 0.11303311E+04</pdfrwt>
<pdfrwt beam="2">  1       -2 0.21471488E-01 0.11303311E+04</pdfrwt>
<totfact> 0.86409261E+01</totfact>
</mgrwt>
</event>
<event>
12    1  0.1494110E-007  0.1256296E+04  0.7818608E-02  0.9064959E-01
          1   -1    0    0  501    0  0.00000000000E+00  0.00000000000E+00  0.75136050099E+03  0.75136050099E+03  0.00000000000E+00 0.  1.
         -1   -1    0    0    0  501 -0.00000000000E+00 -0.00000000000E+00 -0.52514053691E+03  0.52514053691E+03  0.00000000000E+00 0. -1.
         23    2    1    2    0    0  0.23657204183E+03  0.36910528688E+02 -0.12099579015E+03  0.28457889116E+03  0.94954968048E+02 0.  0.
        254    2    1    2    0    0 -0.23657204183E+03 -0.36910528688E+02  0.34721575422E+03  0.99192214673E+03  0.89778730615E+03 0.  0.
        -24    2    4    4    0    0 -0.81986753459E+02 -0.34284038986E+03  0.49251642936E+03  0.61089964537E+03  0.79778335790E+02 0.  0.
         24    2    4    4    0    0 -0.15458528837E+03  0.30592986117E+03 -0.14530067514E+03  0.38102250137E+03  0.81093581839E+02 0.  0.
         13    1    3    3    0    0  0.66924247297E+02 -0.12505909678E+02 -0.76411585304E+02  0.10234247907E+03  0.00000000000E+00 0. -1.
        -13    1    3    3    0    0  0.16964779454E+03  0.49416438366E+02 -0.44584204846E+02  0.18223641210E+03  0.00000000000E+00 0.  1.
          2    1    6    6  502    0 -0.10380723985E+03  0.26170174970E+03 -0.95593194586E+02  0.29732441489E+03  0.00000000000E+00 0. -1.
          1    1    5    5  503    0 -0.51816164467E+02 -0.31841527807E+03  0.43979136053E+03  0.54542611324E+03  0.00000000000E+00 0. -1.
         -2    1    5    5    0  503 -0.30170588992E+02 -0.24425111782E+02  0.52725068834E+02  0.65473532128E+02  0.00000000000E+00 0.  1.
         -1    1    6    6    0  502 -0.50778048529E+02  0.44228111469E+02 -0.49707480551E+02  0.83698086473E+02  0.00000000000E+00 0.  1.
<mgrwt>
<rscale>  0 0.12562959E+04</rscale>
<asrwt>0</asrwt>
<pdfrwt beam="1">  1        1 0.11559392E+00 0.12562959E+04</pdfrwt>
<pdfrwt beam="2">  1       -1 0.80790852E-01 0.12562959E+04</pdfrwt>
<totfact> 0.36788764E+01</totfact>
</mgrwt>
</event>
<event>
12    1  0.1494110E-007  0.1128687E+04  0.7818608E-02  0.9177674E-01
         -2   -1    0    0    0  501 -0.00000000000E+00  0.00000000000E+00  0.18389183567E+03  0.18389183567E+03  0.00000000000E+00 0. -1.
          2   -1    0    0  501    0  0.00000000000E+00 -0.00000000000E+00 -0.17319076040E+04  0.17319076040E+04  0.00000000000E+00 0.  1.
         23    2    1    2    0    0 -0.64438448385E+01 -0.17073557385E+03 -0.33546415450E+03  0.38587822411E+03  0.84697376422E+02 0.  0.
        254    2    1    2    0    0  0.64438448385E+01  0.17073557385E+03 -0.12125516138E+04  0.15299212156E+04  0.91716157265E+03 0.  0.
        -24    2    4    4    0    0 -0.14772787038E+03 -0.32767707432E+03 -0.29015244460E+03  0.46716737576E+03  0.69721783828E+02 0.  0.
         24    2    4    4    0    0  0.15417171522E+03  0.49841264818E+03 -0.92239916925E+03  0.10627538398E+04  0.80258401458E+02 0.  0.
         11    1    3    3    0    0  0.28945624985E+00 -0.30330445950E+02 -0.10984062143E+02  0.32259407274E+02  0.00000000000E+00 0. -1.
        -11    1    3    3    0    0 -0.67333010883E+01 -0.14040512790E+03 -0.32448009236E+03  0.35361881684E+03  0.00000000000E+00 0.  1.
          2    1    6    6  502    0  0.11001870514E+02  0.58151148713E+01 -0.42023823792E+02  0.43827599545E+02  0.00000000000E+00 0. -1.
          3    1    5    5  503    0  0.70687316578E+01 -0.68325018629E+01 -0.93461812936E+01  0.13564702493E+02  0.00000000000E+00 0. -1.
         -4    1    5    5    0  503 -0.15479660204E+03 -0.32084457246E+03 -0.28080626330E+03  0.45360267326E+03  0.00000000000E+00 0.  1.
         -1    1    6    6    0  502  0.14316984471E+03  0.49259753330E+03 -0.88037534546E+03  0.10189262403E+04  0.00000000000E+00 0.  1.
<mgrwt>
<rscale>  0 0.11286871E+04</rscale>
<asrwt>0</asrwt>
<pdfrwt beam="1">  1        2 0.26644733E+00 0.11286871E+04</pdfrwt>
<pdfrwt beam="2">  1       -2 0.28291051E-01 0.11286871E+04</pdfrwt>
<totfact> 0.10671768E+02</totfact>
</mgrwt>
</event>
<event>
12    1  0.1494110E-007  0.1381507E+04  0.7818608E-02  0.8967314E-01
          2   -1    0    0  501    0  0.00000000000E+00  0.00000000000E+00  0.18983155999E+04  0.18983155999E+04  0.00000000000E+00 0. -1.
         -2   -1    0    0    0  501 -0.00000000000E+00 -0.00000000000E+00 -0.25134947361E+03  0.25134947361E+03  0.00000000000E+00 0.  1.
         23    2    1    2    0    0  0.27290930158E+03  0.21782655291E+03  0.20673025346E+03  0.41559336357E+03  0.89736013426E+02 0.  0.
        254    2    1    2    0    0 -0.27290930158E+03 -0.21782655291E+03  0.14402358729E+04  0.17340717100E+04  0.90044290869E+03 0.  0.
        -24    2    4    4    0    0 -0.66452425878E+02 -0.54002129893E+03  0.10296679943E+04  0.11672440281E+04  0.78762391832E+02 0.  0.
         24    2    4    4    0    0 -0.20645687570E+03  0.32219474603E+03  0.41056787853E+03  0.56682768187E+03  0.79333108916E+02 0.  0.
         13    1    3    3    0    0  0.20707098132E+03  0.13125766035E+03  0.17839457284E+03  0.30320222348E+03  0.00000000000E+00 0. -1.
        -13    1    3    3    0    0  0.65838320253E+02  0.86568892561E+02  0.28335680621E+02  0.11239114008E+03  0.00000000000E+00 0.  1.
          2    1    6    6  502    0 -0.78942831746E+02  0.90930315542E+02  0.17815655311E+03  0.21503499805E+03  0.00000000000E+00 0. -1.
          1    1    5    5  503    0 -0.44107821787E+02 -0.49151491429E+03  0.88910786134E+03  0.10168801306E+04  0.00000000000E+00 0. -1.
         -2    1    5    5    0  503 -0.22344604091E+02 -0.48506384642E+02  0.14056013301E+03  0.15036389751E+03  0.00000000000E+00 0.  1.
         -3    1    6    6    0  502 -0.12751404395E+03  0.23126443049E+03  0.23241132541E+03  0.35179268383E+03  0.00000000000E+00 0.  1.
<mgrwt>
<rscale>  0 0.13815073E+04</rscale>
<asrwt>0</asrwt>
<pdfrwt beam="1">  1        2 0.29204854E+00 0.13815073E+04</pdfrwt>
<pdfrwt beam="2">  1       -2 0.38669151E-01 0.13815073E+04</pdfrwt>
<totfact> 0.46876485E+01</totfact>
</mgrwt>
</event>
<event>
12    1  0.1494110E-007  0.2720784E+04  0.7818608E-02  0.8328293E-01
         -2   -1    0    0    0  501 -0.00000000000E+00  0.00000000000E+00  0.11175229206E+04  0.11175229206E+04  0.00000000000E+00 0.  1.
          2   -1    0    0  501    0  0.00000000000E+00 -0.00000000000E+00 -0.16560432068E+04  0.16560432068E+04  0.00000000000E+00 0. -1.
         23    2    1    2    0    0 -0.26038277268E+03 -0.98359684978E+03  0.42554685670E+03  0.11077688485E+04  0.10392181358E+03 0.  0.
        254    2    1    2    0    0  0.26038277268E+03  0.98359684978E+03 -0.96406714292E+03  0.16657972789E+04  0.90010730863E+03 0.  0.
        -24    2    4    4    0    0  0.29130463047E+03  0.11291628455E+04 -0.92922165946E+03  0.14931913227E+04  0.79374520925E+02 0.  0.
         24    2    4    4    0    0 -0.30921857784E+02 -0.14556599570E+03 -0.34845483460E+02  0.17260595613E+03  0.80205909886E+02 0.  0.
         11    1    3    3    0    0 -0.17525575404E+03 -0.58703553917E+03  0.30669652310E+03  0.68511901218E+03  0.00000000000E+00 0.  1.
        -11    1    3    3    0    0 -0.85127018645E+02 -0.39656131060E+03  0.11885033360E+03  0.42264983635E+03  0.00000000000E+00 0. -1.
          4    1    6    6  502    0 -0.38097756546E+01  0.62451924150E+01 -0.15557006643E+02  0.17191197588E+02  0.00000000000E+00 0. -1.
          3    1    5    5  503    0  0.53283128444E+01  0.47500420921E+02 -0.58036062559E+02  0.75185540250E+02  0.00000000000E+00 0. -1.
         -4    1    5    5    0  503  0.28597631762E+03  0.10816624246E+04 -0.87118559690E+03  0.14180057825E+04  0.00000000000E+00 0.  1.
         -3    1    6    6    0  502 -0.27112082130E+02 -0.15181118812E+03 -0.19288476817E+02  0.15541475854E+03  0.00000000000E+00 0.  1.
<mgrwt>
<rscale>  0 0.27207839E+04</rscale>
<asrwt>0</asrwt>
<pdfrwt beam="1">  1        2 0.25477588E+00 0.27207839E+04</pdfrwt>
<pdfrwt beam="2">  1       -2 0.17192660E+00 0.27207839E+04</pdfrwt>
<totfact> 0.18771002E+00</totfact>
</mgrwt>
</event>
<event>
12    1  0.1494110E-007  0.1539143E+04  0.7818608E-02  0.8858833E-01
          2   -1    0    0  501    0  0.00000000000E+00  0.00000000000E+00  0.29573034296E+04  0.29573034296E+04  0.00000000000E+00 0. -1.
         -2   -1    0    0    0  501 -0.00000000000E+00 -0.00000000000E+00 -0.20026350114E+03  0.20026350114E+03  0.00000000000E+00 0.  1.
         23    2    1    2    0    0  0.46029242598E+03  0.10383098780E+03  0.55220278729E+03  0.73208605387E+03  0.91499073989E+02 0.  0.
        254    2    1    2    0    0 -0.46029242598E+03 -0.10383098780E+03  0.22048371412E+04  0.24254808769E+04  0.89386837595E+03 0.  0.
        -24    2    4    4    0    0  0.76381177798E+02  0.30049235213E+03  0.90065767582E+03  0.95570687060E+03  0.77856505854E+02 0.  0.
         24    2    4    4    0    0 -0.53667360378E+03 -0.40432333993E+03  0.13041794654E+04  0.14697740063E+04  0.88632000035E+02 0.  0.
         13    1    3    3    0    0  0.44082475903E+03  0.82041780318E+02  0.49527677858E+03  0.66809910140E+03  0.00000000000E+00 0.  1.
        -13    1    3    3    0    0  0.19467666955E+02  0.21789207482E+02  0.56926008709E+02  0.63986952474E+02  0.00000000000E+00 0. -1.
          2    1    6    6  502    0 -0.96874768089E+02 -0.53036298599E+02  0.15711727147E+03  0.19205053152E+03  0.00000000000E+00 0. -1.
          3    1    5    5  503    0 -0.58470957911E+01  0.20515783963E+01  0.51721021480E+02  0.52090897151E+02  0.00000000000E+00 0. -1.
         -4    1    5    5    0  503  0.82228273589E+02  0.29844077373E+03  0.84893665434E+03  0.90361597345E+03  0.00000000000E+00 0.  1.
         -1    1    6    6    0  502 -0.43979883569E+03 -0.35128704133E+03  0.11470621939E+04  0.12777234748E+04  0.00000000000E+00 0.  1.
<mgrwt>
<rscale>  0 0.15391425E+04</rscale>
<asrwt>0</asrwt>
<pdfrwt beam="1">  1        2 0.45496972E+00 0.15391425E+04</pdfrwt>
<pdfrwt beam="2">  1       -2 0.30809772E-01 0.15391425E+04</pdfrwt>
<totfact> 0.17510517E+01</totfact>
</mgrwt>
</event>
<event>
12    1  0.1494110E-007  0.1830233E+04  0.7818608E-02  0.8690385E-01
         -1   -1    0    0    0  501 -0.00000000000E+00  0.00000000000E+00  0.13743952851E+04  0.13743952851E+04  0.00000000000E+00 0.  1.
          1   -1    0    0  501    0  0.00000000000E+00 -0.00000000000E+00 -0.60931401617E+03  0.60931401617E+03  0.00000000000E+00 0. -1.
         23    2    1    2    0    0  0.18061361948E+03 -0.34708895733E+03 -0.31587834891E+03  0.51020359178E+03  0.86235433033E+02 0.  0.
        254    2    1    2    0    0 -0.18061361948E+03  0.34708895733E+03  0.10809596178E+04  0.14735057095E+04  0.92176643283E+03 0.  0.
        -24    2    4    4    0    0 -0.11298757047E+03  0.60016705385E+03  0.38574343765E+03  0.72664738444E+03  0.79067932861E+02 0.  0.
         24    2    4    4    0    0 -0.67626049011E+02 -0.25307809652E+03  0.69521618019E+03  0.74685832507E+03  0.76485391285E+02 0.  0.
         13    1    3    3    0    0  0.72939659199E+02 -0.13950821236E+03 -0.74623751244E+02  0.17421664515E+03  0.00000000000E+00 0.  1.
        -13    1    3    3    0    0  0.10767396028E+03 -0.20758074498E+03 -0.24125459767E+03  0.33598694662E+03  0.00000000000E+00 0. -1.
          2    1    6    6  502    0 -0.77733730496E+02 -0.23785200643E+03  0.67345350558E+03  0.71843979149E+03  0.00000000000E+00 0. -1.
          3    1    5    5  503    0 -0.25348189949E+02  0.19820694238E+03  0.85548167538E+02  0.21736377737E+03  0.00000000000E+00 0. -1.
         -4    1    5    5    0  503 -0.87639380517E+02  0.40196011147E+03  0.30019527012E+03  0.50928360707E+03  0.00000000000E+00 0.  1.
         -1    1    6    6    0  502  0.10107681485E+02 -0.15226090088E+02  0.21762674610E+02  0.28418533575E+02  0.00000000000E+00 0.  1.
<mgrwt>
<rscale>  0 0.18302331E+04</rscale>
<asrwt>0</asrwt>
<pdfrwt beam="1">  1        1 0.93740618E-01 0.18302331E+04</pdfrwt>
<pdfrwt beam="2">  1       -1 0.21144543E+00 0.18302331E+04</pdfrwt>
<totfact> 0.39610773E+00</totfact>
</mgrwt>
</event>
<event>
12    1  0.1494110E-007  0.2116225E+04  0.7818608E-02  0.8554130E-01
         -2   -1    0    0    0  501 -0.00000000000E+00  0.00000000000E+00  0.56650253770E+03  0.56650253770E+03  0.00000000000E+00 0.  1.
          2   -1    0    0  501    0  0.00000000000E+00 -0.00000000000E+00 -0.19763412217E+04  0.19763412217E+04  0.00000000000E+00 0. -1.
         23    2    1    2    0    0  0.56293299156E+03 -0.47428427018E+03 -0.99803359578E+03  0.12436803881E+04  0.93971950733E+02 0.  0.
        254    2    1    2    0    0 -0.56293299156E+03  0.47428427018E+03 -0.41180508822E+03  0.12991633713E+04  0.98813102002E+03 0.  0.
        -24    2    4    4    0    0 -0.55706778043E+03  0.69600094877E+03 -0.52540909913E+03  0.10383159208E+04  0.85459916318E+02 0.  0.
         24    2    4    4    0    0 -0.58652111249E+01 -0.22171667859E+03  0.11360401091E+03  0.26084745048E+03  0.77089784412E+02 0.  0.
         13    1    3    3    0    0  0.33278982602E+03 -0.33634291004E+03 -0.61262344240E+03  0.77406918529E+03  0.00000000000E+00 0. -1.
        -13    1    3    3    0    0  0.23014316554E+03 -0.13794136014E+03 -0.38541015338E+03  0.46961120281E+03  0.00000000000E+00 0.  1.
          2    1    6    6  502    0 -0.26384016504E+02 -0.13235667280E+03  0.33399716326E+02  0.13903217689E+03  0.00000000000E+00 0. -1.
          1    1    5    5  503    0 -0.18672810914E+03  0.26007286036E+03 -0.14571125511E+03  0.35176277418E+03  0.00000000000E+00 0. -1.
         -2    1    5    5    0  503 -0.37033967130E+03  0.43592808841E+03 -0.37969784402E+03  0.68655314664E+03  0.00000000000E+00 0.  1.
         -1    1    6    6    0  502  0.20518805379E+02 -0.89360005795E+02  0.80204294585E+02  0.12181527359E+03  0.00000000000E+00 0.  1.
<mgrwt>
<rscale>  0 0.21162252E+04</rscale>
<asrwt>0</asrwt>
<pdfrwt beam="1">  1        2 0.30405250E+00 0.21162252E+04</pdfrwt>
<pdfrwt beam="2">  1       -2 0.87154237E-01 0.21162252E+04</pdfrwt>
<totfact> 0.72116010E+00</totfact>
</mgrwt>
</event>
<event>
12    1  0.1494110E-007  0.1841923E+04  0.7818608E-02  0.8684318E-01
          2   -1    0    0  501    0  0.00000000000E+00  0.00000000000E+00  0.47790332384E+03  0.47790332384E+03  0.00000000000E+00 0. -1.
         -2   -1    0    0    0  501 -0.00000000000E+00 -0.00000000000E+00 -0.17747728079E+04  0.17747728079E+04  0.00000000000E+00 0.  1.
         23    2    1    2    0    0  0.38984236803E+03  0.45172506715E+03 -0.94210129227E+03  0.11194533733E+04  0.97920385265E+02 0.  0.
        254    2    1    2    0    0 -0.38984236803E+03 -0.45172506715E+03 -0.35476819180E+03  0.11332227585E+04  0.89571242158E+03 0.  0.
        -24    2    4    4    0    0 -0.48578571991E+03  0.10601105521E+03 -0.18482861690E+03  0.53671834569E+03  0.81724264965E+02 0.  0.
         24    2    4    4    0    0  0.95943351879E+02 -0.55773612236E+03 -0.16993957490E+03  0.59650441277E+03  0.81629323007E+02 0.  0.
         11    1    3    3    0    0  0.24957712408E+03  0.27577213132E+03 -0.49763437813E+03  0.62127206888E+03  0.00000000000E+00 0. -1.
        -11    1    3    3    0    0  0.14026524395E+03  0.17595293584E+03 -0.44446691414E+03  0.49818130441E+03  0.00000000000E+00 0.  1.
          4    1    6    6  502    0  0.35468041261E+01 -0.66849018987E+02 -0.47870884235E+02  0.82298193884E+02  0.00000000000E+00 0. -1.
          3    1    5    5  503    0 -0.17239490069E+03 -0.13961513104E+01 -0.56045091928E+02  0.18128155822E+03  0.00000000000E+00 0. -1.
         -4    1    5    5    0  503 -0.31339081922E+03  0.10740720652E+03 -0.12878352497E+03  0.35543678747E+03  0.00000000000E+00 0.  1.
         -3    1    6    6    0  502  0.92396547753E+02 -0.49088710337E+03 -0.12206869067E+03  0.51420621888E+03  0.00000000000E+00 0.  1.
<mgrwt>
<rscale>  0 0.18419227E+04</rscale>
<asrwt>0</asrwt>
<pdfrwt beam="1">  1        2 0.73523588E-01 0.18419227E+04</pdfrwt>
<pdfrwt beam="2">  1       -2 0.27304197E+00 0.18419227E+04</pdfrwt>
<totfact> 0.28371220E+00</totfact>
</mgrwt>
</event>
<event>
12    1  0.1494110E-007  0.1322937E+04  0.7818608E-02  0.9011571E-01
          1   -1    0    0  501    0  0.00000000000E+00  0.00000000000E+00  0.14792542349E+04  0.14792542349E+04  0.00000000000E+00 0. -1.
         -1   -1    0    0    0  501 -0.00000000000E+00 -0.00000000000E+00 -0.29578444173E+03  0.29578444173E+03  0.00000000000E+00 0.  1.
         23    2    1    2    0    0  0.83869403708E+02 -0.26511893629E+03  0.61506889926E+03  0.68083321350E+03  0.88893118415E+02 0.  0.
        254    2    1    2    0    0 -0.83869403708E+02  0.26511893629E+03  0.56840089388E+03  0.10942054631E+04  0.89268353410E+03 0.  0.
        -24    2    4    4    0    0 -0.36199979180E+01  0.41250318069E+03  0.73375790689E+03  0.84569471083E+03  0.81405770906E+02 0.  0.
         24    2    4    4    0    0 -0.80249405790E+02 -0.14738424439E+03 -0.16535701301E+03  0.24851075227E+03  0.79073191541E+02 0.  0.
         11    1    3    3    0    0  0.31829080013E+02 -0.17688380636E+03  0.30201829654E+03  0.35144846383E+03  0.00000000000E+00 0. -1.
        -11    1    3    3    0    0  0.52040323695E+02 -0.88235129931E+02  0.31305060273E+03  0.32938474967E+03  0.00000000000E+00 0.  1.
          4    1    6    6  502    0 -0.21701603393E+02 -0.16179988601E+01 -0.47113037648E+02  0.51896202429E+02  0.00000000000E+00 0. -1.
          1    1    5    5  503    0  0.38015151763E+02  0.16308762519E+03  0.28139309017E+03  0.32745197579E+03  0.00000000000E+00 0. -1.
         -2    1    5    5    0  503 -0.41635149681E+02  0.24941555550E+03  0.45236481672E+03  0.51824273503E+03  0.00000000000E+00 0.  1.
         -3    1    6    6    0  502 -0.58547802397E+02 -0.14576624553E+03 -0.11824397536E+03  0.19661454985E+03  0.00000000000E+00 0.  1.
<mgrwt>
<rscale>  0 0.13229367E+04</rscale>
<asrwt>0</asrwt>
<pdfrwt beam="1">  1        1 0.22757757E+00 0.13229367E+04</pdfrwt>
<pdfrwt beam="2">  1       -1 0.45505300E-01 0.13229367E+04</pdfrwt>
<totfact> 0.31807273E+01</totfact>
</mgrwt>
</event>
<event>
12    1  0.1494110E-007  0.2327682E+04  0.7818608E-02  0.8467086E-01
         -2   -1    0    0    0  501 -0.00000000000E+00  0.00000000000E+00  0.41319348764E+03  0.41319348764E+03  0.00000000000E+00 0.  1.
          2   -1    0    0  501    0  0.00000000000E+00 -0.00000000000E+00 -0.32781869833E+04  0.32781869833E+04  0.00000000000E+00 0. -1.
         23    2    1    2    0    0 -0.13390658458E+03 -0.35736559099E+02 -0.27454684370E+04  0.27505750855E+04  0.94118473991E+02 0.  0.
        254    2    1    2    0    0  0.13390658458E+03  0.35736559099E+02 -0.11952505865E+03  0.94080538547E+03  0.92283284437E+03 0.  0.
        -24    2    4    4    0    0 -0.28419843493E+03 -0.27078539641E+03 -0.11336998057E+03  0.41622719762E+03  0.79365270877E+02 0.  0.
         24    2    4    4    0    0  0.41810501950E+03  0.30652195551E+03 -0.61550780835E+01  0.52457818785E+03  0.79855329445E+02 0.  0.
         13    1    3    3    0    0 -0.75999881397E+02  0.23851288450E+02 -0.16716976083E+04  0.16735942637E+04  0.00000000000E+00 0. -1.
        -13    1    3    3    0    0 -0.57906703180E+02 -0.59587847548E+02 -0.10737708287E+04  0.10769808218E+04  0.00000000000E+00 0.  1.
          2    1    6    6  502    0  0.36486612055E+03  0.28844502765E+03 -0.23602741674E+02  0.46570903933E+03  0.00000000000E+00 0. -1.
          3    1    5    5  503    0 -0.24635785408E+03 -0.26520796910E+03 -0.10691916821E+03  0.37743763414E+03  0.00000000000E+00 0. -1.
         -4    1    5    5    0  503 -0.37840580852E+02 -0.55774273116E+01 -0.64508123586E+01  0.38789563476E+02  0.00000000000E+00 0.  1.
         -1    1    6    6    0  502  0.53238898955E+02  0.18076927858E+02  0.17447663591E+02  0.58869148520E+02  0.00000000000E+00 0.  1.
<mgrwt>
<rscale>  0 0.23276817E+04</rscale>
<asrwt>0</asrwt>
<pdfrwt beam="1">  1        2 0.50433646E+00 0.23276817E+04</pdfrwt>
<pdfrwt beam="2">  1       -2 0.63568229E-01 0.23276817E+04</pdfrwt>
<totfact> 0.23896329E+00</totfact>
</mgrwt>
</event>
<event>
12    1  0.1494110E-007  0.1181149E+04  0.7818608E-02  0.9129519E-01
          2   -1    0    0  501    0  0.00000000000E+00  0.00000000000E+00  0.86272786704E+03  0.86272786704E+03  0.00000000000E+00 0. -1.
         -2   -1    0    0    0  501 -0.00000000000E+00 -0.00000000000E+00 -0.40427361210E+03  0.40427361210E+03  0.00000000000E+00 0.  1.
         23    2    1    2    0    0 -0.21043738224E+03  0.95549557686E+01 -0.50995297546E+02  0.23493551956E+03  0.90658639720E+02 0.  0.
        254    2    1    2    0    0  0.21043738224E+03 -0.95549557686E+01  0.50944955249E+03  0.10320659596E+04  0.87249418874E+03 0.  0.
        -24    2    4    4    0    0  0.29618495106E+03 -0.33454254925E+03  0.51547080829E+03  0.68660638768E+03  0.77935453505E+02 0.  0.
         24    2    4    4    0    0 -0.85747568826E+02  0.32498759349E+03 -0.60212558024E+01  0.34545957191E+03  0.79602002618E+02 0.  0.
         13    1    3    3    0    0 -0.32878044272E+02 -0.69011457917E+01  0.24206035133E+02  0.41406807958E+02  0.00000000000E+00 0. -1.
        -13    1    3    3    0    0 -0.17755933796E+03  0.16456101560E+02 -0.75201332679E+02  0.19352871160E+03  0.00000000000E+00 0.  1.
          2    1    6    6  502    0 -0.19263363908E+02  0.75677176412E+01  0.36089397115E+01  0.21008854924E+02  0.00000000000E+00 0. -1.
          1    1    5    5  503    0  0.19716704740E+00  0.39173651887E+01  0.49531558511E+01  0.63180992198E+01  0.00000000000E+00 0. -1.
         -4    1    5    5    0  503  0.29598778402E+03 -0.33845991444E+03  0.51051765244E+03  0.68028828846E+03  0.00000000000E+00 0.  1.
         -1    1    6    6    0  502 -0.66484204918E+02  0.31741987584E+03 -0.96301955139E+01  0.32445071698E+03  0.00000000000E+00 0.  1.
<mgrwt>
<rscale>  0 0.11811488E+04</rscale>
<asrwt>0</asrwt>
<pdfrwt beam="1">  1        2 0.13272736E+00 0.11811488E+04</pdfrwt>
<pdfrwt beam="2">  1       -2 0.62195940E-01 0.11811488E+04</pdfrwt>
<totfact> 0.73740463E+01</totfact>
</mgrwt>
</event>
<event>
12    1  0.1494110E-007  0.2197568E+04  0.7818608E-02  0.8519441E-01
          1   -1    0    0  501    0  0.00000000000E+00  0.00000000000E+00  0.27286399120E+04  0.27286399120E+04  0.00000000000E+00 0. -1.
         -1   -1    0    0    0  501 -0.00000000000E+00 -0.00000000000E+00 -0.44246460259E+03  0.44246460259E+03  0.00000000000E+00 0.  1.
         23    2    1    2    0    0  0.78678940115E+03  0.14110048930E+02  0.28579929073E+03  0.84203691080E+03  0.90045928976E+02 0.  0.
        254    2    1    2    0    0 -0.78678940115E+03 -0.14110048930E+02  0.20003760187E+04  0.23290676038E+04  0.89655732202E+03 0.  0.
        -24    2    4    4    0    0 -0.16916747110E+03  0.19900686747E+03  0.59014124505E+02  0.27916105845E+03  0.78910475135E+02 0.  0.
         24    2    4    4    0    0 -0.61762193005E+03 -0.21311691640E+03  0.19413618942E+04  0.20499065453E+04  0.79719332244E+02 0.  0.
         13    1    3    3    0    0  0.76218759934E+03  0.91613321857E+01  0.29188097709E+03  0.81621588528E+03  0.00000000000E+00 0.  1.
        -13    1    3    3    0    0  0.24601801802E+02  0.49487167446E+01 -0.60816863685E+01  0.25821025511E+02  0.00000000000E+00 0. -1.
          4    1    6    6  502    0 -0.57375690409E+03 -0.17551364793E+03  0.17906695000E+04  0.18885177478E+04  0.00000000000E+00 0. -1.
          1    1    5    5  503    0 -0.26697291571E+02  0.86306726816E+02  0.92643730770E+01  0.90815335045E+02  0.00000000000E+00 0. -1.
         -2    1    5    5    0  503 -0.14247017953E+03  0.11270014066E+03  0.49749751428E+02  0.18834572341E+03  0.00000000000E+00 0.  1.
         -3    1    6    6    0  502 -0.43865025957E+02 -0.37603268474E+02  0.15069239415E+03  0.16138879750E+03  0.00000000000E+00 0.  1.
<mgrwt>
<rscale>  0 0.21975683E+04</rscale>
<asrwt>0</asrwt>
<pdfrwt beam="1">  1        1 0.41979075E+00 0.21975683E+04</pdfrwt>
<pdfrwt beam="2">  1       -1 0.68071479E-01 0.21975683E+04</pdfrwt>
<totfact> 0.18668364E+00</totfact>
</mgrwt>
</event>
<event>
12    1  0.1494110E-007  0.1900996E+04  0.7818608E-02  0.8654361E-01
          1   -1    0    0  501    0  0.00000000000E+00  0.00000000000E+00  0.73953207602E+03  0.73953207602E+03  0.00000000000E+00 0. -1.
         -1   -1    0    0    0  501 -0.00000000000E+00 -0.00000000000E+00 -0.12216463949E+04  0.12216463949E+04  0.00000000000E+00 0.  1.
         23    2    1    2    0    0 -0.54364723560E+03  0.44396597754E+03 -0.41503748720E+03  0.82055706577E+03  0.91649748617E+02 0.  0.
        254    2    1    2    0    0  0.54364723560E+03 -0.44396597754E+03 -0.67076831654E+02  0.11406214051E+04  0.89658227871E+03 0.  0.
        -24    2    4    4    0    0  0.59911059787E+03  0.38489965578E+02  0.11335180534E+03  0.61652604798E+03  0.82708827463E+02 0.  0.
         24    2    4    4    0    0 -0.55463362272E+02 -0.48245594311E+03 -0.18042863699E+03  0.52409535714E+03  0.79256095846E+02 0.  0.
         11    1    3    3    0    0 -0.49926764371E+03  0.37878630819E+03 -0.38855377738E+03  0.73737458950E+03  0.00000000000E+00 0. -1.
        -11    1    3    3    0    0 -0.44379591887E+02  0.65179669349E+02 -0.26483709825E+02  0.83182476271E+02  0.00000000000E+00 0.  1.
          2    1    6    6  502    0 -0.53604292126E+02 -0.24136000155E+03 -0.59196463385E+02  0.25422881772E+03  0.00000000000E+00 0. -1.
          1    1    5    5  503    0  0.52842678342E+03  0.60578246098E+02  0.96335145046E+02  0.54054144106E+03  0.00000000000E+00 0. -1.
         -2    1    5    5    0  503  0.70683814452E+02 -0.22088280520E+02  0.17016660294E+02  0.75984606923E+02  0.00000000000E+00 0.  1.
         -1    1    6    6    0  502 -0.18590701460E+01 -0.24109594156E+03 -0.12123217361E+03  0.26986653941E+03  0.00000000000E+00 0.  1.
<mgrwt>
<rscale>  0 0.19009963E+04</rscale>
<asrwt>0</asrwt>
<pdfrwt beam="1">  1        1 0.11377417E+00 0.19009963E+04</pdfrwt>
<pdfrwt beam="2">  1       -1 0.18794560E+00 0.19009963E+04</pdfrwt>
<totfact> 0.42782685E+00</totfact>
</mgrwt>
</event>
<event>
12    1  0.1494110E-007  0.1263862E+04  0.7818608E-02  0.9058724E-01
         -2   -1    0    0    0  501 -0.00000000000E+00  0.00000000000E+00  0.95659116634E+03  0.95659116634E+03  0.00000000000E+00 0.  1.
          2   -1    0    0  501    0  0.00000000000E+00 -0.00000000000E+00 -0.41745814520E+03  0.41745814520E+03  0.00000000000E+00 0. -1.
         23    2    1    2    0    0 -0.23285066375E+03 -0.45358705176E+02  0.34453575409E+03  0.42896448836E+03  0.95020012022E+02 0.  0.
        254    2    1    2    0    0  0.23285066375E+03  0.45358705176E+02  0.19459726705E+03  0.94508482317E+03  0.89389058777E+03 0.  0.
        -24    2    4    4    0    0 -0.47064209678E+01 -0.12575477827E+03 -0.31722077303E+03  0.35027941895E+03  0.78931855690E+02 0.  0.
         24    2    4    4    0    0  0.23755708472E+03  0.17111348344E+03  0.51181804009E+03  0.59480540422E+03  0.78246853074E+02 0.  0.
         11    1    3    3    0    0 -0.20883045133E+03 -0.49317032694E+02  0.34297969042E+03  0.40457063062E+03  0.00000000000E+00 0.  1.
        -11    1    3    3    0    0 -0.24020212420E+02  0.39583275178E+01  0.15560636667E+01  0.24393857742E+02  0.00000000000E+00 0. -1.
          4    1    6    6  502    0  0.78815479547E+02  0.80659276345E+02  0.13406837644E+03  0.17519168998E+03  0.00000000000E+00 0. -1.
          1    1    5    5  503    0  0.89893244543E+01 -0.10034945552E+03 -0.30046364039E+03  0.31690569634E+03  0.00000000000E+00 0. -1.
         -2    1    5    5    0  503 -0.13695745422E+02 -0.25405322750E+02 -0.16757132649E+02  0.33373722617E+02  0.00000000000E+00 0.  1.
         -3    1    6    6    0  502  0.15874160517E+03  0.90454207097E+02  0.37774966364E+03  0.41961371424E+03  0.00000000000E+00 0.  1.
<mgrwt>
<rscale>  0 0.12638620E+04</rscale>
<asrwt>0</asrwt>
<pdfrwt beam="1">  1        2 0.64224330E-01 0.12638620E+04</pdfrwt>
<pdfrwt beam="2">  1       -2 0.14716787E+00 0.12638620E+04</pdfrwt>
<totfact> 0.23435773E+01</totfact>
</mgrwt>
</event>
<event>
12    1  0.1494110E-007  0.1509095E+04  0.7818608E-02  0.8878427E-01
          2   -1    0    0  501    0  0.00000000000E+00  0.00000000000E+00  0.11728035661E+04  0.11728035661E+04  0.00000000000E+00 0. -1.
         -2   -1    0    0    0  501 -0.00000000000E+00 -0.00000000000E+00 -0.48545374449E+03  0.48545374449E+03  0.00000000000E+00 0.  1.
         23    2    1    2    0    0 -0.34396828143E+03  0.15080401640E+03  0.55904501269E+03  0.67940457828E+03  0.89460744429E+02 0.  0.
        254    2    1    2    0    0  0.34396828143E+03 -0.15080401640E+03  0.12830480896E+03  0.97885273234E+03  0.89478182683E+03 0.  0.
        -24    2    4    4    0    0  0.61437541167E+03 -0.98281634476E+02  0.23938077759E+03  0.67137340432E+03  0.79515188530E+02 0.  0.
         24    2    4    4    0    0 -0.27040713024E+03 -0.52522381926E+02 -0.11107596863E+03  0.30747932802E+03  0.79542753701E+02 0.  0.
         11    1    3    3    0    0 -0.31273040510E+03  0.12415074715E+03  0.53442844818E+03  0.63152789370E+03  0.00000000000E+00 0. -1.
        -11    1    3    3    0    0 -0.31237876327E+02  0.26653269247E+02  0.24616564506E+02  0.47876684587E+02  0.00000000000E+00 0.  1.
          2    1    6    6  502    0 -0.13052785686E+02  0.66136438407E+00  0.11589524034E+02  0.17467961654E+02  0.00000000000E+00 0. -1.
          3    1    5    5  503    0  0.62647856827E+02  0.11522455291E+02  0.36142278441E+02  0.73237867472E+02  0.00000000000E+00 0. -1.
         -4    1    5    5    0  503  0.55172755484E+03 -0.10980408977E+03  0.20323849915E+03  0.59813553685E+03  0.00000000000E+00 0.  1.
         -1    1    6    6    0  502 -0.25735434456E+03 -0.53183746310E+02 -0.12266549266E+03  0.29001136637E+03  0.00000000000E+00 0.  1.
<mgrwt>
<rscale>  0 0.15090949E+04</rscale>
<asrwt>0</asrwt>
<pdfrwt beam="1">  1        2 0.18043132E+00 0.15090949E+04</pdfrwt>
<pdfrwt beam="2">  1       -2 0.74685192E-01 0.15090949E+04</pdfrwt>
<totfact> 0.30610579E+01</totfact>
</mgrwt>
</event>
<event>
12    1  0.1494110E-007  0.1334058E+04  0.7818608E-02  0.9002985E-01
          2   -1    0    0  501    0  0.00000000000E+00  0.00000000000E+00  0.20378098839E+04  0.20378098839E+04  0.00000000000E+00 0. -1.
         -2   -1    0    0    0  501 -0.00000000000E+00 -0.00000000000E+00 -0.21833616088E+03  0.21833616088E+03  0.00000000000E+00 0.  1.
         23    2    1    2    0    0  0.28664988432E+03  0.15484260496E+03  0.73340107095E+03  0.80755663365E+03  0.90145422380E+02 0.  0.
        254    2    1    2    0    0 -0.28664988432E+03 -0.15484260496E+03  0.10860726521E+04  0.14485894112E+04  0.90150601108E+03 0.  0.
        -24    2    4    4    0    0 -0.59131552387E+03 -0.18501242378E+03  0.58685447631E+03  0.85719779066E+03  0.80661206420E+02 0.  0.
         24    2    4    4    0    0  0.30466563955E+03  0.30169818817E+02  0.49921817580E+03  0.59139162052E+03  0.82425068244E+02 0.  0.
         11    1    3    3    0    0  0.16412239486E+03  0.93269688601E+02  0.31474432121E+03  0.36701414556E+03  0.00000000000E+00 0. -1.
        -11    1    3    3    0    0  0.12252748946E+03  0.61572916358E+02  0.41865674975E+03  0.44054248809E+03  0.00000000000E+00 0.  1.
          4    1    6    6  502    0  0.61875567806E+02  0.20965812327E+02  0.17081059393E+03  0.18287812931E+03  0.00000000000E+00 0. -1.
          1    1    5    5  503    0 -0.24409678372E+02 -0.13189515644E+02  0.78012922074E+01  0.28821101319E+02  0.00000000000E+00 0. -1.
         -2    1    5    5    0  503 -0.56690584550E+03 -0.17182290813E+03  0.57905318411E+03  0.82837668934E+03  0.00000000000E+00 0.  1.
         -3    1    6    6    0  502  0.24279007174E+03  0.92040064905E+01  0.32840758187E+03  0.40851349121E+03  0.00000000000E+00 0.  1.
<mgrwt>
<rscale>  0 0.13340578E+04</rscale>
<asrwt>0</asrwt>
<pdfrwt beam="1">  1        2 0.31350920E+00 0.13340578E+04</pdfrwt>
<pdfrwt beam="2">  1       -2 0.33590180E-01 0.13340578E+04</pdfrwt>
<totfact> 0.51624784E+01</totfact>
</mgrwt>
</event>
<event>
12    1  0.1494110E-007  0.1373581E+04  0.7818608E-02  0.8973167E-01
         -1   -1    0    0    0  501 -0.00000000000E+00  0.00000000000E+00  0.29062294330E+03  0.29062294330E+03  0.00000000000E+00 0.  1.
          1   -1    0    0  501    0  0.00000000000E+00 -0.00000000000E+00 -0.16230009393E+04  0.16230009393E+04  0.00000000000E+00 0. -1.
         23    2    1    2    0    0 -0.20579165620E+03  0.31552878540E+03 -0.46246988300E+03  0.60326784317E+03  0.90250084429E+02 0.  0.
        254    2    1    2    0    0  0.20579165620E+03 -0.31552878540E+03 -0.86990811305E+03  0.13103560395E+04  0.90464590027E+03 0.  0.
        -24    2    4    4    0    0 -0.28505378892E+03 -0.32057920326E+03 -0.21080915726E+03  0.48461750176E+03  0.79918296369E+02 0.  0.
         24    2    4    4    0    0  0.49084544512E+03  0.50504178529E+01 -0.65909895579E+03  0.82573853772E+03  0.80485659762E+02 0.  0.
         11    1    3    3    0    0 -0.11105589393E+03  0.17145871880E+03 -0.17969750865E+03  0.27207112754E+03  0.00000000000E+00 0. -1.
        -11    1    3    3    0    0 -0.94735762269E+02  0.14407006660E+03 -0.28277237435E+03  0.33119671562E+03  0.00000000000E+00 0.  1.
          4    1    6    6  502    0  0.37743777018E+03  0.96256687167E+01 -0.44645619014E+03  0.58470082398E+03  0.00000000000E+00 0. -1.
          3    1    5    5  503    0 -0.15589387791E+03 -0.15046755450E+03 -0.14654570907E+03  0.26157031746E+03  0.00000000000E+00 0. -1.
         -4    1    5    5    0  503 -0.12915991101E+03 -0.17011164875E+03 -0.64263448182E+02  0.22304718431E+03  0.00000000000E+00 0.  1.
         -3    1    6    6    0  502  0.11340767494E+03 -0.45752508638E+01 -0.21264276565E+03  0.24103771373E+03  0.00000000000E+00 0.  1.
<mgrwt>
<rscale>  0 0.13735812E+04</rscale>
<asrwt>0</asrwt>
<pdfrwt beam="1">  1        1 0.24969246E+00 0.13735812E+04</pdfrwt>
<pdfrwt beam="2">  1       -1 0.44711221E-01 0.13735812E+04</pdfrwt>
<totfact> 0.26060115E+01</totfact>
</mgrwt>
</event>
<event>
12    1  0.1494110E-007  0.2889935E+04  0.7818608E-02  0.8275879E-01
          2   -1    0    0  501    0  0.00000000000E+00  0.00000000000E+00  0.29324283741E+04  0.29324283741E+04  0.00000000000E+00 0. -1.
         -2   -1    0    0    0  501 -0.00000000000E+00 -0.00000000000E+00 -0.71201418536E+03  0.71201418536E+03  0.00000000000E+00 0.  1.
         23    2    1    2    0    0 -0.42632066409E+03  0.99233646239E+03  0.16497436184E+03  0.10963893208E+04  0.91498849760E+02 0.  0.
        254    2    1    2    0    0  0.42632066409E+03 -0.99233646239E+03  0.20554398269E+04  0.25480532387E+04  0.10494100542E+04 0.  0.
        -24    2    4    4    0    0  0.48610842424E+03 -0.74296791582E+03  0.20947118719E+04  0.22764523147E+04  0.78195848336E+02 0.  0.
         24    2    4    4    0    0 -0.59787760158E+02 -0.24936854657E+03 -0.39272045029E+02  0.27160092394E+03  0.80408457770E+02 0.  0.
         13    1    3    3    0    0 -0.56281782739E+02  0.12403185390E+03 -0.94947407462E+01  0.13653457420E+03  0.00000000000E+00 0. -1.
        -13    1    3    3    0    0 -0.37003888135E+03  0.86830460849E+03  0.17446910258E+03  0.95985474661E+03  0.00000000000E+00 0.  1.
          2    1    6    6  502    0 -0.25288387163E+02 -0.17849289363E+03  0.66050698119E+01  0.18039634849E+03  0.00000000000E+00 0. -1.
          1    1    5    5  503    0  0.26552234471E+03 -0.34645409953E+03  0.10825780041E+04  0.11672650486E+04  0.00000000000E+00 0. -1.
         -2    1    5    5    0  503  0.22058607953E+03 -0.39651381630E+03  0.10121338678E+04  0.11091872662E+04  0.00000000000E+00 0.  1.
         -1    1    6    6    0  502 -0.34499372994E+02 -0.70875652941E+02 -0.45877114841E+02  0.91204575449E+02  0.00000000000E+00 0.  1.
<mgrwt>
<rscale>  0 0.28899347E+04</rscale>
<asrwt>0</asrwt>
<pdfrwt beam="1">  1        2 0.45114282E+00 0.28899347E+04</pdfrwt>
<pdfrwt beam="2">  1       -2 0.10954065E+00 0.28899347E+04</pdfrwt>
<totfact> 0.10993368E+00</totfact>
</mgrwt>
</event>
<event>
12    1  0.1494110E-007  0.2466593E+04  0.7818608E-02  0.8414985E-01
          2   -1    0    0  501    0  0.00000000000E+00  0.00000000000E+00  0.25645635316E+04  0.25645635316E+04  0.00000000000E+00 0. -1.
         -2   -1    0    0    0  501 -0.00000000000E+00 -0.00000000000E+00 -0.59309111829E+03  0.59309111829E+03  0.00000000000E+00 0.  1.
         23    2    1    2    0    0  0.59537886015E+03  0.77635763657E+03  0.13647655529E+04  0.16816151821E+04  0.89651767417E+02 0.  0.
        254    2    1    2    0    0 -0.59537886015E+03 -0.77635763657E+03  0.60670686040E+03  0.14760394678E+04  0.92379225421E+03 0.  0.
        -24    2    4    4    0    0  0.12211184042E+02 -0.72235664556E+03  0.28185177427E+03  0.77958769222E+03  0.79801696666E+02 0.  0.
         24    2    4    4    0    0 -0.60759004419E+03 -0.54000991003E+02  0.32485508613E+03  0.69645177554E+03  0.86211831167E+02 0.  0.
         11    1    3    3    0    0  0.40811292092E+03  0.56604548101E+03  0.91072617337E+03  0.11473385750E+04  0.00000000000E+00 0. -1.
        -11    1    3    3    0    0  0.18726593923E+03  0.21031215556E+03  0.45403937952E+03  0.53427660713E+03  0.00000000000E+00 0.  1.
          4    1    6    6  502    0 -0.19730844375E+03 -0.22913132605E+02  0.15218471202E+03  0.25023153318E+03  0.00000000000E+00 0. -1.
          3    1    5    5  503    0  0.35321299943E+02 -0.48813951386E+03  0.21767624735E+03  0.53564048379E+03  0.00000000000E+00 0. -1.
         -4    1    5    5    0  503 -0.23110115902E+02 -0.23421713171E+03  0.64175526918E+02  0.24394720842E+03  0.00000000000E+00 0.  1.
         -3    1    6    6    0  502 -0.41028160044E+03 -0.31087858398E+02  0.17267037411E+03  0.44622024236E+03  0.00000000000E+00 0.  1.
<mgrwt>
<rscale>  0 0.24665927E+04</rscale>
<asrwt>0</asrwt>
<pdfrwt beam="1">  1        2 0.39454823E+00 0.24665927E+04</pdfrwt>
<pdfrwt beam="2">  1       -2 0.91244789E-01 0.24665927E+04</pdfrwt>
<totfact> 0.29224430E+00</totfact>
</mgrwt>
</event>
<event>
12    1  0.1494110E-007  0.2061844E+04  0.7818608E-02  0.8578240E-01
          2   -1    0    0  501    0  0.00000000000E+00  0.00000000000E+00  0.25577155934E+04  0.25577155934E+04  0.00000000000E+00 0. -1.
         -2   -1    0    0    0  501 -0.00000000000E+00 -0.00000000000E+00 -0.41552712663E+03  0.41552712663E+03  0.00000000000E+00 0.  1.
         23    2    1    2    0    0  0.31958149840E+03  0.62777394876E+03  0.22304061640E+03  0.74441088700E+03  0.90376917661E+02 0.  0.
        254    2    1    2    0    0 -0.31958149840E+03 -0.62777394876E+03  0.19191478504E+04  0.22288318330E+04  0.88787972355E+03 0.  0.
        -24    2    4    4    0    0 -0.13920118660E+03 -0.51277050380E+03  0.34486994079E+03  0.63807042141E+03  0.76733478356E+02 0.  0.
         24    2    4    4    0    0 -0.18038031181E+03 -0.11500344497E+03  0.15742779096E+04  0.15907614116E+04  0.80050502060E+02 0.  0.
         11    1    3    3    0    0  0.26165658530E+03  0.57547522828E+03  0.19915899801E+03  0.66279726424E+03  0.00000000000E+00 0.  1.
        -11    1    3    3    0    0  0.57924913106E+02  0.52298720480E+02  0.23881618388E+02  0.81613622754E+02  0.00000000000E+00 0. -1.
          4    1    6    6  502    0 -0.11493774662E+03 -0.51886292332E+02  0.11473508336E+04  0.11542602862E+04  0.00000000000E+00 0. -1.
          3    1    5    5  503    0 -0.11344279115E+03 -0.44176784088E+03  0.32476111043E+03  0.55990880592E+03  0.00000000000E+00 0. -1.
         -4    1    5    5    0  503 -0.25758395449E+02 -0.71002662914E+02  0.20108830364E+02  0.78161615488E+02  0.00000000000E+00 0.  1.
         -3    1    6    6    0  502 -0.65442565185E+02 -0.63117152634E+02  0.42692707603E+03  0.43650112548E+03  0.00000000000E+00 0.  1.
<mgrwt>
<rscale>  0 0.20618440E+04</rscale>
<asrwt>0</asrwt>
<pdfrwt beam="1">  1        2 0.39349470E+00 0.20618440E+04</pdfrwt>
<pdfrwt beam="2">  1       -2 0.63927252E-01 0.20618440E+04</pdfrwt>
<totfact> 0.67425113E+00</totfact>
</mgrwt>
</event>
<event>
12    1  0.1494110E-007  0.1910244E+04  0.7818608E-02  0.8649774E-01
          1   -1    0    0  501    0  0.00000000000E+00  0.00000000000E+00  0.13578006382E+04  0.13578006382E+04  0.00000000000E+00 0. -1.
         -1   -1    0    0    0  501 -0.00000000000E+00 -0.00000000000E+00 -0.67186480647E+03  0.67186480647E+03  0.00000000000E+00 0.  1.
         23    2    1    2    0    0  0.12790963844E+03 -0.62716995054E+03 -0.12704747413E+03  0.65919946097E+03  0.93272966051E+02 0.  0.
        254    2    1    2    0    0 -0.12790963844E+03  0.62716995054E+03  0.81298330587E+03  0.13704659837E+04  0.89862791767E+03 0.  0.
        -24    2    4    4    0    0 -0.30809076593E+03 -0.11185118791E+03  0.26331662646E+03  0.42854780061E+03  0.82987730101E+02 0.  0.
         24    2    4    4    0    0  0.18018112749E+03  0.73902113845E+03  0.54966667941E+03  0.94191818311E+03  0.80367427636E+02 0.  0.
         13    1    3    3    0    0  0.13584974464E+03 -0.53891253114E+03 -0.89382377016E+02  0.56291302939E+03  0.00000000000E+00 0.  1.
        -13    1    3    3    0    0 -0.79401062011E+01 -0.88257419405E+02 -0.37665097114E+02  0.96286431584E+02  0.00000000000E+00 0. -1.
          2    1    6    6  502    0  0.43517539788E+02  0.73464942355E+02  0.57284311566E+02  0.10282201309E+03  0.00000000000E+00 0. -1.
          1    1    5    5  503    0 -0.18517575030E+03 -0.26863106910E+02  0.16668665572E+03  0.25059155254E+03  0.00000000000E+00 0. -1.
         -2    1    5    5    0  503 -0.12291501564E+03 -0.84988080999E+02  0.96629970739E+02  0.17795624807E+03  0.00000000000E+00 0.  1.
         -1    1    6    6    0  502  0.13666358771E+03  0.66555619610E+03  0.49238236785E+03  0.83909617002E+03  0.00000000000E+00 0.  1.
<mgrwt>
<rscale>  0 0.19102444E+04</rscale>
<asrwt>0</asrwt>
<pdfrwt beam="1">  1        1 0.20889241E+00 0.19102444E+04</pdfrwt>
<pdfrwt beam="2">  1       -1 0.10336382E+00 0.19102444E+04</pdfrwt>
<totfact> 0.67922448E+00</totfact>
</mgrwt>
</event>
<event>
12    1  0.1494110E-007  0.1596257E+04  0.7818608E-02  0.8822851E-01
         -1   -1    0    0    0  501 -0.00000000000E+00  0.00000000000E+00  0.64067077063E+03  0.64067077063E+03  0.00000000000E+00 0.  1.
          1   -1    0    0  501    0  0.00000000000E+00 -0.00000000000E+00 -0.99428474267E+03  0.99428474267E+03  0.00000000000E+00 0. -1.
         23    2    1    2    0    0  0.46217310614E+03 -0.28415215610E+03 -0.14344188802E+03  0.56815785573E+03  0.88776944834E+02 0.  0.
        254    2    1    2    0    0 -0.46217310614E+03  0.28415215610E+03 -0.21017208402E+03  0.10667976576E+04  0.89416917272E+03 0.  0.
        -24    2    4    4    0    0 -0.61410577864E+03  0.37383497447E+03  0.69542974164E+02  0.72649006774E+03  0.77930082610E+02 0.  0.
         24    2    4    4    0    0  0.15193267249E+03 -0.89682818368E+02 -0.27971505819E+03  0.34030758983E+03  0.80263298219E+02 0.  0.
         11    1    3    3    0    0  0.11613002284E+03 -0.10352132211E+03 -0.71571742449E+02  0.17124649092E+03  0.00000000000E+00 0.  1.
        -11    1    3    3    0    0  0.34604308331E+03 -0.18063083399E+03 -0.71870145568E+02  0.39691136481E+03  0.00000000000E+00 0. -1.
          4    1    6    6  502    0 -0.60834972527E+00  0.84793736321E+01 -0.33040362140E+02  0.34116497430E+02  0.00000000000E+00 0. -1.
          1    1    5    5  503    0 -0.21735417617E+03  0.13603991218E+03  0.62301049210E+02  0.26387708566E+03  0.00000000000E+00 0. -1.
         -2    1    5    5    0  503 -0.39675160247E+03  0.23779506229E+03  0.72419249542E+01  0.46261298208E+03  0.00000000000E+00 0.  1.
         -3    1    6    6    0  502  0.15254102222E+03 -0.98162192000E+02 -0.24667469605E+03  0.30619109240E+03  0.00000000000E+00 0.  1.
<mgrwt>
<rscale>  0 0.15962571E+04</rscale>
<asrwt>0</asrwt>
<pdfrwt beam="1">  1        1 0.15296688E+00 0.15962571E+04</pdfrwt>
<pdfrwt beam="2">  1       -1 0.98564734E-01 0.15962571E+04</pdfrwt>
<totfact> 0.14458702E+01</totfact>
</mgrwt>
</event>
<event>
12    1  0.1494110E-007  0.1683268E+04  0.7818608E-02  0.8770965E-01
         -1   -1    0    0    0  501 -0.00000000000E+00  0.00000000000E+00  0.41455008735E+03  0.41455008735E+03  0.00000000000E+00 0.  1.
          1   -1    0    0  501    0  0.00000000000E+00 -0.00000000000E+00 -0.17087151175E+04  0.17087151175E+04  0.00000000000E+00 0. -1.
         23    2    1    2    0    0  0.99668411065E+01 -0.42255178566E+03 -0.99530494476E+03  0.10829640560E+04  0.59412659526E+02 0.  0.
        254    2    1    2    0    0 -0.99668411065E+01  0.42255178566E+03 -0.29886008542E+03  0.10403011489E+04  0.90236344128E+03 0.  0.
        -24    2    4    4    0    0  0.45570305425E+02  0.42458560523E+03 -0.59027116260E+03  0.73303700111E+03  0.81077806427E+02 0.  0.
         24    2    4    4    0    0 -0.55537146532E+02 -0.20338195782E+01  0.29141107718E+03  0.30726414774E+03  0.80014558154E+02 0.  0.
         13    1    3    3    0    0  0.29044646562E+02 -0.34308391964E+03 -0.77732496209E+03  0.85016719773E+03  0.00000000000E+00 0. -1.
        -13    1    3    3    0    0 -0.19077805455E+02 -0.79467866012E+02 -0.21797998267E+03  0.23279685830E+03  0.00000000000E+00 0.  1.
          4    1    6    6  502    0 -0.41020976825E+02 -0.34188381442E+02  0.10787975488E+03  0.12037278545E+03  0.00000000000E+00 0. -1.
          1    1    5    5  503    0  0.56639827289E+02  0.41211674899E+03 -0.57886852694E+03  0.71283732808E+03  0.00000000000E+00 0. -1.
         -2    1    5    5    0  503 -0.11069521864E+02  0.12468856245E+02 -0.11402635660E+02  0.20199673026E+02  0.00000000000E+00 0.  1.
         -3    1    6    6    0  502 -0.14516169707E+02  0.32154561864E+02  0.18353132230E+03  0.18689136229E+03  0.00000000000E+00 0.  1.
<mgrwt>
<rscale>  0 0.16832683E+04</rscale>
<asrwt>0</asrwt>
<pdfrwt beam="1">  1        1 0.26287925E+00 0.16832683E+04</pdfrwt>
<pdfrwt beam="2">  1       -1 0.63776936E-01 0.16832683E+04</pdfrwt>
<totfact> 0.11169836E+01</totfact>
</mgrwt>
</event>
<event>
12    1  0.1494110E-007  0.2771698E+04  0.7818608E-02  0.8312109E-01
          2   -1    0    0  501    0  0.00000000000E+00  0.00000000000E+00  0.14797908927E+04  0.14797908927E+04  0.00000000000E+00 0. -1.
         -2   -1    0    0    0  501 -0.00000000000E+00 -0.00000000000E+00 -0.12978709487E+04  0.12978709487E+04  0.00000000000E+00 0.  1.
         23    2    1    2    0    0  0.86786122366E+03 -0.70036118439E+03  0.61880954188E+03  0.12786607486E+04  0.91428490123E+02 0.  0.
        254    2    1    2    0    0 -0.86786122366E+03  0.70036118439E+03 -0.43688959788E+03  0.14990010928E+04  0.90135612457E+03 0.  0.
        -24    2    4    4    0    0 -0.66215644515E+03  0.23879773031E+02 -0.41680640752E+03  0.78703016493E+03  0.81654747316E+02 0.  0.
         24    2    4    4    0    0 -0.20570477851E+03  0.67648141136E+03 -0.20083190361E+02  0.71197092785E+03  0.80979699577E+02 0.  0.
         13    1    3    3    0    0  0.54520879414E+03 -0.40386808005E+03  0.33607875267E+03  0.75717302070E+03  0.00000000000E+00 0.  1.
        -13    1    3    3    0    0  0.32265242952E+03 -0.29649310435E+03  0.28273078920E+03  0.52148772792E+03  0.00000000000E+00 0. -1.
          2    1    6    6  502    0 -0.14363138657E+03  0.57235699427E+03 -0.81266177335E+01  0.59015976313E+03  0.00000000000E+00 0. -1.
          3    1    5    5  503    0 -0.39917031248E+03 -0.24869529390E+02 -0.24057468221E+03  0.46672434004E+03  0.00000000000E+00 0. -1.
         -4    1    5    5    0  503 -0.26298613266E+03  0.48749302421E+02 -0.17623172531E+03  0.32030582490E+03  0.00000000000E+00 0.  1.
         -1    1    6    6    0  502 -0.62073391938E+02  0.10412441709E+03 -0.11956572628E+02  0.12181116472E+03  0.00000000000E+00 0.  1.
<mgrwt>
<rscale>  0 0.27716981E+04</rscale>
<asrwt>0</asrwt>
<pdfrwt beam="1">  1        2 0.22766014E+00 0.27716981E+04</pdfrwt>
<pdfrwt beam="2">  1       -2 0.19967245E+00 0.27716981E+04</pdfrwt>
<totfact> 0.15194325E+00</totfact>
</mgrwt>
</event>
<event>
12    1  0.1494110E-007  0.1877103E+04  0.7818608E-02  0.8666338E-01
          2   -1    0    0  501    0  0.00000000000E+00  0.00000000000E+00  0.95974198145E+03  0.95974198145E+03  0.00000000000E+00 0. -1.
         -2   -1    0    0    0  501 -0.00000000000E+00 -0.00000000000E+00 -0.91782866897E+03  0.91782866897E+03  0.00000000000E+00 0.  1.
         23    2    1    2    0    0  0.44525308771E+03  0.49640736907E+03  0.27925049135E+03  0.72972140053E+03  0.99206336971E+02 0.  0.
        254    2    1    2    0    0 -0.44525308771E+03 -0.49640736907E+03 -0.23733717887E+03  0.11478492499E+04  0.90363619660E+03 0.  0.
        -24    2    4    4    0    0 -0.16119459145E+03 -0.52726883678E+03  0.22280201269E+03  0.60044960851E+03  0.83083529965E+02 0.  0.
         24    2    4    4    0    0 -0.28405849626E+03  0.30861467710E+02 -0.46013919156E+03  0.54739964138E+03  0.79225199775E+02 0.  0.
         11    1    3    3    0    0  0.43581773176E+03  0.49991368715E+03  0.27005235048E+03  0.71608593194E+03  0.00000000000E+00 0. -1.
        -11    1    3    3    0    0  0.94353559455E+01 -0.35063180810E+01  0.91981408728E+01  0.13635468596E+02  0.00000000000E+00 0.  1.
          2    1    6    6  502    0 -0.68849034365E+02 -0.19468010531E+02 -0.77203964628E+02  0.10525989322E+03  0.00000000000E+00 0. -1.
          1    1    5    5  503    0  0.22838214247E+01 -0.99702149142E+02  0.44267053800E+02  0.10911144044E+03  0.00000000000E+00 0. -1.
         -2    1    5    5    0  503 -0.16347841287E+03 -0.42756668764E+03  0.17853495889E+03  0.49133816806E+03  0.00000000000E+00 0.  1.
         -1    1    6    6    0  502 -0.21520946190E+03  0.50329478241E+02 -0.38293522693E+03  0.44213974815E+03  0.00000000000E+00 0.  1.
<mgrwt>
<rscale>  0 0.18771028E+04</rscale>
<asrwt>0</asrwt>
<pdfrwt beam="1">  1        2 0.14765261E+00 0.18771028E+04</pdfrwt>
<pdfrwt beam="2">  1       -2 0.14120441E+00 0.18771028E+04</pdfrwt>
<totfact> 0.88154986E+00</totfact>
</mgrwt>
</event>
<event>
12    1  0.1494110E-007  0.1903168E+04  0.7818608E-02  0.8653281E-01
         -2   -1    0    0    0  501 -0.00000000000E+00  0.00000000000E+00  0.43619928247E+03  0.43619928247E+03  0.00000000000E+00 0.  1.
          2   -1    0    0  501    0  0.00000000000E+00 -0.00000000000E+00 -0.20759143626E+04  0.20759143626E+04  0.00000000000E+00 0. -1.
         23    2    1    2    0    0 -0.44095047065E+03 -0.52332747372E+02 -0.14074489543E+04  0.14807238380E+04  0.12022683243E+03 0.  0.
        254    2    1    2    0    0  0.44095047065E+03  0.52332747372E+02 -0.23226612579E+03  0.10313898071E+04  0.90146622066E+03 0.  0.
        -24    2    4    4    0    0  0.33653571026E+03 -0.24995471721E+03  0.21343816327E+03  0.47689727044E+03  0.78367800063E+02 0.  0.
         24    2    4    4    0    0  0.10441476039E+03  0.30228746458E+03 -0.44570428905E+03  0.55449253666E+03  0.80805361810E+02 0.  0.
         11    1    3    3    0    0 -0.10724988849E+03 -0.58384275053E+02 -0.47116665273E+03  0.48673327070E+03  0.00000000000E+00 0.  1.
        -11    1    3    3    0    0 -0.33370058216E+03  0.60515276813E+01 -0.93628230161E+03  0.99399056728E+03  0.00000000000E+00 0. -1.
          4    1    6    6  502    0  0.35948798926E+02  0.21624011160E+03 -0.27955682407E+03  0.35525219196E+03  0.00000000000E+00 0. -1.
          3    1    5    5  503    0  0.30286441019E+03 -0.20899119142E+03  0.15885495616E+03  0.40079803660E+03  0.00000000000E+00 0. -1.
         -4    1    5    5    0  503  0.33671300070E+02 -0.40963525791E+02  0.54583207102E+02  0.76099233840E+02  0.00000000000E+00 0.  1.
         -3    1    6    6    0  502  0.68465961466E+02  0.86047352984E+02 -0.16614746498E+03  0.19924034470E+03  0.00000000000E+00 0.  1.
<mgrwt>
<rscale>  0 0.19031683E+04</rscale>
<asrwt>0</asrwt>
<pdfrwt beam="1">  1        2 0.31937144E+00 0.19031683E+04</pdfrwt>
<pdfrwt beam="2">  1       -2 0.67107582E-01 0.19031683E+04</pdfrwt>
<totfact> 0.11564002E+01</totfact>
</mgrwt>
</event>
<event>
12    1  0.1494110E-007  0.3366227E+04  0.7818608E-02  0.8146246E-01
          1   -1    0    0  501    0  0.00000000000E+00  0.00000000000E+00  0.28675673141E+04  0.28675673141E+04  0.00000000000E+00 0. -1.
         -1   -1    0    0    0  501 -0.00000000000E+00 -0.00000000000E+00 -0.98790019258E+03  0.98790019258E+03  0.00000000000E+00 0.  1.
         23    2    1    2    0    0  0.32617000401E+03 -0.51657748814E+03  0.25187053692E+04  0.25933675286E+04  0.91865275611E+02 0.  0.
        254    2    1    2    0    0 -0.32617000401E+03  0.51657748814E+03 -0.63903824765E+03  0.12620999781E+04  0.90071488274E+03 0.  0.
        -24    2    4    4    0    0 -0.60473893882E+03  0.17410431299E+03 -0.43670350290E+03  0.76994890186E+03  0.78037594120E+02 0.  0.
         24    2    4    4    0    0  0.27856893481E+03  0.34247317514E+03 -0.20233474475E+03  0.49215107625E+03  0.79904979728E+02 0.  0.
         11    1    3    3    0    0  0.30341376043E+03 -0.50549727019E+03  0.23527819460E+04  0.24255247444E+04  0.00000000000E+00 0. -1.
        -11    1    3    3    0    0  0.22756243575E+02 -0.11080217944E+02  0.16592342323E+03  0.16784278426E+03  0.00000000000E+00 0.  1.
          4    1    6    6  502    0 -0.81758958984E+00  0.22201958384E+02 -0.19213403008E+02  0.29372610779E+02  0.00000000000E+00 0. -1.
          3    1    5    5  503    0 -0.25091381865E+03  0.11126924785E+03 -0.20052463096E+03  0.33992457624E+03  0.00000000000E+00 0. -1.
         -4    1    5    5    0  503 -0.35382512017E+03  0.62835065140E+02 -0.23617887194E+03  0.43002432562E+03  0.00000000000E+00 0.  1.
         -3    1    6    6    0  502  0.27938652440E+03  0.32027121676E+03 -0.18312134174E+03  0.46277846547E+03  0.00000000000E+00 0.  1.
<mgrwt>
<rscale>  0 0.33662266E+04</rscale>
<asrwt>0</asrwt>
<pdfrwt beam="1">  1        1 0.44116420E+00 0.33662266E+04</pdfrwt>
<pdfrwt beam="2">  1       -1 0.15198465E+00 0.33662266E+04</pdfrwt>
<totfact> 0.20696250E-01</totfact>
</mgrwt>
</event>
<event>
12    1  0.1494110E-007  0.1513024E+04  0.7818608E-02  0.8875838E-01
         -2   -1    0    0    0  501 -0.00000000000E+00  0.00000000000E+00  0.38513983513E+03  0.38513983513E+03  0.00000000000E+00 0.  1.
          2   -1    0    0  501    0  0.00000000000E+00 -0.00000000000E+00 -0.14859806888E+04  0.14859806888E+04  0.00000000000E+00 0. -1.
         23    2    1    2    0    0 -0.43283024280E+03  0.19051518752E+03 -0.41032497585E+03  0.63388069906E+03  0.98995449826E+02 0.  0.
        254    2    1    2    0    0  0.43283024280E+03 -0.19051518752E+03 -0.69051587779E+03  0.12372398248E+04  0.91121465689E+03 0.  0.
        -24    2    4    4    0    0  0.10712229399E+03 -0.17711550555E+02 -0.82566892495E+03  0.83655217562E+03  0.79381887176E+02 0.  0.
         24    2    4    4    0    0  0.32570794881E+03 -0.17280363697E+03  0.13515304717E+03  0.40068764922E+03  0.79608298631E+02 0.  0.
         11    1    3    3    0    0  0.17585916508E+01  0.32599210912E+00 -0.18547716972E+02  0.18633752180E+02  0.00000000000E+00 0. -1.
        -11    1    3    3    0    0 -0.43458883445E+03  0.19018919541E+03 -0.39177725888E+03  0.61524694688E+03  0.00000000000E+00 0.  1.
          2    1    6    6  502    0  0.92096383784E+02 -0.44413861287E+02  0.96611858995E+00  0.10225100667E+03  0.00000000000E+00 0. -1.
          1    1    5    5  503    0 -0.75505395752E+01 -0.10528702189E+01 -0.20606212089E+03  0.20620309612E+03  0.00000000000E+00 0. -1.
         -2    1    5    5    0  503  0.11467283356E+03 -0.16658680336E+02 -0.61960680406E+03  0.63034907950E+03  0.00000000000E+00 0.  1.
         -1    1    6    6    0  502  0.23361156502E+03 -0.12838977568E+03  0.13418692858E+03  0.29843664254E+03  0.00000000000E+00 0.  1.
<mgrwt>
<rscale>  0 0.15130239E+04</rscale>
<asrwt>0</asrwt>
<pdfrwt beam="1">  1        2 0.22861242E+00 0.15130239E+04</pdfrwt>
<pdfrwt beam="2">  1       -2 0.59252282E-01 0.15130239E+04</pdfrwt>
<totfact> 0.33182600E+01</totfact>
</mgrwt>
</event>
<event>
12    1  0.1494110E-007  0.1119248E+04  0.7818608E-02  0.9186632E-01
         -2   -1    0    0    0  501 -0.00000000000E+00  0.00000000000E+00  0.45226083215E+03  0.45226083215E+03  0.00000000000E+00 0.  1.
          2   -1    0    0  501    0  0.00000000000E+00 -0.00000000000E+00 -0.69247459138E+03  0.69247459138E+03  0.00000000000E+00 0. -1.
         23    2    1    2    0    0 -0.35186177518E+02 -0.10921170320E+03 -0.19010257159E+03  0.24029439883E+03  0.91853944815E+02 0.  0.
        254    2    1    2    0    0  0.35186177518E+02  0.10921170320E+03 -0.50111187641E+02  0.90444102471E+03  0.89573275749E+03 0.  0.
        -24    2    4    4    0    0 -0.93783552284E+02 -0.18364083714E+03  0.33244060283E+03  0.39933740795E+03  0.80214083784E+02 0.  0.
         24    2    4    4    0    0  0.12896972980E+03  0.29285254033E+03 -0.38255179047E+03  0.50510361676E+03  0.79924900286E+02 0.  0.
         11    1    3    3    0    0 -0.22111372606E+02 -0.11550278937E+02 -0.11148262075E+03  0.11423964492E+03  0.00000000000E+00 0. -1.
        -11    1    3    3    0    0 -0.13074804912E+02 -0.97661424262E+02 -0.78619950841E+02  0.12605475391E+03  0.00000000000E+00 0.  1.
          4    1    6    6  502    0  0.16414148085E+02  0.48808035997E+02 -0.23476454451E+02  0.56593219991E+02  0.00000000000E+00 0. -1.
          1    1    5    5  503    0 -0.15694914730E+02  0.35965751170E+01  0.42700890606E+02  0.45635860455E+02  0.00000000000E+00 0. -1.
         -2    1    5    5    0  503 -0.78088637554E+02 -0.18723741225E+03  0.28973971222E+03  0.35370154749E+03  0.00000000000E+00 0.  1.
         -3    1    6    6    0  502  0.11255558172E+03  0.24404450434E+03 -0.35907533602E+03  0.44851039677E+03  0.00000000000E+00 0.  1.
<mgrwt>
<rscale>  0 0.11192482E+04</rscale>
<asrwt>0</asrwt>
<pdfrwt beam="1">  1        2 0.10653455E+00 0.11192482E+04</pdfrwt>
<pdfrwt beam="2">  1       -2 0.69578590E-01 0.11192482E+04</pdfrwt>
<totfact> 0.77638552E+01</totfact>
</mgrwt>
</event>
<event>
12    1  0.1494110E-007  0.1485240E+04  0.7818608E-02  0.8894328E-01
          1   -1    0    0  501    0  0.00000000000E+00  0.00000000000E+00  0.62289547444E+03  0.62289547444E+03  0.00000000000E+00 0. -1.
         -1   -1    0    0    0  501 -0.00000000000E+00 -0.00000000000E+00 -0.88535578406E+03  0.88535578406E+03  0.00000000000E+00 0.  1.
         23    2    1    2    0    0 -0.27404349829E+03  0.22724341134E+03 -0.35862368329E+03  0.51346591617E+03  0.91087287244E+02 0.  0.
        254    2    1    2    0    0  0.27404349829E+03 -0.22724341134E+03  0.96163373669E+02  0.99478534232E+03  0.92391075105E+03 0.  0.
        -24    2    4    4    0    0 -0.25412236488E+03  0.14654854213E+03  0.15634777547E+03  0.34006495912E+03  0.71727944307E+02 0.  0.
         24    2    4    4    0    0  0.52816586318E+03 -0.37379195347E+03 -0.60184401802E+02  0.65472038320E+03  0.79730887719E+02 0.  0.
         13    1    3    3    0    0 -0.43088658467E+02  0.69656654599E+02 -0.12326872374E+03  0.14799952795E+03  0.00000000000E+00 0. -1.
        -13    1    3    3    0    0 -0.23095483983E+03  0.15758675674E+03 -0.23535495955E+03  0.36546638823E+03  0.00000000000E+00 0.  1.
          2    1    6    6  502    0  0.16710448211E+03 -0.16088080620E+03 -0.56987657697E+01  0.23203236343E+03  0.00000000000E+00 0. -1.
          1    1    5    5  503    0 -0.53464490418E+02  0.10769897486E+01  0.36671875409E+02  0.64841638541E+02  0.00000000000E+00 0. -1.
         -2    1    5    5    0  503 -0.20065787446E+03  0.14547155238E+03  0.11967590006E+03  0.27522332058E+03  0.00000000000E+00 0.  1.
         -1    1    6    6    0  502  0.36106138107E+03 -0.21291114726E+03 -0.54485636033E+02  0.42268801978E+03  0.00000000000E+00 0.  1.
<mgrwt>
<rscale>  0 0.14852395E+04</rscale>
<asrwt>0</asrwt>
<pdfrwt beam="1">  1        1 0.95830073E-01 0.14852395E+04</pdfrwt>
<pdfrwt beam="2">  1       -1 0.13620858E+00 0.14852395E+04</pdfrwt>
<totfact> 0.14143155E+01</totfact>
</mgrwt>
</event>
<event>
12    1  0.1494110E-007  0.1749396E+04  0.7818608E-02  0.8733683E-01
         -2   -1    0    0    0  501 -0.00000000000E+00  0.00000000000E+00  0.24036774602E+03  0.24036774602E+03  0.00000000000E+00 0. -1.
          2   -1    0    0  501    0  0.00000000000E+00 -0.00000000000E+00 -0.31830246319E+04  0.31830246319E+04  0.00000000000E+00 0.  1.
         23    2    1    2    0    0 -0.50956438139E+03 -0.30432656138E+02 -0.17092704896E+04  0.17862823050E+04  0.92827051195E+02 0.  0.
        254    2    1    2    0    0  0.50956438139E+03  0.30432656138E+02 -0.12333863963E+04  0.16371100729E+04  0.94778973555E+03 0.  0.
        -24    2    4    4    0    0  0.65842939765E+03 -0.15671111173E+03 -0.12039888091E+04  0.13834549494E+04  0.79189016311E+02 0.  0.
         24    2    4    4    0    0 -0.14886501626E+03  0.18714376787E+03 -0.29397587204E+02  0.25365512350E+03  0.79329191491E+02 0.  0.
         13    1    3    3    0    0 -0.42261020006E+03 -0.19609852344E+02 -0.12781621726E+04  0.13463589666E+04  0.00000000000E+00 0.  1.
        -13    1    3    3    0    0 -0.86954181321E+02 -0.10822803794E+02 -0.43110831695E+03  0.43992333840E+03  0.00000000000E+00 0. -1.
          2    1    6    6  502    0 -0.77381029975E+02  0.92425677535E+02  0.25013853596E+02  0.12310979871E+03  0.00000000000E+00 0. -1.
          1    1    5    5  503    0  0.19738361679E+03 -0.43423993708E+02 -0.43607558870E+03  0.48063276466E+03  0.00000000000E+00 0. -1.
         -2    1    5    5    0  503  0.46104578086E+03 -0.11328711803E+03 -0.76791322041E+03  0.90282218473E+03  0.00000000000E+00 0.  1.
         -1    1    6    6    0  502 -0.71483986289E+02  0.94718090339E+02 -0.54411440800E+02  0.13054532478E+03  0.00000000000E+00 0.  1.
<mgrwt>
<rscale>  0 0.17493958E+04</rscale>
<asrwt>0</asrwt>
<pdfrwt beam="1">  1        2 0.48969609E+00 0.17493958E+04</pdfrwt>
<pdfrwt beam="2">  1       -2 0.36979654E-01 0.17493958E+04</pdfrwt>
<totfact> 0.87398718E+00</totfact>
</mgrwt>
</event>
<event>
12    1  0.1494110E-007  0.3282979E+04  0.7818608E-02  0.8167240E-01
         -2   -1    0    0    0  501 -0.00000000000E+00  0.00000000000E+00  0.15914745157E+04  0.15914745157E+04  0.00000000000E+00 0. -1.
          2   -1    0    0  501    0  0.00000000000E+00 -0.00000000000E+00 -0.16930760923E+04  0.16930760923E+04  0.00000000000E+00 0.  1.
         23    2    1    2    0    0 -0.10668473260E+03 -0.10280651600E+04  0.10641016859E+04  0.14862265219E+04  0.90869527550E+02 0.  0.
        254    2    1    2    0    0  0.10668473260E+03  0.10280651600E+04 -0.11657032625E+04  0.17983240861E+04  0.89822370102E+03 0.  0.
        -24    2    4    4    0    0  0.39535667389E+03  0.19070559022E+03 -0.58705689011E+03  0.73744355994E+03  0.80695044111E+02 0.  0.
         24    2    4    4    0    0 -0.28867194129E+03  0.83735956978E+03 -0.57864637244E+03  0.10608805262E+04  0.78315565054E+02 0.  0.
         11    1    3    3    0    0 -0.11159909914E+03 -0.10256360952E+04  0.10550218183E+04  0.14756201394E+04  0.00000000000E+00 0. -1.
        -11    1    3    3    0    0  0.49143665387E+01 -0.24290648397E+01  0.90798675707E+01  0.10606382492E+02  0.00000000000E+00 0.  1.
          4    1    6    6  502    0 -0.21578141666E+02  0.30402134142E+02 -0.39435778580E+02  0.54268652004E+02  0.00000000000E+00 0. -1.
          3    1    5    5  503    0  0.45208343928E+02 -0.31877810898E+00 -0.84541936779E+02  0.95870929142E+02  0.00000000000E+00 0. -1.
         -4    1    5    5    0  503  0.35014832996E+03  0.19102436833E+03 -0.50251495333E+03  0.64157263080E+03  0.00000000000E+00 0.  1.
         -3    1    6    6    0  502 -0.26709379962E+03  0.80695743564E+03 -0.53921059386E+03  0.10066118742E+04  0.00000000000E+00 0.  1.
<mgrwt>
<rscale>  0 0.32829788E+04</rscale>
<asrwt>0</asrwt>
<pdfrwt beam="1">  1        2 0.26047324E+00 0.32829788E+04</pdfrwt>
<pdfrwt beam="2">  1       -2 0.24484223E+00 0.32829788E+04</pdfrwt>
<totfact> 0.57219523E-01</totfact>
</mgrwt>
</event>
<event>
12    1  0.1494110E-007  0.1274417E+04  0.7818608E-02  0.9050103E-01
          2   -1    0    0  501    0  0.00000000000E+00  0.00000000000E+00  0.66793356041E+03  0.66793356041E+03  0.00000000000E+00 0. -1.
         -2   -1    0    0    0  501 -0.00000000000E+00 -0.00000000000E+00 -0.60789654517E+03  0.60789654517E+03  0.00000000000E+00 0.  1.
         23    2    1    2    0    0  0.10858055317E+03 -0.12383728350E+03  0.29290812612E+03  0.34717490298E+03  0.87234360193E+02 0.  0.
        254    2    1    2    0    0 -0.10858055317E+03  0.12383728350E+03 -0.23287111087E+03  0.92865520260E+03  0.88376813799E+03 0.  0.
        -24    2    4    4    0    0 -0.29681095239E+03  0.33199360446E+03 -0.38947686603E+03  0.59711109388E+03  0.80826569872E+02 0.  0.
         24    2    4    4    0    0  0.18823039922E+03 -0.20815632096E+03  0.15660575516E+03  0.33154410872E+03  0.81464080007E+02 0.  0.
         11    1    3    3    0    0  0.99997519956E+02 -0.13254441541E+03  0.29066550117E+03  0.33474461851E+03  0.00000000000E+00 0. -1.
        -11    1    3    3    0    0  0.85830332133E+01  0.87071319044E+01  0.22426249467E+01  0.12430284461E+02  0.00000000000E+00 0.  1.
          2    1    6    6  502    0  0.16131115976E+03 -0.20435271659E+03  0.15760986214E+03  0.30433894211E+03  0.00000000000E+00 0. -1.
          1    1    5    5  503    0 -0.18497653851E+03  0.18491924769E+03 -0.17846551299E+03  0.31664078589E+03  0.00000000000E+00 0. -1.
         -2    1    5    5    0  503 -0.11183441388E+03  0.14707435677E+03 -0.21101135305E+03  0.28047030799E+03  0.00000000000E+00 0.  1.
         -1    1    6    6    0  502  0.26919239465E+02 -0.38036043688E+01 -0.10041069793E+01  0.27205166612E+02  0.00000000000E+00 0.  1.
<mgrwt>
<rscale>  0 0.12744167E+04</rscale>
<asrwt>0</asrwt>
<pdfrwt beam="1">  1        2 0.10275901E+00 0.12744167E+04</pdfrwt>
<pdfrwt beam="2">  1       -2 0.93522546E-01 0.12744167E+04</pdfrwt>
<totfact> 0.41273116E+01</totfact>
</mgrwt>
</event>
<event>
12    1  0.1494110E-007  0.1457079E+04  0.7818608E-02  0.8913507E-01
         -2   -1    0    0    0  501 -0.00000000000E+00  0.00000000000E+00  0.97517277540E+03  0.97517277540E+03  0.00000000000E+00 0.  1.
          2   -1    0    0  501    0  0.00000000000E+00 -0.00000000000E+00 -0.54428293360E+03  0.54428293360E+03  0.00000000000E+00 0. -1.
         23    2    1    2    0    0 -0.30811013238E+02 -0.45116979964E+03  0.48832690526E+02  0.46378981352E+03  0.90624791427E+02 0.  0.
        254    2    1    2    0    0  0.30811013238E+02  0.45116979964E+03  0.38205715127E+03  0.10556658955E+04  0.87404765853E+03 0.  0.
        -24    2    4    4    0    0 -0.25353338453E+03 -0.72359274425E+02  0.36108792187E+03  0.45440212322E+03  0.81128050674E+02 0.  0.
         24    2    4    4    0    0  0.28434439777E+03  0.52352907406E+03  0.20969229406E+02  0.60126377225E+03  0.78383590816E+02 0.  0.
         13    1    3    3    0    0  0.38690314126E+00 -0.94929764810E+02  0.47573625002E+02  0.10618408420E+03  0.00000000000E+00 0. -1.
        -13    1    3    3    0    0 -0.31197916379E+02 -0.35624003483E+03  0.12590655247E+01  0.35760572932E+03  0.00000000000E+00 0.  1.
          4    1    6    6  502    0  0.22306029739E+03  0.41838371656E+03  0.48129630907E+02  0.47656824477E+03  0.00000000000E+00 0. -1.
          3    1    5    5  503    0 -0.42214278785E+02 -0.18830717878E+02  0.21770303746E+02  0.51093907605E+02  0.00000000000E+00 0. -1.
         -2    1    5    5    0  503 -0.21131910574E+03 -0.53528556547E+02  0.33931761812E+03  0.40330821562E+03  0.00000000000E+00 0.  1.
         -3    1    6    6    0  502  0.61284100377E+02  0.10514535750E+03 -0.27160401502E+02  0.12469552748E+03  0.00000000000E+00 0.  1.
<mgrwt>
<rscale>  0 0.14570791E+04</rscale>
<asrwt>0</asrwt>
<pdfrwt beam="1">  1        2 0.83735836E-01 0.14570791E+04</pdfrwt>
<pdfrwt beam="2">  1       -2 0.15002658E+00 0.14570791E+04</pdfrwt>
<totfact> 0.16166110E+01</totfact>
</mgrwt>
</event>
<event>
12    1  0.1494110E-007  0.2138231E+04  0.7818608E-02  0.8544587E-01
          2   -1    0    0  501    0  0.00000000000E+00  0.00000000000E+00  0.34237048294E+04  0.34237048294E+04  0.00000000000E+00 0. -1.
         -2   -1    0    0    0  501 -0.00000000000E+00 -0.00000000000E+00 -0.33385117833E+03  0.33385117833E+03  0.00000000000E+00 0.  1.
         23    2    1    2    0    0 -0.29096797275E+03  0.80281908748E+03  0.93532445633E+03  0.12696665640E+04  0.89668817530E+02 0.  0.
        254    2    1    2    0    0  0.29096797275E+03 -0.80281908748E+03  0.21545291947E+04  0.24878894437E+04  0.90466401756E+03 0.  0.
        -24    2    4    4    0    0 -0.57965890895E+02 -0.27280879018E+03  0.16442641340E+04  0.16696402748E+04  0.79431885076E+02 0.  0.
         24    2    4    4    0    0  0.34893386364E+03 -0.53001029730E+03  0.51026506073E+03  0.81824916889E+03  0.80594750094E+02 0.  0.
         13    1    3    3    0    0 -0.21192141351E+03  0.54293146485E+03  0.57824858238E+03  0.82100955174E+03  0.00000000000E+00 0.  1.
        -13    1    3    3    0    0 -0.79046559235E+02  0.25988762264E+03  0.35707587395E+03  0.44865701230E+03  0.00000000000E+00 0. -1.
          2    1    6    6  502    0  0.84414126431E+01 -0.20572760461E+02  0.40291532240E+02  0.46020685465E+02  0.00000000000E+00 0. -1.
          3    1    5    5  503    0 -0.54988557701E+02 -0.10014961664E+03  0.53989220963E+03  0.55184896956E+03  0.00000000000E+00 0. -1.
         -4    1    5    5    0  503 -0.29773331941E+01 -0.17265917355E+03  0.11043719244E+04  0.11177913052E+04  0.00000000000E+00 0.  1.
         -1    1    6    6    0  502  0.34049245100E+03 -0.50943753684E+03  0.46997352849E+03  0.77222848343E+03  0.00000000000E+00 0.  1.
<mgrwt>
<rscale>  0 0.21382309E+04</rscale>
<asrwt>0</asrwt>
<pdfrwt beam="1">  1        2 0.52672380E+00 0.21382309E+04</pdfrwt>
<pdfrwt beam="2">  1       -2 0.51361722E-01 0.21382309E+04</pdfrwt>
<totfact> 0.30328717E+00</totfact>
</mgrwt>
</event>
<event>
12    1  0.1494110E-007  0.1289576E+04  0.7818608E-02  0.9037873E-01
         -2   -1    0    0    0  501 -0.00000000000E+00  0.00000000000E+00  0.41325385505E+03  0.41325385505E+03  0.00000000000E+00 0. -1.
          2   -1    0    0  501    0  0.00000000000E+00 -0.00000000000E+00 -0.10060437187E+04  0.10060437187E+04  0.00000000000E+00 0.  1.
         23    2    1    2    0    0 -0.11778192348E+03  0.68758133493E+02  0.17143539160E+03  0.23940192119E+03  0.96555289640E+02 0.  0.
        254    2    1    2    0    0  0.11778192348E+03 -0.68758133493E+02 -0.76422525523E+03  0.11798956525E+04  0.88854558000E+03 0.  0.
        -24    2    4    4    0    0 -0.23552695340E+03  0.11706867969E+03  0.42192104431E+02  0.27739117472E+03  0.77380027094E+02 0.  0.
         24    2    4    4    0    0  0.35330887688E+03 -0.18582681319E+03 -0.80641735966E+03  0.90250447783E+03  0.69617580769E+02 0.  0.
         11    1    3    3    0    0  0.14024577082E+02  0.18151599944E+02  0.10248767981E+02  0.25123825107E+02  0.00000000000E+00 0.  1.
        -11    1    3    3    0    0 -0.13180650056E+03  0.50606533549E+02  0.16118662362E+03  0.21427809609E+03  0.00000000000E+00 0. -1.
          4    1    6    6  502    0  0.29117476300E+03 -0.17969569297E+03 -0.69926727715E+03  0.77849085388E+03  0.00000000000E+00 0. -1.
          1    1    5    5  503    0 -0.18492418315E+03  0.10795137091E+03  0.54526342777E+01  0.21419659945E+03  0.00000000000E+00 0. -1.
         -2    1    5    5    0  503 -0.50602770243E+02  0.91173087833E+01  0.36739470153E+02  0.63194575264E+02  0.00000000000E+00 0.  1.
         -3    1    6    6    0  502  0.62134113877E+02 -0.61311202214E+01 -0.10715008252E+03  0.12401362395E+03  0.00000000000E+00 0.  1.
<mgrwt>
<rscale>  0 0.12895758E+04</rscale>
<asrwt>0</asrwt>
<pdfrwt beam="1">  1        2 0.15477595E+00 0.12895758E+04</pdfrwt>
<pdfrwt beam="2">  1       -2 0.63577518E-01 0.12895758E+04</pdfrwt>
<totfact> 0.56069479E+01</totfact>
</mgrwt>
</event>
<event>
12    1  0.1494110E-007  0.2984932E+04  0.7818608E-02  0.8248047E-01
          2   -1    0    0  501    0  0.00000000000E+00  0.00000000000E+00  0.10286780616E+04  0.10286780616E+04  0.00000000000E+00 0. -1.
         -2   -1    0    0    0  501 -0.00000000000E+00 -0.00000000000E+00 -0.21653565061E+04  0.21653565061E+04  0.00000000000E+00 0.  1.
         23    2    1    2    0    0  0.67214152373E+03  0.39868216915E+03  0.66819617920E+03  0.10325399336E+04  0.94503336305E+02 0.  0.
        254    2    1    2    0    0 -0.67214152373E+03 -0.39868216915E+03 -0.18048746237E+04  0.21614946341E+04  0.89652938935E+03 0.  0.
        -24    2    4    4    0    0 -0.47788440029E+03 -0.20295158526E+03 -0.18013292672E+04  0.18763358040E+04  0.79284768579E+02 0.  0.
         24    2    4    4    0    0 -0.19425712344E+03 -0.19573058389E+03 -0.35453565100E+01  0.28515883008E+03  0.72503085073E+02 0.  0.
         13    1    3    3    0    0  0.43315954020E+03  0.21233044130E+03  0.44334540155E+03  0.65518436234E+03  0.00000000000E+00 0. -1.
        -13    1    3    3    0    0  0.23898198352E+03  0.18635172785E+03  0.22485077765E+03  0.37735557122E+03  0.00000000000E+00 0.  1.
          2    1    6    6  502    0 -0.14521282322E+03 -0.15239499224E+03  0.28264413784E+02  0.21239085379E+03  0.00000000000E+00 0. -1.
          3    1    5    5  503    0 -0.47932434132E+03 -0.19925239978E+03 -0.17638322901E+04  0.18386292966E+04  0.00000000000E+00 0. -1.
         -4    1    5    5    0  503  0.14399410275E+01 -0.36991854813E+01 -0.37496977131E+02  0.37706507361E+02  0.00000000000E+00 0.  1.
         -1    1    6    6    0  502 -0.49044300220E+02 -0.43335591651E+02 -0.31809770294E+02  0.72767976294E+02  0.00000000000E+00 0.  1.
<mgrwt>
<rscale>  0 0.29849320E+04</rscale>
<asrwt>0</asrwt>
<pdfrwt beam="1">  1        2 0.15825816E+00 0.29849320E+04</pdfrwt>
<pdfrwt beam="2">  1       -2 0.33313177E+00 0.29849320E+04</pdfrwt>
<totfact> 0.41068955E-01</totfact>
</mgrwt>
</event>
<event>
12    1  0.1494110E-007  0.2616588E+04  0.7818608E-02  0.8362588E-01
         -2   -1    0    0    0  501 -0.00000000000E+00  0.00000000000E+00  0.13731408525E+04  0.13731408525E+04  0.00000000000E+00 0.  1.
          2   -1    0    0  501    0  0.00000000000E+00 -0.00000000000E+00 -0.12465093074E+04  0.12465093074E+04  0.00000000000E+00 0. -1.
         23    2    1    2    0    0  0.93793742292E+03 -0.13364657112E+03  0.69569083750E+03  0.11788915355E+04  0.90617304261E+02 0.  0.
        254    2    1    2    0    0 -0.93793742292E+03  0.13364657112E+03 -0.56905929235E+03  0.14407586244E+04  0.92432078856E+03 0.  0.
        -24    2    4    4    0    0 -0.77121078538E+03  0.75059192701E+02 -0.81483003489E+03  0.11272930777E+04  0.80260446808E+02 0.  0.
         24    2    4    4    0    0 -0.16672663754E+03  0.58587378417E+02  0.24577074254E+03  0.31346554668E+03  0.81407238573E+02 0.  0.
         13    1    3    3    0    0  0.10712769148E+03  0.68558167419E+01  0.56731263131E+02  0.12141573506E+03  0.00000000000E+00 0. -1.
        -13    1    3    3    0    0  0.83080973144E+03 -0.14050238786E+03  0.63895957437E+03  0.10574758004E+04  0.00000000000E+00 0.  1.
          2    1    6    6  502    0 -0.91312807634E+02  0.50800322259E+02  0.81411898279E+02  0.13246357522E+03  0.00000000000E+00 0. -1.
          3    1    5    5  503    0 -0.22397861889E+03 -0.11312925118E+02 -0.21302262044E+03  0.30931058956E+03  0.00000000000E+00 0. -1.
         -4    1    5    5    0  503 -0.54723216649E+03  0.86372117818E+02 -0.60180741445E+03  0.81798248811E+03  0.00000000000E+00 0.  1.
         -1    1    6    6    0  502 -0.75413829906E+02  0.77870561581E+01  0.16435884426E+03  0.18100197146E+03  0.00000000000E+00 0.  1.
<mgrwt>
<rscale>  0 0.26165877E+04</rscale>
<asrwt>0</asrwt>
<pdfrwt beam="1">  1        2 0.19177066E+00 0.26165877E+04</pdfrwt>
<pdfrwt beam="2">  1       -2 0.21125244E+00 0.26165877E+04</pdfrwt>
<totfact> 0.17645867E+00</totfact>
</mgrwt>
</event>
<event>
12    1  0.1494110E-007  0.1635487E+04  0.7818608E-02  0.8799039E-01
         -2   -1    0    0    0  501 -0.00000000000E+00  0.00000000000E+00  0.10916864188E+04  0.10916864188E+04  0.00000000000E+00 0.  1.
          2   -1    0    0  501    0  0.00000000000E+00 -0.00000000000E+00 -0.61254268537E+03  0.61254268537E+03  0.00000000000E+00 0. -1.
         23    2    1    2    0    0 -0.12535319303E+03  0.50170373098E+03  0.37262459206E+03  0.64395539082E+03  0.91702792061E+02 0.  0.
        254    2    1    2    0    0  0.12535319303E+03 -0.50170373098E+03  0.10651914139E+03  0.10602737134E+04  0.91946395420E+03 0.  0.
        -24    2    4    4    0    0 -0.13476991297E+02 -0.23377567594E+03 -0.39709589614E+03  0.46778598029E+03  0.79409550283E+02 0.  0.
         24    2    4    4    0    0  0.13883018433E+03 -0.26792805505E+03  0.50361503752E+03  0.59248773307E+03  0.79714145888E+02 0.  0.
         11    1    3    3    0    0  0.41445917731E+01  0.22065114346E+02  0.40642831768E+02  0.46431526856E+02  0.00000000000E+00 0. -1.
        -11    1    3    3    0    0 -0.12949778481E+03  0.47963861664E+03  0.33198176030E+03  0.59752386397E+03  0.00000000000E+00 0.  1.
          2    1    6    6  502    0  0.12966915516E+03 -0.17029048885E+03  0.34701233735E+03  0.40771375089E+03  0.00000000000E+00 0. -1.
          3    1    5    5  503    0 -0.85543273219E+01 -0.13893105178E+02 -0.31699572847E+01  0.16620575098E+02  0.00000000000E+00 0. -1.
         -4    1    5    5    0  503 -0.49226639748E+01 -0.21988257076E+03 -0.39392593885E+03  0.45116540519E+03  0.00000000000E+00 0.  1.
         -1    1    6    6    0  502  0.91610291730E+01 -0.97637566198E+02  0.15660270017E+03  0.18477398217E+03  0.00000000000E+00 0.  1.
<mgrwt>
<rscale>  0 0.16354871E+04</rscale>
<asrwt>0</asrwt>
<pdfrwt beam="1">  1        2 0.94237336E-01 0.16354871E+04</pdfrwt>
<pdfrwt beam="2">  1       -2 0.16795176E+00 0.16354871E+04</pdfrwt>
<totfact> 0.10187118E+01</totfact>
</mgrwt>
</event>
<event>
12    1  0.1494110E-007  0.1722840E+04  0.7818608E-02  0.8748444E-01
          2   -1    0    0  501    0  0.00000000000E+00  0.00000000000E+00  0.56738812971E+03  0.56738812971E+03  0.00000000000E+00 0. -1.
         -2   -1    0    0    0  501 -0.00000000000E+00 -0.00000000000E+00 -0.13078245325E+04  0.13078245325E+04  0.00000000000E+00 0.  1.
         23    2    1    2    0    0 -0.53082415954E+03 -0.12439426605E+02 -0.64176821126E+03  0.83794559183E+03  0.91418544047E+02 0.  0.
        254    2    1    2    0    0  0.53082415954E+03  0.12439426605E+02 -0.98668191526E+02  0.10372670704E+04  0.88558372592E+03 0.  0.
        -24    2    4    4    0    0  0.63257985821E+03  0.23064504972E+02 -0.36909930468E+03  0.73693533113E+03  0.78422810101E+02 0.  0.
         24    2    4    4    0    0 -0.10175569867E+03 -0.10625078367E+02  0.27043111316E+03  0.30033173926E+03  0.81234550153E+02 0.  0.
         13    1    3    3    0    0 -0.43939673353E+03  0.41704672894E+01 -0.47531308489E+03  0.64730936259E+03  0.00000000000E+00 0.  1.
        -13    1    3    3    0    0 -0.91427426009E+02 -0.16609893894E+02 -0.16645512637E+03  0.19063622924E+03  0.00000000000E+00 0. -1.
          4    1    6    6  502    0 -0.39706552919E+02  0.32019809498E+02  0.73208657087E+02  0.89226599271E+02  0.00000000000E+00 0. -1.
          3    1    5    5  503    0  0.49859324795E+02 -0.14498713888E+02 -0.47124653137E+02  0.70120595454E+02  0.00000000000E+00 0. -1.
         -4    1    5    5    0  503  0.58272053341E+03  0.37563218860E+02 -0.32197465155E+03  0.66681473567E+03  0.00000000000E+00 0.  1.
         -3    1    6    6    0  502 -0.62049145755E+02 -0.42644887866E+02  0.19722245607E+03  0.21110513999E+03  0.00000000000E+00 0.  1.
<mgrwt>
<rscale>  0 0.17228397E+04</rscale>
<asrwt>0</asrwt>
<pdfrwt beam="1">  1        2 0.87290483E-01 0.17228397E+04</pdfrwt>
<pdfrwt beam="2">  1       -2 0.20120377E+00 0.17228397E+04</pdfrwt>
<totfact> 0.65748315E+00</totfact>
</mgrwt>
</event>
<event>
12    1  0.1494110E-007  0.1491093E+04  0.7818608E-02  0.8890397E-01
         -2   -1    0    0    0  501 -0.00000000000E+00  0.00000000000E+00  0.11381387725E+04  0.11381387725E+04  0.00000000000E+00 0.  1.
          2   -1    0    0  501    0  0.00000000000E+00 -0.00000000000E+00 -0.48837618412E+03  0.48837618412E+03  0.00000000000E+00 0. -1.
         23    2    1    2    0    0  0.11953130704E+03 -0.22441378383E+03  0.63597207327E+03  0.69481440879E+03  0.11686447254E+03 0.  0.
        254    2    1    2    0    0 -0.11953130704E+03  0.22441378383E+03  0.13790515137E+02  0.93170054787E+03  0.89622901808E+03 0.  0.
        -24    2    4    4    0    0 -0.27515847934E+03  0.51695777989E+03  0.11592711317E+02  0.59106173999E+03  0.79133144612E+02 0.  0.
         24    2    4    4    0    0  0.15562717230E+03 -0.29254399606E+03  0.21978038200E+01  0.34063880788E+03  0.78918696790E+02 0.  0.
         13    1    3    3    0    0  0.72003278168E+02 -0.27966406312E+02  0.19442557078E+03  0.20920777835E+03  0.00000000000E+00 0. -1.
        -13    1    3    3    0    0  0.47528028874E+02 -0.19644737752E+03  0.44154650249E+03  0.48560663044E+03  0.00000000000E+00 0.  1.
          4    1    6    6  502    0  0.50203121790E+02 -0.17610637759E+03 -0.74091890647E+01  0.18327221761E+03  0.00000000000E+00 0. -1.
          1    1    5    5  503    0 -0.73632516005E+02  0.21018373786E+03  0.22587695484E+02  0.22385074282E+03  0.00000000000E+00 0. -1.
         -2    1    5    5    0  503 -0.20152596334E+03  0.30677404203E+03 -0.10994984167E+02  0.36721099717E+03  0.00000000000E+00 0.  1.
         -3    1    6    6    0  502  0.10542405051E+03 -0.11643761847E+03  0.96069928847E+01  0.15736659027E+03  0.00000000000E+00 0.  1.
<mgrwt>
<rscale>  0 0.14910934E+04</rscale>
<asrwt>0</asrwt>
<pdfrwt beam="1">  1        2 0.75134798E-01 0.14910934E+04</pdfrwt>
<pdfrwt beam="2">  1       -2 0.17509827E+00 0.14910934E+04</pdfrwt>
<totfact> 0.11989861E+01</totfact>
</mgrwt>
</event>
<event>
12    1  0.1494110E-007  0.3751031E+04  0.7818608E-02  0.8056746E-01
         -1   -1    0    0    0  501 -0.00000000000E+00  0.00000000000E+00  0.21202135928E+04  0.21202135928E+04  0.00000000000E+00 0.  1.
          1   -1    0    0  501    0  0.00000000000E+00 -0.00000000000E+00 -0.16590587588E+04  0.16590587588E+04  0.00000000000E+00 0. -1.
         23    2    1    2    0    0  0.53669509556E+03  0.15618229832E+04  0.84770162441E+03  0.18586035459E+04  0.92067585365E+02 0.  0.
        254    2    1    2    0    0 -0.53669509556E+03 -0.15618229832E+04 -0.38654679043E+03  0.19206688056E+04  0.90123114860E+03 0.  0.
        -24    2    4    4    0    0 -0.56842856046E+03 -0.77657911923E+03  0.13345024243E+03  0.97500930642E+03  0.81535413383E+02 0.  0.
         24    2    4    4    0    0  0.31733464895E+02 -0.78524386401E+03 -0.51999703286E+03  0.94565949922E+03  0.79120386343E+02 0.  0.
         13    1    3    3    0    0  0.32471672924E+03  0.89384927655E+03  0.53548476943E+03  0.10913988371E+04  0.00000000000E+00 0. -1.
        -13    1    3    3    0    0  0.21197836633E+03  0.66797370669E+03  0.31221685499E+03  0.76720470877E+03  0.00000000000E+00 0.  1.
          2    1    6    6  502    0  0.33866446583E+01 -0.61594253628E+03 -0.37635958950E+03  0.72183323418E+03  0.00000000000E+00 0. -1.
          1    1    5    5  503    0 -0.24708083299E+03 -0.30045151980E+03  0.20158671326E+02  0.38952076428E+03  0.00000000000E+00 0. -1.
         -2    1    5    5    0  503 -0.32134772747E+03 -0.47612759943E+03  0.11329157110E+03  0.58548854214E+03  0.00000000000E+00 0.  1.
         -3    1    6    6    0  502  0.28346820237E+02 -0.16930132772E+03 -0.14363744336E+03  0.22382626504E+03  0.00000000000E+00 0.  1.
<mgrwt>
<rscale>  0 0.37510313E+04</rscale>
<asrwt>0</asrwt>
<pdfrwt beam="1">  1        1 0.25523981E+00 0.37510313E+04</pdfrwt>
<pdfrwt beam="2">  1       -1 0.32618671E+00 0.37510313E+04</pdfrwt>
<totfact> 0.90533424E-02</totfact>
</mgrwt>
</event>
<event>
12    1  0.1494110E-007  0.1704949E+04  0.7818608E-02  0.8758547E-01
         -2   -1    0    0    0  501 -0.00000000000E+00  0.00000000000E+00  0.38230348822E+03  0.38230348822E+03  0.00000000000E+00 0. -1.
          2   -1    0    0  501    0  0.00000000000E+00 -0.00000000000E+00 -0.19008784711E+04  0.19008784711E+04  0.00000000000E+00 0.  1.
         23    2    1    2    0    0 -0.19241222718E+03  0.50691854321E+03 -0.93494207027E+03  0.10845558531E+04  0.90309740128E+02 0.  0.
        254    2    1    2    0    0  0.19241222718E+03 -0.50691854321E+03 -0.58363291262E+03  0.11986261062E+04  0.89559382041E+03 0.  0.
        -24    2    4    4    0    0  0.22000873229E+03 -0.40162819689E+03 -0.81073264969E+03  0.93439956286E+03  0.78141301428E+02 0.  0.
         24    2    4    4    0    0 -0.27596505114E+02 -0.10529034632E+03  0.22709973706E+03  0.26422654334E+03  0.79960937396E+02 0.  0.
         11    1    3    3    0    0 -0.30119668601E+02  0.19190725110E+03 -0.29936580682E+03  0.35686898682E+03  0.00000000000E+00 0. -1.
        -11    1    3    3    0    0 -0.16229255858E+03  0.31501129211E+03 -0.63557626345E+03  0.72768686631E+03  0.00000000000E+00 0.  1.
          4    1    6    6  502    0 -0.49102231645E+02 -0.10151214591E+03  0.18166755252E+03  0.21381965429E+03  0.00000000000E+00 0. -1.
          1    1    5    5  503    0  0.12846023735E+03 -0.22659471722E+03 -0.53700099749E+03  0.59683940031E+03  0.00000000000E+00 0. -1.
         -2    1    5    5    0  503  0.91548494942E+02 -0.17503347967E+03 -0.27373165220E+03  0.33756016256E+03  0.00000000000E+00 0.  1.
         -3    1    6    6    0  502  0.21505726531E+02 -0.37782004091E+01  0.45432184545E+02  0.50406889058E+02  0.00000000000E+00 0.  1.
<mgrwt>
<rscale>  0 0.17049486E+04</rscale>
<asrwt>0</asrwt>
<pdfrwt beam="1">  1        2 0.29244284E+00 0.17049486E+04</pdfrwt>
<pdfrwt beam="2">  1       -2 0.58815922E-01 0.17049486E+04</pdfrwt>
<totfact> 0.19488868E+01</totfact>
</mgrwt>
</event>
<event>
12    1  0.1494110E-007  0.1248813E+04  0.7818608E-02  0.9071172E-01
          2   -1    0    0  501    0  0.00000000000E+00  0.00000000000E+00  0.14113381613E+04  0.14113381613E+04  0.00000000000E+00 0. -1.
         -2   -1    0    0    0  501 -0.00000000000E+00 -0.00000000000E+00 -0.27625079468E+03  0.27625079468E+03  0.00000000000E+00 0.  1.
         23    2    1    2    0    0 -0.19336382399E+03  0.18389215527E+03  0.15209742841E+03  0.31952831305E+03  0.88084175158E+02 0.  0.
        254    2    1    2    0    0  0.19336382399E+03 -0.18389215527E+03  0.98298993824E+03  0.13680606430E+04  0.91329886180E+03 0.  0.
        -24    2    4    4    0    0  0.52961597353E+03 -0.25529547550E+03  0.54065048560E+03  0.80233280502E+03  0.75934993276E+02 0.  0.
         24    2    4    4    0    0 -0.33625214954E+03  0.71403320232E+02  0.44233945264E+03  0.56572783795E+03  0.78866044996E+02 0.  0.
         13    1    3    3    0    0 -0.16636234979E+03  0.17960205333E+03  0.15824647650E+03  0.29150519088E+03  0.00000000000E+00 0.  1.
        -13    1    3    3    0    0 -0.27001474197E+02  0.42901019400E+01 -0.61490480864E+01  0.28023122164E+02  0.00000000000E+00 0. -1.
          4    1    6    6  502    0 -0.25878289493E+03  0.75607978136E+02  0.29798758491E+03  0.40184792376E+03  0.00000000000E+00 0. -1.
          3    1    5    5  503    0  0.26113855215E+03 -0.12879888118E+03  0.31904776240E+03  0.43194209091E+03  0.00000000000E+00 0. -1.
         -4    1    5    5    0  503  0.26847742138E+03 -0.12649659432E+03  0.22160272320E+03  0.37039071411E+03  0.00000000000E+00 0.  1.
         -3    1    6    6    0  502 -0.77469254617E+02 -0.42046579044E+01  0.14435186773E+03  0.16387991419E+03  0.00000000000E+00 0.  1.
<mgrwt>
<rscale>  0 0.12488127E+04</rscale>
<asrwt>0</asrwt>
<pdfrwt beam="1">  1        2 0.21712894E+00 0.12488127E+04</pdfrwt>
<pdfrwt beam="2">  1       -2 0.42500123E-01 0.12488127E+04</pdfrwt>
<totfact> 0.73551636E+01</totfact>
</mgrwt>
</event>
<event>
12    1  0.1494110E-007  0.1304842E+04  0.7818608E-02  0.9025734E-01
          2   -1    0    0  501    0  0.00000000000E+00  0.00000000000E+00  0.14958499850E+04  0.14958499850E+04  0.00000000000E+00 0. -1.
         -2   -1    0    0    0  501 -0.00000000000E+00 -0.00000000000E+00 -0.28455589245E+03  0.28455589245E+03  0.00000000000E+00 0.  1.
         23    2    1    2    0    0 -0.27081836646E+03  0.38399538408E+02  0.58877962600E+03  0.65571567140E+03  0.92111245600E+02 0.  0.
        254    2    1    2    0    0  0.27081836646E+03 -0.38399538408E+02  0.62251446657E+03  0.11246902061E+04  0.89587202567E+03 0.  0.
        -24    2    4    4    0    0 -0.92738416981E+02 -0.16468372583E+02  0.72670496997E+03  0.73748135658E+03  0.83108463124E+02 0.  0.
         24    2    4    4    0    0  0.36355678344E+03 -0.21931165825E+02 -0.10419050341E+03  0.38720884948E+03  0.80128155474E+02 0.  0.
         13    1    3    3    0    0 -0.25484076912E+03  0.47514138319E+02  0.58007643312E+03  0.63536609856E+03  0.00000000000E+00 0. -1.
        -13    1    3    3    0    0 -0.15977597341E+02 -0.91145999109E+01  0.87031928834E+01  0.20349572838E+02  0.00000000000E+00 0.  1.
          2    1    6    6  502    0  0.10054657596E+03 -0.17178484464E+01 -0.66945291544E+02  0.12080660992E+03  0.00000000000E+00 0. -1.
          3    1    5    5  503    0 -0.24369384609E+02 -0.42084449815E+02  0.20481864957E+03  0.21051281917E+03  0.00000000000E+00 0. -1.
         -4    1    5    5    0  503 -0.68369032372E+02  0.25616077232E+02  0.52188632040E+03  0.52696853741E+03  0.00000000000E+00 0.  1.
         -1    1    6    6    0  502  0.26301020748E+03 -0.20213317378E+02 -0.37245211861E+02  0.26640223956E+03  0.00000000000E+00 0.  1.
<mgrwt>
<rscale>  0 0.13048416E+04</rscale>
<asrwt>0</asrwt>
<pdfrwt beam="1">  1        2 0.23013076E+00 0.13048416E+04</pdfrwt>
<pdfrwt beam="2">  1       -2 0.43777830E-01 0.13048416E+04</pdfrwt>
<totfact> 0.61854393E+01</totfact>
</mgrwt>
</event>
<event>
12    1  0.1494110E-007  0.1970868E+04  0.7818608E-02  0.8620363E-01
          2   -1    0    0  501    0  0.00000000000E+00  0.00000000000E+00  0.24447192449E+04  0.24447192449E+04  0.00000000000E+00 0.  1.
         -2   -1    0    0    0  501 -0.00000000000E+00 -0.00000000000E+00 -0.39721540496E+03  0.39721540496E+03  0.00000000000E+00 0. -1.
         23    2    1    2    0    0  0.49382453348E+03 -0.83472366268E+02 -0.37037368217E+02  0.51006169945E+03  0.89223678475E+02 0.  0.
        254    2    1    2    0    0 -0.49382453348E+03  0.83472366268E+02  0.20845412082E+04  0.23318729504E+04  0.91732715132E+03 0.  0.
        -24    2    4    4    0    0 -0.58951299304E+03  0.38125582452E+03  0.16010783374E+04  0.17504087125E+04  0.87162178841E+02 0.  0.
         24    2    4    4    0    0  0.95688459561E+02 -0.29778345825E+03  0.48346287078E+03  0.58146423798E+03  0.80827243732E+02 0.  0.
         11    1    3    3    0    0  0.25937015353E+03 -0.15339671452E+02 -0.53794638828E+02  0.26533383733E+03  0.00000000000E+00 0. -1.
        -11    1    3    3    0    0  0.23445437995E+03 -0.68132694816E+02  0.16757270611E+02  0.24472786212E+03  0.00000000000E+00 0.  1.
          4    1    6    6  502    0  0.95965568634E+02 -0.20997455753E+03  0.30454389058E+03  0.38215924229E+03  0.00000000000E+00 0. -1.
          3    1    5    5  503    0 -0.44632294260E+03  0.25092713142E+03  0.12156506328E+04  0.13190811405E+04  0.00000000000E+00 0. -1.
         -4    1    5    5    0  503 -0.14319005045E+03  0.13032869310E+03  0.38542770466E+03  0.43132757194E+03  0.00000000000E+00 0.  1.
         -3    1    6    6    0  502 -0.27710907323E+00 -0.87808900725E+02  0.17891898020E+03  0.19930499570E+03  0.00000000000E+00 0.  1.
<mgrwt>
<rscale>  0 0.19708680E+04</rscale>
<asrwt>0</asrwt>
<pdfrwt beam="1">  1        2 0.37611064E+00 0.19708680E+04</pdfrwt>
<pdfrwt beam="2">  1       -2 0.61110064E-01 0.19708680E+04</pdfrwt>
<totfact> 0.86968724E+00</totfact>
</mgrwt>
</event>
<event>
12    1  0.1494110E-007  0.1234694E+04  0.7818608E-02  0.9083019E-01
         -2   -1    0    0    0  501 -0.00000000000E+00  0.00000000000E+00  0.27800550949E+03  0.27800550949E+03  0.00000000000E+00 0.  1.
          2   -1    0    0  501    0  0.00000000000E+00 -0.00000000000E+00 -0.13708991873E+04  0.13708991873E+04  0.00000000000E+00 0. -1.
         23    2    1    2    0    0  0.16043171274E+03 -0.16597692342E+03 -0.51311509781E+02  0.25287527876E+03  0.89589966038E+02 0.  0.
        254    2    1    2    0    0 -0.16043171274E+03  0.16597692342E+03 -0.10415821680E+04  0.13960294180E+04  0.90039882812E+03 0.  0.
        -24    2    4    4    0    0  0.16297363857E+03  0.39307392120E+03 -0.84017375049E+03  0.94533077889E+03  0.81797531121E+02 0.  0.
         24    2    4    4    0    0 -0.32340535131E+03 -0.22709699779E+03 -0.20140841754E+03  0.45069863914E+03  0.79999031280E+02 0.  0.
         13    1    3    3    0    0  0.36922666662E+02  0.10812378568E+01  0.58485374139E+01  0.37398633379E+02  0.00000000000E+00 0. -1.
        -13    1    3    3    0    0  0.12350904608E+03 -0.16705816127E+03 -0.57160047195E+02  0.21547664538E+03  0.00000000000E+00 0.  1.
          4    1    6    6  502    0 -0.89723051079E+02 -0.36746089511E+02 -0.20255899136E+02  0.99049494895E+02  0.00000000000E+00 0. -1.
          3    1    5    5  503    0  0.17340953943E+02  0.10624234069E+03 -0.15892888064E+03  0.19195450696E+03  0.00000000000E+00 0. -1.
         -4    1    5    5    0  503  0.14563268463E+03  0.28683158051E+03 -0.68124486985E+03  0.75337627193E+03  0.00000000000E+00 0.  1.
         -3    1    6    6    0  502 -0.23368230024E+03 -0.19035090827E+03 -0.18115251841E+03  0.35164914425E+03  0.00000000000E+00 0.  1.
<mgrwt>
<rscale>  0 0.12346943E+04</rscale>
<asrwt>0</asrwt>
<pdfrwt beam="1">  1        2 0.21090756E+00 0.12346943E+04</pdfrwt>
<pdfrwt beam="2">  1       -2 0.42770079E-01 0.12346943E+04</pdfrwt>
<totfact> 0.76691520E+01</totfact>
</mgrwt>
</event>
<event>
12    1  0.1494110E-007  0.1628838E+04  0.7818608E-02  0.8803025E-01
         -2   -1    0    0    0  501 -0.00000000000E+00  0.00000000000E+00  0.15540637280E+04  0.15540637280E+04  0.00000000000E+00 0.  1.
          2   -1    0    0  501    0  0.00000000000E+00 -0.00000000000E+00 -0.42680269490E+03  0.42680269490E+03  0.00000000000E+00 0. -1.
         23    2    1    2    0    0 -0.36661281213E+03 -0.11289443481E+03 -0.10439177632E+03  0.40788615052E+03  0.91232458019E+02 0.  0.
        254    2    1    2    0    0  0.36661281213E+03  0.11289443481E+03  0.12316528094E+04  0.15729802724E+04  0.90008232230E+03 0.  0.
        -24    2    4    4    0    0  0.47694935020E+03 -0.25718402481E+03  0.91496374283E+03  0.10665986710E+04  0.82763330676E+02 0.  0.
         24    2    4    4    0    0 -0.11033653808E+03  0.37007845962E+03  0.31668906658E+03  0.50638160142E+03  0.83654906947E+02 0.  0.
         13    1    3    3    0    0 -0.35169574751E+03 -0.11840263338E+03 -0.81372629904E+02  0.37990865652E+03  0.00000000000E+00 0. -1.
        -13    1    3    3    0    0 -0.14917064620E+02  0.55081985743E+01 -0.23019146416E+02  0.27977493993E+02  0.00000000000E+00 0.  1.
          2    1    6    6  502    0 -0.25784824513E+02  0.20821736701E+02  0.45004516627E+02  0.55891040528E+02  0.00000000000E+00 0. -1.
          1    1    5    5  503    0  0.32024337444E+03 -0.12931757290E+03  0.55409545411E+03  0.65291701295E+03  0.00000000000E+00 0. -1.
         -2    1    5    5    0  503  0.15670597577E+03 -0.12786645191E+03  0.36086828872E+03  0.41368165800E+03  0.00000000000E+00 0.  1.
         -1    1    6    6    0  502 -0.84551713565E+02  0.34925672292E+03  0.27168454996E+03  0.45049056089E+03  0.00000000000E+00 0.  1.
<mgrwt>
<rscale>  0 0.16288383E+04</rscale>
<asrwt>0</asrwt>
<pdfrwt beam="1">  1        2 0.65661954E-01 0.16288383E+04</pdfrwt>
<pdfrwt beam="2">  1       -2 0.23908672E+00 0.16288383E+04</pdfrwt>
<totfact> 0.53041748E+00</totfact>
</mgrwt>
</event>
<event>
12    1  0.1494110E-007  0.1194218E+04  0.7818608E-02  0.9117933E-01
         -2   -1    0    0    0  501 -0.00000000000E+00  0.00000000000E+00  0.15206304302E+03  0.15206304302E+03  0.00000000000E+00 0.  1.
          2   -1    0    0  501    0  0.00000000000E+00 -0.00000000000E+00 -0.23446799044E+04  0.23446799044E+04  0.00000000000E+00 0. -1.
         23    2    1    2    0    0  0.67348351608E+02  0.11604127123E+02  0.12796127011E+02  0.11514666106E+03  0.91785382587E+02 0.  0.
        254    2    1    2    0    0 -0.67348351608E+02 -0.11604127123E+02 -0.22054129884E+04  0.23815962864E+04  0.89637267119E+03 0.  0.
        -24    2    4    4    0    0 -0.44871847534E+03  0.42843942489E+02 -0.15590946835E+04  0.16249074068E+04  0.79774524849E+02 0.  0.
         24    2    4    4    0    0  0.38137012373E+03 -0.54448069612E+02 -0.64631830491E+03  0.75668887965E+03  0.80267962268E+02 0.  0.
         13    1    3    3    0    0  0.28203580071E+02 -0.10766336717E+02 -0.37144444230E+02  0.47865077794E+02  0.00000000000E+00 0. -1.
        -13    1    3    3    0    0  0.39144771538E+02  0.22370463840E+02  0.49940571241E+02  0.67281583268E+02  0.00000000000E+00 0.  1.
          4    1    6    6  502    0  0.33772809971E+03 -0.21686471800E+02 -0.54253792151E+03  0.63943566421E+03  0.00000000000E+00 0. -1.
          1    1    5    5  503    0 -0.25478517736E+03  0.47048943558E+02 -0.10041458882E+04  0.10370332948E+04  0.00000000000E+00 0. -1.
         -4    1    5    5    0  503 -0.19393329799E+03 -0.42050010686E+01 -0.55494879534E+03  0.58787411200E+03  0.00000000000E+00 0.  1.
         -3    1    6    6    0  502  0.43642024028E+02 -0.32761597812E+02 -0.10378038339E+03  0.11725321544E+03  0.00000000000E+00 0.  1.
<mgrwt>
<rscale>  0 0.11942180E+04</rscale>
<asrwt>0</asrwt>
<pdfrwt beam="1">  1        2 0.36071996E+00 0.11942180E+04</pdfrwt>
<pdfrwt beam="2">  1       -2 0.23394316E-01 0.11942180E+04</pdfrwt>
<totfact> 0.68581877E+01</totfact>
</mgrwt>
</event>
<event>
12    1  0.1494110E-007  0.1671796E+04  0.7818608E-02  0.8777616E-01
          2   -1    0    0  501    0  0.00000000000E+00  0.00000000000E+00  0.19611211949E+04  0.19611211949E+04  0.00000000000E+00 0. -1.
         -2   -1    0    0    0  501 -0.00000000000E+00 -0.00000000000E+00 -0.35628866791E+03  0.35628866791E+03  0.00000000000E+00 0.  1.
         23    2    1    2    0    0 -0.22977755369E+03 -0.52691601486E+03  0.76835533504E+03  0.96368785761E+03  0.88804026620E+02 0.  0.
        254    2    1    2    0    0  0.22977755369E+03  0.52691601486E+03  0.83647719195E+03  0.13537220052E+04  0.89578511028E+03 0.  0.
        -24    2    4    4    0    0 -0.17340215966E+02  0.69670252955E+03  0.75986730568E+03  0.10341393762E+04  0.79692091225E+02 0.  0.
         24    2    4    4    0    0  0.24711776966E+03 -0.16978651470E+03  0.76609886272E+02  0.31958262899E+03  0.79808078680E+02 0.  0.
         13    1    3    3    0    0 -0.21987013494E+03 -0.42546601453E+03  0.61354135181E+03  0.77832974769E+03  0.00000000000E+00 0.  1.
        -13    1    3    3    0    0 -0.99074187503E+01 -0.10145000033E+03  0.15481398323E+03  0.18535810992E+03  0.00000000000E+00 0. -1.
          2    1    6    6  502    0  0.10396494155E+03 -0.89266824070E+02  0.73082069735E+02  0.15530055978E+03  0.00000000000E+00 0. -1.
          3    1    5    5  503    0  0.11625049994E+02  0.36819845938E+03  0.35072842309E+03  0.50864100704E+03  0.00000000000E+00 0. -1.
         -4    1    5    5    0  503 -0.28965265960E+02  0.32850407017E+03  0.40913888258E+03  0.52549836916E+03  0.00000000000E+00 0.  1.
         -1    1    6    6    0  502  0.14315282811E+03 -0.80519690625E+02  0.35278165371E+01  0.16428206921E+03  0.00000000000E+00 0.  1.
<mgrwt>
<rscale>  0 0.16717958E+04</rscale>
<asrwt>0</asrwt>
<pdfrwt beam="1">  1        2 0.30171095E+00 0.16717958E+04</pdfrwt>
<pdfrwt beam="2">  1       -2 0.54813642E-01 0.16717958E+04</pdfrwt>
<totfact> 0.20969451E+01</totfact>
</mgrwt>
</event>
<event>
12    1  0.1494110E-007  0.1510575E+04  0.7818608E-02  0.8877451E-01
          1   -1    0    0  501    0  0.00000000000E+00  0.00000000000E+00  0.80196698795E+03  0.80196698795E+03  0.00000000000E+00 0. -1.
         -1   -1    0    0    0  501 -0.00000000000E+00 -0.00000000000E+00 -0.71132547392E+03  0.71132547392E+03  0.00000000000E+00 0.  1.
         23    2    1    2    0    0  0.36599828958E+03 -0.26145470877E+03  0.20196342759E+03  0.50135422344E+03  0.90848877609E+02 0.  0.
        254    2    1    2    0    0 -0.36599828958E+03  0.26145470877E+03 -0.11132191355E+03  0.10119382384E+04  0.89961831754E+03 0.  0.
        -24    2    4    4    0    0 -0.50649092595E+03  0.28078106032E+03  0.23419029595E+03  0.62974376181E+03  0.79756184243E+02 0.  0.
         24    2    4    4    0    0  0.14049263637E+03 -0.19326351550E+02 -0.34551220950E+03  0.38219447662E+03  0.81131019414E+02 0.  0.
         13    1    3    3    0    0  0.72267252322E+02 -0.10076801684E+03  0.58257027574E+02  0.13700594965E+03  0.00000000000E+00 0.  1.
        -13    1    3    3    0    0  0.29373103725E+03 -0.16068669193E+03  0.14370640001E+03  0.36434827379E+03  0.00000000000E+00 0. -1.
          4    1    6    6  502    0  0.36729735756E+02  0.19451702622E+02 -0.16709862865E+03  0.17218999367E+03  0.00000000000E+00 0. -1.
          1    1    5    5  503    0 -0.13503565754E+03  0.10388394482E+03  0.96985242583E+02  0.19604244458E+03  0.00000000000E+00 0. -1.
         -2    1    5    5    0  503 -0.37145526841E+03  0.17689711550E+03  0.13720505336E+03  0.43370131723E+03  0.00000000000E+00 0.  1.
         -3    1    6    6    0  502  0.10376290062E+03 -0.38778054172E+02 -0.17841358084E+03  0.21000448295E+03  0.00000000000E+00 0.  1.
<mgrwt>
<rscale>  0 0.15105755E+04</rscale>
<asrwt>0</asrwt>
<pdfrwt beam="1">  1        1 0.12337954E+00 0.15105755E+04</pdfrwt>
<pdfrwt beam="2">  1       -1 0.10943469E+00 0.15105755E+04</pdfrwt>
<totfact> 0.16449241E+01</totfact>
</mgrwt>
</event>
<event>
12    1  0.1494110E-007  0.1568117E+04  0.7818608E-02  0.8840378E-01
          2   -1    0    0  501    0  0.00000000000E+00  0.00000000000E+00  0.52398121518E+03  0.52398121518E+03  0.00000000000E+00 0.  1.
         -2   -1    0    0    0  501 -0.00000000000E+00 -0.00000000000E+00 -0.11732251004E+04  0.11732251004E+04  0.00000000000E+00 0. -1.
         23    2    1    2    0    0 -0.41124103334E+03  0.20578199937E+03 -0.48892004036E+03  0.67762200589E+03  0.93077162807E+02 0.  0.
        254    2    1    2    0    0  0.41124103334E+03 -0.20578199937E+03 -0.16032384486E+03  0.10195843097E+04  0.89575834384E+03 0.  0.
        -24    2    4    4    0    0 -0.12921301716E+03  0.21415107767E+03  0.10204610792E+03  0.28220101983E+03  0.81653656241E+02 0.  0.
         24    2    4    4    0    0  0.54045405050E+03 -0.41993307704E+03 -0.26236995278E+03  0.73738328986E+03  0.80385036787E+02 0.  0.
         13    1    3    3    0    0 -0.23118321584E+03  0.12879959348E+03 -0.21535981363E+03  0.34119622491E+03  0.00000000000E+00 0. -1.
        -13    1    3    3    0    0 -0.18005781750E+03  0.76982405889E+02 -0.27356022673E+03  0.33642578098E+03  0.00000000000E+00 0.  1.
          4    1    6    6  502    0  0.51578827054E+03 -0.40693414402E+03 -0.26690748300E+03  0.70913506618E+03  0.00000000000E+00 0. -1.
          1    1    5    5  503    0 -0.30027254330E+02  0.88224672413E+02  0.75027204524E+02  0.11964242660E+03  0.00000000000E+00 0. -1.
         -2    1    5    5    0  503 -0.99185762833E+02  0.12592640526E+03  0.27018903399E+02  0.16255859322E+03  0.00000000000E+00 0.  1.
         -3    1    6    6    0  502  0.24665779959E+02 -0.12998933017E+02  0.45375302152E+01  0.28248223679E+02  0.00000000000E+00 0.  1.
<mgrwt>
<rscale>  0 0.15681172E+04</rscale>
<asrwt>0</asrwt>
<pdfrwt beam="1">  1        2 0.80612496E-01 0.15681172E+04</pdfrwt>
<pdfrwt beam="2">  1       -2 0.18049617E+00 0.15681172E+04</pdfrwt>
<totfact> 0.10070529E+01</totfact>
</mgrwt>
</event>
<event>
12    1  0.1494110E-007  0.2096550E+04  0.7818608E-02  0.8562765E-01
          1   -1    0    0  501    0  0.00000000000E+00  0.00000000000E+00  0.35362293361E+03  0.35362293361E+03  0.00000000000E+00 0. -1.
         -1   -1    0    0    0  501 -0.00000000000E+00 -0.00000000000E+00 -0.31074912617E+04  0.31074912617E+04  0.00000000000E+00 0.  1.
         23    2    1    2    0    0 -0.81223466883E+03 -0.24231945236E+03 -0.10148921849E+04  0.13253820661E+04  0.90485357637E+02 0.  0.
        254    2    1    2    0    0  0.81223466883E+03  0.24231945236E+03 -0.17389761432E+04  0.21357321292E+04  0.90491426495E+03 0.  0.
        -24    2    4    4    0    0 -0.12300647124E+03 -0.42486117566E+02 -0.17505597425E+02  0.15439456178E+03  0.81213130796E+02 0.  0.
         24    2    4    4    0    0  0.93524114007E+03  0.28480556993E+03 -0.17214705458E+04  0.19813375674E+04  0.80296409691E+02 0.  0.
         13    1    3    3    0    0 -0.26537499142E+03 -0.97291107693E+02 -0.40030415397E+03  0.49003353088E+03  0.00000000000E+00 0. -1.
        -13    1    3    3    0    0 -0.54685967741E+03 -0.14502834467E+03 -0.61458803093E+03  0.83534853522E+03  0.00000000000E+00 0.  1.
          4    1    6    6  502    0  0.16574132393E+03  0.27592889248E+02 -0.25491265953E+03  0.30530643293E+03  0.00000000000E+00 0. -1.
          3    1    5    5  503    0  0.74750186944E+01 -0.12254425648E+02  0.10215133108E+02  0.17618053151E+02  0.00000000000E+00 0. -1.
         -4    1    5    5    0  503 -0.13048148994E+03 -0.30231691919E+02 -0.27720730532E+02  0.13677650863E+03  0.00000000000E+00 0.  1.
         -3    1    6    6    0  502  0.76949981614E+03  0.25721268068E+03 -0.14665578863E+04  0.16760311345E+04  0.00000000000E+00 0.  1.
<mgrwt>
<rscale>  0 0.20965497E+04</rscale>
<asrwt>0</asrwt>
<pdfrwt beam="1">  1        1 0.54403527E-01 0.20965497E+04</pdfrwt>
<pdfrwt beam="2">  1       -1 0.47807559E+00 0.20965497E+04</pdfrwt>
<totfact> 0.13499896E-01</totfact>
</mgrwt>
</event>
<event>
12    1  0.1494110E-007  0.1613989E+04  0.7818608E-02  0.8812000E-01
          2   -1    0    0  501    0  0.00000000000E+00  0.00000000000E+00  0.41365791252E+04  0.41365791252E+04  0.00000000000E+00 0.  1.
         -2   -1    0    0    0  501 -0.00000000000E+00 -0.00000000000E+00 -0.15743453564E+03  0.15743453564E+03  0.00000000000E+00 0. -1.
         23    2    1    2    0    0 -0.45093386758E+03  0.32103799978E+03  0.12482075169E+04  0.13684752578E+04  0.91081149271E+02 0.  0.
        254    2    1    2    0    0  0.45093386758E+03 -0.32103799978E+03  0.27309370727E+04  0.29255384031E+04  0.89126365488E+03 0.  0.
        -24    2    4    4    0    0 -0.48135746418E+02  0.26123068278E+03  0.76301975409E+03  0.81206568720E+03  0.81810851926E+02 0.  0.
         24    2    4    4    0    0  0.49906961400E+03 -0.58226868255E+03  0.19679173186E+04  0.21134727159E+04  0.77207833151E+02 0.  0.
         13    1    3    3    0    0 -0.71576055540E+02  0.65584463955E+02  0.14804076949E+03  0.17703254805E+03  0.00000000000E+00 0.  1.
        -13    1    3    3    0    0 -0.37935781204E+03  0.25545353582E+03  0.11001667474E+04  0.11914427097E+04  0.00000000000E+00 0. -1.
          4    1    6    6  502    0  0.85755807631E+02 -0.80336072833E+02  0.23875254030E+03  0.26610283471E+03  0.00000000000E+00 0. -1.
          3    1    5    5  503    0  0.14433356874E+01  0.73475621933E+02  0.12348671100E+03  0.14370009753E+03  0.00000000000E+00 0. -1.
         -4    1    5    5    0  503 -0.49579082106E+02  0.18775506084E+03  0.63953304309E+03  0.66836558967E+03  0.00000000000E+00 0.  1.
         -1    1    6    6    0  502  0.41331380637E+03 -0.50193260972E+03  0.17291647783E+04  0.18473698811E+04  0.00000000000E+00 0.  1.
<mgrwt>
<rscale>  0 0.16139894E+04</rscale>
<asrwt>0</asrwt>
<pdfrwt beam="1">  1        2 0.63639671E+00 0.16139894E+04</pdfrwt>
<pdfrwt beam="2">  1       -2 0.24220701E-01 0.16139894E+04</pdfrwt>
<totfact> 0.39230604E+00</totfact>
</mgrwt>
</event>
<event>
12    1  0.1494110E-007  0.1582609E+04  0.7818608E-02  0.8831303E-01
         -2   -1    0    0    0  501 -0.00000000000E+00  0.00000000000E+00  0.60229208566E+03  0.60229208566E+03  0.00000000000E+00 0.  1.
          2   -1    0    0  501    0  0.00000000000E+00 -0.00000000000E+00 -0.10396336916E+04  0.10396336916E+04  0.00000000000E+00 0. -1.
         23    2    1    2    0    0  0.12939762167E+03  0.50374372488E+03 -0.22674238929E+03  0.57674144943E+03  0.10352344439E+03 0.  0.
        254    2    1    2    0    0 -0.12939762167E+03 -0.50374372488E+03 -0.21059921661E+03  0.10651843278E+04  0.90540827105E+03 0.  0.
        -24    2    4    4    0    0  0.25236085237E+03 -0.56734035044E+03 -0.23438028068E+03  0.66846177082E+03  0.79661471436E+02 0.  0.
         24    2    4    4    0    0 -0.38175847404E+03  0.63596625558E+02  0.23781064067E+02  0.39672255697E+03  0.83899850533E+02 0.  0.
         11    1    3    3    0    0 -0.79568333219E+01  0.15529633476E+03 -0.58370374597E+02  0.16609444126E+03  0.00000000000E+00 0.  1.
        -11    1    3    3    0    0  0.13735445500E+03  0.34844739012E+03 -0.16837201469E+03  0.41064700818E+03  0.00000000000E+00 0. -1.
          2    1    6    6  502    0 -0.19098309953E+03  0.53104566989E+02 -0.24270849600E+02  0.19970907211E+03  0.00000000000E+00 0. -1.
          1    1    5    5  503    0  0.23717905668E+03 -0.54807650701E+03 -0.20785193507E+03  0.63233234092E+03  0.00000000000E+00 0. -1.
         -2    1    5    5    0  503  0.15181795689E+02 -0.19263843432E+02 -0.26528345610E+02  0.36129429900E+02  0.00000000000E+00 0.  1.
         -1    1    6    6    0  502 -0.19077537451E+03  0.10492058569E+02  0.48051913667E+02  0.19701348487E+03  0.00000000000E+00 0.  1.
<mgrwt>
<rscale>  0 0.15826094E+04</rscale>
<asrwt>0</asrwt>
<pdfrwt beam="1">  1        2 0.15994364E+00 0.15826094E+04</pdfrwt>
<pdfrwt beam="2">  1       -2 0.92660323E-01 0.15826094E+04</pdfrwt>
<totfact> 0.22544874E+01</totfact>
</mgrwt>
</event>
<event>
12    1  0.1494110E-007  0.1469601E+04  0.7818608E-02  0.8904923E-01
          2   -1    0    0  501    0  0.00000000000E+00  0.00000000000E+00  0.20772766612E+04  0.20772766612E+04  0.00000000000E+00 0. -1.
         -2   -1    0    0    0  501 -0.00000000000E+00 -0.00000000000E+00 -0.25992295750E+03  0.25992295750E+03  0.00000000000E+00 0.  1.
         23    2    1    2    0    0  0.10483584703E+03 -0.11586654994E+03 -0.10490684574E+03  0.20946897665E+03  0.91957564556E+02 0.  0.
        254    2    1    2    0    0 -0.10483584703E+03  0.11586654994E+03  0.19222605494E+04  0.21277306420E+04  0.89874159406E+03 0.  0.
        -24    2    4    4    0    0 -0.83447031010E+01  0.99713353836E+02 -0.58524258844E+02  0.14291717147E+03  0.83593313283E+02 0.  0.
         24    2    4    4    0    0 -0.96491143932E+02  0.16153196103E+02  0.19807848082E+04  0.19848134705E+04  0.80028679824E+02 0.  0.
         13    1    3    3    0    0  0.11687582498E+03 -0.92191761803E+02 -0.10622737558E+03  0.18287573576E+03  0.00000000000E+00 0.  1.
        -13    1    3    3    0    0 -0.12039977942E+02 -0.23674788135E+02  0.13205298372E+01  0.26593240892E+02  0.00000000000E+00 0. -1.
          2    1    6    6  502    0 -0.27840347135E+02 -0.10122452124E+02  0.12478946899E+04  0.12482462522E+04  0.00000000000E+00 0. -1.
          1    1    5    5  503    0 -0.13588757490E+02  0.82300485520E+02 -0.18914395245E+01  0.83436213903E+02  0.00000000000E+00 0. -1.
         -2    1    5    5    0  503  0.52440543890E+01  0.17412868316E+02 -0.56632819319E+02  0.59480957570E+02  0.00000000000E+00 0.  1.
         -1    1    6    6    0  502 -0.68650796797E+02  0.26275648227E+02  0.73289011832E+03  0.73656721833E+03  0.00000000000E+00 0.  1.
<mgrwt>
<rscale>  0 0.14696012E+04</rscale>
<asrwt>0</asrwt>
<pdfrwt beam="1">  1        2 0.31958101E+00 0.14696012E+04</pdfrwt>
<pdfrwt beam="2">  1       -2 0.39988149E-01 0.14696012E+04</pdfrwt>
<totfact> 0.34695650E+01</totfact>
</mgrwt>
</event>
<event>
12    1  0.1494110E-007  0.3657538E+04  0.7818608E-02  0.8077438E-01
         -2   -1    0    0    0  501 -0.00000000000E+00  0.00000000000E+00  0.15827673093E+04  0.15827673093E+04  0.00000000000E+00 0.  1.
          2   -1    0    0  501    0  0.00000000000E+00 -0.00000000000E+00 -0.21130050073E+04  0.21130050073E+04  0.00000000000E+00 0. -1.
         23    2    1    2    0    0  0.35570221288E+03 -0.59557836802E+03 -0.18103534923E+04  0.19404378443E+04  0.81741077041E+02 0.  0.
        254    2    1    2    0    0 -0.35570221288E+03  0.59557836802E+03  0.12801157944E+04  0.17553344723E+04  0.98044123024E+03 0.  0.
        -24    2    4    4    0    0 -0.44186266741E+03  0.71227451939E+03  0.54672393155E+03  0.10040807817E+04  0.81814124607E+02 0.  0.
         24    2    4    4    0    0  0.86160454531E+02 -0.11669615136E+03  0.73339186281E+03  0.75125369062E+03  0.74005861687E+02 0.  0.
         11    1    3    3    0    0  0.84134145340E+02 -0.15292716558E+03 -0.36414234475E+03  0.40381297604E+03  0.00000000000E+00 0.  1.
        -11    1    3    3    0    0  0.27156806754E+03 -0.44265120245E+03 -0.14462111476E+04  0.15366248683E+04  0.00000000000E+00 0. -1.
          4    1    6    6  502    0  0.33819844786E+02 -0.77837334929E+02  0.55237676172E+03  0.55885822844E+03  0.00000000000E+00 0. -1.
          1    1    5    5  503    0 -0.10639572689E+03  0.16169899318E+03  0.86880588477E+02  0.21216703738E+03  0.00000000000E+00 0. -1.
         -2    1    5    5    0  503 -0.33546694052E+03  0.55057552621E+03  0.45984334307E+03  0.79191374430E+03  0.00000000000E+00 0.  1.
         -3    1    6    6    0  502  0.52340609745E+02 -0.38858816434E+02  0.18101510109E+03  0.19239546218E+03  0.00000000000E+00 0.  1.
<mgrwt>
<rscale>  0 0.36575376E+04</rscale>
<asrwt>0</asrwt>
<pdfrwt beam="1">  1        2 0.32507769E+00 0.36575376E+04</pdfrwt>
<pdfrwt beam="2">  1       -2 0.24350266E+00 0.36575376E+04</pdfrwt>
<totfact> 0.33034376E-01</totfact>
</mgrwt>
</event>
<event>
12    1  0.1494110E-007  0.1373578E+04  0.7818608E-02  0.8973169E-01
         -1   -1    0    0    0  501 -0.00000000000E+00  0.00000000000E+00  0.10017652324E+04  0.10017652324E+04  0.00000000000E+00 0.  1.
          1   -1    0    0  501    0  0.00000000000E+00 -0.00000000000E+00 -0.47084802980E+03  0.47084802980E+03  0.00000000000E+00 0. -1.
         23    2    1    2    0    0 -0.60252711599E+02  0.20237784465E+03 -0.18358354878E+03  0.29550752749E+03  0.95050503196E+02 0.  0.
        254    2    1    2    0    0  0.60252711599E+02 -0.20237784465E+03  0.71450075135E+03  0.11771057347E+04  0.91130642799E+03 0.  0.
        -24    2    4    4    0    0  0.18442857991E+03 -0.52865654379E+03  0.34486309933E+03  0.66242077076E+03  0.79869129640E+02 0.  0.
         24    2    4    4    0    0 -0.12417586831E+03  0.32627869914E+03  0.36963765202E+03  0.51468496393E+03  0.79944871706E+02 0.  0.
         13    1    3    3    0    0 -0.51459187953E+02  0.20080977630E+03 -0.13793980781E+03  0.24899800172E+03  0.00000000000E+00 0. -1.
        -13    1    3    3    0    0 -0.87935236461E+01  0.15680683446E+01 -0.45643740977E+02  0.46509525764E+02  0.00000000000E+00 0.  1.
          2    1    6    6  502    0 -0.11884242758E+03  0.26712551739E+03  0.26616207610E+03  0.39537553717E+03  0.00000000000E+00 0. -1.
          1    1    5    5  503    0  0.14248883595E+03 -0.44521918127E+03  0.25349703404E+03  0.53177432620E+03  0.00000000000E+00 0. -1.
         -2    1    5    5    0  503  0.41939743964E+02 -0.83437362521E+02  0.91366065291E+02  0.13064644456E+03  0.00000000000E+00 0.  1.
         -1    1    6    6    0  502 -0.53334407340E+01  0.59153181750E+02  0.10347557592E+03  0.11930942676E+03  0.00000000000E+00 0.  1.
<mgrwt>
<rscale>  0 0.13735781E+04</rscale>
<asrwt>0</asrwt>
<pdfrwt beam="1">  1        1 0.72438159E-01 0.13735781E+04</pdfrwt>
<pdfrwt beam="2">  1       -1 0.15411773E+00 0.13735781E+04</pdfrwt>
<totfact> 0.15247285E+01</totfact>
</mgrwt>
</event>
<event>
12    1  0.1494110E-007  0.2343044E+04  0.7818608E-02  0.8461140E-01
         -2   -1    0    0    0  501 -0.00000000000E+00  0.00000000000E+00  0.17125881874E+04  0.17125881874E+04  0.00000000000E+00 0. -1.
          2   -1    0    0  501    0  0.00000000000E+00 -0.00000000000E+00 -0.80139740216E+03  0.80139740216E+03  0.00000000000E+00 0.  1.
         23    2    1    2    0    0  0.14193468664E+03 -0.78624315447E+03 -0.26376562951E+03  0.84630594914E+03  0.91311001672E+02 0.  0.
        254    2    1    2    0    0 -0.14193468664E+03  0.78624315447E+03  0.11749564148E+04  0.16676796405E+04  0.87310311723E+03 0.  0.
        -24    2    4    4    0    0  0.11775341638E+03  0.87092932467E+03  0.76509766937E+03  0.11679916654E+04  0.80289047213E+02 0.  0.
         24    2    4    4    0    0 -0.25968810302E+03 -0.84686170206E+02  0.40985874543E+03  0.49968797507E+03  0.84227210279E+02 0.  0.
         11    1    3    3    0    0  0.80951192194E+02 -0.21666742004E+03 -0.78919399763E+02  0.24438931663E+03  0.00000000000E+00 0. -1.
        -11    1    3    3    0    0  0.60983494445E+02 -0.56957573443E+03 -0.18484622975E+03  0.60191663252E+03  0.00000000000E+00 0.  1.
          2    1    6    6  502    0 -0.72253142948E+02  0.12771284609E+02  0.86392675441E+02  0.11334600455E+03  0.00000000000E+00 0. -1.
          3    1    5    5  503    0  0.81409530706E+02  0.56206832818E+03  0.44314424391E+03  0.72036458696E+03  0.00000000000E+00 0. -1.
         -4    1    5    5    0  503  0.36343885673E+02  0.30886099649E+03  0.32195342546E+03  0.44762707843E+03  0.00000000000E+00 0.  1.
         -1    1    6    6    0  502 -0.18743496007E+03 -0.97457454815E+02  0.32346606999E+03  0.38634197053E+03  0.00000000000E+00 0.  1.
<mgrwt>
<rscale>  0 0.23430439E+04</rscale>
<asrwt>0</asrwt>
<pdfrwt beam="1">  1        2 0.12329191E+00 0.23430439E+04</pdfrwt>
<pdfrwt beam="2">  1       -2 0.26347510E+00 0.23430439E+04</pdfrwt>
<totfact> 0.16493714E+00</totfact>
</mgrwt>
</event>
<event>
12    1  0.1494110E-007  0.3929449E+04  0.7818608E-02  0.8018932E-01
         -2   -1    0    0    0  501 -0.00000000000E+00  0.00000000000E+00  0.10546528847E+04  0.10546528847E+04  0.00000000000E+00 0.  1.
          2   -1    0    0  501    0  0.00000000000E+00 -0.00000000000E+00 -0.36601074432E+04  0.36601074432E+04  0.00000000000E+00 0. -1.
         23    2    1    2    0    0 -0.28962982977E+03  0.29671288770E+03  0.93764490023E+03  0.10292848566E+04  0.91243525924E+02 0.  0.
        254    2    1    2    0    0  0.28962982977E+03 -0.29671288770E+03 -0.35430994587E+04  0.36854754713E+04  0.92587887967E+03 0.  0.
        -24    2    4    4    0    0  0.55367389559E+03 -0.71082264903E+02 -0.13413497782E+04  0.14550614713E+04  0.79857290015E+02 0.  0.
         24    2    4    4    0    0 -0.26404406582E+03 -0.22563062280E+03 -0.22017496805E+04  0.22304140000E+04  0.80103117598E+02 0.  0.
         13    1    3    3    0    0 -0.12147940022E+03  0.63984057662E+02  0.29110618555E+03  0.32186024231E+03  0.00000000000E+00 0. -1.
        -13    1    3    3    0    0 -0.16815042955E+03  0.23272883004E+03  0.64653871468E+03  0.70742461426E+03  0.00000000000E+00 0.  1.
          2    1    6    6  502    0 -0.68961368502E+02 -0.10943835642E+03 -0.80930999180E+03  0.81958226374E+03  0.00000000000E+00 0. -1.
          3    1    5    5  503    0  0.69699682434E+02  0.13444030970E+02 -0.13550529117E+03  0.15297212699E+03  0.00000000000E+00 0. -1.
         -4    1    5    5    0  503  0.48397421316E+03 -0.84526295873E+02 -0.12058444870E+04  0.13020893443E+04  0.00000000000E+00 0.  1.
         -1    1    6    6    0  502 -0.19508269732E+03 -0.11619226638E+03 -0.13924396887E+04  0.14108317363E+04  0.00000000000E+00 0.  1.
<mgrwt>
<rscale>  0 0.39294493E+04</rscale>
<asrwt>0</asrwt>
<pdfrwt beam="1">  1        2 0.56309346E+00 0.39294493E+04</pdfrwt>
<pdfrwt beam="2">  1       -2 0.16225429E+00 0.39294493E+04</pdfrwt>
<totfact> 0.11983999E-01</totfact>
</mgrwt>
</event>
<event>
12    1  0.1494110E-007  0.1535820E+04  0.7818608E-02  0.8860976E-01
          2   -1    0    0  501    0  0.00000000000E+00  0.00000000000E+00  0.10592638523E+04  0.10592638523E+04  0.00000000000E+00 0. -1.
         -2   -1    0    0    0  501 -0.00000000000E+00 -0.00000000000E+00 -0.55669377795E+03  0.55669377795E+03  0.00000000000E+00 0.  1.
         23    2    1    2    0    0 -0.32612759809E+03  0.19076755813E+03  0.51802325722E+03  0.64745932825E+03  0.90022304118E+02 0.  0.
        254    2    1    2    0    0  0.32612759809E+03 -0.19076755813E+03 -0.15453182920E+02  0.96849830197E+03  0.89162698960E+03 0.  0.
        -24    2    4    4    0    0  0.12614464131E+03  0.35097199466E+03 -0.48555921255E+02  0.38471276027E+03  0.80947012680E+02 0.  0.
         24    2    4    4    0    0  0.19998295678E+03 -0.54173955279E+03  0.33102738335E+02  0.58378554169E+03  0.78961011543E+02 0.  0.
         11    1    3    3    0    0 -0.20905443568E+03  0.95167646250E+02  0.24813791217E+03  0.33813172201E+03  0.00000000000E+00 0. -1.
        -11    1    3    3    0    0 -0.11707316241E+03  0.95599911882E+02  0.26988534505E+03  0.30932760624E+03  0.00000000000E+00 0.  1.
          4    1    6    6  502    0  0.51434743841E+02 -0.96745225982E+02  0.33760103711E+02  0.11465128096E+03  0.00000000000E+00 0. -1.
          1    1    5    5  503    0  0.16632943331E+02  0.13013872309E+02 -0.18689298214E+02  0.28201162105E+02  0.00000000000E+00 0. -1.
         -2    1    5    5    0  503  0.10951169798E+03  0.33795812235E+03 -0.29866623041E+02  0.35651159817E+03  0.00000000000E+00 0.  1.
         -3    1    6    6    0  502  0.14854821294E+03 -0.44499432681E+03 -0.65736537645E+00  0.46913426073E+03  0.00000000000E+00 0.  1.
<mgrwt>
<rscale>  0 0.15358198E+04</rscale>
<asrwt>0</asrwt>
<pdfrwt beam="1">  1        2 0.16296367E+00 0.15358198E+04</pdfrwt>
<pdfrwt beam="2">  1       -2 0.85645196E-01 0.15358198E+04</pdfrwt>
<totfact> 0.26363284E+01</totfact>
</mgrwt>
</event>
<event>
12    1  0.1494110E-007  0.1359244E+04  0.7818608E-02  0.8983860E-01
         -2   -1    0    0    0  501 -0.00000000000E+00  0.00000000000E+00  0.48324831104E+03  0.48324831104E+03  0.00000000000E+00 0.  1.
          2   -1    0    0  501    0  0.00000000000E+00 -0.00000000000E+00 -0.95579434264E+03  0.95579434264E+03  0.00000000000E+00 0. -1.
         23    2    1    2    0    0 -0.15513791378E+03 -0.33750973618E+03 -0.12383008854E+03  0.40214845759E+03  0.91700037106E+02 0.  0.
        254    2    1    2    0    0  0.15513791378E+03  0.33750973618E+03 -0.34871594306E+03  0.10368941961E+04  0.90308702274E+03 0.  0.
        -24    2    4    4    0    0  0.24462414417E+03 -0.25726135511E+03 -0.19078371492E+03  0.41002833111E+03  0.75501189997E+02 0.  0.
         24    2    4    4    0    0 -0.89486230389E+02  0.59477109129E+03 -0.15793222814E+03  0.62686586499E+03  0.79106178892E+02 0.  0.
         13    1    3    3    0    0 -0.15937700711E+03 -0.34119771924E+03 -0.11962101070E+03  0.39512795422E+03  0.00000000000E+00 0.  1.
        -13    1    3    3    0    0  0.42390933300E+01  0.36879830536E+01 -0.42090778451E+01  0.70205033702E+01  0.00000000000E+00 0. -1.
          4    1    6    6  502    0 -0.17754385899E+02  0.20273609446E+02 -0.13608824297E+02  0.30190024136E+02  0.00000000000E+00 0. -1.
          3    1    5    5  503    0  0.86475955675E+01 -0.43966601538E+02 -0.25645464789E+02  0.51628798399E+02  0.00000000000E+00 0. -1.
         -4    1    5    5    0  503  0.23597654860E+03 -0.21329475357E+03 -0.16513825013E+03  0.35839953271E+03  0.00000000000E+00 0.  1.
         -3    1    6    6    0  502 -0.71731844489E+02  0.57449748185E+03 -0.14432340384E+03  0.59667584085E+03  0.00000000000E+00 0.  1.
<mgrwt>
<rscale>  0 0.13592439E+04</rscale>
<asrwt>0</asrwt>
<pdfrwt beam="1">  1        2 0.14704528E+00 0.13592439E+04</pdfrwt>
<pdfrwt beam="2">  1       -2 0.74345895E-01 0.13592439E+04</pdfrwt>
<totfact> 0.42783864E+01</totfact>
</mgrwt>
</event>
<event>
12    1  0.1494110E-007  0.2412359E+04  0.7818608E-02  0.8434891E-01
          2   -1    0    0  501    0  0.00000000000E+00  0.00000000000E+00  0.13229194325E+04  0.13229194325E+04  0.00000000000E+00 0. -1.
         -2   -1    0    0    0  501 -0.00000000000E+00 -0.00000000000E+00 -0.10997413998E+04  0.10997413998E+04  0.00000000000E+00 0.  1.
         23    2    1    2    0    0 -0.55204225461E+03 -0.60709714768E+03  0.72941206954E+03  0.11016426038E+04  0.90867275170E+02 0.  0.
        254    2    1    2    0    0  0.55204225461E+03  0.60709714768E+03 -0.50623403682E+03  0.13210182284E+04  0.90304964550E+03 0.  0.
        -24    2    4    4    0    0 -0.20309105974E+03  0.20660527804E+03  0.39334605114E+02  0.30387931719E+03  0.82847503259E+02 0.  0.
         24    2    4    4    0    0  0.75513331435E+03  0.40049186963E+03 -0.54556864193E+03  0.10171389112E+04  0.79412603746E+02 0.  0.
         13    1    3    3    0    0 -0.27340013170E+03 -0.26655573385E+03  0.39127227574E+03  0.54671161047E+03  0.00000000000E+00 0.  1.
        -13    1    3    3    0    0 -0.27864212291E+03 -0.34054141383E+03  0.33813979380E+03  0.55493099332E+03  0.00000000000E+00 0. -1.
          4    1    6    6  502    0  0.70176029616E+03  0.39181194543E+03 -0.52037867650E+03  0.95748529012E+03  0.00000000000E+00 0. -1.
          3    1    5    5  503    0 -0.11123996696E+03  0.16094138511E+03  0.46365562423E+02  0.20106273914E+03  0.00000000000E+00 0. -1.
         -2    1    5    5    0  503 -0.91851092776E+02  0.45663892934E+02 -0.70309573089E+01  0.10281657805E+03  0.00000000000E+00 0.  1.
         -3    1    6    6    0  502  0.53373018190E+02  0.86799242065E+01 -0.25189965428E+02  0.59653621124E+02  0.00000000000E+00 0.  1.
<mgrwt>
<rscale>  0 0.24123592E+04</rscale>
<asrwt>0</asrwt>
<pdfrwt beam="1">  1        2 0.20352607E+00 0.24123592E+04</pdfrwt>
<pdfrwt beam="2">  1       -2 0.16919098E+00 0.24123592E+04</pdfrwt>
<totfact> 0.31106693E+00</totfact>
</mgrwt>
</event>
<event>
12    1  0.1494110E-007  0.1346108E+04  0.7818608E-02  0.8993779E-01
          2   -1    0    0  501    0  0.00000000000E+00  0.00000000000E+00  0.17487344603E+04  0.17487344603E+04  0.00000000000E+00 0. -1.
         -2   -1    0    0    0  501 -0.00000000000E+00 -0.00000000000E+00 -0.25904562077E+03  0.25904562077E+03  0.00000000000E+00 0.  1.
         23    2    1    2    0    0  0.10070426064E+03  0.76522613196E+02  0.93278806285E+03  0.94557307066E+03  0.89542187358E+02 0.  0.
        254    2    1    2    0    0 -0.10070426064E+03 -0.76522613196E+02  0.55690077664E+03  0.10622070104E+04  0.89562726589E+03 0.  0.
        -24    2    4    4    0    0  0.27940254844E+03 -0.30830859874E+03  0.13743153589E+03  0.44526785743E+03  0.79095269550E+02 0.  0.
         24    2    4    4    0    0 -0.38010680908E+03  0.23178598555E+03  0.41946924075E+03  0.61693915294E+03  0.80333959752E+02 0.  0.
         11    1    3    3    0    0  0.24659919742E+02  0.52804473776E+02  0.62254445172E+03  0.62526635801E+03  0.00000000000E+00 0.  1.
        -11    1    3    3    0    0  0.76044340896E+02  0.23718139420E+02  0.31024361113E+03  0.32030671264E+03  0.00000000000E+00 0. -1.
          4    1    6    6  502    0 -0.24044814955E+03  0.10464237612E+03  0.26667827487E+03  0.37400887930E+03  0.00000000000E+00 0. -1.
          1    1    5    5  503    0  0.12285581493E+03 -0.81481728109E+02  0.37594722741E+02  0.15213870795E+03  0.00000000000E+00 0. -1.
         -2    1    5    5    0  503  0.15654673351E+03 -0.22682687063E+03  0.99836813147E+02  0.29312914948E+03  0.00000000000E+00 0.  1.
         -3    1    6    6    0  502 -0.13965865953E+03  0.12714360942E+03  0.15279096588E+03  0.24293027365E+03  0.00000000000E+00 0.  1.
<mgrwt>
<rscale>  0 0.13461085E+04</rscale>
<asrwt>0</asrwt>
<pdfrwt beam="1">  1        2 0.26903606E+00 0.13461085E+04</pdfrwt>
<pdfrwt beam="2">  1       -2 0.39853174E-01 0.13461085E+04</pdfrwt>
<totfact> 0.53622638E+01</totfact>
</mgrwt>
</event>
<event>
12    1  0.1494110E-007  0.1420290E+04  0.7818608E-02  0.8939261E-01
          2   -1    0    0  501    0  0.00000000000E+00  0.00000000000E+00  0.26338826473E+04  0.26338826473E+04  0.00000000000E+00 0. -1.
         -2   -1    0    0    0  501 -0.00000000000E+00 -0.00000000000E+00 -0.19146869349E+03  0.19146869349E+03  0.00000000000E+00 0.  1.
         23    2    1    2    0    0  0.16437145284E+03 -0.38753571147E+03  0.69837009380E+03  0.82088389925E+03  0.94486432646E+02 0.  0.
        254    2    1    2    0    0 -0.16437145284E+03  0.38753571147E+03  0.17440438600E+04  0.20044674416E+04  0.89386734831E+03 0.  0.
        -24    2    4    4    0    0  0.33714928557E+03  0.31790391974E+03  0.75299664494E+03  0.88871157272E+03  0.89843025615E+02 0.  0.
         24    2    4    4    0    0 -0.50152073841E+03  0.69631791733E+02  0.99104721510E+03  0.11157558688E+04  0.79780566733E+02 0.  0.
         11    1    3    3    0    0  0.19151325765E+02 -0.18163730657E+01  0.33489033971E+02  0.38621080849E+02  0.00000000000E+00 0. -1.
        -11    1    3    3    0    0  0.14522012708E+03 -0.38571933841E+03  0.66488105983E+03  0.78226281840E+03  0.00000000000E+00 0.  1.
          4    1    6    6  502    0 -0.25195395048E+03 -0.44635600481E+01  0.47000888753E+03  0.53330016959E+03  0.00000000000E+00 0. -1.
          3    1    5    5  503    0  0.43384442772E+02  0.21155466531E+02  0.41121032924E+02  0.63409013456E+02  0.00000000000E+00 0. -1.
         -4    1    5    5    0  503  0.29376484280E+03  0.29674845321E+03  0.71187561201E+03  0.82530255926E+03  0.00000000000E+00 0.  1.
         -3    1    6    6    0  502 -0.24956678793E+03  0.74095351781E+02  0.52103832758E+03  0.58245569926E+03  0.00000000000E+00 0.  1.
<mgrwt>
<rscale>  0 0.14202902E+04</rscale>
<asrwt>0</asrwt>
<pdfrwt beam="1">  1        2 0.40521269E+00 0.14202902E+04</pdfrwt>
<pdfrwt beam="2">  1       -2 0.29456724E-01 0.14202902E+04</pdfrwt>
<totfact> 0.30111577E+01</totfact>
</mgrwt>
</event>
<event>
12    1  0.1494110E-007  0.1491687E+04  0.7818608E-02  0.8890000E-01
          2   -1    0    0  501    0  0.00000000000E+00  0.00000000000E+00  0.10238510756E+04  0.10238510756E+04  0.00000000000E+00 0. -1.
         -2   -1    0    0    0  501 -0.00000000000E+00 -0.00000000000E+00 -0.54332374543E+03  0.54332374543E+03  0.00000000000E+00 0.  1.
         23    2    1    2    0    0 -0.13999159984E+03  0.77060808210E+02  0.59329693079E+03  0.62017871579E+03  0.84168730841E+02 0.  0.
        254    2    1    2    0    0  0.13999159984E+03 -0.77060808210E+02 -0.11276960064E+03  0.94699610522E+03  0.92657898977E+03 0.  0.
        -24    2    4    4    0    0  0.15183018277E+03  0.37316179552E+03 -0.23700608674E+03  0.47297616749E+03  0.72335605483E+02 0.  0.
         24    2    4    4    0    0 -0.11838582935E+02 -0.45022260373E+03  0.12423648610E+03  0.47401993773E+03  0.80122730393E+02 0.  0.
         13    1    3    3    0    0 -0.17730810046E+02  0.11484718228E+02  0.16151407422E+02  0.26592260893E+02  0.00000000000E+00 0.  1.
        -13    1    3    3    0    0 -0.12226078979E+03  0.65576089981E+02  0.57714552336E+03  0.59358645490E+03  0.00000000000E+00 0. -1.
          2    1    6    6  502    0 -0.25125125039E+02 -0.43969296355E+03  0.12135208172E+03  0.45682327200E+03  0.00000000000E+00 0. -1.
          1    1    5    5  503    0  0.11799569934E+03  0.25932556010E+03 -0.13017710713E+03  0.31323922232E+03  0.00000000000E+00 0. -1.
         -2    1    5    5    0  503  0.33834483437E+02  0.11383623543E+03 -0.10682897961E+03  0.15973694517E+03  0.00000000000E+00 0.  1.
         -1    1    6    6    0  502  0.13286542103E+02 -0.10529640183E+02  0.28844043784E+01  0.17196665725E+02  0.00000000000E+00 0.  1.
<mgrwt>
<rscale>  0 0.14916871E+04</rscale>
<asrwt>0</asrwt>
<pdfrwt beam="1">  1        2 0.15751555E+00 0.14916871E+04</pdfrwt>
<pdfrwt beam="2">  1       -2 0.83588269E-01 0.14916871E+04</pdfrwt>
<totfact> 0.29435521E+01</totfact>
</mgrwt>
</event>
<event>
12    1  0.1494110E-007  0.1454318E+04  0.7818608E-02  0.8915413E-01
         -2   -1    0    0    0  501 -0.00000000000E+00  0.00000000000E+00  0.38550579204E+03  0.38550579204E+03  0.00000000000E+00 0.  1.
          2   -1    0    0  501    0  0.00000000000E+00 -0.00000000000E+00 -0.13716004674E+04  0.13716004674E+04  0.00000000000E+00 0. -1.
         23    2    1    2    0    0 -0.42905443253E+03 -0.11041276066E+03 -0.30035741073E+03  0.54284140077E+03  0.90462856612E+02 0.  0.
        254    2    1    2    0    0  0.42905443253E+03  0.11041276066E+03 -0.68573726469E+03  0.12142648587E+04  0.89884640909E+03 0.  0.
        -24    2    4    4    0    0  0.40759651822E+03 -0.32933659196E+03 -0.23753619820E+03  0.58083154938E+03  0.79651307757E+02 0.  0.
         24    2    4    4    0    0  0.21457914317E+02  0.43974935262E+03 -0.44820106648E+03  0.63343330934E+03  0.80707039130E+02 0.  0.
         13    1    3    3    0    0 -0.50779421584E+02 -0.41065468561E+02 -0.25359907795E+02  0.70057457047E+02  0.00000000000E+00 0. -1.
        -13    1    3    3    0    0 -0.37827501095E+03 -0.69347292096E+02 -0.27499750293E+03  0.47278394373E+03  0.00000000000E+00 0.  1.
          4    1    6    6  502    0 -0.30388657983E+02  0.12677870465E+03 -0.12952753187E+03  0.18377620085E+03  0.00000000000E+00 0. -1.
          1    1    5    5  503    0  0.40404969484E+03 -0.30995206919E+03 -0.22109012269E+03  0.55516419503E+03  0.00000000000E+00 0. -1.
         -2    1    5    5    0  503  0.35468233753E+01 -0.19384522771E+02 -0.16446075518E+02  0.25667354344E+02  0.00000000000E+00 0.  1.
         -3    1    6    6    0  502  0.51846572300E+02  0.31297064797E+03 -0.31867353461E+03  0.44965710849E+03  0.00000000000E+00 0.  1.
<mgrwt>
<rscale>  0 0.14543176E+04</rscale>
<asrwt>0</asrwt>
<pdfrwt beam="1">  1        2 0.21101546E+00 0.14543176E+04</pdfrwt>
<pdfrwt beam="2">  1       -2 0.59308584E-01 0.14543176E+04</pdfrwt>
<totfact> 0.38656732E+01</totfact>
</mgrwt>
</event>
<event>
12    1  0.1494110E-007  0.1297224E+04  0.7818608E-02  0.9031769E-01
          1   -1    0    0  501    0  0.00000000000E+00  0.00000000000E+00  0.36767893726E+04  0.36767893726E+04  0.00000000000E+00 0. -1.
         -1   -1    0    0    0  501 -0.00000000000E+00 -0.00000000000E+00 -0.11441981744E+03  0.11441981744E+03  0.00000000000E+00 0.  1.
         23    2    1    2    0    0 -0.69326028184E+01 -0.93461324709E+02  0.19812482709E+04  0.19854626901E+04  0.89074703424E+02 0.  0.
        254    2    1    2    0    0  0.69326028184E+01  0.93461324709E+02  0.15811212843E+04  0.18057464999E+04  0.86717519923E+03 0.  0.
        -24    2    4    4    0    0  0.42617749002E+03 -0.44630093539E+01  0.80225530826E+03  0.91193413316E+03  0.79769117634E+02 0.  0.
         24    2    4    4    0    0 -0.41924488721E+03  0.97924334063E+02  0.77886597601E+03  0.89381236675E+03  0.83143777413E+02 0.  0.
         13    1    3    3    0    0 -0.44464997060E+02 -0.24550125650E+02  0.75631434144E+03  0.75801796001E+03  0.00000000000E+00 0.  1.
        -13    1    3    3    0    0  0.37532394242E+02 -0.68911199059E+02  0.12249339294E+04  0.12274447301E+04  0.00000000000E+00 0. -1.
          2    1    6    6  502    0 -0.45454896771E+02  0.29752951266E+02  0.61667038489E+02  0.82183997137E+02  0.00000000000E+00 0. -1.
          1    1    5    5  503    0  0.14418286759E+03  0.14542551451E+02  0.34748973199E+03  0.37649608092E+03  0.00000000000E+00 0. -1.
         -2    1    5    5    0  503  0.28199462243E+03 -0.19005560805E+02  0.45476557628E+03  0.53543805224E+03  0.00000000000E+00 0.  1.
         -1    1    6    6    0  502 -0.37378999044E+03  0.68171382798E+02  0.71719893752E+03  0.81162836961E+03  0.00000000000E+00 0.  1.
<mgrwt>
<rscale>  0 0.12972241E+04</rscale>
<asrwt>0</asrwt>
<pdfrwt beam="1">  1        1 0.56565981E+00 0.12972241E+04</pdfrwt>
<pdfrwt beam="2">  1       -1 0.17603052E-01 0.12972241E+04</pdfrwt>
<totfact> 0.45784630E+00</totfact>
</mgrwt>
</event>
<event>
12    1  0.1494110E-007  0.2626720E+04  0.7818608E-02  0.8359181E-01
         -1   -1    0    0    0  501 -0.00000000000E+00  0.00000000000E+00  0.15442735761E+04  0.15442735761E+04  0.00000000000E+00 0.  1.
          1   -1    0    0  501    0  0.00000000000E+00 -0.00000000000E+00 -0.11169744306E+04  0.11169744306E+04  0.00000000000E+00 0. -1.
         23    2    1    2    0    0 -0.99185769240E+03  0.46700209366E+03 -0.18829604059E+03  0.11158907224E+04  0.88792274978E+02 0.  0.
        254    2    1    2    0    0  0.99185769240E+03 -0.46700209366E+03  0.61559518606E+03  0.15453572843E+04  0.89849822793E+03 0.  0.
        -24    2    4    4    0    0 -0.30527860291E+02 -0.37765943581E+03  0.19471831140E+03  0.43328422490E+03  0.79129002517E+02 0.  0.
         24    2    4    4    0    0  0.10223855527E+04 -0.89342657847E+02  0.42087687466E+03  0.11120730594E+04  0.79465822696E+02 0.  0.
         13    1    3    3    0    0 -0.60628500766E+03  0.24573445402E+03 -0.87072237499E+02  0.65996098896E+03  0.00000000000E+00 0. -1.
        -13    1    3    3    0    0 -0.38557268473E+03  0.22126763964E+03 -0.10122380309E+03  0.45592973349E+03  0.00000000000E+00 0.  1.
          2    1    6    6  502    0  0.53858694196E+03 -0.12370944997E+02  0.24149282700E+03  0.59037930166E+03  0.00000000000E+00 0. -1.
          3    1    5    5  503    0  0.62638820341E+01 -0.29195537446E+03  0.12933572905E+03  0.31938207167E+03  0.00000000000E+00 0. -1.
         -4    1    5    5    0  503 -0.36791742325E+02 -0.85704061349E+02  0.65382582350E+02  0.11390215323E+03  0.00000000000E+00 0.  1.
         -1    1    6    6    0  502  0.48379861073E+03 -0.76971712850E+02  0.17938404766E+03  0.52169375775E+03  0.00000000000E+00 0.  1.
<mgrwt>
<rscale>  0 0.26267197E+04</rscale>
<asrwt>0</asrwt>
<pdfrwt beam="1">  1        1 0.17184222E+00 0.26267197E+04</pdfrwt>
<pdfrwt beam="2">  1       -1 0.23758055E+00 0.26267197E+04</pdfrwt>
<totfact> 0.90979829E-01</totfact>
</mgrwt>
</event>
<event>
12    1  0.1494110E-007  0.1968329E+04  0.7818608E-02  0.8621573E-01
          2   -1    0    0  501    0  0.00000000000E+00  0.00000000000E+00  0.15018596758E+04  0.15018596758E+04  0.00000000000E+00 0. -1.
         -2   -1    0    0    0  501 -0.00000000000E+00 -0.00000000000E+00 -0.64492033341E+03  0.64492033341E+03  0.00000000000E+00 0.  1.
         23    2    1    2    0    0  0.22587828522E+02  0.11378773444E+03  0.10978624486E+04  0.11076780134E+04  0.90502854403E+02 0.  0.
        254    2    1    2    0    0 -0.22587828522E+02 -0.11378773444E+03 -0.24092310629E+03  0.10391019958E+04  0.10041071437E+04 0.  0.
        -24    2    4    4    0    0 -0.48964422978E+03 -0.17879068803E+03 -0.73404583157E+02  0.53238425295E+03  0.79543560844E+02 0.  0.
         24    2    4    4    0    0  0.46705640126E+03  0.65002953584E+02 -0.16751852313E+03  0.50671774287E+03  0.79582343577E+02 0.  0.
         13    1    3    3    0    0  0.14646772192E+02  0.12635195900E+03  0.10466960041E+04  0.10543964484E+04  0.00000000000E+00 0. -1.
        -13    1    3    3    0    0  0.79410563294E+01 -0.12564224559E+02  0.51166444533E+02  0.53281564922E+02  0.00000000000E+00 0.  1.
          2    1    6    6  502    0  0.28816629116E+03  0.65708269913E+02 -0.73233580722E+02  0.30450048513E+03  0.00000000000E+00 0. -1.
          3    1    5    5  503    0 -0.14554149703E+03 -0.60960286771E+02 -0.58738823972E+02  0.16837082099E+03  0.00000000000E+00 0. -1.
         -4    1    5    5    0  503 -0.34410273276E+03 -0.11783040126E+03 -0.14665759185E+02  0.36401343196E+03  0.00000000000E+00 0.  1.
         -1    1    6    6    0  502  0.17889011010E+03 -0.70531632918E+00 -0.94284942409E+02  0.20221725774E+03  0.00000000000E+00 0.  1.
<mgrwt>
<rscale>  0 0.19683291E+04</rscale>
<asrwt>0</asrwt>
<pdfrwt beam="1">  1        2 0.23105533E+00 0.19683291E+04</pdfrwt>
<pdfrwt beam="2">  1       -2 0.99218514E-01 0.19683291E+04</pdfrwt>
<totfact> 0.99263979E+00</totfact>
</mgrwt>
</event>
<event>
12    1  0.1494110E-007  0.1019514E+04  0.7818608E-02  0.9287398E-01
         -2   -1    0    0    0  501 -0.00000000000E+00  0.00000000000E+00  0.30372009095E+03  0.30372009095E+03  0.00000000000E+00 0.  1.
          2   -1    0    0  501    0  0.00000000000E+00 -0.00000000000E+00 -0.85556450571E+03  0.85556450571E+03  0.00000000000E+00 0. -1.
         23    2    1    2    0    0  0.11800505822E+02  0.50667618888E+02 -0.59006892421E+01  0.10498501784E+03  0.90997671927E+02 0.  0.
        254    2    1    2    0    0 -0.11800505822E+02 -0.50667618888E+02 -0.54594372552E+03  0.10542995788E+04  0.90043688891E+03 0.  0.
        -24    2    4    4    0    0  0.17717032014E+03 -0.22466493895E+03  0.13158632527E+03  0.32485373706E+03  0.79695246745E+02 0.  0.
         24    2    4    4    0    0 -0.18897082596E+03  0.17399732006E+03 -0.67753005080E+03  0.72944584175E+03  0.84019199368E+02 0.  0.
         11    1    3    3    0    0 -0.37605283949E+02  0.57890614517E+01 -0.10427919527E+01  0.38062554150E+02  0.00000000000E+00 0. -1.
        -11    1    3    3    0    0  0.49405789771E+02  0.44878557437E+02 -0.48578972894E+01  0.66922463692E+02  0.00000000000E+00 0.  1.
          4    1    6    6  502    0 -0.31468887686E+02  0.27444485207E+02 -0.45273194648E+02  0.61588576977E+02  0.00000000000E+00 0. -1.
          3    1    5    5  503    0  0.54144040804E+02 -0.19785978249E+02  0.19126311420E+02  0.60736133219E+02  0.00000000000E+00 0. -1.
         -4    1    5    5    0  503  0.12302627934E+03 -0.20487896070E+03  0.11246001385E+03  0.26411760385E+03  0.00000000000E+00 0.  1.
         -3    1    6    6    0  502 -0.15750193828E+03  0.14655283485E+03 -0.63225685615E+03  0.66785726478E+03  0.00000000000E+00 0.  1.
<mgrwt>
<rscale>  0 0.10195139E+04</rscale>
<asrwt>0</asrwt>
<pdfrwt beam="1">  1        2 0.13162531E+00 0.10195139E+04</pdfrwt>
<pdfrwt beam="2">  1       -2 0.46726168E-01 0.10195139E+04</pdfrwt>
<totfact> 0.13618484E+02</totfact>
</mgrwt>
</event>
<event>
12    1  0.1494110E-007  0.2270711E+04  0.7818608E-02  0.8489560E-01
         -2   -1    0    0    0  501 -0.00000000000E+00  0.00000000000E+00  0.11020764216E+04  0.11020764216E+04  0.00000000000E+00 0.  1.
          2   -1    0    0  501    0  0.00000000000E+00 -0.00000000000E+00 -0.11696394318E+04  0.11696394318E+04  0.00000000000E+00 0. -1.
         23    2    1    2    0    0 -0.13587402578E+03  0.73119470854E+03 -0.63270649413E+03  0.97901508905E+03  0.71032275716E+02 0.  0.
        254    2    1    2    0    0  0.13587402578E+03 -0.73119470854E+03  0.56514348394E+03  0.12927007643E+04  0.89363340128E+03 0.  0.
        -24    2    4    4    0    0 -0.34182445996E+03 -0.44863252036E+03  0.13360202908E+03  0.58509555432E+03  0.79826096960E+02 0.  0.
         24    2    4    4    0    0  0.47769848574E+03 -0.28256218818E+03  0.43154145486E+03  0.70760520998E+03  0.80248815913E+02 0.  0.
         11    1    3    3    0    0 -0.74390739912E+01  0.12100427993E+03 -0.75872774958E+02  0.14301766871E+03  0.00000000000E+00 0.  1.
        -11    1    3    3    0    0 -0.12843495179E+03  0.61019042861E+03 -0.55683371918E+03  0.83599742034E+03  0.00000000000E+00 0. -1.
          4    1    6    6  502    0  0.31301365619E+03 -0.22366202705E+03  0.31752342910E+03  0.49882199163E+03  0.00000000000E+00 0. -1.
          3    1    5    5  503    0 -0.28464816094E+03 -0.41496154705E+03  0.11494833362E+03  0.51616933313E+03  0.00000000000E+00 0. -1.
         -4    1    5    5    0  503 -0.57176299021E+02 -0.33670973304E+02  0.18653695457E+02  0.68926221188E+02  0.00000000000E+00 0.  1.
         -1    1    6    6    0  502  0.16468482955E+03 -0.58900161136E+02  0.11401802575E+03  0.20878321835E+03  0.00000000000E+00 0.  1.
<mgrwt>
<rscale>  0 0.22707109E+04</rscale>
<asrwt>0</asrwt>
<pdfrwt beam="1">  1        2 0.17994453E+00 0.22707109E+04</pdfrwt>
<pdfrwt beam="2">  1       -2 0.16955022E+00 0.22707109E+04</pdfrwt>
<totfact> 0.38545076E+00</totfact>
</mgrwt>
</event>
<event>
12    1  0.1494110E-007  0.1914482E+04  0.7818608E-02  0.8647681E-01
          1   -1    0    0  501    0  0.00000000000E+00  0.00000000000E+00  0.21733334357E+04  0.21733334357E+04  0.00000000000E+00 0. -1.
         -1   -1    0    0    0  501 -0.00000000000E+00 -0.00000000000E+00 -0.42161495408E+03  0.42161495408E+03  0.00000000000E+00 0.  1.
         23    2    1    2    0    0  0.27488062914E+03 -0.41034977613E+03  0.14271318539E+04  0.15128300592E+04  0.89460386057E+02 0.  0.
        254    2    1    2    0    0 -0.27488062914E+03  0.41034977613E+03  0.32458662772E+03  0.10821183305E+04  0.90646417654E+03 0.  0.
        -24    2    4    4    0    0 -0.44865524846E+03 -0.10525348997E+03  0.24044772266E+03  0.52579707041E+03  0.79231450838E+02 0.  0.
         24    2    4    4    0    0  0.17377461932E+03  0.51560326610E+03  0.84138905053E+02  0.55632126013E+03  0.79810041969E+02 0.  0.
         11    1    3    3    0    0  0.19311272075E+03 -0.27291219827E+03  0.83395086353E+03  0.89846960642E+03  0.00000000000E+00 0. -1.
        -11    1    3    3    0    0  0.81767908390E+02 -0.13743757786E+03  0.59318099034E+03  0.61436045279E+03  0.00000000000E+00 0.  1.
          4    1    6    6  502    0  0.78241074448E+02  0.29353529806E+03  0.11914323942E+02  0.30401741406E+03  0.00000000000E+00 0. -1.
          1    1    5    5  503    0 -0.15961606764E+03 -0.23453334620E+02  0.45250915825E+02  0.16755594092E+03  0.00000000000E+00 0. -1.
         -2    1    5    5    0  503 -0.28903918082E+03 -0.81800155347E+02  0.19519680684E+03  0.35824112950E+03  0.00000000000E+00 0.  1.
         -3    1    6    6    0  502  0.95533544867E+02  0.22206796803E+03  0.72224581111E+02  0.25230384606E+03  0.00000000000E+00 0.  1.
<mgrwt>
<rscale>  0 0.19144815E+04</rscale>
<asrwt>0</asrwt>
<pdfrwt beam="1">  1        1 0.33435898E+00 0.19144815E+04</pdfrwt>
<pdfrwt beam="2">  1       -1 0.64863840E-01 0.19144815E+04</pdfrwt>
<totfact> 0.51165005E+00</totfact>
</mgrwt>
</event>
<event>
12    1  0.1494110E-007  0.2252826E+04  0.7818608E-02  0.8496757E-01
          2   -1    0    0  501    0  0.00000000000E+00  0.00000000000E+00  0.24802319965E+04  0.24802319965E+04  0.00000000000E+00 0. -1.
         -2   -1    0    0    0  501 -0.00000000000E+00 -0.00000000000E+00 -0.51156769775E+03  0.51156769775E+03  0.00000000000E+00 0.  1.
         23    2    1    2    0    0 -0.53099167161E+03  0.49371862549E+03  0.15736496342E+04  0.17351362963E+04  0.92814649862E+02 0.  0.
        254    2    1    2    0    0  0.53099167161E+03 -0.49371862549E+03  0.39501466465E+03  0.12566633980E+04  0.94734158257E+03 0.  0.
        -24    2    4    4    0    0  0.67700728775E+03 -0.64246268337E+03  0.19542315136E+03  0.95693613109E+03  0.80245770659E+02 0.  0.
         24    2    4    4    0    0 -0.14601561614E+03  0.14874405787E+03  0.19959151328E+03  0.29972726690E+03  0.80958677343E+02 0.  0.
         11    1    3    3    0    0 -0.26654521967E+03  0.27624722098E+03  0.73293197754E+03  0.82737425929E+03  0.00000000000E+00 0.  1.
        -11    1    3    3    0    0 -0.26444645194E+03  0.21747140452E+03  0.84071765661E+03  0.90776203702E+03  0.00000000000E+00 0. -1.
          4    1    6    6  502    0 -0.68052154541E+02  0.29018679031E+02  0.35204066626E+02  0.81929883300E+02  0.00000000000E+00 0. -1.
          1    1    5    5  503    0  0.11460493577E+03 -0.15304759135E+03  0.43099550142E+02  0.19599854015E+03  0.00000000000E+00 0. -1.
         -2    1    5    5    0  503  0.56240235198E+03 -0.48941509202E+03  0.15232360122E+03  0.76093759093E+03  0.00000000000E+00 0.  1.
         -3    1    6    6    0  502 -0.77963461599E+02  0.11972537884E+03  0.16438744666E+03  0.21779738360E+03  0.00000000000E+00 0.  1.
<mgrwt>
<rscale>  0 0.22528263E+04</rscale>
<asrwt>0</asrwt>
<pdfrwt beam="1">  1        2 0.38157415E+00 0.22528263E+04</pdfrwt>
<pdfrwt beam="2">  1       -2 0.78702724E-01 0.22528263E+04</pdfrwt>
<totfact> 0.46646931E+00</totfact>
</mgrwt>
</event>
<event>
12    1  0.1494110E-007  0.2679714E+04  0.7818608E-02  0.8341617E-01
         -2   -1    0    0    0  501 -0.00000000000E+00  0.00000000000E+00  0.10665992342E+04  0.10665992342E+04  0.00000000000E+00 0.  1.
          2   -1    0    0  501    0  0.00000000000E+00 -0.00000000000E+00 -0.16831217907E+04  0.16831217907E+04  0.00000000000E+00 0. -1.
         23    2    1    2    0    0  0.34140945982E+03 -0.30992965060E+03  0.84689239283E+03  0.96853842554E+03  0.90681581049E+02 0.  0.
        254    2    1    2    0    0 -0.34140945982E+03  0.30992965060E+03 -0.14634149493E+04  0.17811825994E+04  0.90466089279E+03 0.  0.
        -24    2    4    4    0    0  0.22965715847E+03 -0.14226093957E+03 -0.43121053923E+03  0.51527165231E+03  0.81128054135E+02 0.  0.
         24    2    4    4    0    0 -0.57106661829E+03  0.45219059017E+03 -0.10322044100E+04  0.12659109471E+04  0.80567793839E+02 0.  0.
         11    1    3    3    0    0  0.39738002889E+02 -0.19927563136E+02  0.40974018333E+02  0.60457314070E+02  0.00000000000E+00 0. -1.
        -11    1    3    3    0    0  0.30167145693E+03 -0.29000208746E+03  0.80591837450E+03  0.90808111147E+03  0.00000000000E+00 0.  1.
          4    1    6    6  502    0 -0.72687433151E+02  0.33059369003E+02 -0.86862743847E+02  0.11798949566E+03  0.00000000000E+00 0. -1.
          1    1    5    5  503    0  0.12769447373E+03 -0.10412706939E+03 -0.31837208119E+03  0.35848166938E+03  0.00000000000E+00 0. -1.
         -2    1    5    5    0  503  0.10196268474E+03 -0.38133870178E+02 -0.11283845804E+03  0.15678998293E+03  0.00000000000E+00 0.  1.
         -3    1    6    6    0  502 -0.49837918514E+03  0.41913122117E+03 -0.94534166620E+03  0.11479214514E+04  0.00000000000E+00 0.  1.
<mgrwt>
<rscale>  0 0.26797137E+04</rscale>
<asrwt>0</asrwt>
<pdfrwt beam="1">  1        2 0.25894181E+00 0.26797137E+04</pdfrwt>
<pdfrwt beam="2">  1       -2 0.16409219E+00 0.26797137E+04</pdfrwt>
<totfact> 0.20703965E+00</totfact>
</mgrwt>
</event>
<event>
12    1  0.1494110E-007  0.2716361E+04  0.7818608E-02  0.8329716E-01
          2   -1    0    0  501    0  0.00000000000E+00  0.00000000000E+00  0.17019549925E+04  0.17019549925E+04  0.00000000000E+00 0. -1.
         -2   -1    0    0    0  501 -0.00000000000E+00 -0.00000000000E+00 -0.10838443055E+04  0.10838443055E+04  0.00000000000E+00 0.  1.
         23    2    1    2    0    0  0.69310927438E+03  0.34206916427E+03  0.12210486589E+04  0.14480912243E+04  0.92717780648E+02 0.  0.
        254    2    1    2    0    0 -0.69310927438E+03 -0.34206916427E+03 -0.60293797196E+03  0.13377080738E+04  0.91022904437E+03 0.  0.
        -24    2    4    4    0    0 -0.32043477004E+03 -0.59011231984E+02  0.21069471562E+03  0.39625155619E+03  0.80388215787E+02 0.  0.
         24    2    4    4    0    0 -0.37267450434E+03 -0.28305793229E+03 -0.81363268758E+03  0.94145651758E+03  0.73035231144E+02 0.  0.
         11    1    3    3    0    0  0.48829867039E+03  0.19465747565E+03  0.80163524684E+03  0.95861681256E+03  0.00000000000E+00 0. -1.
        -11    1    3    3    0    0  0.20481060399E+03  0.14741168862E+03  0.41941341210E+03  0.48947441169E+03  0.00000000000E+00 0.  1.
          4    1    6    6  502    0 -0.73045829580E+02 -0.26337327702E+02 -0.10825330523E+03  0.13322209329E+03  0.00000000000E+00 0. -1.
          1    1    5    5  503    0 -0.18745229322E+03 -0.58141433244E+02  0.16249532271E+03  0.25480093876E+03  0.00000000000E+00 0. -1.
         -2    1    5    5    0  503 -0.13298247683E+03 -0.86979873975E+00  0.48199392910E+02  0.14145061742E+03  0.00000000000E+00 0.  1.
         -3    1    6    6    0  502 -0.29962867476E+03 -0.25672060458E+03 -0.70537938235E+03  0.80823442429E+03  0.00000000000E+00 0.  1.
<mgrwt>
<rscale>  0 0.27163610E+04</rscale>
<asrwt>0</asrwt>
<pdfrwt beam="1">  1        2 0.26183923E+00 0.27163610E+04</pdfrwt>
<pdfrwt beam="2">  1       -2 0.16674528E+00 0.27163610E+04</pdfrwt>
<totfact> 0.19277284E+00</totfact>
</mgrwt>
</event>
<event>
12    1  0.1494110E-007  0.2328322E+04  0.7818608E-02  0.8466837E-01
         -1   -1    0    0    0  501 -0.00000000000E+00  0.00000000000E+00  0.95301808433E+03  0.95301808433E+03  0.00000000000E+00 0. -1.
          1   -1    0    0  501    0  0.00000000000E+00 -0.00000000000E+00 -0.14220835899E+04  0.14220835899E+04  0.00000000000E+00 0.  1.
         23    2    1    2    0    0 -0.66948505581E+03 -0.40473743669E+03 -0.81009255846E+03  0.11298621525E+04  0.91191544108E+02 0.  0.
        254    2    1    2    0    0  0.66948505581E+03  0.40473743669E+03  0.34102705289E+03  0.12452395218E+04  0.90680724695E+03 0.  0.
        -24    2    4    4    0    0  0.79203582487E+03  0.37327378942E+03  0.51208378767E+03  0.10174660675E+04  0.79707736596E+02 0.  0.
         24    2    4    4    0    0 -0.12255076906E+03  0.31463647269E+02 -0.17105673478E+03  0.22777345420E+03  0.81312285858E+02 0.  0.
         13    1    3    3    0    0 -0.50918804710E+03 -0.29445169970E+03 -0.55201846968E+03  0.80665895001E+03  0.00000000000E+00 0. -1.
        -13    1    3    3    0    0 -0.16029700871E+03 -0.11028573699E+03 -0.25807408878E+03  0.32320320247E+03  0.00000000000E+00 0.  1.
          4    1    6    6  502    0 -0.78062381699E+02  0.47418469422E+02 -0.66343139010E+02  0.11288781499E+03  0.00000000000E+00 0. -1.
          3    1    5    5  503    0  0.15996176226E+02  0.15560233950E+02  0.26405673421E+02  0.34572505308E+02  0.00000000000E+00 0. -1.
         -4    1    5    5    0  503  0.77603964864E+03  0.35771355547E+03  0.48567811425E+03  0.98289356224E+03  0.00000000000E+00 0.  1.
         -3    1    6    6    0  502 -0.44488387358E+02 -0.15954822153E+02 -0.10471359577E+03  0.11488563922E+03  0.00000000000E+00 0.  1.
<mgrwt>
<rscale>  0 0.23283225E+04</rscale>
<asrwt>0</asrwt>
<pdfrwt beam="1">  1        1 0.21878209E+00 0.23283225E+04</pdfrwt>
<pdfrwt beam="2">  1       -1 0.14661817E+00 0.23283225E+04</pdfrwt>
<totfact> 0.24797026E+00</totfact>
</mgrwt>
</event>
<event>
12    1  0.1494110E-007  0.2325240E+04  0.7818608E-02  0.8468035E-01
         -1   -1    0    0    0  501 -0.00000000000E+00  0.00000000000E+00  0.12525989985E+04  0.12525989985E+04  0.00000000000E+00 0.  1.
          1   -1    0    0  501    0  0.00000000000E+00 -0.00000000000E+00 -0.10791047415E+04  0.10791047415E+04  0.00000000000E+00 0. -1.
         23    2    1    2    0    0 -0.32952754275E+03 -0.91882360425E+03  0.23185170230E+03  0.10067890847E+04  0.83927539928E+02 0.  0.
        254    2    1    2    0    0  0.32952754275E+03  0.91882360425E+03 -0.58357445246E+02  0.13249146553E+04  0.89396198765E+03 0.  0.
        -24    2    4    4    0    0 -0.22844483797E+03  0.40199222157E+03  0.21063866120E+03  0.51426182844E+03  0.79446789725E+02 0.  0.
         24    2    4    4    0    0  0.55797238072E+03  0.51683138268E+03 -0.26899610645E+03  0.81065282691E+03  0.79694696970E+02 0.  0.
         11    1    3    3    0    0 -0.62564458057E+02 -0.25420234013E+03  0.35933247474E+02  0.26424295528E+03  0.00000000000E+00 0.  1.
        -11    1    3    3    0    0 -0.26696308469E+03 -0.66462126412E+03  0.19591845483E+03  0.74254612938E+03  0.00000000000E+00 0. -1.
          2    1    6    6  502    0  0.19233515717E+02  0.97005817441E+01  0.41995344152E+01  0.21946879102E+02  0.00000000000E+00 0. -1.
          3    1    5    5  503    0 -0.58672377444E+02  0.17401917118E+03  0.64423678207E+02  0.19461636655E+03  0.00000000000E+00 0. -1.
         -4    1    5    5    0  503 -0.16977246052E+03  0.22797305039E+03  0.14621498299E+03  0.31964546189E+03  0.00000000000E+00 0.  1.
         -1    1    6    6    0  502  0.53873886500E+03  0.50713080093E+03 -0.27319564086E+03  0.78870594780E+03  0.00000000000E+00 0.  1.
<mgrwt>
<rscale>  0 0.23252402E+04</rscale>
<asrwt>0</asrwt>
<pdfrwt beam="1">  1        1 0.16601611E+00 0.23252402E+04</pdfrwt>
<pdfrwt beam="2">  1       -1 0.19270754E+00 0.23252402E+04</pdfrwt>
<totfact> 0.20059189E+00</totfact>
</mgrwt>
</event>
<event>
12    1  0.1494110E-007  0.1555238E+04  0.7818608E-02  0.8848529E-01
         -2   -1    0    0    0  501 -0.00000000000E+00  0.00000000000E+00  0.43926515077E+03  0.43926515077E+03  0.00000000000E+00 0. -1.
          2   -1    0    0  501    0  0.00000000000E+00 -0.00000000000E+00 -0.13765979586E+04  0.13765979586E+04  0.00000000000E+00 0.  1.
         23    2    1    2    0    0  0.42019801178E+03  0.97353294272E+01  0.28381553902E+02  0.42921521465E+03  0.82213393950E+02 0.  0.
        254    2    1    2    0    0 -0.42019801178E+03 -0.97353294272E+01 -0.96571436177E+03  0.13866478947E+04  0.90195732146E+03 0.  0.
        -24    2    4    4    0    0 -0.36670290292E+02 -0.16019524932E+03 -0.94894734001E+03  0.96638496256E+03  0.79947568086E+02 0.  0.
         24    2    4    4    0    0 -0.38352772149E+03  0.15045991990E+03 -0.16767021759E+02  0.42026293219E+03  0.81290211634E+02 0.  0.
         11    1    3    3    0    0  0.24949510603E+02 -0.18991815952E+02  0.82029183904E+01  0.32410723883E+02  0.00000000000E+00 0.  1.
        -11    1    3    3    0    0  0.39524850118E+03  0.28727145379E+02  0.20178635511E+02  0.39680449077E+03  0.00000000000E+00 0. -1.
          4    1    6    6  502    0 -0.16256600941E+03  0.60846918327E+02  0.32983535403E+02  0.17668607329E+03  0.00000000000E+00 0. -1.
          1    1    5    5  503    0 -0.45916285843E+01 -0.11606979517E+02 -0.12446808885E+02  0.17627480762E+02  0.00000000000E+00 0. -1.
         -4    1    5    5    0  503 -0.32078661708E+02 -0.14858826981E+03 -0.93650053113E+03  0.94875748179E+03  0.00000000000E+00 0.  1.
         -3    1    6    6    0  502 -0.22096171208E+03  0.89613001570E+02 -0.49750557163E+02  0.24357685890E+03  0.00000000000E+00 0.  1.
<mgrwt>
<rscale>  0 0.15552383E+04</rscale>
<asrwt>0</asrwt>
<pdfrwt beam="1">  1        2 0.21178430E+00 0.15552383E+04</pdfrwt>
<pdfrwt beam="2">  1       -2 0.67579255E-01 0.15552383E+04</pdfrwt>
<totfact> 0.28822315E+01</totfact>
</mgrwt>
</event>
<event>
12    1  0.1494110E-007  0.1118733E+04  0.7818608E-02  0.9187124E-01
          2   -1    0    0  501    0  0.00000000000E+00  0.00000000000E+00  0.62569317484E+03  0.62569317484E+03  0.00000000000E+00 0. -1.
         -2   -1    0    0    0  501 -0.00000000000E+00 -0.00000000000E+00 -0.50007065866E+03  0.50007065866E+03  0.00000000000E+00 0.  1.
         23    2    1    2    0    0 -0.12163408415E+03  0.11258667311E+03  0.30791139473E+02  0.20364846183E+03  0.11425406927E+03 0.  0.
        254    2    1    2    0    0  0.12163408415E+03 -0.11258667311E+03  0.94831376710E+02  0.92211537167E+03  0.90212701948E+03 0.  0.
        -24    2    4    4    0    0  0.46127788671E+03 -0.26022202197E+03  0.86979410234E+02  0.54253366452E+03  0.79275278919E+02 0.  0.
         24    2    4    4    0    0 -0.33964380256E+03  0.14763534886E+03  0.78519664755E+01  0.37958170715E+03  0.82864408339E+02 0.  0.
         13    1    3    3    0    0 -0.60166993998E+02  0.57572504960E+02 -0.42329200200E+02  0.93415318250E+02  0.00000000000E+00 0.  1.
        -13    1    3    3    0    0 -0.61467090153E+02  0.55014168148E+02  0.73120339673E+02  0.11023314358E+03  0.00000000000E+00 0. -1.
          2    1    6    6  502    0 -0.32016392124E+03  0.11747234679E+03 -0.60224821343E+01  0.34108790512E+03  0.00000000000E+00 0. -1.
          1    1    5    5  503    0  0.44264016821E+03 -0.26097960015E+03  0.72538016742E+02  0.51894357505E+03  0.00000000000E+00 0. -1.
         -2    1    5    5    0  503  0.18637718499E+02  0.75757817540E+00  0.14441393492E+02  0.23590089477E+02  0.00000000000E+00 0.  1.
         -1    1    6    6    0  502 -0.19479881318E+02  0.30163002075E+02  0.13874448610E+02  0.38493802028E+02  0.00000000000E+00 0.  1.
<mgrwt>
<rscale>  0 0.11187329E+04</rscale>
<asrwt>0</asrwt>
<pdfrwt beam="1">  1        2 0.96260489E-01 0.11187329E+04</pdfrwt>
<pdfrwt beam="2">  1       -2 0.76933947E-01 0.11187329E+04</pdfrwt>
<totfact> 0.70562016E+01</totfact>
</mgrwt>
</event>
<event>
12    1  0.1494110E-007  0.2028502E+04  0.7818608E-02  0.8593410E-01
          2   -1    0    0  501    0  0.00000000000E+00  0.00000000000E+00  0.30659286097E+04  0.30659286097E+04  0.00000000000E+00 0.  1.
         -2   -1    0    0    0  501 -0.00000000000E+00 -0.00000000000E+00 -0.33552791789E+03  0.33552791789E+03  0.00000000000E+00 0. -1.
         23    2    1    2    0    0 -0.50462431396E+03  0.50316601913E+03  0.17517697362E+04  0.18933419262E+04  0.90690130097E+02 0.  0.
        254    2    1    2    0    0  0.50462431396E+03 -0.50316601913E+03  0.97863095566E+03  0.15081146015E+04  0.89937164884E+03 0.  0.
        -24    2    4    4    0    0 -0.55255360146E+02 -0.51978357574E+03  0.24801608844E+03  0.58412796541E+03  0.80407583105E+02 0.  0.
         24    2    4    4    0    0  0.55987967410E+03  0.16617556609E+02  0.73061486722E+03  0.92398663605E+03  0.78815142775E+02 0.  0.
         13    1    3    3    0    0 -0.49260231348E+03  0.48683372223E+03  0.16481025448E+04  0.17877097389E+04  0.00000000000E+00 0.  1.
        -13    1    3    3    0    0 -0.12022000477E+02  0.16332296904E+02  0.10366719141E+03  0.10563218729E+03  0.00000000000E+00 0. -1.
          4    1    6    6  502    0  0.33487084423E+03 -0.25846772015E+02  0.41017352194E+03  0.53014041163E+03  0.00000000000E+00 0. -1.
          3    1    5    5  503    0 -0.12344647577E+02 -0.85394223260E+01  0.19766476779E+01  0.15139986576E+02  0.00000000000E+00 0. -1.
         -4    1    5    5    0  503 -0.42910712569E+02 -0.51124415342E+03  0.24603944076E+03  0.56898797884E+03  0.00000000000E+00 0.  1.
         -3    1    6    6    0  502  0.22500882988E+03  0.42464328624E+02  0.32044134527E+03  0.39384622442E+03  0.00000000000E+00 0.  1.
<mgrwt>
<rscale>  0 0.20285016E+04</rscale>
<asrwt>0</asrwt>
<pdfrwt beam="1">  1        2 0.47168131E+00 0.20285016E+04</pdfrwt>
<pdfrwt beam="2">  1       -2 0.51619682E-01 0.20285016E+04</pdfrwt>
<totfact> 0.52115397E+00</totfact>
</mgrwt>
</event>
<event>
12    1  0.1494110E-007  0.1552891E+04  0.7818608E-02  0.8850023E-01
          2   -1    0    0  501    0  0.00000000000E+00  0.00000000000E+00  0.56468782839E+03  0.56468782839E+03  0.00000000000E+00 0. -1.
         -2   -1    0    0    0  501 -0.00000000000E+00 -0.00000000000E+00 -0.10676127550E+04  0.10676127550E+04  0.00000000000E+00 0.  1.
         23    2    1    2    0    0  0.34898688518E+03  0.37928041235E+03 -0.20358532284E+03  0.56176904124E+03  0.92152020039E+02 0.  0.
        254    2    1    2    0    0 -0.34898688518E+03 -0.37928041235E+03 -0.29933960378E+03  0.10705315422E+04  0.88926267612E+03 0.  0.
        -24    2    4    4    0    0 -0.55225357815E+02 -0.11650750762E+02  0.29331074539E+03  0.30950503950E+03  0.81096214325E+02 0.  0.
         24    2    4    4    0    0 -0.29376152737E+03 -0.36762966159E+03 -0.59265034917E+03  0.76102650266E+03  0.80495331192E+02 0.  0.
         13    1    3    3    0    0  0.13663524872E+03  0.11999451919E+03 -0.29885220773E+02  0.18428511130E+03  0.00000000000E+00 0. -1.
        -13    1    3    3    0    0  0.21235163646E+03  0.25928589316E+03 -0.17370010206E+03  0.37748392993E+03  0.00000000000E+00 0.  1.
          2    1    6    6  502    0 -0.29647475146E+03 -0.34787615161E+03 -0.56111160991E+03  0.72371357172E+03  0.00000000000E+00 0. -1.
          3    1    5    5  503    0 -0.66050450925E+02 -0.33765853608E+02  0.22065907334E+03  0.23279437619E+03  0.00000000000E+00 0. -1.
         -4    1    5    5    0  503  0.10825093110E+02  0.22115102846E+02  0.72651672046E+02  0.76710663312E+02  0.00000000000E+00 0.  1.
         -1    1    6    6    0  502  0.27132240990E+01 -0.19753509976E+02 -0.31538739259E+02  0.37312930942E+02  0.00000000000E+00 0.  1.
<mgrwt>
<rscale>  0 0.15528914E+04</rscale>
<asrwt>0</asrwt>
<pdfrwt beam="1">  1        2 0.86875052E-01 0.15528914E+04</pdfrwt>
<pdfrwt beam="2">  1       -2 0.16424811E+00 0.15528914E+04</pdfrwt>
<totfact> 0.12026165E+01</totfact>
</mgrwt>
</event>
<event>
12    1  0.1494110E-007  0.2075054E+04  0.7818608E-02  0.8572312E-01
          2   -1    0    0  501    0  0.00000000000E+00  0.00000000000E+00  0.23271231381E+04  0.23271231381E+04  0.00000000000E+00 0.  1.
         -2   -1    0    0    0  501 -0.00000000000E+00 -0.00000000000E+00 -0.46257233722E+03  0.46257233722E+03  0.00000000000E+00 0. -1.
         23    2    1    2    0    0 -0.29902489937E+02 -0.48435596097E+03  0.16749849179E+04  0.17464851320E+04  0.95608500765E+02 0.  0.
        254    2    1    2    0    0  0.29902489937E+02  0.48435596097E+03  0.18956588295E+03  0.10432103433E+04  0.90380182588E+03 0.  0.
        -24    2    4    4    0    0 -0.15364702631E+03 -0.22148979804E+03 -0.13868698989E+02  0.28156615056E+03  0.80137488094E+02 0.  0.
         24    2    4    4    0    0  0.18354951625E+03  0.70584575901E+03  0.20343458194E+03  0.76164419269E+03  0.82508100901E+02 0.  0.
         13    1    3    3    0    0 -0.48355408761E+02 -0.14018009021E+03  0.44065097680E+03  0.46493223872E+03  0.00000000000E+00 0. -1.
        -13    1    3    3    0    0  0.18452918824E+02 -0.34417587076E+03  0.12343339411E+04  0.12815528933E+04  0.00000000000E+00 0.  1.
          2    1    6    6  502    0  0.86238387930E+02  0.29151613786E+03  0.12586239086E+03  0.32902896471E+03  0.00000000000E+00 0. -1.
          1    1    5    5  503    0 -0.80562444493E+02 -0.84663184607E+02 -0.41469614459E+02  0.12400762563E+03  0.00000000000E+00 0. -1.
         -4    1    5    5    0  503 -0.73084581815E+02 -0.13682661343E+03  0.27600915470E+02  0.15755852493E+03  0.00000000000E+00 0.  1.
         -1    1    6    6    0  502  0.97311128316E+02  0.41432962115E+03  0.77572191075E+02  0.43261522798E+03  0.00000000000E+00 0.  1.
<mgrwt>
<rscale>  0 0.20750545E+04</rscale>
<asrwt>0</asrwt>
<pdfrwt beam="1">  1        2 0.35801894E+00 0.20750545E+04</pdfrwt>
<pdfrwt beam="2">  1       -2 0.71164976E-01 0.20750545E+04</pdfrwt>
<totfact> 0.72446965E+00</totfact>
</mgrwt>
</event>
<event>
12    1  0.1494110E-007  0.1094652E+04  0.7818608E-02  0.9210420E-01
          1   -1    0    0  501    0  0.00000000000E+00  0.00000000000E+00  0.22816962932E+04  0.22816962932E+04  0.00000000000E+00 0. -1.
         -1   -1    0    0    0  501 -0.00000000000E+00 -0.00000000000E+00 -0.13129083600E+03  0.13129083600E+03  0.00000000000E+00 0.  1.
         23    2    1    2    0    0 -0.15359561018E+03 -0.35387345984E+02  0.37459073674E+03  0.41700291285E+03  0.93430902540E+02 0.  0.
        254    2    1    2    0    0  0.15359561018E+03  0.35387345984E+02  0.17758147205E+04  0.19959842163E+04  0.89754732175E+03 0.  0.
        -24    2    4    4    0    0 -0.16552531319E+03 -0.34859147048E+03  0.62312847648E+03  0.73732839008E+03  0.80308243839E+02 0.  0.
         24    2    4    4    0    0  0.31912092338E+03  0.38397881646E+03  0.11526862440E+04  0.12586558263E+04  0.79063371355E+02 0.  0.
         11    1    3    3    0    0 -0.12139998553E+03 -0.63205929886E+02  0.31797609894E+03  0.34618166554E+03  0.00000000000E+00 0. -1.
        -11    1    3    3    0    0 -0.32195624652E+02  0.27818583902E+02  0.56614637805E+02  0.70821247312E+02  0.00000000000E+00 0.  1.
          2    1    6    6  502    0  0.25257853925E+03  0.31225707396E+03  0.99609370524E+03  0.10740126016E+04  0.00000000000E+00 0. -1.
          1    1    5    5  503    0 -0.78429171989E+02 -0.16032048379E+03  0.21433935058E+03  0.27891781899E+03  0.00000000000E+00 0. -1.
         -2    1    5    5    0  503 -0.87096141206E+02 -0.18827098669E+03  0.40878912590E+03  0.45841057110E+03  0.00000000000E+00 0.  1.
         -1    1    6    6    0  502  0.66542384124E+02  0.71721742499E+02  0.15659253875E+03  0.18464322469E+03  0.00000000000E+00 0.  1.
<mgrwt>
<rscale>  0 0.10946521E+04</rscale>
<asrwt>0</asrwt>
<pdfrwt beam="1">  1        1 0.35103017E+00 0.10946521E+04</pdfrwt>
<pdfrwt beam="2">  1       -1 0.20198592E-01 0.10946521E+04</pdfrwt>
<totfact> 0.38652872E+01</totfact>
</mgrwt>
</event>
<event>
12    1  0.1494110E-007  0.1680934E+04  0.7818608E-02  0.8772314E-01
         -1   -1    0    0    0  501 -0.00000000000E+00  0.00000000000E+00  0.15942254118E+04  0.15942254118E+04  0.00000000000E+00 0.  1.
          1   -1    0    0  501    0  0.00000000000E+00 -0.00000000000E+00 -0.44308965810E+03  0.44308965810E+03  0.00000000000E+00 0. -1.
         23    2    1    2    0    0 -0.16513341057E+02 -0.98577125368E+02 -0.29306434846E+03  0.32293572988E+03  0.91709504504E+02 0.  0.
        254    2    1    2    0    0  0.16513341057E+02  0.98577125368E+02  0.14442001021E+04  0.17143793400E+04  0.91836400534E+03 0.  0.
        -24    2    4    4    0    0 -0.39320370574E+03 -0.84106437217E+02  0.98606137742E+03  0.10681638468E+04  0.83509978491E+02 0.  0.
         24    2    4    4    0    0  0.40971704680E+03  0.18268356258E+03  0.45813872472E+03  0.64621549323E+03  0.80386753438E+02 0.  0.
         11    1    3    3    0    0 -0.27795253928E+02 -0.11070094638E+03 -0.21806063498E+03  0.24612540747E+03  0.00000000000E+00 0. -1.
        -11    1    3    3    0    0  0.11281912871E+02  0.12123821016E+02 -0.75003713475E+02  0.76810322412E+02  0.00000000000E+00 0.  1.
          2    1    6    6  502    0  0.11042779382E+03  0.16806247610E+02  0.13886863401E+03  0.17821684858E+03  0.00000000000E+00 0. -1.
          3    1    5    5  503    0 -0.13803784968E+02 -0.19541791022E+02  0.37255237086E+02  0.44276164763E+02  0.00000000000E+00 0. -1.
         -4    1    5    5    0  503 -0.37939992077E+03 -0.64564646195E+02  0.94880614033E+03  0.10238876820E+04  0.00000000000E+00 0.  1.
         -1    1    6    6    0  502  0.29928925298E+03  0.16587731498E+03  0.31927009071E+03  0.46799864465E+03  0.00000000000E+00 0.  1.
<mgrwt>
<rscale>  0 0.16809340E+04</rscale>
<asrwt>0</asrwt>
<pdfrwt beam="1">  1        1 0.68167641E-01 0.16809340E+04</pdfrwt>
<pdfrwt beam="2">  1       -1 0.24526544E+00 0.16809340E+04</pdfrwt>
<totfact> 0.37322846E+00</totfact>
</mgrwt>
</event>
<event>
12    1  0.1494110E-007  0.3470386E+04  0.7818608E-02  0.8120844E-01
          2   -1    0    0  501    0  0.00000000000E+00  0.00000000000E+00  0.28726027630E+04  0.28726027630E+04  0.00000000000E+00 0. -1.
         -2   -1    0    0    0  501 -0.00000000000E+00 -0.00000000000E+00 -0.10481415586E+04  0.10481415586E+04  0.00000000000E+00 0.  1.
         23    2    1    2    0    0 -0.38393020321E+03 -0.73598450038E+03 -0.71754072577E+03  0.11007536985E+04  0.87854572241E+02 0.  0.
        254    2    1    2    0    0  0.38393020321E+03  0.73598450038E+03  0.25420019301E+04  0.28199906231E+04  0.89526404834E+03 0.  0.
        -24    2    4    4    0    0 -0.81387692017E+02 -0.12923939664E+03  0.80139070115E+03  0.81963901002E+03  0.79083960459E+02 0.  0.
         24    2    4    4    0    0  0.46531789523E+03  0.86522389701E+03  0.17406112289E+04  0.20003516131E+04  0.80907293768E+02 0.  0.
         11    1    3    3    0    0 -0.47968366862E+02 -0.10742582441E+03 -0.64857892017E+02  0.13434216809E+03  0.00000000000E+00 0. -1.
        -11    1    3    3    0    0 -0.33596183635E+03 -0.62855867597E+03 -0.65268283375E+03  0.96641153040E+03  0.00000000000E+00 0.  1.
          4    1    6    6  502    0  0.38950370937E+03  0.70864801394E+03  0.13678879642E+04  0.15890288323E+04  0.00000000000E+00 0. -1.
          3    1    5    5  503    0 -0.26468341793E+02 -0.67071113807E+02  0.55488838925E+03  0.55955360060E+03  0.00000000000E+00 0. -1.
         -4    1    5    5    0  503 -0.54919350225E+02 -0.62168282829E+02  0.24650231190E+03  0.26008540942E+03  0.00000000000E+00 0.  1.
         -3    1    6    6    0  502  0.75814185866E+02  0.15657588308E+03  0.37272326475E+03  0.41132278082E+03  0.00000000000E+00 0.  1.
<mgrwt>
<rscale>  0 0.34703858E+04</rscale>
<asrwt>0</asrwt>
<pdfrwt beam="1">  1        2 0.44193888E+00 0.34703858E+04</pdfrwt>
<pdfrwt beam="2">  1       -2 0.16125255E+00 0.34703858E+04</pdfrwt>
<totfact> 0.42397242E-01</totfact>
</mgrwt>
</event>
<event>
12    1  0.1494110E-007  0.1653661E+04  0.7818608E-02  0.8788244E-01
         -1   -1    0    0    0  501 -0.00000000000E+00  0.00000000000E+00  0.15266686797E+04  0.15266686797E+04  0.00000000000E+00 0.  1.
          1   -1    0    0  501    0  0.00000000000E+00 -0.00000000000E+00 -0.44780422846E+03  0.44780422846E+03  0.00000000000E+00 0. -1.
         23    2    1    2    0    0 -0.13871413933E+03  0.53864598689E+02 -0.22058012330E+03  0.28149100542E+03  0.91861786934E+02 0.  0.
        254    2    1    2    0    0  0.13871413933E+03 -0.53864598689E+02  0.12994445746E+04  0.16929819028E+04  0.10749365159E+04 0.  0.
        -24    2    4    4    0    0 -0.23650366116E+03 -0.43910855136E+03  0.41497788057E+03  0.65401267250E+03  0.82314232104E+02 0.  0.
         24    2    4    4    0    0  0.37521780049E+03  0.38524395267E+03  0.88446669402E+03  0.10389692303E+04  0.89299651607E+02 0.  0.
         11    1    3    3    0    0 -0.54831391376E+02 -0.27576557846E+01 -0.14539483225E+03  0.15541474638E+03  0.00000000000E+00 0. -1.
        -11    1    3    3    0    0 -0.83882747953E+02  0.56622254473E+02 -0.75185291047E+02  0.12607625905E+03  0.00000000000E+00 0.  1.
          4    1    6    6  502    0  0.25690444620E+02  0.58346231053E+02  0.73251394531E+02  0.97108436419E+02  0.00000000000E+00 0. -1.
          1    1    5    5  503    0  0.69104270220E+01 -0.14556575810E+02  0.13163547090E+02  0.20806894841E+02  0.00000000000E+00 0. -1.
         -2    1    5    5    0  503 -0.24341408818E+03 -0.42455197555E+03  0.40181433348E+03  0.63320577766E+03  0.00000000000E+00 0.  1.
         -3    1    6    6    0  502  0.34952735587E+03  0.32689772161E+03  0.81121529949E+03  0.94186079387E+03  0.00000000000E+00 0.  1.
<mgrwt>
<rscale>  0 0.16536610E+04</rscale>
<asrwt>0</asrwt>
<pdfrwt beam="1">  1        1 0.68892959E-01 0.16536610E+04</pdfrwt>
<pdfrwt beam="2">  1       -1 0.23487210E+00 0.16536610E+04</pdfrwt>
<totfact> 0.43153880E+00</totfact>
</mgrwt>
</event>
<event>
12    1  0.1494110E-007  0.1533026E+04  0.7818608E-02  0.8862783E-01
          1   -1    0    0  501    0  0.00000000000E+00  0.00000000000E+00  0.17743380269E+04  0.17743380269E+04  0.00000000000E+00 0. -1.
         -1   -1    0    0    0  501 -0.00000000000E+00 -0.00000000000E+00 -0.33113325309E+03  0.33113325309E+03  0.00000000000E+00 0.  1.
         23    2    1    2    0    0  0.29279425775E+03 -0.86621414916E+02  0.98519956022E+03  0.10352157061E+04  0.88440024147E+02 0.  0.
        254    2    1    2    0    0 -0.29279425775E+03  0.86621414916E+02  0.45800521357E+03  0.10702555738E+04  0.91784882784E+03 0.  0.
        -24    2    4    4    0    0 -0.31838953770E+03  0.23859437420E+03  0.67698861297E+03  0.78984253564E+03  0.85079233113E+02 0.  0.
         24    2    4    4    0    0  0.25595279953E+02 -0.15197295928E+03 -0.21898339940E+03  0.28041303819E+03  0.83227664071E+02 0.  0.
         13    1    3    3    0    0 -0.45607144700E-01 -0.16784385566E+02  0.47967417982E+02  0.50819197817E+02  0.00000000000E+00 0.  1.
        -13    1    3    3    0    0  0.29283986489E+03 -0.69837029350E+02  0.93723214223E+03  0.98439650831E+03  0.00000000000E+00 0. -1.
          2    1    6    6  502    0  0.52135054930E+02 -0.12489587578E+03 -0.15264149112E+03  0.20400114841E+03  0.00000000000E+00 0. -1.
          3    1    5    5  503    0 -0.30760886661E+03  0.23520580351E+03  0.61442510417E+03  0.72626661320E+03  0.00000000000E+00 0. -1.
         -4    1    5    5    0  503 -0.10780671084E+02  0.33885706869E+01  0.62563508801E+02  0.63575922438E+02  0.00000000000E+00 0.  1.
         -1    1    6    6    0  502 -0.26539774977E+02 -0.27077083504E+02 -0.66341908272E+02  0.76411889783E+02  0.00000000000E+00 0.  1.
<mgrwt>
<rscale>  0 0.15330262E+04</rscale>
<asrwt>0</asrwt>
<pdfrwt beam="1">  1        1 0.27297508E+00 0.15330262E+04</pdfrwt>
<pdfrwt beam="2">  1       -1 0.50943578E-01 0.15330262E+04</pdfrwt>
<totfact> 0.15849459E+01</totfact>
</mgrwt>
</event>
<event>
12    1  0.1494110E-007  0.1022934E+04  0.7818608E-02  0.9283742E-01
          2   -1    0    0  501    0  0.00000000000E+00  0.00000000000E+00  0.73822674616E+03  0.73822674616E+03  0.00000000000E+00 0. -1.
         -2   -1    0    0    0  501 -0.00000000000E+00 -0.00000000000E+00 -0.35436088669E+03  0.35436088669E+03  0.00000000000E+00 0.  1.
         23    2    1    2    0    0 -0.84458764458E+02  0.23676616018E+01  0.33303236025E+02  0.12834551312E+03  0.90689450830E+02 0.  0.
        254    2    1    2    0    0  0.84458764458E+02 -0.23676616018E+01  0.35056262344E+03  0.96424211974E+03  0.89427614516E+03 0.  0.
        -24    2    4    4    0    0 -0.22150157395E+03 -0.35005323377E+03  0.22399471109E+03  0.47764681501E+03  0.79828789049E+02 0.  0.
         24    2    4    4    0    0  0.30596033840E+03  0.34768557217E+03  0.12656791235E+03  0.48659530473E+03  0.79111114119E+02 0.  0.
         13    1    3    3    0    0  0.11978098659E+02  0.20375893565E+02 -0.28178305854E+01  0.23803194224E+02  0.00000000000E+00 0. -1.
        -13    1    3    3    0    0 -0.96436863117E+02 -0.18008231963E+02  0.36121066611E+02  0.10454231889E+03  0.00000000000E+00 0.  1.
          4    1    6    6  502    0  0.24064395890E+03  0.28402511260E+03  0.13263504101E+03  0.39518582167E+03  0.00000000000E+00 0. -1.
          1    1    5    5  503    0 -0.21296481076E+03 -0.30229106630E+03  0.17645603241E+03  0.40972018593E+03  0.00000000000E+00 0. -1.
         -2    1    5    5    0  503 -0.85367631813E+01 -0.47762167469E+02  0.47538678680E+02  0.67926629076E+02  0.00000000000E+00 0.  1.
         -3    1    6    6    0  502  0.65316379501E+02  0.63660459567E+02 -0.60671286543E+01  0.91409483061E+02  0.00000000000E+00 0.  1.
<mgrwt>
<rscale>  0 0.10229344E+04</rscale>
<asrwt>0</asrwt>
<pdfrwt beam="1">  1        2 0.11357334E+00 0.10229344E+04</pdfrwt>
<pdfrwt beam="2">  1       -2 0.54517060E-01 0.10229344E+04</pdfrwt>
<totfact> 0.12089667E+02</totfact>
</mgrwt>
</event>
<event>
12    1  0.1494110E-007  0.1222278E+04  0.7818608E-02  0.9093577E-01
         -1   -1    0    0    0  501 -0.00000000000E+00  0.00000000000E+00  0.26156967973E+03  0.26156967973E+03  0.00000000000E+00 0.  1.
          1   -1    0    0  501    0  0.00000000000E+00 -0.00000000000E+00 -0.14278817905E+04  0.14278817905E+04  0.00000000000E+00 0. -1.
         23    2    1    2    0    0 -0.22229423127E+03 -0.31115112721E+02 -0.83082253838E+02  0.25707460345E+03  0.93817990505E+02 0.  0.
        254    2    1    2    0    0  0.22229423127E+03  0.31115112721E+02 -0.10832298570E+04  0.14323768668E+04  0.90990861632E+03 0.  0.
        -24    2    4    4    0    0  0.41236122819E+03  0.12423870232E+03 -0.11204925505E+04  0.12030358794E+04  0.79465297917E+02 0.  0.
         24    2    4    4    0    0 -0.19006699693E+03 -0.93123589602E+02  0.37262693584E+02  0.22934098743E+03  0.80070680775E+02 0.  0.
         13    1    3    3    0    0 -0.85542765415E+02 -0.30988344496E+02 -0.78627944544E+02  0.12025055456E+03  0.00000000000E+00 0. -1.
        -13    1    3    3    0    0 -0.13675146585E+03 -0.12676822527E+00 -0.44543092942E+01  0.13682404889E+03  0.00000000000E+00 0.  1.
          2    1    6    6  502    0 -0.16688653835E+03 -0.54811280848E+02  0.50274146774E+02  0.18270983287E+03  0.00000000000E+00 0. -1.
          3    1    5    5  503    0  0.40569610788E+03  0.12198133103E+03 -0.10507047770E+04  0.11328942164E+04  0.00000000000E+00 0. -1.
         -4    1    5    5    0  503  0.66651203160E+01  0.22573712907E+01 -0.69787773509E+02  0.70141662978E+02  0.00000000000E+00 0.  1.
         -1    1    6    6    0  502 -0.23180458574E+02 -0.38312308753E+02 -0.13011453190E+02  0.46631154563E+02  0.00000000000E+00 0.  1.
<mgrwt>
<rscale>  0 0.12222775E+04</rscale>
<asrwt>0</asrwt>
<pdfrwt beam="1">  1        1 0.21967412E+00 0.12222775E+04</pdfrwt>
<pdfrwt beam="2">  1       -1 0.40241489E-01 0.12222775E+04</pdfrwt>
<totfact> 0.43705223E+01</totfact>
</mgrwt>
</event>
<event>
12    1  0.1494110E-007  0.2510313E+04  0.7818608E-02  0.8399321E-01
          1   -1    0    0  501    0  0.00000000000E+00  0.00000000000E+00  0.13699340035E+04  0.13699340035E+04  0.00000000000E+00 0. -1.
         -1   -1    0    0    0  501 -0.00000000000E+00 -0.00000000000E+00 -0.11499952716E+04  0.11499952716E+04  0.00000000000E+00 0.  1.
         23    2    1    2    0    0  0.93598855480E+03  0.29338469030E+03 -0.40185613829E+03  0.10638876400E+04  0.90660925352E+02 0.  0.
        254    2    1    2    0    0 -0.93598855480E+03 -0.29338469030E+03  0.62179487018E+03  0.14560416352E+04  0.87822504606E+03 0.  0.
        -24    2    4    4    0    0 -0.12078773748E+03  0.17440073448E+03 -0.11982679575E+03  0.25620998416E+03  0.79245197274E+02 0.  0.
         24    2    4    4    0    0 -0.81520081732E+03 -0.46778542478E+03  0.74162166593E+03  0.11998316510E+04  0.78852515322E+02 0.  0.
         13    1    3    3    0    0  0.65138571736E+03  0.18675985523E+03 -0.23529800229E+03  0.71731983535E+03  0.00000000000E+00 0. -1.
        -13    1    3    3    0    0  0.28460283745E+03  0.10662483507E+03 -0.16655813600E+03  0.34656780463E+03  0.00000000000E+00 0.  1.
          4    1    6    6  502    0 -0.79395450058E+03 -0.46502161605E+03  0.71276777485E+03  0.11638929303E+04  0.00000000000E+00 0. -1.
          1    1    5    5  503    0 -0.12969119961E+03  0.16639876421E+03 -0.10100162826E+03  0.23390101517E+03  0.00000000000E+00 0. -1.
         -2    1    5    5    0  503  0.89034621340E+01  0.80019702683E+01 -0.18825167493E+02  0.22308968987E+02  0.00000000000E+00 0.  1.
         -3    1    6    6    0  502 -0.21246316746E+02 -0.27638087279E+01  0.28853891082E+02  0.35938720686E+02  0.00000000000E+00 0.  1.
<mgrwt>
<rscale>  0 0.25103128E+04</rscale>
<asrwt>0</asrwt>
<pdfrwt beam="1">  1        1 0.21075908E+00 0.25103128E+04</pdfrwt>
<pdfrwt beam="2">  1       -1 0.17692235E+00 0.25103128E+04</pdfrwt>
<totfact> 0.15684561E+00</totfact>
</mgrwt>
</event>
<event>
12    1  0.1494110E-007  0.1328941E+04  0.7818608E-02  0.9006924E-01
          2   -1    0    0  501    0  0.00000000000E+00  0.00000000000E+00  0.20414795247E+04  0.20414795247E+04  0.00000000000E+00 0. -1.
         -2   -1    0    0    0  501 -0.00000000000E+00 -0.00000000000E+00 -0.21627509300E+03  0.21627509300E+03  0.00000000000E+00 0.  1.
         23    2    1    2    0    0  0.24338631924E+03  0.22628359487E+03  0.28795443890E+03  0.44941204140E+03  0.92802254168E+02 0.  0.
        254    2    1    2    0    0 -0.24338631924E+03 -0.22628359487E+03  0.15372499928E+04  0.18083425763E+04  0.89248202624E+03 0.  0.
        -24    2    4    4    0    0 -0.31847216788E+03  0.23431132441E+03  0.10687957442E+04  0.11423912174E+04  0.80043939904E+02 0.  0.
         24    2    4    4    0    0  0.75085848642E+02 -0.46059491928E+03  0.46845424866E+03  0.66595135894E+03  0.79096555286E+02 0.  0.
         13    1    3    3    0    0  0.16248118928E+03  0.20446513487E+03  0.22218947785E+03  0.34289107938E+03  0.00000000000E+00 0.  1.
        -13    1    3    3    0    0  0.80905129954E+02  0.21818459999E+02  0.65764961048E+02  0.10652096203E+03  0.00000000000E+00 0. -1.
          4    1    6    6  502    0  0.71644552114E+02 -0.24490358792E+03  0.28732230570E+03  0.38427180039E+03  0.00000000000E+00 0. -1.
          1    1    5    5  503    0 -0.27743908471E+03  0.21867317320E+03  0.87366348673E+03  0.94237905879E+03  0.00000000000E+00 0. -1.
         -2    1    5    5    0  503 -0.41033083171E+02  0.15638151213E+02  0.19513225743E+03  0.20001215858E+03  0.00000000000E+00 0.  1.
         -3    1    6    6    0  502  0.34412965284E+01 -0.21569133135E+03  0.18113194296E+03  0.28167955855E+03  0.00000000000E+00 0.  1.
<mgrwt>
<rscale>  0 0.13289412E+04</rscale>
<asrwt>0</asrwt>
<pdfrwt beam="1">  1        2 0.31407376E+00 0.13289412E+04</pdfrwt>
<pdfrwt beam="2">  1       -2 0.33273093E-01 0.13289412E+04</pdfrwt>
<totfact> 0.52337636E+01</totfact>
</mgrwt>
</event>
<event>
12    1  0.1494110E-007  0.2380611E+04  0.7818608E-02  0.8446798E-01
          1   -1    0    0  501    0  0.00000000000E+00  0.00000000000E+00  0.73759356653E+03  0.73759356653E+03  0.00000000000E+00 0. -1.
         -1   -1    0    0    0  501 -0.00000000000E+00 -0.00000000000E+00 -0.19208778642E+04  0.19208778642E+04  0.00000000000E+00 0.  1.
         23    2    1    2    0    0  0.56074512408E+03  0.79911548485E+03 -0.84613222627E+03  0.12948974392E+04  0.88311841751E+02 0.  0.
        254    2    1    2    0    0 -0.56074512408E+03 -0.79911548485E+03 -0.33715207145E+03  0.13635739916E+04  0.89030436307E+03 0.  0.
        -24    2    4    4    0    0 -0.10485171353E+02 -0.68370340915E+03  0.26902367018E+02  0.68905752858E+03  0.80723291811E+02 0.  0.
         24    2    4    4    0    0 -0.55025995273E+03 -0.11541207570E+03 -0.36405443847E+03  0.67451646300E+03  0.79566713460E+02 0.  0.
         11    1    3    3    0    0  0.22135128095E+03  0.33680308199E+03 -0.29464973833E+03  0.49925061233E+03  0.00000000000E+00 0.  1.
        -11    1    3    3    0    0  0.33939384313E+03  0.46231240286E+03 -0.55148248793E+03  0.79564682686E+03  0.00000000000E+00 0. -1.
          2    1    6    6  502    0 -0.47826505102E+03 -0.12700087422E+03 -0.32089309842E+03  0.58977882439E+03  0.00000000000E+00 0. -1.
          3    1    5    5  503    0  0.69372970125E+01 -0.36013038111E+03  0.52514389656E+02  0.36400519036E+03  0.00000000000E+00 0. -1.
         -4    1    5    5    0  503 -0.17422468365E+02 -0.32357302804E+03 -0.25612022638E+02  0.32505233822E+03  0.00000000000E+00 0.  1.
         -1    1    6    6    0  502 -0.71994901708E+02  0.11588798511E+02 -0.43161340051E+02  0.84737638614E+02  0.00000000000E+00 0.  1.
<mgrwt>
<rscale>  0 0.23806110E+04</rscale>
<asrwt>0</asrwt>
<pdfrwt beam="1">  1        1 0.11347593E+00 0.23806110E+04</pdfrwt>
<pdfrwt beam="2">  1       -1 0.29551967E+00 0.23806110E+04</pdfrwt>
<totfact> 0.79684921E-01</totfact>
</mgrwt>
</event>
<event>
12    1  0.1494110E-007  0.1486869E+04  0.7818608E-02  0.8893232E-01
          2   -1    0    0  501    0  0.00000000000E+00  0.00000000000E+00  0.11648054421E+04  0.11648054421E+04  0.00000000000E+00 0. -1.
         -2   -1    0    0    0  501 -0.00000000000E+00 -0.00000000000E+00 -0.47449547197E+03  0.47449547197E+03  0.00000000000E+00 0.  1.
         23    2    1    2    0    0 -0.10435214244E+01  0.38792705008E+03  0.50261397135E+03  0.64107364188E+03  0.88691177735E+02 0.  0.
        254    2    1    2    0    0  0.10435214244E+01 -0.38792705008E+03  0.18769599881E+03  0.99822727222E+03  0.90041069180E+03 0.  0.
        -24    2    4    4    0    0  0.15236722796E+03  0.22236052964E+03 -0.10505508634E+03  0.30017586860E+03  0.80056252886E+02 0.  0.
         24    2    4    4    0    0 -0.15132370653E+03 -0.61028757972E+03  0.29275108515E+03  0.69805140361E+03  0.78884536550E+02 0.  0.
         11    1    3    3    0    0 -0.26544616858E+02  0.58417782213E+02  0.53995148738E+02  0.83861374005E+02  0.00000000000E+00 0.  1.
        -11    1    3    3    0    0  0.25501095433E+02  0.32950926786E+03  0.44861882261E+03  0.55721226788E+03  0.00000000000E+00 0. -1.
          2    1    6    6  502    0 -0.62256850466E+01 -0.21653607205E+01 -0.19617527789E+01  0.68772389310E+01  0.00000000000E+00 0. -1.
          3    1    5    5  503    0  0.75329253350E+02  0.58020230867E+02 -0.10899074696E+02  0.95705973843E+02  0.00000000000E+00 0. -1.
         -4    1    5    5    0  503  0.77037974608E+02  0.16434029878E+03 -0.94156011644E+02  0.20446989476E+03  0.00000000000E+00 0.  1.
         -1    1    6    6    0  502 -0.14509802149E+03 -0.60812221900E+03  0.29471283793E+03  0.69117416468E+03  0.00000000000E+00 0.  1.
<mgrwt>
<rscale>  0 0.14868691E+04</rscale>
<asrwt>0</asrwt>
<pdfrwt beam="1">  1        2 0.17920084E+00 0.14868691E+04</pdfrwt>
<pdfrwt beam="2">  1       -2 0.72999304E-01 0.14868691E+04</pdfrwt>
<totfact> 0.32610382E+01</totfact>
</mgrwt>
</event>
<event>
12    1  0.1494110E-007  0.1951088E+04  0.7818608E-02  0.8629836E-01
          2   -1    0    0  501    0  0.00000000000E+00  0.00000000000E+00  0.19193587342E+04  0.19193587342E+04  0.00000000000E+00 0. -1.
         -2   -1    0    0    0  501 -0.00000000000E+00 -0.00000000000E+00 -0.49583551982E+03  0.49583551982E+03  0.00000000000E+00 0.  1.
         23    2    1    2    0    0  0.25687480977E+03 -0.64433806645E+03  0.97587564551E+03  0.12003855867E+04  0.86232647162E+02 0.  0.
        254    2    1    2    0    0 -0.25687480977E+03  0.64433806645E+03  0.44764756889E+03  0.12148086674E+04  0.89118771345E+03 0.  0.
        -24    2    4    4    0    0 -0.89401141631E+02  0.68156596949E+03  0.64141217263E+03  0.94363090853E+03  0.80653465182E+02 0.  0.
         24    2    4    4    0    0 -0.16747366814E+03 -0.37227903040E+02 -0.19376460374E+03  0.27117775884E+03  0.80989560692E+02 0.  0.
         11    1    3    3    0    0  0.25767406539E+03 -0.58172785590E+03  0.89507277152E+03  0.10981614128E+04  0.00000000000E+00 0. -1.
        -11    1    3    3    0    0 -0.79925562249E+00 -0.62610210553E+02  0.80802873990E+02  0.10222417385E+03  0.00000000000E+00 0.  1.
          2    1    6    6  502    0  0.62971390683E+01 -0.87738294078E+01 -0.22780736995E+01  0.11037375716E+02  0.00000000000E+00 0. -1.
          1    1    5    5  503    0 -0.70647763925E+02  0.24860927460E+03  0.22615183967E+03  0.34342733227E+03  0.00000000000E+00 0. -1.
         -2    1    5    5    0  503 -0.18753377706E+02  0.43295669489E+03  0.41526033296E+03  0.60020357626E+03  0.00000000000E+00 0.  1.
         -1    1    6    6    0  502 -0.17377080721E+03 -0.28454073632E+02 -0.19148653004E+03  0.26014038312E+03  0.00000000000E+00 0.  1.
<mgrwt>
<rscale>  0 0.19510881E+04</rscale>
<asrwt>0</asrwt>
<pdfrwt beam="1">  1        2 0.29528596E+00 0.19510881E+04</pdfrwt>
<pdfrwt beam="2">  1       -2 0.76282389E-01 0.19510881E+04</pdfrwt>
<totfact> 0.10623980E+01</totfact>
</mgrwt>
</event>
<event>
12    1  0.1494110E-007  0.2162688E+04  0.7818608E-02  0.8534121E-01
         -1   -1    0    0    0  501 -0.00000000000E+00  0.00000000000E+00  0.95316189065E+03  0.95316189065E+03  0.00000000000E+00 0. -1.
          1   -1    0    0  501    0  0.00000000000E+00 -0.00000000000E+00 -0.12267641381E+04  0.12267641381E+04  0.00000000000E+00 0.  1.
         23    2    1    2    0    0  0.19753194378E+03 -0.18812738278E+03 -0.98313328941E+03  0.10273415426E+04  0.12028632306E+03 0.  0.
        254    2    1    2    0    0 -0.19753194378E+03  0.18812738278E+03  0.70953104194E+03  0.11525844861E+04  0.86637515963E+03 0.  0.
        -24    2    4    4    0    0 -0.32735601695E+03  0.39060589642E+03  0.14806608371E+03  0.53649751936E+03  0.78556317302E+02 0.  0.
         24    2    4    4    0    0  0.12982407317E+03 -0.20247851364E+03  0.56146495823E+03  0.61608696676E+03  0.80426443632E+02 0.  0.
         11    1    3    3    0    0  0.14438158154E+03 -0.18779675867E+03 -0.87990105709E+03  0.91122968231E+03  0.00000000000E+00 0.  1.
        -11    1    3    3    0    0  0.53150362243E+02 -0.33062411243E+00 -0.10323223232E+03  0.11611186032E+03  0.00000000000E+00 0. -1.
          2    1    6    6  502    0  0.11119404171E+03 -0.20440070201E+03  0.49379334224E+03  0.54587143791E+03  0.00000000000E+00 0. -1.
          3    1    5    5  503    0 -0.73639574393E+02  0.11008513739E+03  0.71774097044E+02  0.15064211030E+03  0.00000000000E+00 0. -1.
         -4    1    5    5    0  503 -0.25371644256E+03  0.28052075903E+03  0.76291986664E+02  0.38585540906E+03  0.00000000000E+00 0.  1.
         -1    1    6    6    0  502  0.18630031459E+02  0.19221883702E+01  0.67671615994E+02  0.70215528849E+02  0.00000000000E+00 0.  1.
<mgrwt>
<rscale>  0 0.21626880E+04</rscale>
<asrwt>0</asrwt>
<pdfrwt beam="1">  1        1 0.18873294E+00 0.21626880E+04</pdfrwt>
<pdfrwt beam="2">  1       -1 0.14664029E+00 0.21626880E+04</pdfrwt>
<totfact> 0.34650295E+00</totfact>
</mgrwt>
</event>
<event>
12    1  0.1494110E-007  0.2082819E+04  0.7818608E-02  0.8568850E-01
          1   -1    0    0  501    0  0.00000000000E+00  0.00000000000E+00  0.18368109907E+04  0.18368109907E+04  0.00000000000E+00 0. -1.
         -1   -1    0    0    0  501 -0.00000000000E+00 -0.00000000000E+00 -0.59044362267E+03  0.59044362267E+03  0.00000000000E+00 0.  1.
         23    2    1    2    0    0 -0.15955540930E+03 -0.81925296172E+03  0.39228869285E+03  0.92676736429E+03  0.91509480755E+02 0.  0.
        254    2    1    2    0    0  0.15955540930E+03  0.81925296172E+03  0.85407867521E+03  0.15004872491E+04  0.90850330618E+03 0.  0.
        -24    2    4    4    0    0  0.32422108519E+03 -0.53213812457E+02  0.18310542625E+03  0.38455957105E+03  0.80046515534E+02 0.  0.
         24    2    4    4    0    0 -0.16466567589E+03  0.87246677417E+03  0.67097324896E+03  0.11159276780E+04  0.82319043700E+02 0.  0.
         11    1    3    3    0    0 -0.85224465108E+02 -0.33276895537E+03  0.11708147092E+03  0.36291384369E+03  0.00000000000E+00 0. -1.
        -11    1    3    3    0    0 -0.74330944189E+02 -0.48648400635E+03  0.27520722192E+03  0.56385352060E+03  0.00000000000E+00 0.  1.
          4    1    6    6  502    0 -0.86466451737E+02  0.54399389461E+03  0.36952853975E+03  0.66329265513E+03  0.00000000000E+00 0. -1.
          1    1    5    5  503    0  0.20974166575E+03 -0.23822042647E+02  0.73935953573E+02  0.22366399196E+03  0.00000000000E+00 0. -1.
         -2    1    5    5    0  503  0.11447941944E+03 -0.29391769810E+02  0.10916947268E+03  0.16089557910E+03  0.00000000000E+00 0.  1.
         -3    1    6    6    0  502 -0.78199224154E+02  0.32847287956E+03  0.30144470921E+03  0.45263502292E+03  0.00000000000E+00 0.  1.
<mgrwt>
<rscale>  0 0.20828186E+04</rscale>
<asrwt>0</asrwt>
<pdfrwt beam="1">  1        1 0.28258630E+00 0.20828186E+04</pdfrwt>
<pdfrwt beam="2">  1       -1 0.90837481E-01 0.20828186E+04</pdfrwt>
<totfact> 0.41915017E+00</totfact>
</mgrwt>
</event>
<event>
12    1  0.1494110E-007  0.1428176E+04  0.7818608E-02  0.8933672E-01
          2   -1    0    0  501    0  0.00000000000E+00  0.00000000000E+00  0.16393169125E+04  0.16393169125E+04  0.00000000000E+00 0. -1.
         -2   -1    0    0    0  501 -0.00000000000E+00 -0.00000000000E+00 -0.31105728219E+03  0.31105728219E+03  0.00000000000E+00 0.  1.
         23    2    1    2    0    0 -0.19676531961E+03  0.32045782795E+03  0.12005569550E+03  0.40465793312E+03  0.89021695768E+02 0.  0.
        254    2    1    2    0    0  0.19676531961E+03 -0.32045782795E+03  0.12082039348E+04  0.15457162616E+04  0.88773430861E+03 0.  0.
        -24    2    4    4    0    0  0.50305554927E+03 -0.13398825755E+03  0.41096599089E+03  0.66786615141E+03  0.78322485428E+02 0.  0.
         24    2    4    4    0    0 -0.30629022966E+03 -0.18646957041E+03  0.79723794391E+03  0.87785011015E+03  0.80298637630E+02 0.  0.
         13    1    3    3    0    0 -0.14090764595E+03  0.19255526711E+03  0.11531554246E+03  0.26500975438E+03  0.00000000000E+00 0. -1.
        -13    1    3    3    0    0 -0.55857673659E+02  0.12790256084E+03  0.47401530384E+01  0.13964817874E+03  0.00000000000E+00 0.  1.
          4    1    6    6  502    0 -0.44993564814E+02 -0.36777297478E+02  0.21012673870E+03  0.21801430412E+03  0.00000000000E+00 0. -1.
          1    1    5    5  503    0  0.18965211604E+03 -0.35706337570E+02  0.10867353708E+03  0.22147867916E+03  0.00000000000E+00 0. -1.
         -2    1    5    5    0  503  0.31340343323E+03 -0.98281919976E+02  0.30229245380E+03  0.44638747225E+03  0.00000000000E+00 0.  1.
         -3    1    6    6    0  502 -0.26129666484E+03 -0.14969227293E+03  0.58711120521E+03  0.65983580603E+03  0.00000000000E+00 0.  1.
<mgrwt>
<rscale>  0 0.14281757E+04</rscale>
<asrwt>0</asrwt>
<pdfrwt beam="1">  1        2 0.25220260E+00 0.14281757E+04</pdfrwt>
<pdfrwt beam="2">  1       -2 0.47854967E-01 0.14281757E+04</pdfrwt>
<totfact> 0.42597016E+01</totfact>
</mgrwt>
</event>
<event>
12    1  0.1494110E-007  0.1960662E+04  0.7818608E-02  0.8625236E-01
          2   -1    0    0  501    0  0.00000000000E+00  0.00000000000E+00  0.87787391485E+03  0.87787391485E+03  0.00000000000E+00 0.  1.
         -2   -1    0    0    0  501 -0.00000000000E+00 -0.00000000000E+00 -0.10947463672E+04  0.10947463672E+04  0.00000000000E+00 0. -1.
         23    2    1    2    0    0  0.29812788901E+03 -0.21367518847E+03 -0.76777416670E+03  0.85619345787E+03  0.95145897813E+02 0.  0.
        254    2    1    2    0    0 -0.29812788901E+03  0.21367518847E+03  0.55090171439E+03  0.11164268241E+04  0.89909889911E+03 0.  0.
        -24    2    4    4    0    0  0.24827573568E+03  0.10715892099E+03 -0.58248004541E+02  0.28740566999E+03  0.78008421571E+02 0.  0.
         24    2    4    4    0    0 -0.54640362469E+03  0.10651626748E+03  0.60914971893E+03  0.82902115415E+03  0.79435871300E+02 0.  0.
         13    1    3    3    0    0  0.65689276308E+02 -0.30626985202E+02 -0.24509874425E+03  0.25559046867E+03  0.00000000000E+00 0.  1.
        -13    1    3    3    0    0  0.23243861270E+03 -0.18304820327E+03 -0.52267542245E+03  0.60060298920E+03  0.00000000000E+00 0. -1.
          4    1    6    6  502    0 -0.42252410545E+03  0.51787352655E+02  0.48474036433E+03  0.64512151599E+03  0.00000000000E+00 0. -1.
          1    1    5    5  503    0  0.25093908303E+03  0.10879598805E+03 -0.63965853759E+02  0.28088898315E+03  0.00000000000E+00 0. -1.
         -2    1    5    5    0  503 -0.26633473544E+01 -0.16370670595E+01  0.57178492180E+01  0.65166868397E+01  0.00000000000E+00 0.  1.
         -3    1    6    6    0  502 -0.12387951924E+03  0.54728914826E+02  0.12440935461E+03  0.18389963817E+03  0.00000000000E+00 0.  1.
<mgrwt>
<rscale>  0 0.19606624E+04</rscale>
<asrwt>0</asrwt>
<pdfrwt beam="1">  1        2 0.13505753E+00 0.19606624E+04</pdfrwt>
<pdfrwt beam="2">  1       -2 0.16842252E+00 0.19606624E+04</pdfrwt>
<totfact> 0.61867640E+00</totfact>
</mgrwt>
</event>
<event>
12    1  0.1494110E-007  0.2154080E+04  0.7818608E-02  0.8537788E-01
         -2   -1    0    0    0  501 -0.00000000000E+00  0.00000000000E+00  0.20037357230E+04  0.20037357230E+04  0.00000000000E+00 0.  1.
          2   -1    0    0  501    0  0.00000000000E+00 -0.00000000000E+00 -0.57892628544E+03  0.57892628544E+03  0.00000000000E+00 0. -1.
         23    2    1    2    0    0 -0.28777327865E+03  0.82961393627E+03  0.74940490244E+03  0.11579326842E+04  0.90153480684E+02 0.  0.
        254    2    1    2    0    0  0.28777327865E+03 -0.82961393627E+03  0.67540453509E+03  0.14247293243E+04  0.89588482420E+03 0.  0.
        -24    2    4    4    0    0  0.24433651337E+03 -0.68393105838E+03  0.88813687095E+03  0.11500420176E+04  0.79671302161E+02 0.  0.
         24    2    4    4    0    0  0.43436765273E+02 -0.14568287788E+03 -0.21273233587E+03  0.27468730663E+03  0.84189169212E+02 0.  0.
         13    1    3    3    0    0 -0.70372958305E+02  0.24164263343E+03  0.26704622505E+03  0.36695667573E+03  0.00000000000E+00 0. -1.
        -13    1    3    3    0    0 -0.21740032034E+03  0.58797130284E+03  0.48235867739E+03  0.79097600842E+03  0.00000000000E+00 0.  1.
          2    1    6    6  502    0 -0.17251023207E+02 -0.91656448430E+01 -0.76987750664E+01  0.20997094671E+02  0.00000000000E+00 0. -1.
          3    1    5    5  503    0  0.85884558791E+02 -0.30981563929E+03  0.34246161613E+03  0.46972528813E+03  0.00000000000E+00 0. -1.
         -4    1    5    5    0  503  0.15845195458E+03 -0.37411541909E+03  0.54567525482E+03  0.68031672950E+03  0.00000000000E+00 0.  1.
         -1    1    6    6    0  502  0.60687788481E+02 -0.13651723304E+03 -0.20503356080E+03  0.25369021195E+03  0.00000000000E+00 0.  1.
<mgrwt>
<rscale>  0 0.21540801E+04</rscale>
<asrwt>0</asrwt>
<pdfrwt beam="1">  1        2 0.89065584E-01 0.21540801E+04</pdfrwt>
<pdfrwt beam="2">  1       -2 0.30826703E+00 0.21540801E+04</pdfrwt>
<totfact> 0.13447234E+00</totfact>
</mgrwt>
</event>
<event>
12    1  0.1494110E-007  0.1624007E+04  0.7818608E-02  0.8805934E-01
         -1   -1    0    0    0  501 -0.00000000000E+00  0.00000000000E+00  0.41352480292E+03  0.41352480292E+03  0.00000000000E+00 0.  1.
          1   -1    0    0  501    0  0.00000000000E+00 -0.00000000000E+00 -0.15944613622E+04  0.15944613622E+04  0.00000000000E+00 0. -1.
         23    2    1    2    0    0 -0.22731677383E+03 -0.29956295396E+03  0.99477954177E+02  0.39865756226E+03  0.87298966337E+02 0.  0.
        254    2    1    2    0    0  0.22731677383E+03  0.29956295396E+03 -0.12804145135E+04  0.16093286029E+04  0.89948115415E+03 0.  0.
        -24    2    4    4    0    0  0.54091771003E+03  0.22028417308E+03 -0.55056210795E+03  0.80673886342E+03  0.81190351000E+02 0.  0.
         24    2    4    4    0    0 -0.31360093620E+03  0.79278780881E+02 -0.72985240555E+03  0.80258973948E+03  0.82674565370E+02 0.  0.
         13    1    3    3    0    0 -0.94154048248E+02 -0.15665039561E+03  0.79511473349E+01  0.18294138949E+03  0.00000000000E+00 0.  1.
        -13    1    3    3    0    0 -0.13316272559E+03 -0.14291255836E+03  0.91526806843E+02  0.21571617276E+03  0.00000000000E+00 0. -1.
          4    1    6    6  502    0 -0.57097755059E+02  0.78072152494E+00 -0.20978768482E+03  0.21742041270E+03  0.00000000000E+00 0. -1.
          3    1    5    5  503    0  0.52189926961E+03  0.21991614607E+03 -0.51081936771E+03  0.76267842853E+03  0.00000000000E+00 0. -1.
         -4    1    5    5    0  503  0.19018440420E+02  0.36802701107E+00 -0.39742740245E+02  0.44060434882E+02  0.00000000000E+00 0.  1.
         -3    1    6    6    0  502 -0.25650318114E+03  0.78498059356E+02 -0.52006472073E+03  0.58516932678E+03  0.00000000000E+00 0.  1.
<mgrwt>
<rscale>  0 0.16240066E+04</rscale>
<asrwt>0</asrwt>
<pdfrwt beam="1">  1        1 0.24530175E+00 0.16240066E+04</pdfrwt>
<pdfrwt beam="2">  1       -1 0.63619200E-01 0.16240066E+04</pdfrwt>
<totfact> 0.13507646E+01</totfact>
</mgrwt>
</event>
<event>
12    1  0.1494110E-007  0.1759328E+04  0.7818608E-02  0.8728233E-01
         -1   -1    0    0    0  501 -0.00000000000E+00  0.00000000000E+00  0.57291496606E+03  0.57291496606E+03  0.00000000000E+00 0.  1.
          1   -1    0    0  501    0  0.00000000000E+00 -0.00000000000E+00 -0.13506512766E+04  0.13506512766E+04  0.00000000000E+00 0. -1.
         23    2    1    2    0    0 -0.50762982078E+03 -0.32195257233E+03 -0.26953705207E+02  0.60867468971E+03  0.91743565981E+02 0.  0.
        254    2    1    2    0    0  0.50762982078E+03  0.32195257233E+03 -0.75078260532E+03  0.13148915529E+04  0.89661796868E+03 0.  0.
        -24    2    4    4    0    0  0.14623097253E+03  0.54021265429E+03 -0.67150577003E+03  0.87789664795E+03  0.81051317774E+02 0.  0.
         24    2    4    4    0    0  0.36139884825E+03 -0.21826008196E+03 -0.79276835294E+02  0.43699490500E+03  0.80206854346E+02 0.  0.
         11    1    3    3    0    0 -0.44873962489E+03 -0.27547457799E+03  0.63645909629E+01  0.52658712678E+03  0.00000000000E+00 0.  1.
        -11    1    3    3    0    0 -0.58890195887E+02 -0.46477994339E+02 -0.33318296170E+02  0.82087562938E+02  0.00000000000E+00 0. -1.
          2    1    6    6  502    0  0.34815781121E+03 -0.22494898248E+03 -0.72994799419E+02  0.42088495692E+03  0.00000000000E+00 0. -1.
          1    1    5    5  503    0  0.14633369769E+03  0.47402030122E+03 -0.55922409809E+03  0.74755627811E+03  0.00000000000E+00 0. -1.
         -2    1    5    5    0  503 -0.10272516171E+00  0.66192353068E+02 -0.11228167194E+03  0.13034036984E+03  0.00000000000E+00 0.  1.
         -1    1    6    6    0  502  0.13241037043E+02  0.66889005189E+01 -0.62820358757E+01  0.16109948071E+02  0.00000000000E+00 0.  1.
<mgrwt>
<rscale>  0 0.17593275E+04</rscale>
<asrwt>0</asrwt>
<pdfrwt beam="1">  1        1 0.20779250E+00 0.17593275E+04</pdfrwt>
<pdfrwt beam="2">  1       -1 0.88140765E-01 0.17593275E+04</pdfrwt>
<totfact> 0.99697326E+00</totfact>
</mgrwt>
</event>
<event>
12    1  0.1494110E-007  0.1262883E+04  0.7818608E-02  0.9059528E-01
         -2   -1    0    0    0  501 -0.00000000000E+00  0.00000000000E+00  0.18249457481E+03  0.18249457481E+03  0.00000000000E+00 0.  1.
          2   -1    0    0  501    0  0.00000000000E+00 -0.00000000000E+00 -0.21848229080E+04  0.21848229080E+04  0.00000000000E+00 0. -1.
         23    2    1    2    0    0  0.29533727944E+03 -0.19533156755E+02 -0.59644132164E+03  0.67206055817E+03  0.91200278724E+02 0.  0.
        254    2    1    2    0    0 -0.29533727944E+03  0.19533156755E+02 -0.14058870116E+04  0.16952569247E+04  0.89987337914E+03 0.  0.
        -24    2    4    4    0    0  0.17274153735E+03 -0.31309450979E+03 -0.51402277979E+03  0.63134220626E+03  0.80658244906E+02 0.  0.
         24    2    4    4    0    0 -0.46807881679E+03  0.33262766655E+03 -0.89186423179E+03  0.10639147184E+04  0.82181365465E+02 0.  0.
         13    1    3    3    0    0  0.10063184530E+03  0.25044752827E+02 -0.27157019522E+03  0.29069636886E+03  0.00000000000E+00 0. -1.
        -13    1    3    3    0    0  0.19470543414E+03 -0.44577909582E+02 -0.32487112642E+03  0.38136418931E+03  0.00000000000E+00 0.  1.
          4    1    6    6  502    0 -0.86396047828E+02  0.10310466848E+03 -0.19573207963E+03  0.23749925629E+03  0.00000000000E+00 0. -1.
          1    1    5    5  503    0  0.21599870697E+02 -0.10190210929E+03 -0.18339359728E+03  0.21091184371E+03  0.00000000000E+00 0. -1.
         -2    1    5    5    0  503  0.15114166665E+03 -0.21119240050E+03 -0.33062918251E+03  0.42043036255E+03  0.00000000000E+00 0.  1.
         -1    1    6    6    0  502 -0.38168276897E+03  0.22952299807E+03 -0.69613215216E+03  0.82641546212E+03  0.00000000000E+00 0.  1.
<mgrwt>
<rscale>  0 0.12628829E+04</rscale>
<asrwt>0</asrwt>
<pdfrwt beam="1">  1        2 0.33612660E+00 0.12628829E+04</pdfrwt>
<pdfrwt beam="2">  1       -2 0.28076089E-01 0.12628829E+04</pdfrwt>
<totfact> 0.60158556E+01</totfact>
</mgrwt>
</event>
<event>
12    1  0.1494110E-007  0.1730949E+04  0.7818608E-02  0.8743907E-01
         -1   -1    0    0    0  501 -0.00000000000E+00  0.00000000000E+00  0.23052555145E+03  0.23052555145E+03  0.00000000000E+00 0.  1.
          1   -1    0    0  501    0  0.00000000000E+00 -0.00000000000E+00 -0.32492972473E+04  0.32492972473E+04  0.00000000000E+00 0. -1.
         23    2    1    2    0    0  0.29959506747E+03 -0.84510976806E+02 -0.12339698396E+02  0.32508767267E+03  0.92900038284E+02 0.  0.
        254    2    1    2    0    0 -0.29959506747E+03  0.84510976806E+02 -0.30064319975E+04  0.31547351261E+04  0.90378152823E+03 0.  0.
        -24    2    4    4    0    0  0.19196135418E+03  0.22167630573E+01 -0.21548965773E+04  0.21648676546E+04  0.78858273085E+02 0.  0.
         24    2    4    4    0    0 -0.49155642165E+03  0.82294213748E+02 -0.85153542015E+03  0.98986747154E+03  0.79529781677E+02 0.  0.
         11    1    3    3    0    0  0.23695580235E+02 -0.51983521833E-01 -0.27316538056E+02  0.36161809638E+02  0.00000000000E+00 0. -1.
        -11    1    3    3    0    0  0.27589948723E+03 -0.84458993284E+02  0.14976839660E+02  0.28892586303E+03  0.00000000000E+00 0.  1.
          4    1    6    6  502    0 -0.25607196477E+03  0.60702175245E+02 -0.51788832592E+03  0.58091817268E+03  0.00000000000E+00 0. -1.
          1    1    5    5  503    0  0.48451002954E+02 -0.26701903299E+02 -0.38912247797E+03  0.39303535997E+03  0.00000000000E+00 0. -1.
         -2    1    5    5    0  503  0.14351035123E+03  0.28918666357E+02 -0.17657740994E+04  0.17718322946E+04  0.00000000000E+00 0.  1.
         -3    1    6    6    0  502 -0.23548445687E+03  0.21592038503E+02 -0.33364709422E+03  0.40894929886E+03  0.00000000000E+00 0.  1.
<mgrwt>
<rscale>  0 0.17309489E+04</rscale>
<asrwt>0</asrwt>
<pdfrwt beam="1">  1        1 0.49989186E+00 0.17309489E+04</pdfrwt>
<pdfrwt beam="2">  1       -1 0.35465471E-01 0.17309489E+04</pdfrwt>
<totfact> 0.28219621E+00</totfact>
</mgrwt>
</event>
<event>
12    1  0.1494110E-007  0.1373354E+04  0.7818608E-02  0.8973335E-01
         -2   -1    0    0    0  501 -0.00000000000E+00  0.00000000000E+00  0.25208697030E+03  0.25208697030E+03  0.00000000000E+00 0. -1.
          2   -1    0    0  501    0  0.00000000000E+00 -0.00000000000E+00 -0.18704878624E+04  0.18704878624E+04  0.00000000000E+00 0.  1.
         23    2    1    2    0    0  0.50902146479E+02 -0.13239155642E+03 -0.98263277554E+03  0.99493360087E+03  0.64862514971E+02 0.  0.
        254    2    1    2    0    0 -0.50902146479E+02  0.13239155642E+03 -0.63576811652E+03  0.11276412318E+04  0.92046460929E+03 0.  0.
        -24    2    4    4    0    0  0.42144362565E+03  0.20963921211E+02 -0.21445710901E+03  0.48003166512E+03  0.79902016991E+02 0.  0.
         24    2    4    4    0    0 -0.47234577213E+03  0.11142763520E+03 -0.42131100751E+03  0.64760956668E+03  0.79803129455E+02 0.  0.
         11    1    3    3    0    0 -0.18519899100E+01  0.60989185566E+01 -0.76173763581E+02  0.76439969468E+02  0.00000000000E+00 0. -1.
        -11    1    3    3    0    0  0.52754136389E+02 -0.13849047497E+03 -0.90645901196E+03  0.91849363140E+03  0.00000000000E+00 0.  1.
          2    1    6    6  502    0 -0.10609070038E+03  0.52548174753E+02 -0.75160783826E+02  0.14023441376E+03  0.00000000000E+00 0. -1.
          3    1    5    5  503    0  0.12457100307E+03  0.90597705548E+01 -0.10575871293E+03  0.16366098988E+03  0.00000000000E+00 0. -1.
         -4    1    5    5    0  503  0.29687262258E+03  0.11904150656E+02 -0.10869839608E+03  0.31637067524E+03  0.00000000000E+00 0.  1.
         -1    1    6    6    0  502 -0.36625507175E+03  0.58879460452E+02 -0.34615022369E+03  0.50737515292E+03  0.00000000000E+00 0.  1.
<mgrwt>
<rscale>  0 0.13733545E+04</rscale>
<asrwt>0</asrwt>
<pdfrwt beam="1">  1        2 0.28776736E+00 0.13733545E+04</pdfrwt>
<pdfrwt beam="2">  1       -2 0.38782612E-01 0.13733545E+04</pdfrwt>
<totfact> 0.48321958E+01</totfact>
</mgrwt>
</event>
<event>
12    1  0.1494110E-007  0.2381638E+04  0.7818608E-02  0.8446410E-01
         -2   -1    0    0    0  501 -0.00000000000E+00  0.00000000000E+00  0.15867159173E+04  0.15867159173E+04  0.00000000000E+00 0.  1.
          2   -1    0    0  501    0  0.00000000000E+00 -0.00000000000E+00 -0.89370151924E+03  0.89370151924E+03  0.00000000000E+00 0. -1.
         23    2    1    2    0    0 -0.94343653601E+03  0.19321735595E+03  0.63804237785E+03  0.11590512869E+04  0.94320547112E+02 0.  0.
        254    2    1    2    0    0  0.94343653601E+03 -0.19321735595E+03  0.54972020241E+02  0.13213661497E+04  0.90309530746E+03 0.  0.
        -24    2    4    4    0    0  0.76750651405E+03 -0.40902824447E+03 -0.24252972112E+03  0.90630929010E+03  0.78775058347E+02 0.  0.
         24    2    4    4    0    0  0.17593002197E+03  0.21581088852E+03  0.29750174136E+03  0.41505685957E+03  0.78988596187E+02 0.  0.
         13    1    3    3    0    0 -0.86569601274E+03  0.16151207662E+03  0.60689173681E+03  0.10695014341E+04  0.00000000000E+00 0.  1.
        -13    1    3    3    0    0 -0.77740523268E+02  0.31705279336E+02  0.31150641037E+02  0.89549852779E+02  0.00000000000E+00 0. -1.
          2    1    6    6  502    0 -0.50685224077E+00  0.31047481211E+02  0.16071720506E+02  0.34964313074E+02  0.00000000000E+00 0. -1.
          3    1    5    5  503    0  0.21292764596E+03 -0.11474833014E+03 -0.31238473827E+02  0.24388768712E+03  0.00000000000E+00 0. -1.
         -4    1    5    5    0  503  0.55457886809E+03 -0.29427991433E+03 -0.21129124730E+03  0.66242160298E+03  0.00000000000E+00 0.  1.
         -1    1    6    6    0  502  0.17643687421E+03  0.18476340731E+03  0.28143002086E+03  0.38009254649E+03  0.00000000000E+00 0.  1.
<mgrwt>
<rscale>  0 0.23816384E+04</rscale>
<asrwt>0</asrwt>
<pdfrwt beam="1">  1        2 0.13749254E+00 0.23816384E+04</pdfrwt>
<pdfrwt beam="2">  1       -2 0.24411014E+00 0.23816384E+04</pdfrwt>
<totfact> 0.18627932E+00</totfact>
</mgrwt>
</event>
<event>
12    1  0.1494110E-007  0.1830449E+04  0.7818608E-02  0.8690273E-01
         -1   -1    0    0    0  501 -0.00000000000E+00  0.00000000000E+00  0.67264818556E+03  0.67264818556E+03  0.00000000000E+00 0.  1.
          1   -1    0    0  501    0  0.00000000000E+00 -0.00000000000E+00 -0.12452806873E+04  0.12452806873E+04  0.00000000000E+00 0. -1.
         23    2    1    2    0    0 -0.54896104728E+03 -0.59631930501E+02  0.21450939327E+03  0.59916841651E+03  0.89857180979E+02 0.  0.
        254    2    1    2    0    0  0.54896104728E+03  0.59631930501E+02 -0.78714189498E+03  0.13187604563E+04  0.90256444633E+03 0.  0.
        -24    2    4    4    0    0 -0.14639518645E+03  0.77113604345E+02  0.82692068078E+02  0.20214059553E+03  0.81515542367E+02 0.  0.
         24    2    4    4    0    0  0.69535623373E+03 -0.17481673844E+02 -0.86983396306E+03  0.11166198608E+04  0.80018057583E+02 0.  0.
         11    1    3    3    0    0 -0.96961242326E+02 -0.10277900733E+02  0.76700926257E+02  0.12405704271E+03  0.00000000000E+00 0. -1.
        -11    1    3    3    0    0 -0.45199980496E+03 -0.49354029768E+02  0.13780846701E+03  0.47511137380E+03  0.00000000000E+00 0.  1.
          2    1    6    6  502    0  0.63727823415E+03 -0.24288483406E+02 -0.82596072333E+03  0.10435154980E+04  0.00000000000E+00 0. -1.
          3    1    5    5  503    0 -0.15250978587E+03  0.56423767677E+02  0.76409796882E+02  0.17967006819E+03  0.00000000000E+00 0. -1.
         -4    1    5    5    0  503  0.61145994197E+01  0.20689836668E+02  0.62822711967E+01  0.22470527337E+02  0.00000000000E+00 0.  1.
         -1    1    6    6    0  502  0.58077999581E+02  0.68068095620E+01 -0.43873239722E+02  0.73104362766E+02  0.00000000000E+00 0.  1.
<mgrwt>
<rscale>  0 0.18304489E+04</rscale>
<asrwt>0</asrwt>
<pdfrwt beam="1">  1        1 0.19158164E+00 0.18304489E+04</pdfrwt>
<pdfrwt beam="2">  1       -1 0.10348434E+00 0.18304489E+04</pdfrwt>
<totfact> 0.82099161E+00</totfact>
</mgrwt>
</event>
<event>
12    1  0.1494110E-007  0.1829418E+04  0.7818608E-02  0.8690810E-01
         -2   -1    0    0    0  501 -0.00000000000E+00  0.00000000000E+00  0.70107076909E+03  0.70107076909E+03  0.00000000000E+00 0.  1.
          2   -1    0    0  501    0  0.00000000000E+00 -0.00000000000E+00 -0.11934492191E+04  0.11934492191E+04  0.00000000000E+00 0. -1.
         23    2    1    2    0    0  0.26826488463E+03  0.43175343891E+03  0.29385028016E+03  0.59396117226E+03  0.89804268619E+02 0.  0.
        254    2    1    2    0    0 -0.26826488463E+03 -0.43175343891E+03 -0.78622873019E+03  0.13005588159E+04  0.90272949283E+03 0.  0.
        -24    2    4    4    0    0  0.25576857769E+03  0.97929024164E+02 -0.18828536462E+03  0.34203731938E+03  0.80811448528E+02 0.  0.
         24    2    4    4    0    0 -0.52403346232E+03 -0.52968246308E+03 -0.59794336557E+03  0.95852149657E+03  0.77798519428E+02 0.  0.
         13    1    3    3    0    0 -0.49104873497E+00  0.88455210786E+00  0.14198748040E+02  0.14234746474E+02  0.00000000000E+00 0. -1.
        -13    1    3    3    0    0  0.26875593336E+03  0.43086888681E+03  0.27965153212E+03  0.57972642578E+03  0.00000000000E+00 0.  1.
          2    1    6    6  502    0 -0.34601456831E+03 -0.32454122530E+03 -0.33736012069E+03  0.58212106940E+03  0.00000000000E+00 0. -1.
          3    1    5    5  503    0  0.32376619667E+02 -0.57730977265E+01 -0.49229686986E+02  0.59204191061E+02  0.00000000000E+00 0. -1.
         -4    1    5    5    0  503  0.22339195803E+03  0.10370212189E+03 -0.13905567763E+03  0.28283312832E+03  0.00000000000E+00 0.  1.
         -1    1    6    6    0  502 -0.17801889401E+03 -0.20514123777E+03 -0.26058324488E+03  0.37640042717E+03  0.00000000000E+00 0.  1.
<mgrwt>
<rscale>  0 0.18294178E+04</rscale>
<asrwt>0</asrwt>
<pdfrwt beam="1">  1        2 0.18360757E+00 0.18294178E+04</pdfrwt>
<pdfrwt beam="2">  1       -2 0.10785704E+00 0.18294178E+04</pdfrwt>
<totfact> 0.12406076E+01</totfact>
</mgrwt>
</event>
<event>
12    1  0.1494110E-007  0.1658743E+04  0.7818608E-02  0.8785251E-01
          2   -1    0    0  501    0  0.00000000000E+00  0.00000000000E+00  0.10406087570E+04  0.10406087570E+04  0.00000000000E+00 0. -1.
         -2   -1    0    0    0  501 -0.00000000000E+00 -0.00000000000E+00 -0.66101378083E+03  0.66101378083E+03  0.00000000000E+00 0.  1.
         23    2    1    2    0    0  0.24393429740E+03  0.41302813223E+03 -0.19966153224E+03  0.52823952135E+03  0.95268488992E+02 0.  0.
        254    2    1    2    0    0 -0.24393429740E+03 -0.41302813223E+03  0.57925650837E+03  0.11733830165E+04  0.90066276782E+03 0.  0.
        -24    2    4    4    0    0  0.12264609572E+03 -0.45845848918E+03  0.62908136873E+03  0.79187359481E+03  0.78065168790E+02 0.  0.
         24    2    4    4    0    0 -0.36658039312E+03  0.45430356943E+02 -0.49824860358E+02  0.38150942164E+03  0.81374566907E+02 0.  0.
         13    1    3    3    0    0  0.19534385416E+03  0.24066472405E+03 -0.12536947645E+03  0.33435944190E+03  0.00000000000E+00 0.  1.
        -13    1    3    3    0    0  0.48590443241E+02  0.17236340819E+03 -0.74292055780E+02  0.19388007945E+03  0.00000000000E+00 0. -1.
          2    1    6    6  502    0 -0.12094270083E+03  0.43619788344E+02  0.91213406547E+01  0.12889151126E+03  0.00000000000E+00 0. -1.
          1    1    5    5  503    0  0.16150230014E+02 -0.43971635505E+02  0.29950023177E+02  0.55599807075E+02  0.00000000000E+00 0. -1.
         -2    1    5    5    0  503  0.10649586570E+03 -0.41448685367E+03  0.59913134555E+03  0.73627378773E+03  0.00000000000E+00 0.  1.
         -1    1    6    6    0  502 -0.24563769229E+03  0.18105685996E+01 -0.58946201012E+02  0.25261791038E+03  0.00000000000E+00 0.  1.
<mgrwt>
<rscale>  0 0.16587426E+04</rscale>
<asrwt>0</asrwt>
<pdfrwt beam="1">  1        2 0.16009366E+00 0.16587426E+04</pdfrwt>
<pdfrwt beam="2">  1       -2 0.10169443E+00 0.16587426E+04</pdfrwt>
<totfact> 0.17980776E+01</totfact>
</mgrwt>
</event>
<event>
12    1  0.1494110E-007  0.3459287E+04  0.7818608E-02  0.8123507E-01
         -2   -1    0    0    0  501 -0.00000000000E+00  0.00000000000E+00  0.26789228762E+04  0.26789228762E+04  0.00000000000E+00 0.  1.
          2   -1    0    0  501    0  0.00000000000E+00 -0.00000000000E+00 -0.11167425908E+04  0.11167425908E+04  0.00000000000E+00 0. -1.
         23    2    1    2    0    0 -0.53174451676E+03 -0.11350565930E+04  0.18378406621E+04  0.22263091852E+04  0.87684595055E+02 0.  0.
        254    2    1    2    0    0  0.53174451676E+03  0.11350565930E+04 -0.27566037668E+03  0.15693562819E+04  0.90320805792E+03 0.  0.
        -24    2    4    4    0    0  0.76898837408E+03  0.70006359082E+03 -0.17535597289E+03  0.10575931148E+04  0.79506783783E+02 0.  0.
         24    2    4    4    0    0 -0.23724385732E+03  0.43499300215E+03 -0.10030440379E+03  0.51176316705E+03  0.79605313701E+02 0.  0.
         13    1    3    3    0    0 -0.49706374127E+03 -0.10944687658E+04  0.17767987160E+04  0.21452151220E+04  0.00000000000E+00 0.  1.
        -13    1    3    3    0    0 -0.34680775493E+02 -0.40587827158E+02  0.61041946100E+02  0.81094063197E+02  0.00000000000E+00 0. -1.
          2    1    6    6  502    0 -0.13315859732E+03  0.19287972567E+03 -0.15398616657E+02  0.23488490375E+03  0.00000000000E+00 0. -1.
          3    1    5    5  503    0  0.22676381657E+03  0.21370316621E+03 -0.89287178235E+02  0.32413434244E+03  0.00000000000E+00 0. -1.
         -4    1    5    5    0  503  0.54222455751E+03  0.48636042461E+03 -0.86068794653E+02  0.73345877240E+03  0.00000000000E+00 0.  1.
         -1    1    6    6    0  502 -0.10408526000E+03  0.24211327648E+03 -0.84905787131E+02  0.27687826330E+03  0.00000000000E+00 0.  1.
<mgrwt>
<rscale>  0 0.34592874E+04</rscale>
<asrwt>0</asrwt>
<pdfrwt beam="1">  1        2 0.17180655E+00 0.34592874E+04</pdfrwt>
<pdfrwt beam="2">  1       -2 0.41214198E+00 0.34592874E+04</pdfrwt>
<totfact> 0.10825719E-01</totfact>
</mgrwt>
</event>
<event>
12    1  0.1494110E-007  0.1377291E+04  0.7818608E-02  0.8970423E-01
          2   -1    0    0  501    0  0.00000000000E+00  0.00000000000E+00  0.25731143557E+04  0.25731143557E+04  0.00000000000E+00 0. -1.
         -2   -1    0    0    0  501 -0.00000000000E+00 -0.00000000000E+00 -0.18430285316E+03  0.18430285316E+03  0.00000000000E+00 0.  1.
         23    2    1    2    0    0  0.34224885177E+03 -0.10817271719E+03  0.41337662421E+03  0.55501885234E+03  0.91269270384E+02 0.  0.
        254    2    1    2    0    0 -0.34224885177E+03  0.10817271719E+03  0.19754348783E+04  0.22023983565E+04  0.90519608318E+03 0.  0.
        -24    2    4    4    0    0  0.15286851237E+03  0.20229512044E+03  0.14346915279E+04  0.14590846027E+04  0.79347336410E+02 0.  0.
         24    2    4    4    0    0 -0.49511736415E+03 -0.94122403249E+02  0.54074335037E+03  0.74331375376E+03  0.78177583035E+02 0.  0.
         13    1    3    3    0    0  0.11519728765E+03 -0.19369734770E+02  0.19709136345E+03  0.22910828717E+03  0.00000000000E+00 0.  1.
        -13    1    3    3    0    0  0.22705156412E+03 -0.88802982424E+02  0.21628526077E+03  0.32591056516E+03  0.00000000000E+00 0. -1.
          2    1    6    6  502    0 -0.21781390589E+03 -0.70022085678E+02  0.20505839645E+03  0.30723758891E+03  0.00000000000E+00 0. -1.
          1    1    5    5  503    0  0.72606546928E+02  0.15790450215E+03  0.96341705742E+03  0.97896780794E+03  0.00000000000E+00 0. -1.
         -2    1    5    5    0  503  0.80261965445E+02  0.44390618290E+02  0.47127447051E+03  0.48011679480E+03  0.00000000000E+00 0.  1.
         -1    1    6    6    0  502 -0.27730345826E+03 -0.24100317571E+02  0.33568495392E+03  0.43607616486E+03  0.00000000000E+00 0.  1.
<mgrwt>
<rscale>  0 0.13772906E+04</rscale>
<asrwt>0</asrwt>
<pdfrwt beam="1">  1        2 0.39586372E+00 0.13772906E+04</pdfrwt>
<pdfrwt beam="2">  1       -2 0.28354287E-01 0.13772906E+04</pdfrwt>
<totfact> 0.35199781E+01</totfact>
</mgrwt>
</event>
<event>
12    1  0.1494110E-007  0.1594638E+04  0.7818608E-02  0.8823849E-01
         -2   -1    0    0    0  501 -0.00000000000E+00  0.00000000000E+00  0.18193998621E+04  0.18193998621E+04  0.00000000000E+00 0.  1.
          2   -1    0    0  501    0  0.00000000000E+00 -0.00000000000E+00 -0.34941076617E+03  0.34941076617E+03  0.00000000000E+00 0. -1.
         23    2    1    2    0    0  0.21970695816E+03 -0.26955938710E+03 -0.85893928867E+02  0.37033572534E+03  0.94007296542E+02 0.  0.
        254    2    1    2    0    0 -0.21970695816E+03  0.26955938710E+03  0.15558830248E+04  0.17984749029E+04  0.83235003393E+03 0.  0.
        -24    2    4    4    0    0 -0.45190685954E+03  0.85010114767E+01  0.47952659573E+03  0.66390057619E+03  0.80784541528E+02 0.  0.
         24    2    4    4    0    0  0.23219990138E+03  0.26105837563E+03  0.10763564291E+04  0.11345743267E+04  0.81532023310E+02 0.  0.
         11    1    3    3    0    0  0.16026263236E+03 -0.12474432182E+03 -0.59141825650E+02  0.21152544220E+03  0.00000000000E+00 0. -1.
        -11    1    3    3    0    0  0.59444325803E+02 -0.14481506528E+03 -0.26752103217E+02  0.15881028313E+03  0.00000000000E+00 0.  1.
          4    1    6    6  502    0  0.23502500128E+03  0.24253578292E+03  0.10429934469E+04  0.10963100326E+04  0.00000000000E+00 0. -1.
          1    1    5    5  503    0 -0.43856579591E+03  0.38787151512E+01  0.43716559523E+03  0.61924854414E+03  0.00000000000E+00 0. -1.
         -4    1    5    5    0  503 -0.13341063638E+02  0.46222963255E+01  0.42361000500E+02  0.44652032044E+02  0.00000000000E+00 0.  1.
         -3    1    6    6    0  502 -0.28250998973E+01  0.18522592710E+02  0.33362982177E+02  0.38264294190E+02  0.00000000000E+00 0.  1.
<mgrwt>
<rscale>  0 0.15946384E+04</rscale>
<asrwt>0</asrwt>
<pdfrwt beam="1">  1        2 0.53755504E-01 0.15946384E+04</pdfrwt>
<pdfrwt beam="2">  1       -2 0.27990766E+00 0.15946384E+04</pdfrwt>
<totfact> 0.37518593E+00</totfact>
</mgrwt>
</event>
<event>
12    1  0.1494110E-007  0.2146619E+04  0.7818608E-02  0.8540981E-01
         -2   -1    0    0    0  501 -0.00000000000E+00  0.00000000000E+00  0.79520089062E+03  0.79520089062E+03  0.00000000000E+00 0.  1.
          2   -1    0    0  501    0  0.00000000000E+00 -0.00000000000E+00 -0.14486825008E+04  0.14486825008E+04  0.00000000000E+00 0. -1.
         23    2    1    2    0    0 -0.18113463182E+03 -0.27232575507E+03  0.58763658148E+03  0.67847488115E+03  0.89667947111E+02 0.  0.
        254    2    1    2    0    0  0.18113463182E+03  0.27232575507E+03 -0.12411181917E+04  0.15654085103E+04  0.89619103244E+03 0.  0.
        -24    2    4    4    0    0  0.13712466603E+03 -0.27470345122E+03 -0.78734360341E+03  0.84882230961E+03  0.79524859735E+02 0.  0.
         24    2    4    4    0    0  0.44009965786E+02  0.54702920629E+03 -0.45377458825E+03  0.71658620066E+03  0.80041092008E+02 0.  0.
         11    1    3    3    0    0 -0.15043655110E+03 -0.25002181261E+03  0.56023982001E+03  0.63167295225E+03  0.00000000000E+00 0.  1.
        -11    1    3    3    0    0 -0.30698080720E+02 -0.22303942467E+02  0.27396761473E+02  0.46801928899E+02  0.00000000000E+00 0. -1.
          4    1    6    6  502    0  0.12523742391E+02  0.12945419502E+02 -0.25768068918E+02  0.31439169603E+02  0.00000000000E+00 0. -1.
          3    1    5    5  503    0  0.37898217421E+02 -0.16375926782E+03 -0.43356527643E+03  0.46500776511E+03  0.00000000000E+00 0. -1.
         -4    1    5    5    0  503  0.99226448614E+02 -0.11094418339E+03 -0.35377832698E+03  0.38381454450E+03  0.00000000000E+00 0.  1.
         -3    1    6    6    0  502  0.31486223395E+02  0.53408378679E+03 -0.42800651934E+03  0.68514703106E+03  0.00000000000E+00 0.  1.
<mgrwt>
<rscale>  0 0.21466193E+04</rscale>
<asrwt>0</asrwt>
<pdfrwt beam="1">  1        2 0.22287423E+00 0.21466193E+04</pdfrwt>
<pdfrwt beam="2">  1       -2 0.12233860E+00 0.21466193E+04</pdfrwt>
<totfact> 0.63070575E+00</totfact>
</mgrwt>
</event>
<event>
12    1  0.1494110E-007  0.1794701E+04  0.7818608E-02  0.8709123E-01
         -2   -1    0    0    0  501 -0.00000000000E+00  0.00000000000E+00  0.44507804884E+03  0.44507804884E+03  0.00000000000E+00 0.  1.
          2   -1    0    0  501    0  0.00000000000E+00 -0.00000000000E+00 -0.18092054835E+04  0.18092054835E+04  0.00000000000E+00 0. -1.
         23    2    1    2    0    0  0.56426272158E+03  0.14471517167E+02 -0.96285847181E+03  0.11198744643E+04  0.91763475234E+02 0.  0.
        254    2    1    2    0    0 -0.56426272158E+03 -0.14471517167E+02 -0.40126896289E+03  0.11344090680E+04  0.89847944290E+03 0.  0.
        -24    2    4    4    0    0 -0.23036322222E+03 -0.30321044100E+03  0.15683570521E+03  0.41828137560E+03  0.73198941667E+02 0.  0.
         24    2    4    4    0    0 -0.33389949935E+03  0.28873892383E+03 -0.55810466811E+03  0.71612769245E+03  0.80616434597E+02 0.  0.
         13    1    3    3    0    0  0.38495620215E+02 -0.15437812692E+02 -0.10965848288E+03  0.11724001750E+03  0.00000000000E+00 0.  1.
        -13    1    3    3    0    0  0.52576710136E+03  0.29909329859E+02 -0.85319998893E+03  0.10026344468E+04  0.00000000000E+00 0. -1.
          4    1    6    6  502    0  0.46473161433E+01  0.63531842686E+01 -0.98150980181E+01  0.12581599532E+02  0.00000000000E+00 0. -1.
          1    1    5    5  503    0 -0.11949457960E+03 -0.14315052296E+03  0.38401796323E+02  0.19038309993E+03  0.00000000000E+00 0. -1.
         -2    1    5    5    0  503 -0.11086864263E+03 -0.16005991803E+03  0.11843390889E+03  0.22789827567E+03  0.00000000000E+00 0.  1.
         -3    1    6    6    0  502 -0.33854681549E+03  0.28238573956E+03 -0.54828957009E+03  0.70354609292E+03  0.00000000000E+00 0.  1.
<mgrwt>
<rscale>  0 0.17947007E+04</rscale>
<asrwt>0</asrwt>
<pdfrwt beam="1">  1        2 0.27833930E+00 0.17947007E+04</pdfrwt>
<pdfrwt beam="2">  1       -2 0.68473547E-01 0.17947007E+04</pdfrwt>
<totfact> 0.15708316E+01</totfact>
</mgrwt>
</event>
<event>
12    1  0.1494110E-007  0.3243632E+04  0.7818608E-02  0.8177388E-01
          2   -1    0    0  501    0  0.00000000000E+00  0.00000000000E+00  0.29181213739E+04  0.29181213739E+04  0.00000000000E+00 0. -1.
         -2   -1    0    0    0  501 -0.00000000000E+00 -0.00000000000E+00 -0.90136336168E+03  0.90136336168E+03  0.00000000000E+00 0.  1.
         23    2    1    2    0    0 -0.55284510472E+03  0.90997627755E+03  0.21691211684E+04  0.24181052461E+04  0.91933685009E+02 0.  0.
        254    2    1    2    0    0  0.55284510472E+03 -0.90997627755E+03 -0.15236315616E+03  0.14013794895E+04  0.89830696688E+03 0.  0.
        -24    2    4    4    0    0 -0.15044124210E+03  0.68734121581E+02  0.28800398582E+01  0.18360085706E+03  0.79649439986E+02 0.  0.
         24    2    4    4    0    0  0.70328634682E+03 -0.97871039913E+03 -0.15524319602E+03  0.12177786324E+04  0.79991354189E+02 0.  0.
         13    1    3    3    0    0 -0.41660721543E+03  0.68904415758E+03  0.17255844354E+04  0.19042019501E+04  0.00000000000E+00 0.  1.
        -13    1    3    3    0    0 -0.13623788928E+03  0.22093211997E+03  0.44353673297E+03  0.51390329596E+03  0.00000000000E+00 0. -1.
          4    1    6    6  502    0  0.80803487749E+01 -0.18436446007E+02 -0.12523668020E+02  0.23707316135E+02  0.00000000000E+00 0. -1.
          3    1    5    5  503    0 -0.18620168194E+02  0.46243786617E+02  0.99485577870E+00  0.49861690728E+02  0.00000000000E+00 0. -1.
         -4    1    5    5    0  503 -0.13182107391E+03  0.22490334964E+02  0.18851840795E+01  0.13373916634E+03  0.00000000000E+00 0.  1.
         -3    1    6    6    0  502  0.69520599804E+03 -0.96027395312E+03 -0.14271952800E+03  0.11940713163E+04  0.00000000000E+00 0.  1.
<mgrwt>
<rscale>  0 0.32436323E+04</rscale>
<asrwt>0</asrwt>
<pdfrwt beam="1">  1        2 0.44894175E+00 0.32436323E+04</pdfrwt>
<pdfrwt beam="2">  1       -2 0.13867129E+00 0.32436323E+04</pdfrwt>
<totfact> 0.60446917E-01</totfact>
</mgrwt>
</event>
<event>
12    1  0.1494110E-007  0.1249978E+04  0.7818608E-02  0.9070201E-01
         -1   -1    0    0    0  501 -0.00000000000E+00  0.00000000000E+00  0.30951711615E+03  0.30951711615E+03  0.00000000000E+00 0.  1.
          1   -1    0    0  501    0  0.00000000000E+00 -0.00000000000E+00 -0.12620024324E+04  0.12620024324E+04  0.00000000000E+00 0. -1.
         23    2    1    2    0    0  0.19349719335E+03  0.21164255459E+01 -0.48651345682E+03  0.53138436940E+03  0.90710315205E+02 0.  0.
        254    2    1    2    0    0 -0.19349719335E+03 -0.21164255459E+01 -0.46597185940E+03  0.10401351791E+04  0.90956350739E+03 0.  0.
        -24    2    4    4    0    0  0.14483779431E+03 -0.35623031991E+03 -0.55776484894E+02  0.39621961008E+03  0.77465706397E+02 0.  0.
         24    2    4    4    0    0 -0.33833498766E+03  0.35411389436E+03 -0.41019537450E+03  0.64391556902E+03  0.80621341549E+02 0.  0.
         11    1    3    3    0    0  0.27122240208E+02  0.34296165098E+02 -0.85352898561E+02  0.95900782829E+02  0.00000000000E+00 0.  1.
        -11    1    3    3    0    0  0.16637495315E+03 -0.32179739552E+02 -0.40116055826E+03  0.43548358657E+03  0.00000000000E+00 0. -1.
          4    1    6    6  502    0 -0.47833774071E+02  0.60517177534E+02 -0.10535472075E+03  0.13057570947E+03  0.00000000000E+00 0. -1.
          1    1    5    5  503    0  0.65029244441E+02 -0.10844848034E+03 -0.49593715615E+02  0.13582861315E+03  0.00000000000E+00 0. -1.
         -2    1    5    5    0  503  0.79808549865E+02 -0.24778183956E+03 -0.61827692789E+01  0.26039099694E+03  0.00000000000E+00 0.  1.
         -3    1    6    6    0  502 -0.29050121359E+03  0.29359671683E+03 -0.30484065375E+03  0.51333985955E+03  0.00000000000E+00 0.  1.
<mgrwt>
<rscale>  0 0.12499782E+04</rscale>
<asrwt>0</asrwt>
<pdfrwt beam="1">  1        1 0.19415422E+00 0.12499782E+04</pdfrwt>
<pdfrwt beam="2">  1       -1 0.47618018E-01 0.12499782E+04</pdfrwt>
<totfact> 0.41817997E+01</totfact>
</mgrwt>
</event>
<event>
12    1  0.1494110E-007  0.1481903E+04  0.7818608E-02  0.8896577E-01
         -1   -1    0    0    0  501 -0.00000000000E+00  0.00000000000E+00  0.10552276584E+04  0.10552276584E+04  0.00000000000E+00 0.  1.
          1   -1    0    0  501    0  0.00000000000E+00 -0.00000000000E+00 -0.52027555471E+03  0.52027555471E+03  0.00000000000E+00 0. -1.
         23    2    1    2    0    0  0.31431160520E+01  0.25717166415E+03 -0.23520309961E+03  0.35988376494E+03  0.89714448020E+02 0.  0.
        254    2    1    2    0    0 -0.31431160520E+01 -0.25717166415E+03  0.77015520334E+03  0.12156194482E+04  0.90467920369E+03 0.  0.
        -24    2    4    4    0    0 -0.44607215575E+03 -0.13822831325E+03  0.35611348997E+03  0.59271062924E+03  0.80010234055E+02 0.  0.
         24    2    4    4    0    0  0.44292903970E+03 -0.11894335090E+03  0.41404171337E+03  0.62290881896E+03  0.79064539454E+02 0.  0.
         11    1    3    3    0    0 -0.41935019233E+02  0.12510663057E+03 -0.99763322796E+02  0.16541745805E+03  0.00000000000E+00 0.  1.
        -11    1    3    3    0    0  0.45078135285E+02  0.13206503358E+03 -0.13543977681E+03  0.19446630690E+03  0.00000000000E+00 0. -1.
          2    1    6    6  502    0  0.43252509544E+03 -0.10111626114E+03  0.40152455660E+03  0.59876909239E+03  0.00000000000E+00 0. -1.
          3    1    5    5  503    0 -0.31172405456E+03 -0.11570026371E+03  0.29040457228E+03  0.44146715938E+03  0.00000000000E+00 0. -1.
         -4    1    5    5    0  503 -0.13434810119E+03 -0.22528049546E+02  0.65708917690E+02  0.15124346986E+03  0.00000000000E+00 0.  1.
         -1    1    6    6    0  502  0.10403944261E+02 -0.17827089753E+02  0.12517156769E+02  0.24139726569E+02  0.00000000000E+00 0.  1.
<mgrwt>
<rscale>  0 0.14819030E+04</rscale>
<asrwt>0</asrwt>
<pdfrwt beam="1">  1        1 0.80042393E-01 0.14819030E+04</pdfrwt>
<pdfrwt beam="2">  1       -1 0.16234272E+00 0.14819030E+04</pdfrwt>
<totfact> 0.11399160E+01</totfact>
</mgrwt>
</event>
<event>
12    1  0.1494110E-007  0.1452013E+04  0.7818608E-02  0.8917006E-01
          2   -1    0    0  501    0  0.00000000000E+00  0.00000000000E+00  0.17986224759E+04  0.17986224759E+04  0.00000000000E+00 0.  1.
         -2   -1    0    0    0  501 -0.00000000000E+00 -0.00000000000E+00 -0.29304968962E+03  0.29304968962E+03  0.00000000000E+00 0. -1.
         23    2    1    2    0    0 -0.15576382507E+03  0.35835414611E+03  0.79210121115E+03  0.88700566194E+03  0.81698545771E+02 0.  0.
        254    2    1    2    0    0  0.15576382507E+03 -0.35835414611E+03  0.71347157512E+03  0.12046665036E+04  0.88853791876E+03 0.  0.
        -24    2    4    4    0    0  0.43154624040E+03 -0.11517676006E+03  0.70661428236E+02  0.45925901693E+03  0.80174581543E+02 0.  0.
         24    2    4    4    0    0 -0.27578241533E+03 -0.24317738605E+03  0.64281014688E+03  0.74540748664E+03  0.85066177278E+02 0.  0.
         11    1    3    3    0    0 -0.50348713055E+02  0.15438655673E+03  0.24788543882E+03  0.29633999491E+03  0.00000000000E+00 0. -1.
        -11    1    3    3    0    0 -0.10541511201E+03  0.20396758938E+03  0.54421577233E+03  0.59066566703E+03  0.00000000000E+00 0.  1.
          2    1    6    6  502    0 -0.74347509855E+02 -0.93025793919E+02  0.14370747992E+03  0.18663651931E+03  0.00000000000E+00 0. -1.
          1    1    5    5  503    0  0.31281315081E+02 -0.22309814039E+02  0.24984847935E+02  0.45831114998E+02  0.00000000000E+00 0. -1.
         -2    1    5    5    0  503  0.40026492532E+03 -0.92866946021E+02  0.45676580301E+02  0.41342790193E+03  0.00000000000E+00 0.  1.
         -1    1    6    6    0  502 -0.20143490548E+03 -0.15015159213E+03  0.49910266696E+03  0.55877096733E+03  0.00000000000E+00 0.  1.
<mgrwt>
<rscale>  0 0.14520134E+04</rscale>
<asrwt>0</asrwt>
<pdfrwt beam="1">  1        2 0.27671114E+00 0.14520134E+04</pdfrwt>
<pdfrwt beam="2">  1       -2 0.45084569E-01 0.14520134E+04</pdfrwt>
<totfact> 0.39104925E+01</totfact>
</mgrwt>
</event>
<event>
12    1  0.1494110E-007  0.3638810E+04  0.7818608E-02  0.8081659E-01
          2   -1    0    0  501    0  0.00000000000E+00  0.00000000000E+00  0.28592600669E+04  0.28592600669E+04  0.00000000000E+00 0. -1.
         -2   -1    0    0    0  501 -0.00000000000E+00 -0.00000000000E+00 -0.11577242628E+04  0.11577242628E+04  0.00000000000E+00 0.  1.
         23    2    1    2    0    0  0.10664978885E+04 -0.19558450600E+03 -0.64754777405E+03  0.12646666153E+04  0.66275810491E+02 0.  0.
        254    2    1    2    0    0 -0.10664978885E+04  0.19558450600E+03  0.23490835782E+04  0.27523177144E+04  0.93882271939E+03 0.  0.
        -24    2    4    4    0    0 -0.13121717953E+03  0.33020071070E+03  0.12448180102E+04  0.12967014567E+04  0.74915497778E+02 0.  0.
         24    2    4    4    0    0 -0.93528070897E+03 -0.13461620471E+03  0.11042655680E+04  0.14556162576E+04  0.80899429925E+02 0.  0.
         13    1    3    3    0    0  0.63799866735E+02 -0.19756205944E+02 -0.56819037726E+02  0.87687705620E+02  0.00000000000E+00 0. -1.
        -13    1    3    3    0    0  0.10026980218E+04 -0.17582830005E+03 -0.59072873632E+03  0.11769789097E+04  0.00000000000E+00 0.  1.
          4    1    6    6  502    0 -0.82475971547E+03 -0.13977387360E+03  0.95049184890E+03  0.12661753744E+04  0.00000000000E+00 0. -1.
          3    1    5    5  503    0 -0.96104249826E+02  0.30407091258E+03  0.10719993766E+04  0.11184264885E+04  0.00000000000E+00 0. -1.
         -4    1    5    5    0  503 -0.35112929708E+02  0.26129798119E+02  0.17281863362E+03  0.17827496826E+03  0.00000000000E+00 0.  1.
         -3    1    6    6    0  502 -0.11052099350E+03  0.51576688927E+01  0.15377371907E+03  0.18944088320E+03  0.00000000000E+00 0.  1.
<mgrwt>
<rscale>  0 0.36388101E+04</rscale>
<asrwt>0</asrwt>
<pdfrwt beam="1">  1        2 0.43988616E+00 0.36388101E+04</pdfrwt>
<pdfrwt beam="2">  1       -2 0.17811143E+00 0.36388101E+04</pdfrwt>
<totfact> 0.32296794E-01</totfact>
</mgrwt>
</event>
<event>
12    1  0.1494110E-007  0.2013389E+04  0.7818608E-02  0.8600387E-01
         -2   -1    0    0    0  501 -0.00000000000E+00  0.00000000000E+00  0.61023674034E+03  0.61023674034E+03  0.00000000000E+00 0.  1.
          2   -1    0    0  501    0  0.00000000000E+00 -0.00000000000E+00 -0.16607215813E+04  0.16607215813E+04  0.00000000000E+00 0. -1.
         23    2    1    2    0    0  0.75853466708E+03  0.21886947543E+02 -0.13711621713E+03  0.77751810678E+03  0.99396527760E+02 0.  0.
        254    2    1    2    0    0 -0.75853466708E+03 -0.21886947543E+02 -0.91336862388E+03  0.14934402149E+04  0.90568623307E+03 0.  0.
        -24    2    4    4    0    0 -0.50779701035E+03 -0.42700898910E+03 -0.69535131242E+03  0.96438819661E+03  0.79603175717E+02 0.  0.
         24    2    4    4    0    0 -0.25073765673E+03  0.40512204156E+03 -0.21801731146E+03  0.52905201830E+03  0.73288804804E+02 0.  0.
         13    1    3    3    0    0  0.55940195253E+02  0.28220537901E+02 -0.87048820040E+01  0.63257246028E+02  0.00000000000E+00 0. -1.
        -13    1    3    3    0    0  0.70259447183E+03 -0.63335903572E+01 -0.12841133513E+03  0.71426086075E+03  0.00000000000E+00 0.  1.
          2    1    6    6  502    0 -0.98932332004E+02  0.20270332253E+03 -0.71229364143E+02  0.23653723934E+03  0.00000000000E+00 0. -1.
          1    1    5    5  503    0 -0.81106149008E+02 -0.50841679947E+02 -0.13854801961E+03  0.16840023030E+03  0.00000000000E+00 0. -1.
         -2    1    5    5    0  503 -0.42669086134E+03 -0.37616730915E+03 -0.55680329280E+03  0.79598796631E+03  0.00000000000E+00 0.  1.
         -1    1    6    6    0  502 -0.15180532473E+03  0.20241871903E+03 -0.14678794732E+03  0.29251477895E+03  0.00000000000E+00 0.  1.
<mgrwt>
<rscale>  0 0.20133885E+04</rscale>
<asrwt>0</asrwt>
<pdfrwt beam="1">  1        2 0.25549563E+00 0.20133885E+04</pdfrwt>
<pdfrwt beam="2">  1       -2 0.93882575E-01 0.20133885E+04</pdfrwt>
<totfact> 0.91712093E+00</totfact>
</mgrwt>
</event>
<event>
12    1  0.1494110E-007  0.1111642E+04  0.7818608E-02  0.9193918E-01
         -2   -1    0    0    0  501 -0.00000000000E+00  0.00000000000E+00  0.16186881176E+03  0.16186881176E+03  0.00000000000E+00 0. -1.
          2   -1    0    0  501    0  0.00000000000E+00 -0.00000000000E+00 -0.19085653514E+04  0.19085653514E+04  0.00000000000E+00 0.  1.
         23    2    1    2    0    0  0.13552261459E+03 -0.68333278665E+02 -0.10023117512E+03  0.20237928978E+03  0.88742731678E+02 0.  0.
        254    2    1    2    0    0 -0.13552261459E+03  0.68333278665E+02 -0.16464653646E+04  0.18680548734E+04  0.86933595198E+03 0.  0.
        -24    2    4    4    0    0 -0.41143536282E+03  0.29225063979E+03 -0.10790710844E+04  0.11938374511E+04  0.78510891911E+02 0.  0.
         24    2    4    4    0    0  0.27591274822E+03 -0.22391736112E+03 -0.56739428017E+03  0.67421742237E+03  0.79787431429E+02 0.  0.
         13    1    3    3    0    0  0.49850490627E+02 -0.61162881068E+02 -0.83333876386E+02  0.11476281798E+03  0.00000000000E+00 0.  1.
        -13    1    3    3    0    0  0.85672123966E+02 -0.71703975970E+01 -0.16897298737E+02  0.87616471803E+02  0.00000000000E+00 0. -1.
          4    1    6    6  502    0  0.26822709042E+03 -0.20934363475E+03 -0.56182762971E+03  0.65682632023E+03  0.00000000000E+00 0. -1.
          3    1    5    5  503    0 -0.29433633436E+03  0.21569285618E+03 -0.69306963581E+03  0.78326419937E+03  0.00000000000E+00 0. -1.
         -4    1    5    5    0  503 -0.11709902846E+03  0.76557783611E+02 -0.38600144858E+03  0.41057325169E+03  0.00000000000E+00 0.  1.
         -3    1    6    6    0  502  0.76856578024E+01 -0.14573726377E+02 -0.55666504670E+01  0.17391102144E+02  0.00000000000E+00 0.  1.
<mgrwt>
<rscale>  0 0.11116424E+04</rscale>
<asrwt>0</asrwt>
<pdfrwt beam="1">  1        2 0.29362541E+00 0.11116424E+04</pdfrwt>
<pdfrwt beam="2">  1       -2 0.24902897E-01 0.11116424E+04</pdfrwt>
<totfact> 0.10780310E+02</totfact>
</mgrwt>
</event>
<event>
12    1  0.1494110E-007  0.1977530E+04  0.7818608E-02  0.8617199E-01
         -2   -1    0    0    0  501 -0.00000000000E+00  0.00000000000E+00  0.35401101756E+03  0.35401101756E+03  0.00000000000E+00 0.  1.
          2   -1    0    0  501    0  0.00000000000E+00 -0.00000000000E+00 -0.27616548417E+04  0.27616548417E+04  0.00000000000E+00 0. -1.
         23    2    1    2    0    0  0.39839464882E+03  0.66024888723E+03 -0.72830503450E+03  0.10644727987E+04  0.89594791016E+02 0.  0.
        254    2    1    2    0    0 -0.39839464882E+03 -0.66024888723E+03 -0.16793387896E+04  0.20511930605E+04  0.89026249616E+03 0.  0.
        -24    2    4    4    0    0 -0.24747750879E+03  0.18213646510E+03 -0.48837620073E+03  0.58245956330E+03  0.79555139134E+02 0.  0.
         24    2    4    4    0    0 -0.15091714003E+03 -0.84238535233E+03 -0.11909625889E+04  0.14687334972E+04  0.79982078343E+02 0.  0.
         11    1    3    3    0    0  0.22355121099E+03  0.45309841632E+03 -0.47443299126E+03  0.69308006897E+03  0.00000000000E+00 0.  1.
        -11    1    3    3    0    0  0.17484343783E+03  0.20715047091E+03 -0.25387204324E+03  0.37139272972E+03  0.00000000000E+00 0. -1.
          4    1    6    6  502    0 -0.15954858565E+03 -0.75763152738E+03 -0.10666154159E+04  0.13180021729E+04  0.00000000000E+00 0. -1.
          3    1    5    5  503    0 -0.13324689092E+03  0.49231484897E+02 -0.22619701739E+03  0.26710215971E+03  0.00000000000E+00 0. -1.
         -4    1    5    5    0  503 -0.11423061787E+03  0.13290498021E+03 -0.26217918334E+03  0.31535740359E+03  0.00000000000E+00 0.  1.
         -3    1    6    6    0  502  0.86314456216E+01 -0.84753824947E+02 -0.12434717298E+03  0.15073132430E+03  0.00000000000E+00 0.  1.
<mgrwt>
<rscale>  0 0.19775300E+04</rscale>
<asrwt>0</asrwt>
<pdfrwt beam="1">  1        2 0.42486997E+00 0.19775300E+04</pdfrwt>
<pdfrwt beam="2">  1       -2 0.54463234E-01 0.19775300E+04</pdfrwt>
<totfact> 0.72136850E+00</totfact>
</mgrwt>
</event>
<event>
12    1  0.1494110E-007  0.2420391E+04  0.7818608E-02  0.8431909E-01
          2   -1    0    0  501    0  0.00000000000E+00  0.00000000000E+00  0.10106583460E+04  0.10106583460E+04  0.00000000000E+00 0. -1.
         -2   -1    0    0    0  501 -0.00000000000E+00 -0.00000000000E+00 -0.14491276511E+04  0.14491276511E+04  0.00000000000E+00 0.  1.
         23    2    1    2    0    0 -0.70774002394E+03 -0.64054854015E+03  0.23139352769E+03  0.98637264839E+03  0.90496757269E+02 0.  0.
        254    2    1    2    0    0  0.70774002394E+03  0.64054854015E+03 -0.66986283283E+03  0.14734133487E+04  0.90057332166E+03 0.  0.
        -24    2    4    4    0    0  0.34627597478E+03  0.76144740740E+03 -0.20121551725E+03  0.86409864892E+03  0.80433734995E+02 0.  0.
         24    2    4    4    0    0  0.36146404916E+03 -0.12089886726E+03 -0.46864731558E+03  0.60931469983E+03  0.79757771312E+02 0.  0.
         11    1    3    3    0    0 -0.63932609869E+03 -0.53928718488E+03  0.19450461627E+03  0.85872031185E+03  0.00000000000E+00 0.  1.
        -11    1    3    3    0    0 -0.68413925249E+02 -0.10126135527E+03  0.36888911418E+02  0.12765233654E+03  0.00000000000E+00 0. -1.
          4    1    6    6  502    0  0.14190672977E+03 -0.36436733863E+02 -0.12346900349E+03  0.19159788713E+03  0.00000000000E+00 0. -1.
          3    1    5    5  503    0  0.25043965445E+03  0.62755808296E+03 -0.16047247736E+03  0.69447864186E+03  0.00000000000E+00 0. -1.
         -4    1    5    5    0  503  0.95836320332E+02  0.13388932445E+03 -0.40743039894E+02  0.16962000706E+03  0.00000000000E+00 0.  1.
         -3    1    6    6    0  502  0.21955731939E+03 -0.84462133396E+02 -0.34517831209E+03  0.41771681270E+03  0.00000000000E+00 0.  1.
<mgrwt>
<rscale>  0 0.24203908E+04</rscale>
<asrwt>0</asrwt>
<pdfrwt beam="1">  1        2 0.15548590E+00 0.24203908E+04</pdfrwt>
<pdfrwt beam="2">  1       -2 0.22294271E+00 0.24203908E+04</pdfrwt>
<totfact> 0.21072780E+00</totfact>
</mgrwt>
</event>
<event>
12    1  0.4676169E-007  0.2109389E+04  0.7818608E-02  0.8557119E-01
          2   -1    0    0  501    0  0.00000000000E+00  0.00000000000E+00  0.14399222266E+04  0.14399222266E+04  0.00000000000E+00 0.  1.
         -2   -1    0    0    0  501 -0.00000000000E+00 -0.00000000000E+00 -0.77252814306E+03  0.77252814306E+03  0.00000000000E+00 0. -1.
         23    2    1    2    0    0  0.47164055154E+03 -0.21060016062E+03 -0.43107934227E+03  0.67962737441E+03  0.96263862458E+02 0.  0.
        254    2    1    2    0    0 -0.47164055154E+03  0.21060016062E+03  0.10984734258E+04  0.15328229952E+04  0.93600493056E+03 0.  0.
        -24    2    4    4    0    0  0.18357977231E+03 -0.10382177969E+03  0.15880533038E+02  0.22597926036E+03  0.79586054321E+02 0.  0.
         24    2    4    4    0    0 -0.65522032385E+03  0.31442194031E+03  0.10825928927E+04  0.13068437349E+04  0.87511979748E+02 0.  0.
         11    1    3    3    0    0  0.46685529093E+03 -0.19208423659E+03 -0.42390806054E+03  0.65920274606E+03  0.00000000000E+00 0. -1.
        -11    1    3    3    0    0  0.47852606007E+01 -0.18515924032E+02 -0.71712817239E+01  0.20424628353E+02  0.00000000000E+00 0.  1.
          4    1    6    6  502    0 -0.61698234889E+02  0.17472859199E+02  0.60316558341E+02  0.88034426262E+02  0.00000000000E+00 0. -1.
          1    1    5    5  503    0  0.34103781181E+02 -0.21214711323E+02  0.36099817811E+02  0.54003043557E+02  0.00000000000E+00 0. -1.
         -2    1    5    5    0  503  0.14947599113E+03 -0.82607068364E+02 -0.20219284773E+02  0.17197621680E+03  0.00000000000E+00 0.  1.
         -3    1    6    6    0  502 -0.59352208896E+03  0.29694908111E+03  0.10222763344E+04  0.12188093086E+04  0.00000000000E+00 0.  1.
<mgrwt>
<rscale>  0 0.21093890E+04</rscale>
<asrwt>0</asrwt>
<pdfrwt beam="1">  1        2 0.22152650E+00 0.21093890E+04</pdfrwt>
<pdfrwt beam="2">  1       -2 0.11885048E+00 0.21093890E+04</pdfrwt>
<totfact> 0.68774126E+00</totfact>
</mgrwt>
</event>
<event>
12    1  0.1494110E-007  0.1397689E+04  0.7818608E-02  0.8955493E-01
         -2   -1    0    0    0  501 -0.00000000000E+00  0.00000000000E+00  0.14178486783E+03  0.14178486783E+03  0.00000000000E+00 0.  1.
          2   -1    0    0  501    0  0.00000000000E+00 -0.00000000000E+00 -0.34445416850E+04  0.34445416850E+04  0.00000000000E+00 0. -1.
         23    2    1    2    0    0 -0.23261290151E+03  0.30479507041E+03 -0.64660763928E+03  0.75717306694E+03  0.90558363714E+02 0.  0.
        254    2    1    2    0    0  0.23261290151E+03 -0.30479507041E+03 -0.26561491779E+04  0.28291534859E+04  0.89552900265E+03 0.  0.
        -24    2    4    4    0    0 -0.23669368701E+03 -0.16027923907E+03 -0.19070280868E+04  0.19298962875E+04  0.77654496011E+02 0.  0.
         24    2    4    4    0    0  0.46930658852E+03 -0.14451583134E+03 -0.74912109116E+03  0.89925719844E+03  0.79671828122E+02 0.  0.
         13    1    3    3    0    0 -0.23860939555E+03  0.29738807321E+03 -0.61009563727E+03  0.71943783355E+03  0.00000000000E+00 0.  1.
        -13    1    3    3    0    0  0.59964940450E+01  0.74069972016E+01 -0.36512002008E+02  0.37735233390E+02  0.00000000000E+00 0. -1.
          4    1    6    6  502    0  0.26208558754E+03 -0.94934363198E+02 -0.49046039600E+03  0.56413897982E+03  0.00000000000E+00 0. -1.
          3    1    5    5  503    0 -0.74080282093E+02 -0.13243577184E+02 -0.40178279464E+03  0.40876973298E+03  0.00000000000E+00 0. -1.
         -4    1    5    5    0  503 -0.16261340491E+03 -0.14703566189E+03 -0.15052452921E+04  0.15211265545E+04  0.00000000000E+00 0.  1.
         -3    1    6    6    0  502  0.20722100098E+03 -0.49581468142E+02 -0.25866069516E+03  0.33511821862E+03  0.00000000000E+00 0.  1.
<mgrwt>
<rscale>  0 0.13976894E+04</rscale>
<asrwt>0</asrwt>
<pdfrwt beam="1">  1        2 0.52992948E+00 0.13976894E+04</pdfrwt>
<pdfrwt beam="2">  1       -2 0.21813057E-01 0.13976894E+04</pdfrwt>
<totfact> 0.16116328E+01</totfact>
</mgrwt>
</event>
<event>
12    1  0.1494110E-007  0.1565803E+04  0.7818608E-02  0.8841836E-01
          1   -1    0    0  501    0  0.00000000000E+00  0.00000000000E+00  0.32929190932E+03  0.32929190932E+03  0.00000000000E+00 0. -1.
         -1   -1    0    0    0  501 -0.00000000000E+00 -0.00000000000E+00 -0.18613731055E+04  0.18613731055E+04  0.00000000000E+00 0.  1.
         23    2    1    2    0    0 -0.92300594391E+02  0.18222576249E+03 -0.12124011680E+04  0.12328915119E+04  0.91538297287E+02 0.  0.
        254    2    1    2    0    0  0.92300594391E+02 -0.18222576249E+03 -0.31968002826E+03  0.95777350293E+03  0.87943682787E+03 0.  0.
        -24    2    4    4    0    0  0.21494984730E+03  0.10865271941E+03 -0.51779365918E+03  0.57663554916E+03  0.79933927578E+02 0.  0.
         24    2    4    4    0    0 -0.12264925291E+03 -0.29087848190E+03  0.19811363092E+03  0.38113795377E+03  0.79774673768E+02 0.  0.
         11    1    3    3    0    0 -0.46663135761E+02  0.11194273906E+03 -0.94275269376E+03  0.95052157611E+03  0.00000000000E+00 0.  1.
        -11    1    3    3    0    0 -0.45637458630E+02  0.70283023426E+02 -0.26964847421E+03  0.28236993582E+03  0.00000000000E+00 0. -1.
          4    1    6    6  502    0 -0.10051998791E+03 -0.27989154915E+03  0.16589220104E+03  0.34053453514E+03  0.00000000000E+00 0. -1.
          3    1    5    5  503    0  0.21193253442E+03  0.11240460801E+03 -0.51892179547E+03  0.57169049744E+03  0.00000000000E+00 0. -1.
         -4    1    5    5    0  503  0.30173128829E+01 -0.37518885972E+01  0.11281362876E+01  0.49450517249E+01  0.00000000000E+00 0.  1.
         -3    1    6    6    0  502 -0.22129265004E+02 -0.10986932744E+02  0.32221429883E+02  0.40603418630E+02  0.00000000000E+00 0.  1.
<mgrwt>
<rscale>  0 0.15658034E+04</rscale>
<asrwt>0</asrwt>
<pdfrwt beam="1">  1        1 0.50660295E-01 0.15658034E+04</pdfrwt>
<pdfrwt beam="2">  1       -1 0.28636509E+00 0.15658034E+04</pdfrwt>
<totfact> 0.30273346E+00</totfact>
</mgrwt>
</event>
<event>
12    1  0.1494110E-007  0.1277972E+04  0.7818608E-02  0.9047218E-01
         -2   -1    0    0    0  501 -0.00000000000E+00  0.00000000000E+00  0.49699710746E+03  0.49699710746E+03  0.00000000000E+00 0.  1.
          2   -1    0    0  501    0  0.00000000000E+00 -0.00000000000E+00 -0.82153993998E+03  0.82153993998E+03  0.00000000000E+00 0. -1.
         23    2    1    2    0    0  0.22866175368E+03  0.15329500738E+03 -0.24082030696E+03  0.37660069677E+03  0.89711246105E+02 0.  0.
        254    2    1    2    0    0 -0.22866175368E+03 -0.15329500738E+03 -0.83722525568E+02  0.94193635067E+03  0.89691084872E+03 0.  0.
        -24    2    4    4    0    0  0.20428355231E+03  0.17280787185E+03  0.18147691116E+03  0.33312587398E+03  0.80278566973E+02 0.  0.
         24    2    4    4    0    0 -0.43294530599E+03 -0.32610287924E+03 -0.26519943673E+03  0.60881047669E+03  0.80837673519E+02 0.  0.
         11    1    3    3    0    0  0.22265922780E+03  0.11913757722E+03 -0.19457059344E+03  0.31879242441E+03  0.00000000000E+00 0. -1.
        -11    1    3    3    0    0  0.60025258796E+01  0.34157430162E+02 -0.46249713521E+02  0.57808272358E+02  0.00000000000E+00 0.  1.
          2    1    6    6  502    0 -0.26488436542E+02 -0.33664491656E+02 -0.14336315533E+01  0.42860127956E+02  0.00000000000E+00 0. -1.
          3    1    5    5  503    0  0.12096914482E+03  0.50022520612E+02  0.81400455108E+02  0.15414869658E+03  0.00000000000E+00 0. -1.
         -4    1    5    5    0  503  0.83314407492E+02  0.12278535124E+03  0.10007645605E+03  0.17897717740E+03  0.00000000000E+00 0.  1.
         -1    1    6    6    0  502 -0.40645686944E+03 -0.29243838758E+03 -0.26376580518E+03  0.56595034873E+03  0.00000000000E+00 0.  1.
<mgrwt>
<rscale>  0 0.12779718E+04</rscale>
<asrwt>0</asrwt>
<pdfrwt beam="1">  1        2 0.12639076E+00 0.12779718E+04</pdfrwt>
<pdfrwt beam="2">  1       -2 0.76461094E-01 0.12779718E+04</pdfrwt>
<totfact> 0.49937446E+01</totfact>
</mgrwt>
</event>
<event>
12    1  0.1494110E-007  0.1791700E+04  0.7818608E-02  0.8710726E-01
          1   -1    0    0  501    0  0.00000000000E+00  0.00000000000E+00  0.75906994192E+03  0.75906994192E+03  0.00000000000E+00 0.  1.
         -1   -1    0    0    0  501 -0.00000000000E+00 -0.00000000000E+00 -0.10572775251E+04  0.10572775251E+04  0.00000000000E+00 0. -1.
         23    2    1    2    0    0 -0.10113900229E+03 -0.15097710077E+03  0.56295571093E+03  0.59860117905E+03  0.91548109516E+02 0.  0.
        254    2    1    2    0    0  0.10113900229E+03  0.15097710077E+03 -0.86116329410E+03  0.12177462880E+04  0.84159409455E+03 0.  0.
        -24    2    4    4    0    0  0.12206369527E+03 -0.33321779540E+03 -0.29173804580E+03  0.46575834921E+03  0.76720972448E+02 0.  0.
         24    2    4    4    0    0 -0.20924692980E+02  0.48419489617E+03 -0.56942524831E+03  0.75198793875E+03  0.79738361958E+02 0.  0.
         13    1    3    3    0    0 -0.38197730316E+02  0.17520132419E+01  0.11120940498E+03  0.11759960845E+03  0.00000000000E+00 0. -1.
        -13    1    3    3    0    0 -0.62941271972E+02 -0.15272911401E+03  0.45174630595E+03  0.48100157060E+03  0.00000000000E+00 0.  1.
          2    1    6    6  502    0  0.77996491474E+00  0.45310011937E+03 -0.53012764754E+03  0.69737769480E+03  0.00000000000E+00 0. -1.
          1    1    5    5  503    0  0.45305084435E+02 -0.18802737814E+03 -0.11742219498E+03  0.22626271782E+03  0.00000000000E+00 0. -1.
         -2    1    5    5    0  503  0.76758610833E+02 -0.14519041727E+03 -0.17431585082E+03  0.23949563138E+03  0.00000000000E+00 0.  1.
         -1    1    6    6    0  502 -0.21704657895E+02  0.31094776795E+02 -0.39297600769E+02  0.54610243952E+02  0.00000000000E+00 0.  1.
<mgrwt>
<rscale>  0 0.17917004E+04</rscale>
<asrwt>0</asrwt>
<pdfrwt beam="1">  1        1 0.11677999E+00 0.17917004E+04</pdfrwt>
<pdfrwt beam="2">  1       -1 0.16265808E+00 0.17917004E+04</pdfrwt>
<totfact> 0.63330926E+00</totfact>
</mgrwt>
</event>
<event>
12    1  0.1494110E-007  0.2381805E+04  0.7818608E-02  0.8446347E-01
          2   -1    0    0  501    0  0.00000000000E+00  0.00000000000E+00  0.23188065584E+04  0.23188065584E+04  0.00000000000E+00 0.  1.
         -2   -1    0    0    0  501 -0.00000000000E+00 -0.00000000000E+00 -0.61162852259E+03  0.61162852259E+03  0.00000000000E+00 0. -1.
         23    2    1    2    0    0 -0.53905521524E+02  0.97164770728E+03  0.10971637177E+04  0.14691526193E+04  0.87384913976E+02 0.  0.
        254    2    1    2    0    0  0.53905521524E+02 -0.97164770728E+03  0.61001431809E+03  0.14612824616E+04  0.90345110109E+03 0.  0.
        -24    2    4    4    0    0 -0.19736250913E+03 -0.90722838281E+03  0.17474823680E+03  0.94834014171E+03  0.82442583163E+02 0.  0.
         24    2    4    4    0    0  0.25126803066E+03 -0.64419324465E+02  0.43526608129E+03  0.51294231991E+03  0.79798430075E+02 0.  0.
         11    1    3    3    0    0 -0.11810363032E+02  0.35468894199E+02  0.65402537900E+02  0.75332722601E+02  0.00000000000E+00 0. -1.
        -11    1    3    3    0    0 -0.42095158492E+02  0.93617881308E+03  0.10317611798E+04  0.13938198967E+04  0.00000000000E+00 0.  1.
          2    1    6    6  502    0  0.11074848687E+03 -0.67878665613E+02  0.23035288375E+03  0.26445262646E+03  0.00000000000E+00 0. -1.
          3    1    5    5  503    0 -0.25228356283E+02 -0.14562111931E+03 -0.18466300016E+01  0.14780186194E+03  0.00000000000E+00 0. -1.
         -4    1    5    5    0  503 -0.17213415285E+03 -0.76160726350E+03  0.17659486680E+03  0.80053827976E+03  0.00000000000E+00 0.  1.
         -1    1    6    6    0  502  0.14051954378E+03  0.34593411477E+01  0.20491319754E+03  0.24848969346E+03  0.00000000000E+00 0.  1.
<mgrwt>
<rscale>  0 0.23818046E+04</rscale>
<asrwt>0</asrwt>
<pdfrwt beam="1">  1        2 0.35673947E+00 0.23818046E+04</pdfrwt>
<pdfrwt beam="2">  1       -2 0.94096697E-01 0.23818046E+04</pdfrwt>
<totfact> 0.37960090E+00</totfact>
</mgrwt>
</event>
<event>
12    1  0.1494110E-007  0.2054241E+04  0.7818608E-02  0.8581673E-01
          2   -1    0    0  501    0  0.00000000000E+00  0.00000000000E+00  0.36652219712E+04  0.36652219712E+04  0.00000000000E+00 0. -1.
         -2   -1    0    0    0  501 -0.00000000000E+00 -0.00000000000E+00 -0.28783435970E+03  0.28783435970E+03  0.00000000000E+00 0.  1.
         23    2    1    2    0    0 -0.17783320971E+03 -0.75766636731E+03  0.19188481298E+04  0.20727223375E+04  0.92286340005E+02 0.  0.
        254    2    1    2    0    0  0.17783320971E+03  0.75766636731E+03  0.14585394817E+04  0.18803339934E+04  0.89589928697E+03 0.  0.
        -24    2    4    4    0    0  0.53091624632E+03  0.48110547168E+03  0.76974661916E+03  0.10544900121E+04  0.78133170513E+02 0.  0.
         24    2    4    4    0    0 -0.35308303661E+03  0.27656089564E+03  0.68879286253E+03  0.82584398133E+03  0.80181757802E+02 0.  0.
         13    1    3    3    0    0 -0.51361372277E+02 -0.19917534872E+03  0.62047455766E+03  0.65367995747E+03  0.00000000000E+00 0. -1.
        -13    1    3    3    0    0 -0.12647183743E+03 -0.55849101860E+03  0.12983735722E+04  0.14190423801E+04  0.00000000000E+00 0.  1.
          4    1    6    6  502    0 -0.26556503259E+03  0.16182356488E+03  0.45585404947E+03  0.55182838555E+03  0.00000000000E+00 0. -1.
          3    1    5    5  503    0  0.11860420061E+03  0.14330215989E+03  0.23155573677E+03  0.29701940116E+03  0.00000000000E+00 0. -1.
         -4    1    5    5    0  503  0.41231204571E+03  0.33780331179E+03  0.53819088239E+03  0.75747061090E+03  0.00000000000E+00 0.  1.
         -3    1    6    6    0  502 -0.87518004022E+02  0.11473733076E+03  0.23293881306E+03  0.27401559577E+03  0.00000000000E+00 0.  1.
<mgrwt>
<rscale>  0 0.20542413E+04</rscale>
<asrwt>0</asrwt>
<pdfrwt beam="1">  1        2 0.56388027E+00 0.20542413E+04</pdfrwt>
<pdfrwt beam="2">  1       -2 0.44282212E-01 0.20542413E+04</pdfrwt>
<totfact> 0.27872516E+00</totfact>
</mgrwt>
</event>
<event>
12    1  0.1494110E-007  0.1437900E+04  0.7818608E-02  0.8926832E-01
         -2   -1    0    0    0  501 -0.00000000000E+00  0.00000000000E+00  0.17505957889E+03  0.17505957889E+03  0.00000000000E+00 0.  1.
          2   -1    0    0  501    0  0.00000000000E+00 -0.00000000000E+00 -0.29526488253E+04  0.29526488253E+04  0.00000000000E+00 0. -1.
         23    2    1    2    0    0 -0.24925835958E+03  0.16280798989E+03 -0.17643879811E+03  0.35822906220E+03  0.92526969765E+02 0.  0.
        254    2    1    2    0    0  0.24925835958E+03 -0.16280798989E+03 -0.26011504483E+04  0.27694793419E+04  0.90299280155E+03 0.  0.
        -24    2    4    4    0    0  0.16890664287E+03  0.24987121063E+03 -0.20387914732E+04  0.20625478161E+04  0.80422300767E+02 0.  0.
         24    2    4    4    0    0  0.80351716708E+02 -0.41267920053E+03 -0.56235897500E+03  0.70693152583E+03  0.82122131755E+02 0.  0.
         13    1    3    3    0    0 -0.34000217300E+02  0.59202711573E+02 -0.66308385976E+02  0.95172358828E+02  0.00000000000E+00 0. -1.
        -13    1    3    3    0    0 -0.21525814228E+03  0.10360527832E+03 -0.11013041214E+03  0.26305670337E+03  0.00000000000E+00 0.  1.
          2    1    6    6  502    0  0.64274867863E+02 -0.31506960242E+03 -0.36692805217E+03  0.48788964785E+03  0.00000000000E+00 0. -1.
          1    1    5    5  503    0  0.14418806384E+03  0.14536646410E+03 -0.13435860836E+04  0.13590971895E+04  0.00000000000E+00 0. -1.
         -2    1    5    5    0  503  0.24718579024E+02  0.10450474653E+03 -0.69520538967E+03  0.70345062657E+03  0.00000000000E+00 0.  1.
         -1    1    6    6    0  502  0.16076848844E+02 -0.97609598103E+02 -0.19543092283E+03  0.21904187798E+03  0.00000000000E+00 0.  1.
<mgrwt>
<rscale>  0 0.14379005E+04</rscale>
<asrwt>0</asrwt>
<pdfrwt beam="1">  1        2 0.45425368E+00 0.14379005E+04</pdfrwt>
<pdfrwt beam="2">  1       -2 0.26932242E-01 0.14379005E+04</pdfrwt>
<totfact> 0.22833377E+01</totfact>
</mgrwt>
</event>
<event>
12    1  0.1494110E-007  0.1236004E+04  0.7818608E-02  0.9081914E-01
         -2   -1    0    0    0  501 -0.00000000000E+00  0.00000000000E+00  0.11662118087E+04  0.11662118087E+04  0.00000000000E+00 0.  1.
          2   -1    0    0  501    0  0.00000000000E+00 -0.00000000000E+00 -0.32749296974E+03  0.32749296974E+03  0.00000000000E+00 0. -1.
         23    2    1    2    0    0  0.93329638133E+02  0.43505747735E+02  0.48620741548E+03  0.50490288828E+03  0.89028671157E+02 0.  0.
        254    2    1    2    0    0 -0.93329638133E+02 -0.43505747735E+02  0.35251142348E+03  0.98880189015E+03  0.91807499848E+03 0.  0.
        -24    2    4    4    0    0  0.55743071841E+02  0.27441212356E+03  0.51661739465E+03  0.59319195094E+03  0.81079310476E+02 0.  0.
         24    2    4    4    0    0 -0.14907270997E+03 -0.31791787130E+03 -0.16410597117E+03  0.39560993921E+03  0.79259122361E+02 0.  0.
         11    1    3    3    0    0  0.16766996535E+02 -0.23949462833E+02  0.61293932658E+02  0.67909168184E+02  0.00000000000E+00 0. -1.
        -11    1    3    3    0    0  0.76562641598E+02  0.67455210568E+02  0.42491348282E+03  0.43699372010E+03  0.00000000000E+00 0.  1.
          4    1    6    6  502    0 -0.62613678195E+02 -0.12870318926E+03 -0.24839666120E+02  0.14526524923E+03  0.00000000000E+00 0. -1.
          3    1    5    5  503    0  0.45219434235E+02  0.13300781453E+03  0.18310672378E+03  0.23078983568E+03  0.00000000000E+00 0. -1.
         -4    1    5    5    0  503  0.10523637607E+02  0.14140430903E+03  0.33351067087E+03  0.36240211526E+03  0.00000000000E+00 0.  1.
         -3    1    6    6    0  502 -0.86459031780E+02 -0.18921468204E+03 -0.13926630505E+03  0.25034468997E+03  0.00000000000E+00 0.  1.
<mgrwt>
<rscale>  0 0.12360035E+04</rscale>
<asrwt>0</asrwt>
<pdfrwt beam="1">  1        2 0.50383534E-01 0.12360035E+04</pdfrwt>
<pdfrwt beam="2">  1       -2 0.17941720E+00 0.12360035E+04</pdfrwt>
<totfact> 0.17914798E+01</totfact>
</mgrwt>
</event>
<event>
12    1  0.1494110E-007  0.1829436E+04  0.7818608E-02  0.8690800E-01
          2   -1    0    0  501    0  0.00000000000E+00  0.00000000000E+00  0.24185903895E+04  0.24185903895E+04  0.00000000000E+00 0.  1.
         -2   -1    0    0    0  501 -0.00000000000E+00 -0.00000000000E+00 -0.34594921322E+03  0.34594921322E+03  0.00000000000E+00 0. -1.
         23    2    1    2    0    0  0.61531452981E+03  0.28860742092E+03  0.59723916779E+03  0.90926056779E+03  0.90299183807E+02 0.  0.
        254    2    1    2    0    0 -0.61531452981E+03 -0.28860742092E+03  0.14754020085E+04  0.18552790349E+04  0.89629403477E+03 0.  0.
        -24    2    4    4    0    0 -0.49927436457E+03 -0.17068474612E+03  0.20513323835E+03  0.57178482415E+03  0.80312302811E+02 0.  0.
         24    2    4    4    0    0 -0.11604016524E+03 -0.11792267480E+03  0.12702687701E+04  0.12834942108E+04  0.80022268731E+02 0.  0.
         11    1    3    3    0    0  0.42040788961E+03  0.24244687167E+03  0.42410693342E+03  0.64450754084E+03  0.00000000000E+00 0.  1.
        -11    1    3    3    0    0  0.19490664020E+03  0.46160549247E+02  0.17313223437E+03  0.26475302695E+03  0.00000000000E+00 0. -1.
          2    1    6    6  502    0 -0.84719788889E+02 -0.12413660868E+03  0.97694641322E+03  0.98843898878E+03  0.00000000000E+00 0. -1.
          1    1    5    5  503    0 -0.27040344784E+03 -0.50214886216E+02  0.10978768039E+03  0.29612986031E+03  0.00000000000E+00 0. -1.
         -2    1    5    5    0  503 -0.22887091673E+03 -0.12046985990E+03  0.95345557957E+02  0.27565496385E+03  0.00000000000E+00 0.  1.
         -1    1    6    6    0  502 -0.31320376352E+02  0.62139338831E+01  0.29332235693E+03  0.29505522199E+03  0.00000000000E+00 0.  1.
<mgrwt>
<rscale>  0 0.18294365E+04</rscale>
<asrwt>0</asrwt>
<pdfrwt beam="1">  1        2 0.37209082E+00 0.18294365E+04</pdfrwt>
<pdfrwt beam="2">  1       -2 0.53222957E-01 0.18294365E+04</pdfrwt>
<totfact> 0.12169008E+01</totfact>
</mgrwt>
</event>
<event>
12    1  0.1494110E-007  0.1931247E+04  0.7818608E-02  0.8639457E-01
         -1   -1    0    0    0  501 -0.00000000000E+00  0.00000000000E+00  0.36673821459E+03  0.36673821459E+03  0.00000000000E+00 0.  1.
          1   -1    0    0  501    0  0.00000000000E+00 -0.00000000000E+00 -0.25424904666E+04  0.25424904666E+04  0.00000000000E+00 0. -1.
         23    2    1    2    0    0 -0.85581148716E+01 -0.64084097876E+02  0.27441257373E+03  0.29640915815E+03  0.91521120402E+02 0.  0.
        254    2    1    2    0    0  0.85581148716E+01  0.64084097876E+02 -0.24501648258E+04  0.26128195231E+04  0.90517300765E+03 0.  0.
        -24    2    4    4    0    0 -0.75540657700E+02 -0.33807172876E+03 -0.18302902556E+04  0.18646254421E+04  0.82865764509E+02 0.  0.
         24    2    4    4    0    0  0.84098772572E+02  0.40215582664E+03 -0.61987457019E+03  0.74819408096E+03  0.82146135468E+02 0.  0.
         13    1    3    3    0    0 -0.31138622557E+02  0.95445093535E+01  0.55565499625E+02  0.64406802608E+02  0.00000000000E+00 0. -1.
        -13    1    3    3    0    0  0.22580507686E+02 -0.73628607230E+02  0.21884707411E+03  0.23200235554E+03  0.00000000000E+00 0.  1.
          4    1    6    6  502    0  0.97334754932E+02  0.38608090521E+03 -0.58961503290E+03  0.71146216126E+03  0.00000000000E+00 0. -1.
          1    1    5    5  503    0  0.46737053594E+01 -0.12003365289E+03 -0.50212692613E+03  0.51629581762E+03  0.00000000000E+00 0. -1.
         -2    1    5    5    0  503 -0.80214363060E+02 -0.21803807587E+03 -0.13281633295E+04  0.13483296245E+04  0.00000000000E+00 0.  1.
         -3    1    6    6    0  502 -0.13235982361E+02  0.16074921434E+02 -0.30259537291E+02  0.36731919705E+02  0.00000000000E+00 0.  1.
<mgrwt>
<rscale>  0 0.19312467E+04</rscale>
<asrwt>0</asrwt>
<pdfrwt beam="1">  1        1 0.39115239E+00 0.19312467E+04</pdfrwt>
<pdfrwt beam="2">  1       -1 0.56421262E-01 0.19312467E+04</pdfrwt>
<totfact> 0.37572770E+00</totfact>
</mgrwt>
</event>
<event>
12    1  0.1494110E-007  0.2066959E+04  0.7818608E-02  0.8575940E-01
          2   -1    0    0  501    0  0.00000000000E+00  0.00000000000E+00  0.70905001770E+03  0.70905001770E+03  0.00000000000E+00 0. -1.
         -2   -1    0    0    0  501 -0.00000000000E+00 -0.00000000000E+00 -0.15063532337E+04  0.15063532337E+04  0.00000000000E+00 0.  1.
         23    2    1    2    0    0 -0.18595402680E+03  0.81849200088E+01  0.52755127141E+03  0.56690386093E+03  0.91780992414E+02 0.  0.
        254    2    1    2    0    0  0.18595402680E+03 -0.81849200088E+01 -0.13248544874E+04  0.16484993905E+04  0.96315364018E+03 0.  0.
        -24    2    4    4    0    0  0.52814684130E+03  0.18556045228E+03 -0.62823878851E+03  0.84530325928E+03  0.80509982854E+02 0.  0.
         24    2    4    4    0    0 -0.34219281450E+03 -0.19374537229E+03 -0.69661569894E+03  0.80319613123E+03  0.72231583350E+02 0.  0.
         13    1    3    3    0    0 -0.19533793870E+03  0.11993672743E+02  0.48151364484E+03  0.51976547466E+03  0.00000000000E+00 0. -1.
        -13    1    3    3    0    0  0.93839118937E+01 -0.38087527344E+01  0.46037626571E+02  0.47138386269E+02  0.00000000000E+00 0.  1.
          4    1    6    6  502    0 -0.29186649583E+03 -0.17811554457E+03 -0.64154511072E+03  0.72697409011E+03  0.00000000000E+00 0. -1.
          3    1    5    5  503    0  0.42982495916E+03  0.13547107551E+03 -0.45892555609E+03  0.64320647839E+03  0.00000000000E+00 0. -1.
         -4    1    5    5    0  503  0.98321882144E+02  0.50089376765E+02 -0.16931323242E+03  0.20209678089E+03  0.00000000000E+00 0.  1.
         -3    1    6    6    0  502 -0.50326318666E+02 -0.15629827716E+02 -0.55070588223E+02  0.76222041117E+02  0.00000000000E+00 0.  1.
<mgrwt>
<rscale>  0 0.20669589E+04</rscale>
<asrwt>0</asrwt>
<pdfrwt beam="1">  1        2 0.10908462E+00 0.20669589E+04</pdfrwt>
<pdfrwt beam="2">  1       -2 0.23174665E+00 0.20669589E+04</pdfrwt>
<totfact> 0.31041665E+00</totfact>
</mgrwt>
</event>
<event>
12    1  0.1494110E-007  0.1584369E+04  0.7818608E-02  0.8830209E-01
          1   -1    0    0  501    0  0.00000000000E+00  0.00000000000E+00  0.39856587141E+03  0.39856587141E+03  0.00000000000E+00 0. -1.
         -1   -1    0    0    0  501 -0.00000000000E+00 -0.00000000000E+00 -0.15745351818E+04  0.15745351818E+04  0.00000000000E+00 0.  1.
         23    2    1    2    0    0 -0.71430997054E+02 -0.40089112100E+03  0.22635390238E+02  0.41788431398E+03  0.91098083081E+02 0.  0.
        254    2    1    2    0    0  0.71430997054E+02  0.40089112100E+03 -0.11986047006E+04  0.15552167392E+04  0.90345437039E+03 0.  0.
        -24    2    4    4    0    0 -0.16872389956E+03 -0.12177534018E+03  0.11594540162E+01  0.22261409103E+03  0.79111955069E+02 0.  0.
         24    2    4    4    0    0  0.24015489661E+03  0.52266646118E+03 -0.11997641546E+04  0.13326026482E+04  0.74439151121E+02 0.  0.
         13    1    3    3    0    0 -0.61047435360E+02 -0.23943741797E+03 -0.27214169985E+02  0.24859138669E+03  0.00000000000E+00 0.  1.
        -13    1    3    3    0    0 -0.10383561694E+02 -0.16145370303E+03  0.49849560223E+02  0.16929292729E+03  0.00000000000E+00 0. -1.
          4    1    6    6  502    0  0.54268231305E+02  0.62299374471E+02 -0.14655915879E+03  0.16824339516E+03  0.00000000000E+00 0. -1.
          1    1    5    5  503    0  0.68589671937E+01 -0.11514998724E+02 -0.70008406642E+01  0.15121256448E+02  0.00000000000E+00 0. -1.
         -2    1    5    5    0  503 -0.17558286675E+03 -0.11026034145E+03  0.81602946804E+01  0.20749283458E+03  0.00000000000E+00 0.  1.
         -3    1    6    6    0  502  0.18588666530E+03  0.46036708671E+03 -0.10532049958E+04  0.11643592530E+04  0.00000000000E+00 0.  1.
<mgrwt>
<rscale>  0 0.15843686E+04</rscale>
<asrwt>0</asrwt>
<pdfrwt beam="1">  1        1 0.61317826E-01 0.15843686E+04</pdfrwt>
<pdfrwt beam="2">  1       -1 0.24223618E+00 0.15843686E+04</pdfrwt>
<totfact> 0.45407509E+00</totfact>
</mgrwt>
</event>
<event>
12    1  0.1494110E-007  0.2056702E+04  0.7818608E-02  0.8580560E-01
          2   -1    0    0  501    0  0.00000000000E+00  0.00000000000E+00  0.20519283889E+04  0.20519283889E+04  0.00000000000E+00 0.  1.
         -2   -1    0    0    0  501 -0.00000000000E+00 -0.00000000000E+00 -0.51537163040E+03  0.51537163040E+03  0.00000000000E+00 0. -1.
         23    2    1    2    0    0 -0.78522710086E+03  0.14258362711E+03  0.88264723307E+03  0.11934127489E+04  0.90863416516E+02 0.  0.
        254    2    1    2    0    0  0.78522710086E+03 -0.14258362711E+03  0.65390952540E+03  0.13738872704E+04  0.90722481984E+03 0.  0.
        -24    2    4    4    0    0  0.21354679545E+03 -0.41421142352E+03  0.55429406992E+03  0.72837262041E+03  0.78175577972E+02 0.  0.
         24    2    4    4    0    0  0.57168030540E+03  0.27162779642E+03  0.99615455480E+02  0.64551464999E+03  0.78523200459E+02 0.  0.
         11    1    3    3    0    0 -0.68700117395E+03  0.12637622307E+03  0.81322778889E+03  0.10720452413E+04  0.00000000000E+00 0.  1.
        -11    1    3    3    0    0 -0.98225926904E+02  0.16207404035E+02  0.69419444183E+02  0.12136750756E+03  0.00000000000E+00 0. -1.
          2    1    6    6  502    0  0.41034645111E+03  0.16273357150E+03  0.47310746700E+02  0.44396478687E+03  0.00000000000E+00 0. -1.
          1    1    5    5  503    0  0.20414214230E+03 -0.41379769619E+03  0.55030355196E+03  0.71814799793E+03  0.00000000000E+00 0. -1.
         -2    1    5    5    0  503  0.94046531528E+01 -0.41372732845E+00  0.39905179653E+01  0.10224622480E+02  0.00000000000E+00 0.  1.
         -3    1    6    6    0  502  0.16133385429E+03  0.10889422492E+03  0.52304708780E+02  0.20154986312E+03  0.00000000000E+00 0.  1.
<mgrwt>
<rscale>  0 0.20567019E+04</rscale>
<asrwt>0</asrwt>
<pdfrwt beam="1">  1        2 0.31568129E+00 0.20567019E+04</pdfrwt>
<pdfrwt beam="2">  1       -2 0.79287944E-01 0.20567019E+04</pdfrwt>
<totfact> 0.81520303E+00</totfact>
</mgrwt>
</event>
<event>
12    1  0.1494110E-007  0.2191511E+04  0.7818608E-02  0.8521970E-01
         -2   -1    0    0    0  501 -0.00000000000E+00  0.00000000000E+00  0.29758360610E+03  0.29758360610E+03  0.00000000000E+00 0.  1.
          2   -1    0    0  501    0  0.00000000000E+00 -0.00000000000E+00 -0.40347647874E+04  0.40347647874E+04  0.00000000000E+00 0. -1.
         23    2    1    2    0    0 -0.57179535756E+03  0.66296697799E+03 -0.19967139020E+04  0.21821461355E+04  0.91761676596E+02 0.  0.
        254    2    1    2    0    0  0.57179535756E+03 -0.66296697799E+03 -0.17404672793E+04  0.21502022580E+04  0.90976274670E+03 0.  0.
        -24    2    4    4    0    0  0.19166447035E+03 -0.67329686805E+03 -0.53812921085E+03  0.88662668495E+03  0.80373435731E+02 0.  0.
         24    2    4    4    0    0  0.38013088721E+03  0.10329890059E+02 -0.12023380684E+04  0.12635755731E+04  0.80001250030E+02 0.  0.
         11    1    3    3    0    0 -0.32062778154E+03  0.34756094650E+03 -0.97059421462E+03  0.10796545351E+04  0.00000000000E+00 0. -1.
        -11    1    3    3    0    0 -0.25116757603E+03  0.31540603150E+03 -0.10261196874E+04  0.11024916004E+04  0.00000000000E+00 0.  1.
          4    1    6    6  502    0  0.32869440025E+03  0.62379076442E+00 -0.11075446276E+04  0.11552902233E+04  0.00000000000E+00 0. -1.
          3    1    5    5  503    0  0.18738654006E+03 -0.66566018925E+03 -0.51599828757E+03  0.86282758170E+03  0.00000000000E+00 0. -1.
         -4    1    5    5    0  503  0.42779302864E+01 -0.76366787959E+01 -0.22130923277E+02  0.23799103253E+02  0.00000000000E+00 0.  1.
         -3    1    6    6    0  502  0.51436486960E+02  0.97060992942E+01 -0.94793440834E+02  0.10828534979E+03  0.00000000000E+00 0.  1.
<mgrwt>
<rscale>  0 0.21915108E+04</rscale>
<asrwt>0</asrwt>
<pdfrwt beam="1">  1        2 0.62073301E+00 0.21915108E+04</pdfrwt>
<pdfrwt beam="2">  1       -2 0.45782096E-01 0.21915108E+04</pdfrwt>
<totfact> 0.13364347E+00</totfact>
</mgrwt>
</event>
<event>
12    1  0.1494110E-007  0.1502842E+04  0.7818608E-02  0.8882565E-01
         -2   -1    0    0    0  501 -0.00000000000E+00  0.00000000000E+00  0.24581002180E+03  0.24581002180E+03  0.00000000000E+00 0.  1.
          2   -1    0    0  501    0  0.00000000000E+00 -0.00000000000E+00 -0.22970310560E+04  0.22970310560E+04  0.00000000000E+00 0. -1.
         23    2    1    2    0    0 -0.18846034279E+03  0.35153350394E+03 -0.22004526510E+03  0.46462824862E+03  0.91467948082E+02 0.  0.
        254    2    1    2    0    0  0.18846034279E+03 -0.35153350394E+03 -0.18311757691E+04  0.20782128292E+04  0.89814851826E+03 0.  0.
        -24    2    4    4    0    0  0.32761002246E+03 -0.23053295416E+03 -0.18327942677E+04  0.18777098987E+04  0.78650278089E+02 0.  0.
         24    2    4    4    0    0 -0.13914967967E+03 -0.12100054977E+03  0.16184986555E+01  0.20050293042E+03  0.78708571130E+02 0.  0.
         11    1    3    3    0    0 -0.66061885561E+02  0.49217372786E+02 -0.33808460209E+02  0.89047933662E+02  0.00000000000E+00 0. -1.
        -11    1    3    3    0    0 -0.12239845722E+03  0.30231613115E+03 -0.18623680489E+03  0.37558031496E+03  0.00000000000E+00 0.  1.
          4    1    6    6  502    0 -0.14579344304E+03 -0.11676327614E+03 -0.93226252695E+01  0.18701952312E+03  0.00000000000E+00 0. -1.
          1    1    5    5  503    0  0.24783003647E+03 -0.16120531643E+03 -0.11834500146E+04  0.12198199941E+04  0.00000000000E+00 0. -1.
         -4    1    5    5    0  503  0.79779985985E+02 -0.69327637737E+02 -0.64934425317E+03  0.65788990466E+03  0.00000000000E+00 0.  1.
         -3    1    6    6    0  502  0.66437633648E+01 -0.42372736361E+01  0.10941123925E+02  0.13483407294E+02  0.00000000000E+00 0.  1.
<mgrwt>
<rscale>  0 0.15028416E+04</rscale>
<asrwt>0</asrwt>
<pdfrwt beam="1">  1        2 0.35338938E+00 0.15028416E+04</pdfrwt>
<pdfrwt beam="2">  1       -2 0.37816928E-01 0.15028416E+04</pdfrwt>
<totfact> 0.29054768E+01</totfact>
</mgrwt>
</event>
<event>
12    1  0.1494110E-007  0.2024563E+04  0.7818608E-02  0.8595222E-01
          2   -1    0    0  501    0  0.00000000000E+00  0.00000000000E+00  0.22926671668E+04  0.22926671668E+04  0.00000000000E+00 0. -1.
         -2   -1    0    0    0  501 -0.00000000000E+00 -0.00000000000E+00 -0.44695271860E+03  0.44695271860E+03  0.00000000000E+00 0.  1.
         23    2    1    2    0    0 -0.97756693683E+02 -0.16274946359E+03  0.18017340160E+04  0.18140038867E+04  0.91218844131E+02 0.  0.
        254    2    1    2    0    0  0.97756693683E+02  0.16274946359E+03  0.43980432230E+02  0.92561599872E+03  0.90486846536E+03 0.  0.
        -24    2    4    4    0    0 -0.37809793428E+03  0.20841349814E+03  0.49504471068E+01  0.43902719445E+03  0.79537012943E+02 0.  0.
         24    2    4    4    0    0  0.47585462796E+03 -0.45664034549E+02  0.39029985123E+02  0.48658880426E+03  0.81990814670E+02 0.  0.
         13    1    3    3    0    0 -0.10666382118E+03 -0.10234043596E+03  0.11626263387E+04  0.11719858101E+04  0.00000000000E+00 0. -1.
        -13    1    3    3    0    0  0.89071274954E+01 -0.60409027635E+02  0.63910767725E+03  0.64201807659E+03  0.00000000000E+00 0.  1.
          4    1    6    6  502    0  0.34243577051E+03 -0.69624575950E+01  0.80668899659E+00  0.34250749406E+03  0.00000000000E+00 0. -1.
          3    1    5    5  503    0 -0.28435933306E+03  0.11699641653E+03  0.13769752212E+02  0.30779538310E+03  0.00000000000E+00 0. -1.
         -2    1    5    5    0  503 -0.93738601218E+02  0.91417081614E+02 -0.88193051054E+01  0.13123181136E+03  0.00000000000E+00 0.  1.
         -3    1    6    6    0  502  0.13341885745E+03 -0.38701576954E+02  0.38223296127E+02  0.14408131020E+03  0.00000000000E+00 0.  1.
<mgrwt>
<rscale>  0 0.20245630E+04</rscale>
<asrwt>0</asrwt>
<pdfrwt beam="1">  1        2 0.35271802E+00 0.20245630E+04</pdfrwt>
<pdfrwt beam="2">  1       -2 0.68761958E-01 0.20245630E+04</pdfrwt>
<totfact> 0.82036554E+00</totfact>
</mgrwt>
</event>
<event>
12    1  0.1494110E-007  0.1605031E+04  0.7818608E-02  0.8817463E-01
          1   -1    0    0  501    0  0.00000000000E+00  0.00000000000E+00  0.19741918628E+04  0.19741918628E+04  0.00000000000E+00 0. -1.
         -1   -1    0    0    0  501 -0.00000000000E+00 -0.00000000000E+00 -0.32622523569E+03  0.32622523569E+03  0.00000000000E+00 0.  1.
         23    2    1    2    0    0  0.20040666525E+03  0.87796079410E+02 -0.14782736042E+03  0.27988635048E+03  0.92803327862E+02 0.  0.
        254    2    1    2    0    0 -0.20040666525E+03 -0.87796079410E+02  0.17957939875E+04  0.20205307480E+04  0.89988747906E+03 0.  0.
        -24    2    4    4    0    0 -0.14415265858E+03 -0.46948780320E+03  0.72133118426E+03  0.87620755478E+03  0.78881020093E+02 0.  0.
         24    2    4    4    0    0 -0.56254006665E+02  0.38169172379E+03  0.10744628032E+04  0.11443231932E+04  0.78435767901E+02 0.  0.
         13    1    3    3    0    0  0.62138771088E+02 -0.74071852066E+01 -0.11492485807E+02  0.63625234735E+02  0.00000000000E+00 0. -1.
        -13    1    3    3    0    0  0.13826789416E+03  0.95203264616E+02 -0.13633487461E+03  0.21626111575E+03  0.00000000000E+00 0.  1.
          2    1    6    6  502    0 -0.65938042354E+02  0.18640653807E+03  0.51267640361E+03  0.54948368282E+03  0.00000000000E+00 0. -1.
          3    1    5    5  503    0 -0.27556535517E+02 -0.14591944588E+03  0.16350729395E+03  0.22087662282E+03  0.00000000000E+00 0. -1.
         -4    1    5    5    0  503 -0.11659612307E+03 -0.32356835732E+03  0.55782389031E+03  0.65533093195E+03  0.00000000000E+00 0.  1.
         -1    1    6    6    0  502  0.96840356890E+01  0.19528518573E+03  0.56178639964E+03  0.59483951040E+03  0.00000000000E+00 0.  1.
<mgrwt>
<rscale>  0 0.16050311E+04</rscale>
<asrwt>0</asrwt>
<pdfrwt beam="1">  1        1 0.30372182E+00 0.16050311E+04</pdfrwt>
<pdfrwt beam="2">  1       -1 0.50188499E-01 0.16050311E+04</pdfrwt>
<totfact> 0.11863774E+01</totfact>
</mgrwt>
</event>
<event>
12    1  0.1494110E-007  0.1330369E+04  0.7818608E-02  0.9005823E-01
          1   -1    0    0  501    0  0.00000000000E+00  0.00000000000E+00  0.10274514723E+04  0.10274514723E+04  0.00000000000E+00 0. -1.
         -1   -1    0    0    0  501 -0.00000000000E+00 -0.00000000000E+00 -0.43064874880E+03  0.43064874880E+03  0.00000000000E+00 0.  1.
         23    2    1    2    0    0 -0.27782634628E+03  0.11446223631E+03  0.37356922262E+03  0.48817264962E+03  0.92029829506E+02 0.  0.
        254    2    1    2    0    0  0.27782634628E+03 -0.11446223631E+03  0.22323350084E+03  0.96992757144E+03  0.89478333450E+03 0.  0.
        -24    2    4    4    0    0  0.50135162629E+03  0.20351547272E+03  0.13645686321E+03  0.56373072705E+03  0.79999101761E+02 0.  0.
         24    2    4    4    0    0 -0.22352528000E+03 -0.31797770903E+03  0.86776637625E+02  0.40619684439E+03  0.79951968812E+02 0.  0.
         13    1    3    3    0    0 -0.12486078756E+03  0.33426344236E+02  0.95837665019E+02  0.16091113944E+03  0.00000000000E+00 0.  1.
        -13    1    3    3    0    0 -0.15296555873E+03  0.81035892070E+02  0.27773155760E+03  0.32726151018E+03  0.00000000000E+00 0. -1.
          4    1    6    6  502    0 -0.67853445233E+02 -0.15632519410E+03  0.17431244741E+02  0.17130529657E+03  0.00000000000E+00 0. -1.
          1    1    5    5  503    0  0.47422697212E+03  0.20695093694E+03  0.11787760765E+03  0.53067413896E+03  0.00000000000E+00 0. -1.
         -2    1    5    5    0  503  0.27124654171E+02 -0.34354642173E+01  0.18579255566E+02  0.33056588083E+02  0.00000000000E+00 0.  1.
         -3    1    6    6    0  502 -0.15567183477E+03 -0.16165251493E+03  0.69345392884E+02  0.23489154782E+03  0.00000000000E+00 0.  1.
<mgrwt>
<rscale>  0 0.13303694E+04</rscale>
<asrwt>0</asrwt>
<pdfrwt beam="1">  1        1 0.15806946E+00 0.13303694E+04</pdfrwt>
<pdfrwt beam="2">  1       -1 0.66253654E-01 0.13303694E+04</pdfrwt>
<totfact> 0.32602623E+01</totfact>
</mgrwt>
</event>
<event>
12    1  0.1494110E-007  0.1186241E+04  0.7818608E-02  0.9124986E-01
          1   -1    0    0  501    0  0.00000000000E+00  0.00000000000E+00  0.22112144774E+03  0.22112144774E+03  0.00000000000E+00 0. -1.
         -1   -1    0    0    0  501 -0.00000000000E+00 -0.00000000000E+00 -0.15909447717E+04  0.15909447717E+04  0.00000000000E+00 0.  1.
         23    2    1    2    0    0  0.32211815844E+02  0.19173450141E+03 -0.48178581073E+03  0.52704470327E+03  0.88650051964E+02 0.  0.
        254    2    1    2    0    0 -0.32211815844E+02 -0.19173450141E+03 -0.88803751319E+03  0.12850215161E+04  0.90822351432E+03 0.  0.
        -24    2    4    4    0    0  0.24458100501E+03  0.22281148324E+03 -0.63706427257E+03  0.72230893494E+03  0.80090480312E+02 0.  0.
         24    2    4    4    0    0 -0.27679282086E+03 -0.41454598465E+03 -0.25097324061E+03  0.56271258118E+03  0.72078030261E+02 0.  0.
         13    1    3    3    0    0  0.17586051242E+02  0.80807254972E+02 -0.10306484402E+03  0.13214175619E+03  0.00000000000E+00 0. -1.
        -13    1    3    3    0    0  0.14625764602E+02  0.11092724644E+03 -0.37872096670E+03  0.39490294708E+03  0.00000000000E+00 0.  1.
          2    1    6    6  502    0 -0.10002744474E+03 -0.21192631143E+03 -0.12821403489E+03  0.26712747878E+03  0.00000000000E+00 0. -1.
          3    1    5    5  503    0  0.14245772649E+03  0.17275425400E+03 -0.37734730475E+03  0.43878152254E+03  0.00000000000E+00 0. -1.
         -4    1    5    5    0  503  0.10212327852E+03  0.50057229234E+02 -0.25971696782E+03  0.28352741241E+03  0.00000000000E+00 0.  1.
         -1    1    6    6    0  502 -0.17676537612E+03 -0.20261967322E+03 -0.12275920572E+03  0.29558510240E+03  0.00000000000E+00 0.  1.
<mgrwt>
<rscale>  0 0.11862411E+04</rscale>
<asrwt>0</asrwt>
<pdfrwt beam="1">  1        1 0.34018685E-01 0.11862411E+04</pdfrwt>
<pdfrwt beam="2">  1       -1 0.24476073E+00 0.11862411E+04</pdfrwt>
<totfact> 0.97771192E+00</totfact>
</mgrwt>
</event>
<event>
12    1  0.1494110E-007  0.2408120E+04  0.7818608E-02  0.8436470E-01
          1   -1    0    0  501    0  0.00000000000E+00  0.00000000000E+00  0.86820225710E+03  0.86820225710E+03  0.00000000000E+00 0. -1.
         -1   -1    0    0    0  501 -0.00000000000E+00 -0.00000000000E+00 -0.16698416527E+04  0.16698416527E+04  0.00000000000E+00 0.  1.
         23    2    1    2    0    0  0.81424281025E+03  0.47322295885E+03 -0.79084298886E+03  0.12331934639E+04  0.91663316447E+02 0.  0.
        254    2    1    2    0    0 -0.81424281025E+03 -0.47322295885E+03 -0.10796406759E+02  0.13048504459E+04  0.90309844477E+03 0.  0.
        -24    2    4    4    0    0 -0.47777317541E+03  0.21398636759E+03 -0.64569328608E+02  0.53338315679E+03  0.79189778939E+02 0.  0.
         24    2    4    4    0    0 -0.33646963484E+03 -0.68720932644E+03  0.53772921849E+02  0.77146728911E+03  0.82472889719E+02 0.  0.
         11    1    3    3    0    0  0.46564121610E+03  0.31662910907E+03 -0.44358947377E+03  0.71683146979E+03  0.00000000000E+00 0.  1.
        -11    1    3    3    0    0  0.34860159415E+03  0.15659384978E+03 -0.34725351509E+03  0.51636199412E+03  0.00000000000E+00 0. -1.
          2    1    6    6  502    0 -0.12445632147E+03 -0.17093921999E+03  0.18134579514E+02  0.21222265632E+03  0.00000000000E+00 0. -1.
          1    1    5    5  503    0 -0.39955117746E+03  0.19570779656E+03 -0.78717229751E+02  0.45181753763E+03  0.00000000000E+00 0. -1.
         -2    1    5    5    0  503 -0.78221997952E+02  0.18278571024E+02  0.14147901143E+02  0.81565619161E+02  0.00000000000E+00 0.  1.
         -1    1    6    6    0  502 -0.21201331337E+03 -0.51627010645E+03  0.35638342335E+02  0.55924463279E+03  0.00000000000E+00 0.  1.
<mgrwt>
<rscale>  0 0.24081198E+04</rscale>
<asrwt>0</asrwt>
<pdfrwt beam="1">  1        1 0.13356958E+00 0.24081198E+04</pdfrwt>
<pdfrwt beam="2">  1       -1 0.25689871E+00 0.24081198E+04</pdfrwt>
<totfact> 0.10882364E+00</totfact>
</mgrwt>
</event>
<event>
12    1  0.1494110E-007  0.1729087E+04  0.7818608E-02  0.8744947E-01
          2   -1    0    0  501    0  0.00000000000E+00  0.00000000000E+00  0.12935724518E+04  0.12935724518E+04  0.00000000000E+00 0. -1.
         -2   -1    0    0    0  501 -0.00000000000E+00 -0.00000000000E+00 -0.57780718628E+03  0.57780718628E+03  0.00000000000E+00 0.  1.
         23    2    1    2    0    0 -0.12777670182E+03 -0.22895397988E+03  0.87574847420E+03  0.91847057865E+03  0.88915709223E+02 0.  0.
        254    2    1    2    0    0  0.12777670182E+03  0.22895397988E+03 -0.15998320867E+03  0.95290905945E+03  0.90205001973E+03 0.  0.
        -24    2    4    4    0    0  0.50913870660E+03  0.11927048127E+03 -0.13600480034E+03  0.54623446913E+03  0.80169316379E+02 0.  0.
         24    2    4    4    0    0 -0.38136200479E+03  0.10968349861E+03 -0.23978408327E+02  0.40667459031E+03  0.85684361360E+02 0.  0.
         13    1    3    3    0    0 -0.51960888075E+02 -0.64767662858E+02  0.16042106798E+03  0.18063693723E+03  0.00000000000E+00 0.  1.
        -13    1    3    3    0    0 -0.75815813744E+02 -0.16418631702E+03  0.71532740622E+03  0.73783364142E+03  0.00000000000E+00 0. -1.
          4    1    6    6  502    0 -0.34744796487E+02 -0.15578602338E+01 -0.24674738529E+02  0.42643528617E+02  0.00000000000E+00 0. -1.
          1    1    5    5  503    0  0.19990131173E+03  0.41112357506E+02 -0.13413847936E+02  0.20452552821E+03  0.00000000000E+00 0. -1.
         -2    1    5    5    0  503  0.30923739487E+03  0.78158123768E+02 -0.12259095240E+03  0.34170894093E+03  0.00000000000E+00 0.  1.
         -3    1    6    6    0  502 -0.34661720830E+03  0.11124135884E+03  0.69633020226E+00  0.36403106170E+03  0.00000000000E+00 0.  1.
<mgrwt>
<rscale>  0 0.17290870E+04</rscale>
<asrwt>0</asrwt>
<pdfrwt beam="1">  1        2 0.19901115E+00 0.17290870E+04</pdfrwt>
<pdfrwt beam="2">  1       -2 0.88893414E-01 0.17290870E+04</pdfrwt>
<totfact> 0.17216635E+01</totfact>
</mgrwt>
</event>
<event>
12    1  0.1494110E-007  0.1963490E+04  0.7818608E-02  0.8623883E-01
          1   -1    0    0  501    0  0.00000000000E+00  0.00000000000E+00  0.14893016419E+04  0.14893016419E+04  0.00000000000E+00 0. -1.
         -1   -1    0    0    0  501 -0.00000000000E+00 -0.00000000000E+00 -0.64716479720E+03  0.64716479720E+03  0.00000000000E+00 0.  1.
         23    2    1    2    0    0  0.62674966992E+03 -0.12681109108E+03  0.80015910124E+03  0.10282197468E+04  0.89916955874E+02 0.  0.
        254    2    1    2    0    0 -0.62674966992E+03  0.12681109108E+03  0.41977743428E+02  0.11082466922E+04  0.90418604187E+03 0.  0.
        -24    2    4    4    0    0 -0.66801929217E+03 -0.24351610344E+03  0.10333984522E+03  0.72287917368E+03  0.79531809885E+02 0.  0.
         24    2    4    4    0    0  0.41269622256E+02  0.37032719451E+03 -0.61362101793E+02  0.38536751854E+03  0.76794557699E+02 0.  0.
         13    1    3    3    0    0  0.57820425870E+03 -0.93297169950E+02  0.74295914711E+03  0.94605117249E+03  0.00000000000E+00 0. -1.
        -13    1    3    3    0    0  0.48545411217E+02 -0.33513921127E+02  0.57199954132E+02  0.82168574359E+02  0.00000000000E+00 0.  1.
          2    1    6    6  502    0  0.16952953993E+02  0.21602790167E+03  0.22606461668E+01  0.21670387046E+03  0.00000000000E+00 0. -1.
          1    1    5    5  503    0 -0.32030057582E+03 -0.83439784876E+02  0.72540050945E+02  0.33884615323E+03  0.00000000000E+00 0. -1.
         -2    1    5    5    0  503 -0.34771871636E+03 -0.16007631856E+03  0.30799794276E+02  0.38403302045E+03  0.00000000000E+00 0.  1.
         -1    1    6    6    0  502  0.24316668264E+02  0.15429929284E+03 -0.63622747960E+02  0.16866364808E+03  0.00000000000E+00 0.  1.
<mgrwt>
<rscale>  0 0.19634904E+04</rscale>
<asrwt>0</asrwt>
<pdfrwt beam="1">  1        1 0.22912333E+00 0.19634904E+04</pdfrwt>
<pdfrwt beam="2">  1       -1 0.99563815E-01 0.19634904E+04</pdfrwt>
<totfact> 0.59613030E+00</totfact>
</mgrwt>
</event>
<event>
12    1  0.1494110E-007  0.1402706E+04  0.7818608E-02  0.8951862E-01
         -1   -1    0    0    0  501 -0.00000000000E+00  0.00000000000E+00  0.10901508584E+04  0.10901508584E+04  0.00000000000E+00 0.  1.
          1   -1    0    0  501    0  0.00000000000E+00 -0.00000000000E+00 -0.45121800230E+03  0.45121800230E+03  0.00000000000E+00 0. -1.
         23    2    1    2    0    0 -0.27869484358E+03 -0.92324838608E+02 -0.11890329010E+03  0.32859223069E+03  0.87408066028E+02 0.  0.
        254    2    1    2    0    0  0.27869484358E+03  0.92324838608E+02  0.75783614623E+03  0.12127766300E+04  0.90017600400E+03 0.  0.
        -24    2    4    4    0    0  0.12994062972E+03  0.30876464602E+03 -0.60448121234E+02  0.34956794005E+03  0.79521037872E+02 0.  0.
         24    2    4    4    0    0  0.14875421386E+03 -0.21643980742E+03  0.81828426746E+03  0.86320868999E+03  0.81031436602E+02 0.  0.
         13    1    3    3    0    0 -0.29486390203E+01  0.50301470754E+01  0.79306775120E+01  0.98433986748E+01  0.00000000000E+00 0.  1.
        -13    1    3    3    0    0 -0.27574620456E+03 -0.97354985684E+02 -0.12683396762E+03  0.31874883201E+03  0.00000000000E+00 0. -1.
          2    1    6    6  502    0  0.12082077655E+03 -0.21508321519E+03  0.72496283516E+03  0.76578689063E+03  0.00000000000E+00 0. -1.
          3    1    5    5  503    0  0.13324409079E+03  0.25076675267E+03 -0.64951844101E+02  0.29130172335E+03  0.00000000000E+00 0. -1.
         -4    1    5    5    0  503 -0.33034610743E+01  0.57997893357E+02  0.45037228674E+01  0.58266216700E+02  0.00000000000E+00 0.  1.
         -1    1    6    6    0  502  0.27933437316E+02 -0.13565922292E+01  0.93321432301E+02  0.97421799355E+02  0.00000000000E+00 0.  1.
<mgrwt>
<rscale>  0 0.14027055E+04</rscale>
<asrwt>0</asrwt>
<pdfrwt beam="1">  1        1 0.69418155E-01 0.14027055E+04</pdfrwt>
<pdfrwt beam="2">  1       -1 0.16771552E+00 0.14027055E+04</pdfrwt>
<totfact> 0.12721367E+01</totfact>
</mgrwt>
</event>
<event>
12    1  0.1494110E-007  0.1760777E+04  0.7818608E-02  0.8727440E-01
         -2   -1    0    0    0  501 -0.00000000000E+00  0.00000000000E+00  0.30858052089E+03  0.30858052089E+03  0.00000000000E+00 0.  1.
          2   -1    0    0  501    0  0.00000000000E+00 -0.00000000000E+00 -0.25117717309E+04  0.25117717309E+04  0.00000000000E+00 0. -1.
         23    2    1    2    0    0  0.20176821928E+03 -0.10540090709E+03  0.15311551642E+03  0.28900592246E+03  0.90886172308E+02 0.  0.
        254    2    1    2    0    0 -0.20176821928E+03  0.10540090709E+03 -0.23563067264E+04  0.25313463293E+04  0.89650046542E+03 0.  0.
        -24    2    4    4    0    0  0.28535262463E+03  0.17759576313E+03 -0.48748265868E+03  0.59705648702E+03  0.76620693752E+02 0.  0.
         24    2    4    4    0    0 -0.48712084391E+03 -0.72194856047E+02 -0.18688240677E+04  0.19342898423E+04  0.80467285767E+02 0.  0.
         13    1    3    3    0    0  0.12633840019E+03 -0.67698884992E+02  0.14564986514E+03  0.20434875484E+03  0.00000000000E+00 0.  1.
        -13    1    3    3    0    0  0.75429819098E+02 -0.37702022096E+02  0.74656512853E+01  0.84657167614E+02  0.00000000000E+00 0. -1.
          2    1    6    6  502    0 -0.17477309817E+03 -0.41998543531E+02 -0.82303677746E+03  0.84243637775E+03  0.00000000000E+00 0. -1.
          3    1    5    5  503    0  0.17300489270E+03  0.15014223614E+03 -0.32266502770E+03  0.39570962090E+03  0.00000000000E+00 0. -1.
         -4    1    5    5    0  503  0.11234773193E+03  0.27453526992E+02 -0.16481763098E+03  0.20134686612E+03  0.00000000000E+00 0.  1.
         -1    1    6    6    0  502 -0.31234774574E+03 -0.30196312515E+02 -0.10457872903E+04  0.10918534646E+04  0.00000000000E+00 0.  1.
<mgrwt>
<rscale>  0 0.17607769E+04</rscale>
<asrwt>0</asrwt>
<pdfrwt beam="1">  1        2 0.38642642E+00 0.17607769E+04</pdfrwt>
<pdfrwt beam="2">  1       -2 0.47473926E-01 0.17607769E+04</pdfrwt>
<totfact> 0.13664824E+01</totfact>
</mgrwt>
</event>
<event>
12    1  0.1494110E-007  0.1320782E+04  0.7818608E-02  0.9013245E-01
         -3   -1    0    0    0  501 -0.00000000000E+00  0.00000000000E+00  0.12238928809E+04  0.12238928809E+04  0.00000000000E+00 0.  1.
          3   -1    0    0  501    0  0.00000000000E+00 -0.00000000000E+00 -0.35633553654E+03  0.35633553654E+03  0.00000000000E+00 0. -1.
         23    2    1    2    0    0 -0.20061777131E+03 -0.25431033427E+03  0.36063407423E+03  0.49360332537E+03  0.93091734527E+02 0.  0.
        254    2    1    2    0    0  0.20061777131E+03  0.25431033427E+03  0.50692327012E+03  0.10866250921E+04  0.90490974833E+03 0.  0.
        -24    2    4    4    0    0 -0.77140301895E+02  0.41645061392E+03  0.60445885839E+03  0.74211230823E+03  0.77320285326E+02 0.  0.
         24    2    4    4    0    0  0.27775807320E+03 -0.16214027965E+03 -0.97535588268E+02  0.34451278383E+03  0.75741994502E+02 0.  0.
         11    1    3    3    0    0  0.68954222482E+01 -0.21746143635E+02  0.11379759087E+02  0.25493931197E+02  0.00000000000E+00 0. -1.
        -11    1    3    3    0    0 -0.20751319355E+03 -0.23256419064E+03  0.34925431514E+03  0.46810939417E+03  0.00000000000E+00 0.  1.
          2    1    6    6  502    0  0.10753444205E+03 -0.21983674380E+02 -0.27383619860E+02  0.11312294552E+03  0.00000000000E+00 0. -1.
          1    1    5    5  503    0 -0.65148765629E+02  0.15342723668E+03  0.21619274441E+03  0.27299007556E+03  0.00000000000E+00 0. -1.
         -2    1    5    5    0  503 -0.11991536266E+02  0.26302337724E+03  0.38826611398E+03  0.46912223267E+03  0.00000000000E+00 0.  1.
         -1    1    6    6    0  502  0.17022363115E+03 -0.14015660527E+03 -0.70151968408E+02  0.23138983832E+03  0.00000000000E+00 0.  1.
<mgrwt>
<rscale>  0 0.13207824E+04</rscale>
<asrwt>0</asrwt>
<pdfrwt beam="1">  1        3 0.54820853E-01 0.13207824E+04</pdfrwt>
<pdfrwt beam="2">  1       -3 0.18829121E+00 0.13207824E+04</pdfrwt>
<totfact> 0.14664371E+00</totfact>
</mgrwt>
</event>
<event>
12    1  0.1494110E-007  0.1198665E+04  0.7818608E-02  0.9114026E-01
          2   -1    0    0  501    0  0.00000000000E+00  0.00000000000E+00  0.67644693684E+03  0.67644693684E+03  0.00000000000E+00 0. -1.
         -2   -1    0    0    0  501 -0.00000000000E+00 -0.00000000000E+00 -0.53100878776E+03  0.53100878776E+03  0.00000000000E+00 0.  1.
         23    2    1    2    0    0 -0.51817805854E+02 -0.80412931115E+01  0.27638267576E+03  0.29590065640E+03  0.91760926333E+02 0.  0.
        254    2    1    2    0    0  0.51817805854E+02  0.80412931115E+01 -0.13094452668E+03  0.91155506820E+03  0.90057560810E+03 0.  0.
        -24    2    4    4    0    0 -0.20697927039E+03 -0.26333111622E+03 -0.33189696058E+03  0.47839607335E+03  0.80768282219E+02 0.  0.
         24    2    4    4    0    0  0.25879707624E+03  0.27137240933E+03  0.20095243390E+03  0.43315899486E+03  0.81399772241E+02 0.  0.
         13    1    3    3    0    0 -0.50770285821E+02 -0.45010367208E+02  0.19617469755E+03  0.20757665340E+03  0.00000000000E+00 0.  1.
        -13    1    3    3    0    0 -0.10475200335E+01  0.36969074097E+02  0.80207978211E+02  0.88324003004E+02  0.00000000000E+00 0. -1.
          2    1    6    6  502    0  0.68040502197E+02  0.99772706502E+02  0.28726572476E+02  0.12413427757E+03  0.00000000000E+00 0. -1.
          1    1    5    5  503    0 -0.68841878982E+02 -0.11872195829E+03 -0.88152449071E+02  0.16311027546E+03  0.00000000000E+00 0. -1.
         -2    1    5    5    0  503 -0.13813739140E+03 -0.14460915793E+03 -0.24374451151E+03  0.31528579789E+03  0.00000000000E+00 0.  1.
         -1    1    6    6    0  502  0.19075657404E+03  0.17159970283E+03  0.17222586142E+03  0.30902471729E+03  0.00000000000E+00 0.  1.
<mgrwt>
<rscale>  0 0.11986647E+04</rscale>
<asrwt>0</asrwt>
<pdfrwt beam="1">  1        2 0.10406876E+00 0.11986647E+04</pdfrwt>
<pdfrwt beam="2">  1       -2 0.81693660E-01 0.11986647E+04</pdfrwt>
<totfact> 0.55691254E+01</totfact>
</mgrwt>
</event>
<event>
12    1  0.1494110E-007  0.4268739E+04  0.7818608E-02  0.7952424E-01
         -1   -1    0    0    0  501 -0.00000000000E+00  0.00000000000E+00  0.13626212783E+04  0.13626212783E+04  0.00000000000E+00 0.  1.
          1   -1    0    0  501    0  0.00000000000E+00 -0.00000000000E+00 -0.33432135696E+04  0.33432135696E+04  0.00000000000E+00 0. -1.
         23    2    1    2    0    0  0.94159824588E+03  0.65322620584E+03  0.91198783175E+03  0.14675341089E+04  0.92859156782E+02 0.  0.
        254    2    1    2    0    0 -0.94159824588E+03 -0.65322620584E+03 -0.28925801231E+04  0.32383007390E+04  0.89791991576E+03 0.  0.
        -24    2    4    4    0    0 -0.88370824510E+03 -0.39188579646E+03 -0.27653475748E+04  0.29307791440E+04  0.88342750976E+02 0.  0.
         24    2    4    4    0    0 -0.57890000780E+02 -0.26134040938E+03 -0.12723254832E+03  0.30752159501E+03  0.82044794370E+02 0.  0.
         11    1    3    3    0    0  0.25040351615E+03  0.21230694798E+03  0.22624646881E+03  0.39870242752E+03  0.00000000000E+00 0. -1.
        -11    1    3    3    0    0  0.69119472973E+03  0.44091925786E+03  0.68574136294E+03  0.10688316814E+04  0.00000000000E+00 0.  1.
          4    1    6    6  502    0 -0.35490739626E+02 -0.21813304377E+03 -0.68772594219E+02  0.23145471933E+03  0.00000000000E+00 0. -1.
          1    1    5    5  503    0 -0.60865312441E+03 -0.22451201602E+03 -0.18553899880E+04  0.19655371477E+04  0.00000000000E+00 0. -1.
         -2    1    5    5    0  503 -0.27505512068E+03 -0.16737378045E+03 -0.90995758673E+03  0.96524199631E+03  0.00000000000E+00 0.  1.
         -3    1    6    6    0  502 -0.22399261155E+02 -0.43207365609E+02 -0.58459954100E+02  0.76066875685E+02  0.00000000000E+00 0.  1.
<mgrwt>
<rscale>  0 0.42687394E+04</rscale>
<asrwt>0</asrwt>
<pdfrwt beam="1">  1        1 0.51434055E+00 0.42687394E+04</pdfrwt>
<pdfrwt beam="2">  1       -1 0.20963404E+00 0.42687394E+04</pdfrwt>
<totfact> 0.32730311E-02</totfact>
</mgrwt>
</event>
<event>
12    1  0.1494110E-007  0.1132297E+04  0.7818608E-02  0.9174273E-01
          2   -1    0    0  501    0  0.00000000000E+00  0.00000000000E+00  0.12047715939E+04  0.12047715939E+04  0.00000000000E+00 0. -1.
         -2   -1    0    0    0  501 -0.00000000000E+00 -0.00000000000E+00 -0.26604540948E+03  0.26604540948E+03  0.00000000000E+00 0.  1.
         23    2    1    2    0    0 -0.80883017687E+02  0.15612196978E+03  0.26787438942E+03  0.33306340332E+03  0.90875795027E+02 0.  0.
        254    2    1    2    0    0  0.80883017687E+02 -0.15612196978E+03  0.67085179497E+03  0.11377536000E+04  0.90195620269E+03 0.  0.
        -24    2    4    4    0    0  0.35269632599E+03 -0.40430142346E+03  0.38807287137E+03  0.66684901619E+03  0.78947561829E+02 0.  0.
         24    2    4    4    0    0 -0.27181330831E+03  0.24817945368E+03  0.28277892360E+03  0.47090458384E+03  0.79446155655E+02 0.  0.
         11    1    3    3    0    0 -0.98233949073E+02  0.14735028588E+03  0.25178397662E+03  0.30782655243E+03  0.00000000000E+00 0. -1.
        -11    1    3    3    0    0  0.17350931386E+02  0.87716839039E+01  0.16090412800E+02  0.25236850884E+02  0.00000000000E+00 0.  1.
          4    1    6    6  502    0 -0.77313148851E+01  0.85017767805E+01 -0.51100154001E+01  0.12576394383E+02  0.00000000000E+00 0. -1.
          1    1    5    5  503    0  0.19827521577E+03 -0.28127108015E+03  0.26306842896E+03  0.43316449535E+03  0.00000000000E+00 0. -1.
         -2    1    5    5    0  503  0.15442111022E+03 -0.12303034332E+03  0.12500444241E+03  0.23368452084E+03  0.00000000000E+00 0.  1.
         -3    1    6    6    0  502 -0.26408199342E+03  0.23967767690E+03  0.28788893900E+03  0.45832818946E+03  0.00000000000E+00 0.  1.
<mgrwt>
<rscale>  0 0.11322967E+04</rscale>
<asrwt>0</asrwt>
<pdfrwt beam="1">  1        2 0.18534947E+00 0.11322967E+04</pdfrwt>
<pdfrwt beam="2">  1       -2 0.40930064E-01 0.11322967E+04</pdfrwt>
<totfact> 0.10533640E+02</totfact>
</mgrwt>
</event>
<event>
12    1  0.1494110E-007  0.1965102E+04  0.7818608E-02  0.8623113E-01
          2   -1    0    0  501    0  0.00000000000E+00  0.00000000000E+00  0.10041906926E+04  0.10041906926E+04  0.00000000000E+00 0. -1.
         -2   -1    0    0    0  501 -0.00000000000E+00 -0.00000000000E+00 -0.96137757032E+03  0.96137757032E+03  0.00000000000E+00 0.  1.
         23    2    1    2    0    0 -0.50648529660E+03  0.31570767127E+03 -0.46669758658E+03  0.76319605963E+03  0.91994014723E+02 0.  0.
        254    2    1    2    0    0  0.50648529660E+03 -0.31570767127E+03  0.50951070889E+03  0.12023722033E+04  0.91098796012E+03 0.  0.
        -24    2    4    4    0    0  0.11534958223E+03 -0.32195883822E+03  0.68237409141E+03  0.76737720370E+03  0.79185557379E+02 0.  0.
         24    2    4    4    0    0  0.39113571438E+03  0.62511669468E+01 -0.17286338252E+03  0.43499499963E+03  0.79452353866E+02 0.  0.
         11    1    3    3    0    0 -0.65395216918E+02  0.71588365112E+02 -0.10370804895E+03  0.14197460277E+03  0.00000000000E+00 0. -1.
        -11    1    3    3    0    0 -0.44109007968E+03  0.24411930616E+03 -0.36298953763E+03  0.62122145686E+03  0.00000000000E+00 0.  1.
          4    1    6    6  502    0  0.21176827478E+03  0.19000539729E+02 -0.13306067708E+03  0.25082257972E+03  0.00000000000E+00 0. -1.
          3    1    5    5  503    0  0.11321818880E+03 -0.29777571301E+03  0.57560466465E+03  0.65788256057E+03  0.00000000000E+00 0. -1.
         -4    1    5    5    0  503  0.21313934302E+01 -0.24183125207E+02  0.10676942676E+03  0.10949464313E+03  0.00000000000E+00 0.  1.
         -3    1    6    6    0  502  0.17936743959E+03 -0.12749372783E+02 -0.39802705444E+02  0.18417241990E+03  0.00000000000E+00 0.  1.
<mgrwt>
<rscale>  0 0.19651019E+04</rscale>
<asrwt>0</asrwt>
<pdfrwt beam="1">  1        2 0.15449088E+00 0.19651019E+04</pdfrwt>
<pdfrwt beam="2">  1       -2 0.14790424E+00 0.19651019E+04</pdfrwt>
<totfact> 0.72524542E+00</totfact>
</mgrwt>
</event>
<event>
12    1  0.1494110E-007  0.1382461E+04  0.7818608E-02  0.8966613E-01
         -1   -1    0    0    0  501 -0.00000000000E+00  0.00000000000E+00  0.57930794900E+03  0.57930794900E+03  0.00000000000E+00 0.  1.
          1   -1    0    0  501    0  0.00000000000E+00 -0.00000000000E+00 -0.82477652781E+03  0.82477652781E+03  0.00000000000E+00 0. -1.
         23    2    1    2    0    0  0.13124875562E+03 -0.24495972371E+03 -0.35266621436E+03  0.45935325962E+03  0.96955950183E+02 0.  0.
        254    2    1    2    0    0 -0.13124875562E+03  0.24495972371E+03  0.10719763555E+03  0.94473121719E+03  0.89654572531E+03 0.  0.
        -24    2    4    4    0    0 -0.36589889197E+03 -0.16482699086E+03  0.20324098682E+03  0.45650601159E+03  0.77723251560E+02 0.  0.
         24    2    4    4    0    0  0.23465013635E+03  0.40978671457E+03 -0.96043351272E+02  0.48822520560E+03  0.78445446884E+02 0.  0.
         11    1    3    3    0    0  0.57685245244E+02 -0.58867265199E+02 -0.49624981216E+02  0.96205931166E+02  0.00000000000E+00 0.  1.
        -11    1    3    3    0    0  0.73563510373E+02 -0.18609245851E+03 -0.30304123315E+03  0.36314732845E+03  0.00000000000E+00 0. -1.
          2    1    6    6  502    0  0.20855893642E+03  0.38687048217E+03 -0.70518689349E+02  0.44512749351E+03  0.00000000000E+00 0. -1.
          1    1    5    5  503    0 -0.31478561926E+03 -0.12099666432E+03  0.19252928533E+03  0.38832680126E+03  0.00000000000E+00 0. -1.
         -2    1    5    5    0  503 -0.51113272705E+02 -0.43830326544E+02  0.10711701491E+02  0.68179210325E+02  0.00000000000E+00 0.  1.
         -1    1    6    6    0  502  0.26091199929E+02  0.22916232403E+02 -0.25524661923E+02  0.43097712091E+02  0.00000000000E+00 0.  1.
<mgrwt>
<rscale>  0 0.13824610E+04</rscale>
<asrwt>0</asrwt>
<pdfrwt beam="1">  1        1 0.12688870E+00 0.13824610E+04</pdfrwt>
<pdfrwt beam="2">  1       -1 0.89124301E-01 0.13824610E+04</pdfrwt>
<totfact> 0.25370891E+01</totfact>
</mgrwt>
</event>
<event>
12    1  0.1494110E-007  0.2232394E+04  0.7818608E-02  0.8505065E-01
         -1   -1    0    0    0  501 -0.00000000000E+00  0.00000000000E+00  0.41834378647E+03  0.41834378647E+03  0.00000000000E+00 0.  1.
          1   -1    0    0  501    0  0.00000000000E+00 -0.00000000000E+00 -0.29781624297E+04  0.29781624297E+04  0.00000000000E+00 0. -1.
         23    2    1    2    0    0 -0.64410018311E+03 -0.59906609573E+03 -0.15930729399E+04  0.18217248589E+04  0.83993074109E+02 0.  0.
        254    2    1    2    0    0  0.64410018311E+03  0.59906609573E+03 -0.96674570333E+03  0.15747813573E+04  0.87840414137E+03 0.  0.
        -24    2    4    4    0    0  0.72471633707E+03  0.10639966295E+03 -0.54563197490E+03  0.91680829255E+03  0.79300288615E+02 0.  0.
         24    2    4    4    0    0 -0.80616153951E+02  0.49266643278E+03 -0.42111372843E+03  0.65797306479E+03  0.79828587908E+02 0.  0.
         13    1    3    3    0    0 -0.26542891811E+03 -0.23162590826E+03 -0.55744727606E+03  0.65943198097E+03  0.00000000000E+00 0. -1.
        -13    1    3    3    0    0 -0.37867126501E+03 -0.36744018747E+03 -0.10356256639E+04  0.11622928779E+04  0.00000000000E+00 0.  1.
          2    1    6    6  502    0 -0.36776415265E+02  0.38460485167E+03 -0.29421852003E+03  0.48563147980E+03  0.00000000000E+00 0. -1.
          1    1    5    5  503    0  0.47801261477E+03  0.50187696383E+02 -0.31680100432E+03  0.57565418533E+03  0.00000000000E+00 0. -1.
         -2    1    5    5    0  503  0.24670372229E+03  0.56211966570E+02 -0.22883097057E+03  0.34115410722E+03  0.00000000000E+00 0.  1.
         -1    1    6    6    0  502 -0.43839738686E+02  0.10806158111E+03 -0.12689520840E+03  0.17234158499E+03  0.00000000000E+00 0.  1.
<mgrwt>
<rscale>  0 0.22323940E+04</rscale>
<asrwt>0</asrwt>
<pdfrwt beam="1">  1        1 0.45817884E+00 0.22323940E+04</pdfrwt>
<pdfrwt beam="2">  1       -1 0.64360583E-01 0.22323940E+04</pdfrwt>
<totfact> 0.13810710E+00</totfact>
</mgrwt>
</event>
<event>
12    1  0.1746602E-007  0.1692628E+04  0.7818608E-02  0.8765580E-01
          2   -1    0    0  501    0  0.00000000000E+00  0.00000000000E+00  0.15177317789E+04  0.15177317789E+04  0.00000000000E+00 0. -1.
         -2   -1    0    0    0  501 -0.00000000000E+00 -0.00000000000E+00 -0.47191952512E+03  0.47191952512E+03  0.00000000000E+00 0.  1.
         23    2    1    2    0    0 -0.32741777884E+03  0.67559493893E+01  0.96498252292E+03  0.10232849086E+04  0.93127277424E+02 0.  0.
        254    2    1    2    0    0  0.32741777884E+03 -0.67559493893E+01  0.80829730817E+02  0.96636639541E+03  0.90558407673E+03 0.  0.
        -24    2    4    4    0    0 -0.16464464913E+03 -0.28184051158E+02 -0.29122480080E+03  0.34475835330E+03  0.78385179360E+02 0.  0.
         24    2    4    4    0    0  0.49206242796E+03  0.21428101769E+02  0.37205453162E+03  0.62160804211E+03  0.73398821221E+02 0.  0.
         11    1    3    3    0    0 -0.86729040468E+02  0.14706620873E+02  0.15457034452E+03  0.17784881940E+03  0.00000000000E+00 0.  1.
        -11    1    3    3    0    0 -0.24068873837E+03 -0.79506714840E+01  0.81041217840E+03  0.84543608916E+03  0.00000000000E+00 0. -1.
          2    1    6    6  502    0  0.16944047318E+03  0.13772255850E+02  0.86712644890E+02  0.19083718654E+03  0.00000000000E+00 0. -1.
          1    1    5    5  503    0 -0.28861325337E+02  0.20974381760E+01 -0.93308530048E+01  0.30404607626E+02  0.00000000000E+00 0. -1.
         -2    1    5    5    0  503 -0.13578332379E+03 -0.30281489334E+02 -0.28189394779E+03  0.31435374567E+03  0.00000000000E+00 0.  1.
         -1    1    6    6    0  502  0.32262195478E+03  0.76558459194E+01  0.28534188672E+03  0.43077085556E+03  0.00000000000E+00 0.  1.
<mgrwt>
<rscale>  0 0.16926279E+04</rscale>
<asrwt>0</asrwt>
<pdfrwt beam="1">  1        2 0.23349719E+00 0.16926279E+04</pdfrwt>
<pdfrwt beam="2">  1       -2 0.72603005E-01 0.16926279E+04</pdfrwt>
<totfact> 0.20262262E+01</totfact>
</mgrwt>
</event>
<event>
12    1  0.1494110E-007  0.4286152E+04  0.7818608E-02  0.7949184E-01
          1   -1    0    0  501    0  0.00000000000E+00  0.00000000000E+00  0.24923113842E+04  0.24923113842E+04  0.00000000000E+00 0. -1.
         -1   -1    0    0    0  501 -0.00000000000E+00 -0.00000000000E+00 -0.18427775213E+04  0.18427775213E+04  0.00000000000E+00 0.  1.
         23    2    1    2    0    0 -0.13533638217E+04  0.17444281409E+03 -0.12332846796E+04  0.18415876077E+04  0.91814414224E+02 0.  0.
        254    2    1    2    0    0  0.13533638217E+04 -0.17444281409E+03  0.18828185424E+04  0.24935012978E+04  0.90028835884E+03 0.  0.
        -24    2    4    4    0    0  0.47435841578E+03 -0.49595940694E+03  0.70507959752E+03  0.98706825454E+03  0.78580279541E+02 0.  0.
         24    2    4    4    0    0  0.87900540589E+03  0.32151659285E+03  0.11777389449E+04  0.15064330432E+04  0.79044723469E+02 0.  0.
         11    1    3    3    0    0 -0.92318629454E+03  0.75882271545E+02 -0.84015229377E+03  0.12505546491E+04  0.00000000000E+00 0.  1.
        -11    1    3    3    0    0 -0.43017752713E+03  0.98560542542E+02 -0.39313238582E+03  0.59103295862E+03  0.00000000000E+00 0. -1.
          2    1    6    6  502    0  0.10309176357E+03  0.38373270358E+02  0.10058794295E+03  0.14905822306E+03  0.00000000000E+00 0. -1.
          3    1    5    5  503    0  0.58573148548E+02 -0.29470141530E+02  0.58516240936E+02  0.87883180563E+02  0.00000000000E+00 0. -1.
         -4    1    5    5    0  503  0.41578526723E+03 -0.46648926541E+03  0.64656335658E+03  0.89918507398E+03  0.00000000000E+00 0.  1.
         -1    1    6    6    0  502  0.77591364232E+03  0.28314332249E+03  0.10771510020E+04  0.13573748202E+04  0.00000000000E+00 0.  1.
<mgrwt>
<rscale>  0 0.42861523E+04</rscale>
<asrwt>0</asrwt>
<pdfrwt beam="1">  1        1 0.38343252E+00 0.42861523E+04</pdfrwt>
<pdfrwt beam="2">  1       -1 0.28350423E+00 0.42861523E+04</pdfrwt>
<totfact> 0.44299407E-02</totfact>
</mgrwt>
</event>
<event>
12    1  0.1494110E-007  0.1731907E+04  0.7818608E-02  0.8743373E-01
         -1   -1    0    0    0  501 -0.00000000000E+00  0.00000000000E+00  0.34125442655E+03  0.34125442655E+03  0.00000000000E+00 0.  1.
          1   -1    0    0  501    0  0.00000000000E+00 -0.00000000000E+00 -0.21974077990E+04  0.21974077990E+04  0.00000000000E+00 0. -1.
         23    2    1    2    0    0 -0.19551155084E+03  0.90006503863E+02 -0.15322251947E+04  0.15500306689E+04  0.92493730635E+02 0.  0.
        254    2    1    2    0    0  0.19551155084E+03 -0.90006503863E+02 -0.32392817779E+03  0.98863155662E+03  0.90892076285E+03 0.  0.
        -24    2    4    4    0    0 -0.12975429767E+02  0.36033663830E+03 -0.31568162251E+03  0.48582287327E+03  0.79737837443E+02 0.  0.
         24    2    4    4    0    0  0.20848698061E+03 -0.45034314216E+03 -0.82465552788E+01  0.50280868336E+03  0.80453710958E+02 0.  0.
         11    1    3    3    0    0 -0.70193289779E+02 -0.11436163180E+02 -0.38248901868E+03  0.38904464161E+03  0.00000000000E+00 0.  1.
        -11    1    3    3    0    0 -0.12531826107E+03  0.10144266704E+03 -0.11497361760E+04  0.11609860273E+04  0.00000000000E+00 0. -1.
          2    1    6    6  502    0  0.20362973651E+03 -0.45039587556E+03 -0.14968278174E+02  0.49451548375E+03  0.00000000000E+00 0. -1.
          3    1    5    5  503    0  0.16775280187E+02  0.19709300932E+03 -0.21303510808E+03  0.29070779422E+03  0.00000000000E+00 0. -1.
         -4    1    5    5    0  503 -0.29750709954E+02  0.16324362898E+03 -0.10264651443E+03  0.19511507904E+03  0.00000000000E+00 0.  1.
         -1    1    6    6    0  502  0.48572441037E+01  0.52733398923E-01  0.67217228950E+01  0.82931996100E+01  0.00000000000E+00 0.  1.
<mgrwt>
<rscale>  0 0.17319066E+04</rscale>
<asrwt>0</asrwt>
<pdfrwt beam="1">  1        1 0.33806273E+00 0.17319066E+04</pdfrwt>
<pdfrwt beam="2">  1       -1 0.52500682E-01 0.17319066E+04</pdfrwt>
<totfact> 0.75932663E+00</totfact>
</mgrwt>
</event>
<event>
12    1  0.1494110E-007  0.3333000E+04  0.7818608E-02  0.8154549E-01
         -2   -1    0    0    0  501 -0.00000000000E+00  0.00000000000E+00  0.14256076926E+04  0.14256076926E+04  0.00000000000E+00 0.  1.
          2   -1    0    0  501    0  0.00000000000E+00 -0.00000000000E+00 -0.19480970207E+04  0.19480970207E+04  0.00000000000E+00 0. -1.
         23    2    1    2    0    0 -0.44510338905E+03  0.72409043386E+03 -0.15452211359E+04  0.17659247276E+04  0.91421011730E+02 0.  0.
        254    2    1    2    0    0  0.44510338905E+03 -0.72409043386E+03  0.10227318079E+04  0.16077799857E+04  0.90363275068E+03 0.  0.
        -24    2    4    4    0    0  0.31353818065E+03  0.80851950358E+02  0.55673470377E+02  0.34013830061E+03  0.88041465451E+02 0.  0.
         24    2    4    4    0    0  0.13156520840E+03 -0.80494238422E+03  0.96705833752E+03  0.12676416851E+04  0.80448539869E+02 0.  0.
         11    1    3    3    0    0 -0.11346065379E+03  0.26061839711E+03 -0.54846971218E+03  0.61774937802E+03  0.00000000000E+00 0. -1.
        -11    1    3    3    0    0 -0.33164273525E+03  0.46347203675E+03 -0.99675142374E+03  0.11481753496E+04  0.00000000000E+00 0.  1.
          2    1    6    6  502    0  0.65013837236E+02 -0.58700739950E+03  0.72686866912E+03  0.93655888670E+03  0.00000000000E+00 0. -1.
          3    1    5    5  503    0  0.15083172706E+03  0.52237141356E+01  0.55239271743E+02  0.16071364043E+03  0.00000000000E+00 0. -1.
         -4    1    5    5    0  503  0.16270645359E+03  0.75628236222E+02  0.43419863359E+00  0.17942466018E+03  0.00000000000E+00 0.  1.
         -1    1    6    6    0  502  0.66551371162E+02 -0.21793498472E+03  0.24018966839E+03  0.33108279836E+03  0.00000000000E+00 0.  1.
<mgrwt>
<rscale>  0 0.33329999E+04</rscale>
<asrwt>0</asrwt>
<pdfrwt beam="1">  1        2 0.29970723E+00 0.33329999E+04</pdfrwt>
<pdfrwt beam="2">  1       -2 0.21932426E+00 0.33329999E+04</pdfrwt>
<totfact> 0.59371951E-01</totfact>
</mgrwt>
</event>
<event>
12    1  0.1494110E-007  0.1951141E+04  0.7818608E-02  0.8629811E-01
         -1   -1    0    0    0  501 -0.00000000000E+00  0.00000000000E+00  0.11124888041E+04  0.11124888041E+04  0.00000000000E+00 0.  1.
          1   -1    0    0  501    0  0.00000000000E+00 -0.00000000000E+00 -0.85550368182E+03  0.85550368182E+03  0.00000000000E+00 0. -1.
         23    2    1    2    0    0 -0.12209249575E+03 -0.74938009381E+03  0.22189745558E+02  0.76477682517E+03  0.88961255636E+02 0.  0.
        254    2    1    2    0    0  0.12209249575E+03  0.74938009381E+03  0.23479537671E+03  0.12032156607E+04  0.90339468383E+03 0.  0.
        -24    2    4    4    0    0 -0.90372281736E+02  0.56964353271E+03  0.53222098644E+03  0.78817535102E+03  0.72803172206E+02 0.  0.
         24    2    4    4    0    0  0.21246477749E+03  0.17973656110E+03 -0.29742560973E+03  0.41504030971E+03  0.79686587885E+02 0.  0.
         11    1    3    3    0    0 -0.50901867689E+02 -0.45129112434E+03  0.50737093895E+02  0.45697804295E+03  0.00000000000E+00 0. -1.
        -11    1    3    3    0    0 -0.71190628061E+02 -0.29808896947E+03 -0.28547348337E+02  0.30779878222E+03  0.00000000000E+00 0.  1.
          4    1    6    6  502    0  0.17732408498E+03  0.10925838246E+03 -0.23874735194E+03  0.31683043305E+03  0.00000000000E+00 0. -1.
          3    1    5    5  503    0 -0.86937063696E+02  0.57054230589E+03  0.52529341462E+03  0.78039076576E+03  0.00000000000E+00 0. -1.
         -4    1    5    5    0  503 -0.34352180394E+01 -0.89877317960E+00  0.69275718202E+01  0.77845852510E+01  0.00000000000E+00 0.  1.
         -3    1    6    6    0  502  0.35140692508E+02  0.70478178644E+02 -0.58678257795E+02  0.98209876656E+02  0.00000000000E+00 0.  1.
<mgrwt>
<rscale>  0 0.19511415E+04</rscale>
<asrwt>0</asrwt>
<pdfrwt beam="1">  1        1 0.13161595E+00 0.19511415E+04</pdfrwt>
<pdfrwt beam="2">  1       -1 0.17115212E+00 0.19511415E+04</pdfrwt>
<totfact> 0.44541997E+00</totfact>
</mgrwt>
</event>
<event>
12    1  0.1494110E-007  0.1648298E+04  0.7818608E-02  0.8791414E-01
          2   -1    0    0  501    0  0.00000000000E+00  0.00000000000E+00  0.24655222204E+04  0.24655222204E+04  0.00000000000E+00 0. -1.
         -2   -1    0    0    0  501 -0.00000000000E+00 -0.00000000000E+00 -0.27548797536E+03  0.27548797536E+03  0.00000000000E+00 0.  1.
         23    2    1    2    0    0 -0.21435767609E+03 -0.36727983699E+02  0.16705793645E+04  0.16871723175E+04  0.91743434200E+02 0.  0.
        254    2    1    2    0    0  0.21435767609E+03  0.36727983699E+02  0.51945488055E+03  0.10538378783E+04  0.89075403040E+03 0.  0.
        -24    2    4    4    0    0  0.46196344395E+03 -0.24010866505E+03  0.37735119470E+03  0.64801055011E+03  0.80382549920E+02 0.  0.
         24    2    4    4    0    0 -0.24760576786E+03  0.27683664875E+03  0.14210368585E+03  0.40582732816E+03  0.80964290769E+02 0.  0.
         11    1    3    3    0    0 -0.10870415728E+03  0.13656262848E+02  0.10457660606E+04  0.10514892965E+04  0.00000000000E+00 0. -1.
        -11    1    3    3    0    0 -0.10565351881E+03 -0.50384246547E+02  0.62481330392E+03  0.63568302093E+03  0.00000000000E+00 0.  1.
          4    1    6    6  502    0 -0.38357626753E+01  0.40033962281E+02  0.17373027138E+02  0.43809283071E+02  0.00000000000E+00 0. -1.
          3    1    5    5  503    0  0.65022905590E+02 -0.62837985102E+02  0.85172835084E+02  0.12422158612E+03  0.00000000000E+00 0. -1.
         -4    1    5    5    0  503  0.39694053837E+03 -0.17727067995E+03  0.29217835962E+03  0.52378896399E+03  0.00000000000E+00 0.  1.
         -3    1    6    6    0  502 -0.24377000519E+03  0.23680268647E+03  0.12473065871E+03  0.36201804509E+03  0.00000000000E+00 0.  1.
<mgrwt>
<rscale>  0 0.16482982E+04</rscale>
<asrwt>0</asrwt>
<pdfrwt beam="1">  1        2 0.37931110E+00 0.16482982E+04</pdfrwt>
<pdfrwt beam="2">  1       -2 0.42382767E-01 0.16482982E+04</pdfrwt>
<totfact> 0.18406778E+01</totfact>
</mgrwt>
</event>
<event>
12    1  0.1494110E-007  0.1361039E+04  0.7818608E-02  0.8982513E-01
         -2   -1    0    0    0  501 -0.00000000000E+00  0.00000000000E+00  0.65501980206E+03  0.65501980206E+03  0.00000000000E+00 0. -1.
          2   -1    0    0  501    0  0.00000000000E+00 -0.00000000000E+00 -0.70701216670E+03  0.70701216670E+03  0.00000000000E+00 0.  1.
         23    2    1    2    0    0  0.33385769986E+03  0.17295300742E+02 -0.15226745909E+03  0.37684918034E+03  0.84082307550E+02 0.  0.
        254    2    1    2    0    0 -0.33385769986E+03 -0.17295300742E+02  0.10027509445E+03  0.98518278842E+03  0.92128711098E+03 0.  0.
        -24    2    4    4    0    0 -0.31458573371E+03 -0.37551425290E+02  0.48884065377E+03  0.58812777222E+03  0.80961708719E+02 0.  0.
         24    2    4    4    0    0 -0.19271966150E+02  0.20256124548E+02 -0.38856555932E+03  0.39705501621E+03  0.76731823537E+02 0.  0.
         13    1    3    3    0    0  0.69178993847E+02  0.16895792236E+01  0.35931877673E+01  0.69292848592E+02  0.00000000000E+00 0. -1.
        -13    1    3    3    0    0  0.26467870601E+03  0.15605721518E+02 -0.15586064685E+03  0.30755633175E+03  0.00000000000E+00 0.  1.
          2    1    6    6  502    0 -0.40493757737E+02 -0.17561465536E+01 -0.11799675784E+03  0.12476403058E+03  0.00000000000E+00 0. -1.
          1    1    5    5  503    0 -0.50749933852E+02  0.22876641288E+02  0.98165417688E+02  0.11285098906E+03  0.00000000000E+00 0. -1.
         -2    1    5    5    0  503 -0.26383579986E+03 -0.60428066578E+02  0.39067523608E+03  0.47527678315E+03  0.00000000000E+00 0.  1.
         -1    1    6    6    0  502  0.21221791587E+02  0.22012271101E+02 -0.27056880148E+03  0.27229098563E+03  0.00000000000E+00 0.  1.
<mgrwt>
<rscale>  0 0.13610393E+04</rscale>
<asrwt>0</asrwt>
<pdfrwt beam="1">  1        2 0.10877110E+00 0.13610393E+04</pdfrwt>
<pdfrwt beam="2">  1       -2 0.10077228E+00 0.13610393E+04</pdfrwt>
<totfact> 0.32032345E+01</totfact>
</mgrwt>
</event>
<event>
12    1  0.1494110E-007  0.2179020E+04  0.7818608E-02  0.8527211E-01
         -2   -1    0    0    0  501 -0.00000000000E+00  0.00000000000E+00  0.38267151896E+03  0.38267151896E+03  0.00000000000E+00 0.  1.
          2   -1    0    0  501    0  0.00000000000E+00 -0.00000000000E+00 -0.31019608742E+04  0.31019608742E+04  0.00000000000E+00 0. -1.
         23    2    1    2    0    0 -0.29202732879E+03  0.16549944664E+03  0.20648860126E+03  0.40441817107E+03  0.90810170367E+02 0.  0.
        254    2    1    2    0    0  0.29202732879E+03 -0.16549944664E+03 -0.29257779565E+04  0.30802142220E+04  0.90270314920E+03 0.  0.
        -24    2    4    4    0    0  0.20074347755E+03  0.35278573181E+03 -0.15714269275E+04  0.16250061121E+04  0.80663246246E+02 0.  0.
         24    2    4    4    0    0  0.91283851243E+02 -0.51828517844E+03 -0.13543510289E+04  0.14552081100E+04  0.80072880141E+02 0.  0.
         13    1    3    3    0    0 -0.21178660041E+02  0.33282253248E+02  0.53339617385E+02  0.66342737396E+02  0.00000000000E+00 0.  1.
        -13    1    3    3    0    0 -0.27084866875E+03  0.13221719339E+03  0.15314898388E+03  0.33807543367E+03  0.00000000000E+00 0. -1.
          2    1    6    6  502    0  0.58721578703E+02 -0.28856195377E+03 -0.86235002735E+03  0.91124299429E+03  0.00000000000E+00 0. -1.
          1    1    5    5  503    0  0.16049171348E+03  0.24106767166E+03 -0.98571774417E+03  0.10273804960E+04  0.00000000000E+00 0. -1.
         -2    1    5    5    0  503  0.40251764063E+02  0.11171806015E+03 -0.58570918337E+03  0.59762561605E+03  0.00000000000E+00 0.  1.
         -1    1    6    6    0  502  0.32562272540E+02 -0.22972322468E+03 -0.49200100157E+03  0.54396511570E+03  0.00000000000E+00 0.  1.
<mgrwt>
<rscale>  0 0.21790200E+04</rscale>
<asrwt>0</asrwt>
<pdfrwt beam="1">  1        2 0.47722473E+00 0.21790200E+04</pdfrwt>
<pdfrwt beam="2">  1       -2 0.58872544E-01 0.21790200E+04</pdfrwt>
<totfact> 0.37102399E+00</totfact>
</mgrwt>
</event>
<event>
12    1  0.1494110E-007  0.1484201E+04  0.7818608E-02  0.8895028E-01
         -2   -1    0    0    0  501 -0.00000000000E+00  0.00000000000E+00  0.46131761135E+03  0.46131761135E+03  0.00000000000E+00 0.  1.
          2   -1    0    0  501    0  0.00000000000E+00 -0.00000000000E+00 -0.11937827462E+04  0.11937827462E+04  0.00000000000E+00 0. -1.
         23    2    1    2    0    0  0.33247858516E+03  0.32165338331E+03 -0.14866684099E+03  0.49394772091E+03  0.88767183109E+02 0.  0.
        254    2    1    2    0    0 -0.33247858516E+03 -0.32165338331E+03 -0.58379829386E+03  0.11611526366E+04  0.89075927672E+03 0.  0.
        -24    2    4    4    0    0 -0.47800584000E+02  0.30007995871E+03 -0.21279524200E+03  0.37939746290E+03  0.79547107988E+02 0.  0.
         24    2    4    4    0    0 -0.28467800116E+03 -0.62173334202E+03 -0.37100305186E+03  0.78175517373E+03  0.76837323230E+02 0.  0.
         11    1    3    3    0    0  0.69800560199E+02  0.88372717984E+02 -0.35785886854E+00  0.11261431326E+03  0.00000000000E+00 0.  1.
        -11    1    3    3    0    0  0.26267802496E+03  0.23328066533E+03 -0.14830898212E+03  0.38133340765E+03  0.00000000000E+00 0. -1.
          2    1    6    6  502    0 -0.88953852642E+02 -0.21377925335E+03 -0.86005376718E+02  0.24700461916E+03  0.00000000000E+00 0. -1.
          3    1    5    5  503    0 -0.32200571826E+02  0.23096971419E+03 -0.20038362216E+03  0.30746948097E+03  0.00000000000E+00 0. -1.
         -4    1    5    5    0  503 -0.15600012174E+02  0.69110244521E+02 -0.12411619837E+02  0.71927981931E+02  0.00000000000E+00 0.  1.
         -1    1    6    6    0  502 -0.19572414851E+03 -0.40795408868E+03 -0.28499767515E+03  0.53475055458E+03  0.00000000000E+00 0.  1.
<mgrwt>
<rscale>  0 0.14842008E+04</rscale>
<asrwt>0</asrwt>
<pdfrwt beam="1">  1        2 0.18365888E+00 0.14842008E+04</pdfrwt>
<pdfrwt beam="2">  1       -2 0.70971941E-01 0.14842008E+04</pdfrwt>
<totfact> 0.33334012E+01</totfact>
</mgrwt>
</event>
<event>
12    1  0.1494110E-007  0.2876374E+04  0.7818608E-02  0.8279942E-01
         -1   -1    0    0    0  501 -0.00000000000E+00  0.00000000000E+00  0.99959202098E+03  0.99959202098E+03  0.00000000000E+00 0.  1.
          1   -1    0    0  501    0  0.00000000000E+00 -0.00000000000E+00 -0.20692267534E+04  0.20692267534E+04  0.00000000000E+00 0. -1.
         23    2    1    2    0    0  0.48304730897E+03  0.80053178477E+03 -0.14444070270E+04  0.17229533558E+04  0.89837438707E+02 0.  0.
        254    2    1    2    0    0 -0.48304730897E+03 -0.80053178477E+03  0.37477229461E+03  0.13458654186E+04  0.89258815305E+03 0.  0.
        -24    2    4    4    0    0 -0.45586547522E+03 -0.98301380006E+03  0.27388127558E+03  0.11205099860E+04  0.80013830263E+02 0.  0.
         24    2    4    4    0    0 -0.27181833748E+02  0.18248201529E+03  0.10089101903E+03  0.22535543256E+03  0.81040331163E+02 0.  0.
         11    1    3    3    0    0  0.32341615439E+03  0.47763484541E+03 -0.83032623042E+03  0.10110265592E+04  0.00000000000E+00 0. -1.
        -11    1    3    3    0    0  0.15963115458E+03  0.32289693936E+03 -0.61408079658E+03  0.71192679658E+03  0.00000000000E+00 0.  1.
          2    1    6    6  502    0 -0.53513477238E+02  0.14278802085E+03  0.65233359297E+02  0.16585385829E+03  0.00000000000E+00 0. -1.
          1    1    5    5  503    0 -0.38426907949E+03 -0.88756542894E+03  0.24131694442E+03  0.99682946574E+03  0.00000000000E+00 0. -1.
         -2    1    5    5    0  503 -0.71596395732E+02 -0.95448371121E+02  0.32564331165E+02  0.12368052028E+03  0.00000000000E+00 0.  1.
         -1    1    6    6    0  502  0.26331643491E+02  0.39693994436E+02  0.35657659729E+02  0.59501574269E+02  0.00000000000E+00 0.  1.
<mgrwt>
<rscale>  0 0.28763745E+04</rscale>
<asrwt>0</asrwt>
<pdfrwt beam="1">  1        1 0.31834258E+00 0.28763745E+04</pdfrwt>
<pdfrwt beam="2">  1       -1 0.15378339E+00 0.28763745E+04</pdfrwt>
<totfact> 0.74993415E-01</totfact>
</mgrwt>
</event>
<event>
12    1  0.1494110E-007  0.1394072E+04  0.7818608E-02  0.8958121E-01
          1   -1    0    0  501    0  0.00000000000E+00  0.00000000000E+00  0.26261544901E+03  0.26261544901E+03  0.00000000000E+00 0. -1.
         -1   -1    0    0    0  501 -0.00000000000E+00 -0.00000000000E+00 -0.18500779913E+04  0.18500779913E+04  0.00000000000E+00 0.  1.
         23    2    1    2    0    0  0.10053959478E+03 -0.33604317246E+03 -0.17694728983E+03  0.40313296458E+03  0.90402543518E+02 0.  0.
        254    2    1    2    0    0 -0.10053959478E+03  0.33604317246E+03 -0.14105152525E+04  0.17095604758E+04  0.90000584382E+03 0.  0.
        -24    2    4    4    0    0  0.23176321876E+03  0.14649466967E+03 -0.44128321605E+02  0.28842708185E+03  0.77897336063E+02 0.  0.
         24    2    4    4    0    0 -0.33230281355E+03  0.18954850280E+03 -0.13663869309E+04  0.14211333939E+04  0.79076441422E+02 0.  0.
         11    1    3    3    0    0  0.74820060104E+02 -0.11564891538E+03 -0.44654925627E+02  0.14479908634E+03  0.00000000000E+00 0.  1.
        -11    1    3    3    0    0  0.25719534679E+02 -0.22039425709E+03 -0.13229236420E+03  0.25833387824E+03  0.00000000000E+00 0. -1.
          2    1    6    6  502    0 -0.32849637328E+03  0.19468561589E+03 -0.13140615189E+04  0.13684188072E+04  0.00000000000E+00 0. -1.
          3    1    5    5  503    0  0.18328718326E+03  0.11567029906E+03 -0.66608657975E+02  0.22673888716E+03  0.00000000000E+00 0. -1.
         -4    1    5    5    0  503  0.48476035505E+02  0.30824370607E+02  0.22480336370E+02  0.61688194697E+02  0.00000000000E+00 0.  1.
         -1    1    6    6    0  502 -0.38064402623E+01 -0.51371130936E+01 -0.52325411956E+02  0.52714586736E+02  0.00000000000E+00 0.  1.
<mgrwt>
<rscale>  0 0.13940718E+04</rscale>
<asrwt>0</asrwt>
<pdfrwt beam="1">  1        1 0.40402379E-01 0.13940718E+04</pdfrwt>
<pdfrwt beam="2">  1       -1 0.28462737E+00 0.13940718E+04</pdfrwt>
<totfact> 0.42377765E+00</totfact>
</mgrwt>
</event>
<event>
12    1  0.1494110E-007  0.1271040E+04  0.7818608E-02  0.9052851E-01
          1   -1    0    0  501    0  0.00000000000E+00  0.00000000000E+00  0.49119757346E+03  0.49119757346E+03  0.00000000000E+00 0. -1.
         -1   -1    0    0    0  501 -0.00000000000E+00 -0.00000000000E+00 -0.82224682589E+03  0.82224682589E+03  0.00000000000E+00 0.  1.
         23    2    1    2    0    0 -0.16932478058E+03 -0.27945871669E+03  0.10306451722E+02  0.34056376800E+03  0.95443184541E+02 0.  0.
        254    2    1    2    0    0  0.16932478058E+03  0.27945871669E+03 -0.34135570416E+03  0.97288063135E+03  0.85041457564E+03 0.  0.
        -24    2    4    4    0    0 -0.61874898196E+02  0.84076267163E+02  0.26215664741E+03  0.29324622900E+03  0.79811786826E+02 0.  0.
         24    2    4    4    0    0  0.23119967877E+03  0.19538244952E+03 -0.60351235157E+03  0.67963440236E+03  0.77769977021E+02 0.  0.
         11    1    3    3    0    0 -0.32908896031E+02 -0.23904465211E+02  0.29496563657E+02  0.50244065944E+02  0.00000000000E+00 0.  1.
        -11    1    3    3    0    0 -0.13641588455E+03 -0.25555425147E+03 -0.19190111936E+02  0.29031970205E+03  0.00000000000E+00 0. -1.
          4    1    6    6  502    0  0.34967786035E+02 -0.36931254501E+00 -0.78875258962E+02  0.86279713306E+02  0.00000000000E+00 0. -1.
          3    1    5    5  503    0  0.32664222132E+01 -0.10734096272E+02  0.66590761173E+01  0.13047361097E+02  0.00000000000E+00 0. -1.
         -4    1    5    5    0  503 -0.65141320409E+02  0.94810363436E+02  0.25549757129E+03  0.28019886790E+03  0.00000000000E+00 0.  1.
         -3    1    6    6    0  502  0.19623189274E+03  0.19575176207E+03 -0.52463709260E+03  0.59335468905E+03  0.00000000000E+00 0.  1.
<mgrwt>
<rscale>  0 0.12710400E+04</rscale>
<asrwt>0</asrwt>
<pdfrwt beam="1">  1        1 0.75568857E-01 0.12710400E+04</pdfrwt>
<pdfrwt beam="2">  1       -1 0.12649951E+00 0.12710400E+04</pdfrwt>
<totfact> 0.24302819E+01</totfact>
</mgrwt>
</event>
<event>
12    1  0.1494110E-007  0.1526467E+04  0.7818608E-02  0.8867041E-01
         -1   -1    0    0    0  501 -0.00000000000E+00  0.00000000000E+00  0.96226213893E+03  0.96226213893E+03  0.00000000000E+00 0.  1.
          1   -1    0    0  501    0  0.00000000000E+00 -0.00000000000E+00 -0.60537049862E+03  0.60537049862E+03  0.00000000000E+00 0. -1.
         23    2    1    2    0    0  0.22761840884E+03  0.36449280143E+03  0.33003816369E+03  0.54950697764E+03  0.91474513650E+02 0.  0.
        254    2    1    2    0    0 -0.22761840884E+03 -0.36449280143E+03  0.26853476618E+02  0.10181256599E+04  0.92260154336E+03 0.  0.
        -24    2    4    4    0    0 -0.55111572425E+03 -0.39006182737E+03  0.55534596811E+02  0.68235758031E+03  0.81553695656E+02 0.  0.
         24    2    4    4    0    0  0.32349731541E+03  0.25569025944E+02 -0.28681120194E+02  0.33576807960E+03  0.81322250687E+02 0.  0.
         11    1    3    3    0    0  0.21754646478E+03  0.36883093174E+03  0.32413002632E+03  0.53705027186E+03  0.00000000000E+00 0. -1.
        -11    1    3    3    0    0  0.10071944055E+02 -0.43381303095E+01  0.59081373750E+01  0.12456705779E+02  0.00000000000E+00 0.  1.
          2    1    6    6  502    0  0.21491266405E+03 -0.67490467360E+01  0.12102213350E+02  0.21535892452E+03  0.00000000000E+00 0. -1.
          3    1    5    5  503    0 -0.19600438425E+03 -0.16918855999E+03 -0.96766087441E+01  0.25910639559E+03  0.00000000000E+00 0. -1.
         -4    1    5    5    0  503 -0.35511133999E+03 -0.22087326738E+03  0.65211205556E+02  0.42325118472E+03  0.00000000000E+00 0.  1.
         -1    1    6    6    0  502  0.10858465136E+03  0.32318072680E+02 -0.40783333544E+02  0.12040915508E+03  0.00000000000E+00 0.  1.
<mgrwt>
<rscale>  0 0.15264667E+04</rscale>
<asrwt>0</asrwt>
<pdfrwt beam="1">  1        1 0.93133923E-01 0.15264667E+04</pdfrwt>
<pdfrwt beam="2">  1       -1 0.14804033E+00 0.15264667E+04</pdfrwt>
<totfact> 0.11797670E+01</totfact>
</mgrwt>
</event>
<event>
12    1  0.1494110E-007  0.1292407E+04  0.7818608E-02  0.9035608E-01
         -1   -1    0    0    0  501 -0.00000000000E+00  0.00000000000E+00  0.40094972644E+03  0.40094972644E+03  0.00000000000E+00 0.  1.
          1   -1    0    0  501    0  0.00000000000E+00 -0.00000000000E+00 -0.10414750918E+04  0.10414750918E+04  0.00000000000E+00 0. -1.
         23    2    1    2    0    0  0.15653701776E+03  0.99907488915E+02 -0.46108402834E+03  0.50568386331E+03  0.92910409256E+02 0.  0.
        254    2    1    2    0    0 -0.15653701776E+03 -0.99907488915E+02 -0.17944133699E+03  0.93674095492E+03  0.90044382330E+03 0.  0.
        -24    2    4    4    0    0 -0.13305541747E+03 -0.46461534774E+03  0.57921507022E+02  0.49319445755E+03  0.79465127673E+02 0.  0.
         24    2    4    4    0    0 -0.23481600289E+02  0.36470785882E+03 -0.23736284401E+03  0.44354649736E+03  0.82638778838E+02 0.  0.
         11    1    3    3    0    0  0.81040879996E+02  0.94402799216E+02 -0.34827988888E+03  0.36983563069E+03  0.00000000000E+00 0. -1.
        -11    1    3    3    0    0  0.75496137759E+02  0.55046896982E+01 -0.11280413947E+03  0.13584823262E+03  0.00000000000E+00 0.  1.
          4    1    6    6  502    0  0.53170053409E+01  0.31144265328E+03 -0.17805074413E+03  0.35878526212E+03  0.00000000000E+00 0. -1.
          3    1    5    5  503    0 -0.90945494180E+02 -0.41039922696E+03  0.59390371488E+02  0.42453012217E+03  0.00000000000E+00 0. -1.
         -4    1    5    5    0  503 -0.42109923287E+02 -0.54216120774E+02 -0.14688644666E+01  0.68664335384E+02  0.00000000000E+00 0.  1.
         -3    1    6    6    0  502 -0.28798605630E+02  0.53265205536E+02 -0.59312099887E+02  0.84761235243E+02  0.00000000000E+00 0.  1.
<mgrwt>
<rscale>  0 0.12924073E+04</rscale>
<asrwt>0</asrwt>
<pdfrwt beam="1">  1        1 0.16022694E+00 0.12924073E+04</pdfrwt>
<pdfrwt beam="2">  1       -1 0.61684574E-01 0.12924073E+04</pdfrwt>
<totfact> 0.36818367E+01</totfact>
</mgrwt>
</event>
<event>
12    1  0.1494110E-007  0.1113029E+04  0.7818608E-02  0.9192585E-01
          2   -1    0    0  501    0  0.00000000000E+00  0.00000000000E+00  0.14113316604E+04  0.14113316604E+04  0.00000000000E+00 0. -1.
         -2   -1    0    0    0  501 -0.00000000000E+00 -0.00000000000E+00 -0.21944420016E+03  0.21944420016E+03  0.00000000000E+00 0.  1.
         23    2    1    2    0    0 -0.15744880440E+03  0.29892286029E+02  0.19298343076E+03  0.27735163052E+03  0.11831165466E+03 0.  0.
        254    2    1    2    0    0  0.15744880440E+03 -0.29892286029E+02  0.99890402950E+03  0.13534242301E+04  0.89903515593E+03 0.  0.
        -24    2    4    4    0    0  0.38345724483E+03  0.24818951261E+03  0.26917704375E+03  0.53645721192E+03  0.81808108106E+02 0.  0.
         24    2    4    4    0    0 -0.22600844043E+03 -0.27808179864E+03  0.72972698575E+03  0.81696701815E+03  0.80773344135E+02 0.  0.
         13    1    3    3    0    0 -0.12790663406E+03 -0.21169236098E+02  0.87239487360E+02  0.15626570880E+03  0.00000000000E+00 0.  1.
        -13    1    3    3    0    0 -0.29542170347E+02  0.51061522127E+02  0.10574394340E+03  0.12108592171E+03  0.00000000000E+00 0. -1.
          2    1    6    6  502    0 -0.22771993799E+03 -0.25231232550E+03  0.65549855609E+03  0.73837404938E+03  0.00000000000E+00 0. -1.
          3    1    5    5  503    0  0.32964127208E+03  0.18230616679E+03  0.19813243893E+03  0.42562350742E+03  0.00000000000E+00 0. -1.
         -4    1    5    5    0  503  0.53815972752E+02  0.65883345818E+02  0.71044604816E+02  0.11083370450E+03  0.00000000000E+00 0.  1.
         -1    1    6    6    0  502  0.17114975596E+01 -0.25769473136E+02  0.74228429660E+02  0.78592968766E+02  0.00000000000E+00 0.  1.
<mgrwt>
<rscale>  0 0.11130293E+04</rscale>
<asrwt>0</asrwt>
<pdfrwt beam="1">  1        2 0.21712794E+00 0.11130293E+04</pdfrwt>
<pdfrwt beam="2">  1       -2 0.33760647E-01 0.11130293E+04</pdfrwt>
<totfact> 0.11597258E+02</totfact>
</mgrwt>
</event>
<event>
12    1  0.1494110E-007  0.1198625E+04  0.7818608E-02  0.9114061E-01
         -2   -1    0    0    0  501 -0.00000000000E+00  0.00000000000E+00  0.15081523481E+03  0.15081523481E+03  0.00000000000E+00 0.  1.
          2   -1    0    0  501    0  0.00000000000E+00 -0.00000000000E+00 -0.23815577543E+04  0.23815577543E+04  0.00000000000E+00 0. -1.
         23    2    1    2    0    0 -0.12927165350E+03  0.10635419711E+03 -0.11096474204E+03  0.22041794985E+03  0.90821379630E+02 0.  0.
        254    2    1    2    0    0  0.12927165350E+03 -0.10635419711E+03 -0.21197777774E+04  0.23119550392E+04  0.90755490313E+03 0.  0.
        -24    2    4    4    0    0  0.14529724112E+03  0.14371241101E+03 -0.51936870737E+02  0.22746762730E+03  0.85320206107E+02 0.  0.
         24    2    4    4    0    0 -0.16025587626E+02 -0.25006660812E+03 -0.20678409067E+04  0.20844874119E+04  0.79571522866E+02 0.  0.
         13    1    3    3    0    0 -0.65675414276E+02  0.10696678501E+03 -0.85692985954E+02  0.15198171264E+03  0.00000000000E+00 0. -1.
        -13    1    3    3    0    0 -0.63596239223E+02 -0.61258790177E+00 -0.25271756086E+02  0.68436237206E+02  0.00000000000E+00 0.  1.
          4    1    6    6  502    0 -0.34284417593E+01 -0.21286341038E+03 -0.14673463422E+04  0.14827096390E+04  0.00000000000E+00 0. -1.
          3    1    5    5  503    0  0.73331125205E+02  0.10607435808E+03  0.37274170505E+01  0.12900820518E+03  0.00000000000E+00 0. -1.
         -4    1    5    5    0  503  0.71966115919E+02  0.37638052929E+02 -0.55664287787E+02  0.98459422117E+02  0.00000000000E+00 0.  1.
         -3    1    6    6    0  502 -0.12597145867E+02 -0.37203197733E+02 -0.60049456447E+03  0.60177777291E+03  0.00000000000E+00 0.  1.
<mgrwt>
<rscale>  0 0.11986245E+04</rscale>
<asrwt>0</asrwt>
<pdfrwt beam="1">  1        2 0.36639348E+00 0.11986245E+04</pdfrwt>
<pdfrwt beam="2">  1       -2 0.23202345E-01 0.11986245E+04</pdfrwt>
<totfact> 0.66314357E+01</totfact>
</mgrwt>
</event>
<event>
12    1  0.1561433E-007  0.2405030E+04  0.7818608E-02  0.8437623E-01
          1   -1    0    0  501    0  0.00000000000E+00  0.00000000000E+00  0.17780328713E+04  0.17780328713E+04  0.00000000000E+00 0. -1.
         -1   -1    0    0    0  501 -0.00000000000E+00 -0.00000000000E+00 -0.81328211178E+03  0.81328211178E+03  0.00000000000E+00 0.  1.
         23    2    1    2    0    0  0.66388204795E+03 -0.30276368891E+03  0.11958619055E+04  0.14039968962E+04  0.93361463009E+02 0.  0.
        254    2    1    2    0    0 -0.66388204795E+03  0.30276368891E+03 -0.23111114598E+03  0.11873180868E+04  0.90769303874E+03 0.  0.
        -24    2    4    4    0    0 -0.64614980901E+02  0.21890744027E+03 -0.47217234836E+03  0.53072215761E+03  0.81386232607E+02 0.  0.
         24    2    4    4    0    0 -0.59926706705E+03  0.83856248633E+02  0.24106120238E+03  0.65659592921E+03  0.82793857729E+02 0.  0.
         11    1    3    3    0    0  0.30502754682E+03 -0.11616194606E+03  0.61400257367E+03  0.69536649510E+03  0.00000000000E+00 0. -1.
        -11    1    3    3    0    0  0.35885450113E+03 -0.18660174285E+03  0.58185933181E+03  0.70863040114E+03  0.00000000000E+00 0.  1.
          2    1    6    6  502    0 -0.22270166573E+01 -0.15624134737E+01 -0.46162350779E+01  0.53582054224E+01  0.00000000000E+00 0. -1.
          3    1    5    5  503    0  0.19549659750E+02  0.38179173816E+02 -0.79084917762E+02  0.89968120615E+02  0.00000000000E+00 0. -1.
         -4    1    5    5    0  503 -0.84164640651E+02  0.18072826646E+03 -0.39308743059E+03  0.44075403699E+03  0.00000000000E+00 0.  1.
         -1    1    6    6    0  502 -0.59704005039E+03  0.85418662107E+02  0.24567743745E+03  0.65123772379E+03  0.00000000000E+00 0.  1.
<mgrwt>
<rscale>  0 0.24050300E+04</rscale>
<asrwt>0</asrwt>
<pdfrwt beam="1">  1        1 0.27354352E+00 0.24050300E+04</pdfrwt>
<pdfrwt beam="2">  1       -1 0.12512033E+00 0.24050300E+04</pdfrwt>
<totfact> 0.21084674E+00</totfact>
</mgrwt>
</event>
<event>
12    1  0.1494110E-007  0.1342884E+04  0.7818608E-02  0.8996232E-01
         -1   -1    0    0    0  501 -0.00000000000E+00  0.00000000000E+00  0.30357294371E+03  0.30357294371E+03  0.00000000000E+00 0.  1.
          1   -1    0    0  501    0  0.00000000000E+00 -0.00000000000E+00 -0.14850945469E+04  0.14850945469E+04  0.00000000000E+00 0. -1.
         23    2    1    2    0    0 -0.29883916427E+03  0.14907390533E+03 -0.16083150891E+03  0.38188699341E+03  0.91885940834E+02 0.  0.
        254    2    1    2    0    0  0.29883916427E+03 -0.14907390533E+03 -0.10206900943E+04  0.14067804972E+04  0.90867773352E+03 0.  0.
        -24    2    4    4    0    0  0.98498366962E+02  0.29290536131E+03 -0.59522265777E+02  0.32711950518E+03  0.89268088196E+02 0.  0.
         24    2    4    4    0    0  0.20034079731E+03 -0.44197926664E+03 -0.96116782848E+03  0.10796609920E+04  0.79637654041E+02 0.  0.
         13    1    3    3    0    0 -0.38348529777E+02  0.54508673297E+02 -0.50450471133E+02  0.83588607108E+02  0.00000000000E+00 0. -1.
        -13    1    3    3    0    0 -0.26049063449E+03  0.94565232037E+02 -0.11038103777E+03  0.29829838630E+03  0.00000000000E+00 0.  1.
          2    1    6    6  502    0  0.27962729425E+02 -0.24094414407E+02 -0.10805002575E+03  0.11418083511E+03  0.00000000000E+00 0. -1.
          1    1    5    5  503    0  0.24106361298E+02  0.45669929298E+02  0.22340831705E+02  0.56266969515E+02  0.00000000000E+00 0. -1.
         -4    1    5    5    0  503  0.74392005664E+02  0.24723543201E+03 -0.81863097482E+02  0.27085253567E+03  0.00000000000E+00 0.  1.
         -1    1    6    6    0  502  0.17237806788E+03 -0.41788485224E+03 -0.85311780274E+03  0.96548015690E+03  0.00000000000E+00 0.  1.
<mgrwt>
<rscale>  0 0.13428842E+04</rscale>
<asrwt>0</asrwt>
<pdfrwt beam="1">  1        1 0.22847608E+00 0.13428842E+04</pdfrwt>
<pdfrwt beam="2">  1       -1 0.46703530E-01 0.13428842E+04</pdfrwt>
<totfact> 0.29965081E+01</totfact>
</mgrwt>
</event>
<event>
12    1  0.1494110E-007  0.1531673E+04  0.7818608E-02  0.8863660E-01
         -1   -1    0    0    0  501 -0.00000000000E+00  0.00000000000E+00  0.35289501511E+03  0.35289501511E+03  0.00000000000E+00 0.  1.
          1   -1    0    0  501    0  0.00000000000E+00 -0.00000000000E+00 -0.16619824292E+04  0.16619824292E+04  0.00000000000E+00 0. -1.
         23    2    1    2    0    0 -0.26482499922E+03  0.15832873238E+03 -0.70370498073E+03  0.77307723042E+03  0.85131877533E+02 0.  0.
        254    2    1    2    0    0  0.26482499922E+03 -0.15832873238E+03 -0.60538243337E+03  0.12418002139E+04  0.10394131098E+04 0.  0.
        -24    2    4    4    0    0 -0.92709380169E+02  0.39431104194E+03 -0.15869857522E+03  0.44242563823E+03  0.80492115288E+02 0.  0.
         24    2    4    4    0    0  0.35753437939E+03 -0.55263977432E+03 -0.44668385816E+03  0.79937457568E+03  0.78941057075E+02 0.  0.
         11    1    3    3    0    0 -0.11462438526E+03  0.38640010753E+02 -0.35412299312E+03  0.37421236535E+03  0.00000000000E+00 0. -1.
        -11    1    3    3    0    0 -0.15020061396E+03  0.11968872163E+03 -0.34958198762E+03  0.39886486507E+03  0.00000000000E+00 0.  1.
          2    1    6    6  502    0  0.14327534520E+03 -0.16723765885E+03 -0.17656675405E+03  0.28226242704E+03  0.00000000000E+00 0. -1.
          3    1    5    5  503    0 -0.15508720590E+01  0.62101361288E+02 -0.54182518849E+02  0.82430149987E+02  0.00000000000E+00 0. -1.
         -4    1    5    5    0  503 -0.91158508110E+02  0.33220968065E+03 -0.10451605637E+03  0.35999548825E+03  0.00000000000E+00 0.  1.
         -1    1    6    6    0  502  0.21425903419E+03 -0.38540211547E+03 -0.27011710411E+03  0.51711214864E+03  0.00000000000E+00 0.  1.
<mgrwt>
<rscale>  0 0.15316727E+04</rscale>
<asrwt>0</asrwt>
<pdfrwt beam="1">  1        1 0.25568961E+00 0.15316727E+04</pdfrwt>
<pdfrwt beam="2">  1       -1 0.54291540E-01 0.15316727E+04</pdfrwt>
<totfact> 0.16727470E+01</totfact>
</mgrwt>
</event>
<event>
12    1  0.1494110E-007  0.1143494E+04  0.7818608E-02  0.9163807E-01
         -3   -1    0    0    0  501 -0.00000000000E+00  0.00000000000E+00  0.16222166985E+04  0.16222166985E+04  0.00000000000E+00 0.  1.
          3   -1    0    0  501    0  0.00000000000E+00 -0.00000000000E+00 -0.20151107895E+03  0.20151107895E+03  0.00000000000E+00 0. -1.
         23    2    1    2    0    0 -0.68654143279E+02  0.17579831882E+03  0.26375002212E+03  0.34103766025E+03  0.10547118685E+03 0.  0.
        254    2    1    2    0    0  0.68654143279E+02 -0.17579831882E+03  0.11569555974E+04  0.14826901172E+04  0.90785752676E+03 0.  0.
        -24    2    4    4    0    0 -0.67254231344E+02  0.18310922109E+03  0.10571545243E+04  0.10779217944E+04  0.79294313092E+02 0.  0.
         24    2    4    4    0    0  0.13590837462E+03 -0.35890753991E+03  0.99801073086E+02  0.40476832277E+03  0.81187637166E+02 0.  0.
         11    1    3    3    0    0 -0.20929792817E+02  0.13974574737E+03  0.12015332393E+03  0.18548248270E+03  0.00000000000E+00 0. -1.
        -11    1    3    3    0    0 -0.47724350462E+02  0.36052571448E+02  0.14359669818E+03  0.15555517755E+03  0.00000000000E+00 0.  1.
          2    1    6    6  502    0  0.10192914891E+03 -0.33629379802E+03  0.91453746973E+02  0.36310722634E+03  0.00000000000E+00 0. -1.
          3    1    5    5  503    0 -0.68959071426E+02  0.12754439690E+03  0.89084372747E+03  0.90256604938E+03  0.00000000000E+00 0. -1.
         -4    1    5    5    0  503  0.17048400824E+01  0.55564824190E+02  0.16631079683E+03  0.17535574501E+03  0.00000000000E+00 0.  1.
         -1    1    6    6    0  502  0.33979225712E+02 -0.22613741891E+02  0.83473261130E+01  0.41661096427E+02  0.00000000000E+00 0.  1.
<mgrwt>
<rscale>  0 0.11434940E+04</rscale>
<asrwt>0</asrwt>
<pdfrwt beam="1">  1        3 0.31001706E-01 0.11434940E+04</pdfrwt>
<pdfrwt beam="2">  1       -3 0.24957179E+00 0.11434940E+04</pdfrwt>
<totfact> 0.19558627E+00</totfact>
</mgrwt>
</event>
<event>
12    1  0.1494110E-007  0.1496669E+04  0.7818608E-02  0.8886671E-01
          2   -1    0    0  501    0  0.00000000000E+00  0.00000000000E+00  0.64940134500E+03  0.64940134500E+03  0.00000000000E+00 0. -1.
         -2   -1    0    0    0  501 -0.00000000000E+00 -0.00000000000E+00 -0.86234021045E+03  0.86234021045E+03  0.00000000000E+00 0.  1.
         23    2    1    2    0    0  0.92942525986E+02 -0.16770885005E+03 -0.50515359471E+03  0.54793095241E+03  0.91014300202E+02 0.  0.
        254    2    1    2    0    0 -0.92942525986E+02  0.16770885005E+03  0.29221472925E+03  0.96381060304E+03  0.89820758125E+03 0.  0.
        -24    2    4    4    0    0 -0.36636757866E+03 -0.20733647318E+03  0.40620043755E+02  0.43038353287E+03  0.79789608426E+02 0.  0.
         24    2    4    4    0    0  0.27342505267E+03  0.37504532323E+03  0.25159468550E+03  0.53342707016E+03  0.76317098425E+02 0.  0.
         13    1    3    3    0    0  0.10602061245E+03 -0.11635173435E+03 -0.34442658216E+03  0.37869217954E+03  0.00000000000E+00 0.  1.
        -13    1    3    3    0    0 -0.13078086461E+02 -0.51357115697E+02 -0.16072701255E+03  0.16923877287E+03  0.00000000000E+00 0. -1.
          2    1    6    6  502    0  0.23727881501E+03  0.34131595177E+03  0.24756372648E+03  0.48382394903E+03  0.00000000000E+00 0. -1.
          1    1    5    5  503    0 -0.19046130019E+03 -0.91477188775E+02  0.57792128463E+02  0.21905139362E+03  0.00000000000E+00 0. -1.
         -2    1    5    5    0  503 -0.17590627847E+03 -0.11585928440E+03 -0.17172084708E+02  0.21133213925E+03  0.00000000000E+00 0.  1.
         -1    1    6    6    0  502  0.36146237658E+02  0.33729371456E+02  0.40309590170E+01  0.49603121134E+02  0.00000000000E+00 0.  1.
<mgrwt>
<rscale>  0 0.14966695E+04</rscale>
<asrwt>0</asrwt>
<pdfrwt beam="1">  1        2 0.99907899E-01 0.14966695E+04</pdfrwt>
<pdfrwt beam="2">  1       -2 0.13266772E+00 0.14966695E+04</pdfrwt>
<totfact> 0.17935935E+01</totfact>
</mgrwt>
</event>
<event>
12    1  0.1494110E-007  0.1859733E+04  0.7818608E-02  0.8675164E-01
         -2   -1    0    0    0  501 -0.00000000000E+00  0.00000000000E+00  0.43351684082E+03  0.43351684082E+03  0.00000000000E+00 0.  1.
          2   -1    0    0  501    0  0.00000000000E+00 -0.00000000000E+00 -0.19945051027E+04  0.19945051027E+04  0.00000000000E+00 0. -1.
         23    2    1    2    0    0 -0.34663264684E+03 -0.56597173751E+03 -0.27201482910E+03  0.72299227687E+03  0.90816109004E+02 0.  0.
        254    2    1    2    0    0  0.34663264684E+03  0.56597173751E+03 -0.12889734328E+04  0.17050296667E+04  0.89732683802E+03 0.  0.
        -24    2    4    4    0    0  0.40945660093E+03  0.77407958796E+03 -0.95817407228E+03  0.13005548282E+04  0.80569174525E+02 0.  0.
         24    2    4    4    0    0 -0.62823954094E+02 -0.20810785046E+03 -0.33079936050E+03  0.40447483843E+03  0.83162199244E+02 0.  0.
         11    1    3    3    0    0 -0.21356617929E+03 -0.34789780322E+03 -0.11901991479E+03  0.42521657369E+03  0.00000000000E+00 0.  1.
        -11    1    3    3    0    0 -0.13306646754E+03 -0.21807393429E+03 -0.15299491432E+03  0.29777570318E+03  0.00000000000E+00 0. -1.
          4    1    6    6  502    0 -0.33977568158E+02 -0.40483553163E+02 -0.35417430337E+02  0.63622225568E+02  0.00000000000E+00 0. -1.
          3    1    5    5  503    0  0.33156617108E+03  0.59539942123E+03 -0.78786350019E+03  0.10417127683E+04  0.00000000000E+00 0. -1.
         -4    1    5    5    0  503  0.77890429853E+02  0.17868016673E+03 -0.17031057208E+03  0.25884205997E+03  0.00000000000E+00 0.  1.
         -3    1    6    6    0  502 -0.28846385936E+02 -0.16762429729E+03 -0.29538193017E+03  0.34085261286E+03  0.00000000000E+00 0.  1.
<mgrwt>
<rscale>  0 0.18597328E+04</rscale>
<asrwt>0</asrwt>
<pdfrwt beam="1">  1        2 0.30684693E+00 0.18597328E+04</pdfrwt>
<pdfrwt beam="2">  1       -2 0.66694901E-01 0.18597328E+04</pdfrwt>
<totfact> 0.13055083E+01</totfact>
</mgrwt>
</event>
<event>
12    1  0.1494110E-007  0.1468776E+04  0.7818608E-02  0.8905486E-01
          1   -1    0    0  501    0  0.00000000000E+00  0.00000000000E+00  0.31903372944E+04  0.31903372944E+04  0.00000000000E+00 0. -1.
         -1   -1    0    0    0  501 -0.00000000000E+00 -0.00000000000E+00 -0.16904969093E+03  0.16904969093E+03  0.00000000000E+00 0.  1.
         23    2    1    2    0    0 -0.13424125204E+03  0.25056035019E+03  0.17302280041E+04  0.17560301451E+04  0.95664629918E+02 0.  0.
        254    2    1    2    0    0  0.13424125204E+03 -0.25056035019E+03  0.12910595994E+04  0.16033568402E+04  0.90725799265E+03 0.  0.
        -24    2    4    4    0    0  0.37568158058E+03  0.19667816734E+03  0.67057582742E+03  0.79737441583E+03  0.79467397148E+02 0.  0.
         24    2    4    4    0    0 -0.24144032854E+03 -0.44723851753E+03  0.62048377194E+03  0.80598242442E+03  0.79321078014E+02 0.  0.
         13    1    3    3    0    0 -0.13205803246E+03  0.16235655877E+03  0.11098728064E+04  0.11294319911E+04  0.00000000000E+00 0. -1.
        -13    1    3    3    0    0 -0.21832195863E+01  0.88203791426E+02  0.62035519774E+03  0.62659815403E+03  0.00000000000E+00 0.  1.
          2    1    6    6  502    0 -0.10561747774E+03 -0.21332632190E+03  0.23029166761E+03  0.33120601351E+03  0.00000000000E+00 0. -1.
          1    1    5    5  503    0  0.33407134242E+03  0.17976059580E+03  0.63655815177E+03  0.74102888892E+03  0.00000000000E+00 0. -1.
         -2    1    5    5    0  503  0.41610238157E+02  0.16917571542E+02  0.34017675648E+02  0.56345526911E+02  0.00000000000E+00 0.  1.
         -1    1    6    6    0  502 -0.13582285080E+03 -0.23391219564E+03  0.39019210433E+03  0.47477641090E+03  0.00000000000E+00 0.  1.
<mgrwt>
<rscale>  0 0.14687757E+04</rscale>
<asrwt>0</asrwt>
<pdfrwt beam="1">  1        1 0.49082108E+00 0.14687757E+04</pdfrwt>
<pdfrwt beam="2">  1       -1 0.26007647E-01 0.14687757E+04</pdfrwt>
<totfact> 0.55329829E+00</totfact>
</mgrwt>
</event>
<event>
12    1  0.1494110E-007  0.1046279E+04  0.7818608E-02  0.9259194E-01
         -1   -1    0    0    0  501 -0.00000000000E+00  0.00000000000E+00  0.15024465562E+03  0.15024465562E+03  0.00000000000E+00 0.  1.
          1   -1    0    0  501    0  0.00000000000E+00 -0.00000000000E+00 -0.18215298895E+04  0.18215298895E+04  0.00000000000E+00 0. -1.
         23    2    1    2    0    0 -0.17761168314E+01  0.10693259101E+03 -0.22970598468E+03  0.27055698561E+03  0.94860473610E+02 0.  0.
        254    2    1    2    0    0  0.17761168314E+01 -0.10693259101E+03 -0.14415792492E+04  0.17012175595E+04  0.89696862790E+03 0.  0.
        -24    2    4    4    0    0 -0.22364007486E+03  0.23789107225E+03 -0.20131996767E+03  0.39187838782E+03  0.80199103011E+02 0.  0.
         24    2    4    4    0    0  0.22541619169E+03 -0.34482366326E+03 -0.12402592815E+04  0.13093391717E+04  0.80063492709E+02 0.  0.
         13    1    3    3    0    0 -0.21436562015E+02  0.12124601957E+02 -0.39886798078E+01  0.24948782139E+02  0.00000000000E+00 0.  1.
        -13    1    3    3    0    0  0.19660445183E+02  0.94807989056E+02 -0.22571730488E+03  0.24560820348E+03  0.00000000000E+00 0. -1.
          2    1    6    6  502    0  0.21372798153E+03 -0.31460767056E+03 -0.10594853666E+04  0.11256850707E+04  0.00000000000E+00 0. -1.
          1    1    5    5  503    0 -0.12653920039E+03  0.15739654119E+03 -0.16454074380E+03  0.26049855428E+03  0.00000000000E+00 0. -1.
         -2    1    5    5    0  503 -0.97100874474E+02  0.80494531058E+02 -0.36779223874E+02  0.13137983355E+03  0.00000000000E+00 0.  1.
         -1    1    6    6    0  502  0.11688210161E+02 -0.30215992701E+02 -0.18077391494E+03  0.18365410095E+03  0.00000000000E+00 0.  1.
<mgrwt>
<rscale>  0 0.10462794E+04</rscale>
<asrwt>0</asrwt>
<pdfrwt beam="1">  1        1 0.28023538E+00 0.10462794E+04</pdfrwt>
<pdfrwt beam="2">  1       -1 0.23114562E-01 0.10462794E+04</pdfrwt>
<totfact> 0.63209915E+01</totfact>
</mgrwt>
</event>
<event>
12    1  0.1494110E-007  0.1325794E+04  0.7818608E-02  0.9009357E-01
         -2   -1    0    0    0  501 -0.00000000000E+00  0.00000000000E+00  0.14873880972E+03  0.14873880972E+03  0.00000000000E+00 0.  1.
          2   -1    0    0  501    0  0.00000000000E+00 -0.00000000000E+00 -0.29543880761E+04  0.29543880761E+04  0.00000000000E+00 0. -1.
         23    2    1    2    0    0  0.24430796652E+03 -0.15199594781E+03 -0.30069080593E+03  0.42583052048E+03  0.90152763406E+02 0.  0.
        254    2    1    2    0    0 -0.24430796652E+03  0.15199594781E+03 -0.25049584604E+04  0.26772963653E+04  0.90017208831E+03 0.  0.
        -24    2    4    4    0    0 -0.43349241721E+03  0.24953542339E+03 -0.73407069988E+03  0.89174761731E+03  0.78552003400E+02 0.  0.
         24    2    4    4    0    0  0.18918445069E+03 -0.97539475576E+02 -0.17708877605E+04  0.17855487480E+04  0.82681106521E+02 0.  0.
         13    1    3    3    0    0  0.96887625121E+02 -0.12859238803E+02 -0.81346499133E+02  0.12716062616E+03  0.00000000000E+00 0. -1.
        -13    1    3    3    0    0  0.14742034140E+03 -0.13913670901E+03 -0.21934430679E+03  0.29866989432E+03  0.00000000000E+00 0.  1.
          4    1    6    6  502    0  0.14059807205E+03 -0.99667619447E+02 -0.15387695018E+04  0.15483904649E+04  0.00000000000E+00 0. -1.
          3    1    5    5  503    0 -0.33448797471E+03  0.21780858591E+03 -0.53902139952E+03  0.67072114508E+03  0.00000000000E+00 0. -1.
         -4    1    5    5    0  503 -0.99004442505E+02  0.31726837485E+02 -0.19504930036E+03  0.22102647223E+03  0.00000000000E+00 0.  1.
         -3    1    6    6    0  502  0.48586378647E+02  0.21281438715E+01 -0.23211825873E+03  0.23715828306E+03  0.00000000000E+00 0.  1.
<mgrwt>
<rscale>  0 0.13257936E+04</rscale>
<asrwt>0</asrwt>
<pdfrwt beam="1">  1        2 0.45452125E+00 0.13257936E+04</pdfrwt>
<pdfrwt beam="2">  1       -2 0.22882893E-01 0.13257936E+04</pdfrwt>
<totfact> 0.30924800E+01</totfact>
</mgrwt>
</event>
<event>
12    1  0.1494110E-007  0.1787765E+04  0.7818608E-02  0.8712833E-01
          1   -1    0    0  501    0  0.00000000000E+00  0.00000000000E+00  0.17267904779E+04  0.17267904779E+04  0.00000000000E+00 0. -1.
         -1   -1    0    0    0  501 -0.00000000000E+00 -0.00000000000E+00 -0.46272293490E+03  0.46272293490E+03  0.00000000000E+00 0.  1.
         23    2    1    2    0    0 -0.13204743815E+03 -0.43724165555E+03 -0.11179374443E+03  0.47938501316E+03  0.93248904940E+02 0.  0.
        254    2    1    2    0    0  0.13204743815E+03  0.43724165555E+03  0.13758612874E+04  0.17101283996E+04  0.90715382914E+03 0.  0.
        -24    2    4    4    0    0  0.45121740547E+03  0.49954430771E+03  0.96992065713E+03  0.11834541074E+04  0.81706062846E+02 0.  0.
         24    2    4    4    0    0 -0.31916996732E+03 -0.62302652153E+02  0.40594063029E+03  0.52667429228E+03  0.82746155961E+02 0.  0.
         13    1    3    3    0    0 -0.13684556662E+03 -0.43255801334E+03 -0.11950756811E+03  0.46916436655E+03  0.00000000000E+00 0.  1.
        -13    1    3    3    0    0  0.47981284705E+01 -0.46836422166E+01  0.77138236821E+01  0.10220646605E+02  0.00000000000E+00 0. -1.
          4    1    6    6  502    0 -0.10544444804E+03 -0.26626034133E+02  0.78883014521E+02  0.13435031557E+03  0.00000000000E+00 0. -1.
          1    1    5    5  503    0  0.40438963825E+03  0.45351186049E+03  0.91209995846E+03  0.10959609123E+04  0.00000000000E+00 0. -1.
         -2    1    5    5    0  503  0.46827767225E+02  0.46032447218E+02  0.57820698670E+02  0.87493195020E+02  0.00000000000E+00 0.  1.
         -3    1    6    6    0  502 -0.21372551929E+03 -0.35676618020E+02  0.32705761577E+03  0.39232397671E+03  0.00000000000E+00 0.  1.
<mgrwt>
<rscale>  0 0.17877646E+04</rscale>
<asrwt>0</asrwt>
<pdfrwt beam="1">  1        1 0.26566007E+00 0.17877646E+04</pdfrwt>
<pdfrwt beam="2">  1       -1 0.71188145E-01 0.17877646E+04</pdfrwt>
<totfact> 0.86013944E+00</totfact>
</mgrwt>
</event>
<event>
12    1  0.1494110E-007  0.2016044E+04  0.7818608E-02  0.8599156E-01
         -1   -1    0    0    0  501 -0.00000000000E+00  0.00000000000E+00  0.80828027721E+03  0.80828027721E+03  0.00000000000E+00 0.  1.
          1   -1    0    0  501    0  0.00000000000E+00 -0.00000000000E+00 -0.12571242331E+04  0.12571242331E+04  0.00000000000E+00 0. -1.
         23    2    1    2    0    0  0.16087221664E+03  0.16647005174E+03 -0.97385568700E+03  0.10051031153E+04  0.90803221476E+02 0.  0.
        254    2    1    2    0    0 -0.16087221664E+03 -0.16647005174E+03  0.52501173108E+03  0.10603013951E+04  0.89163309853E+03 0.  0.
        -24    2    4    4    0    0 -0.29495213956E+03  0.11331558191E+03  0.64200286367E+03  0.71992267505E+03  0.79270393920E+02 0.  0.
         24    2    4    4    0    0  0.13407992292E+03 -0.27978563366E+03 -0.11699113259E+03  0.34037872002E+03  0.76898123532E+02 0.  0.
         11    1    3    3    0    0  0.18140656172E+02  0.28073049436E+02 -0.31865601356E+03  0.32040417364E+03  0.00000000000E+00 0.  1.
        -11    1    3    3    0    0  0.14273156047E+03  0.13839700231E+03 -0.65519967345E+03  0.68469894164E+03  0.00000000000E+00 0. -1.
          2    1    6    6  502    0  0.17153646485E+01 -0.49811181526E+02 -0.40518053896E+02  0.64232460426E+02  0.00000000000E+00 0. -1.
          1    1    5    5  503    0 -0.40948249908E+01  0.16729933925E+02  0.56391358636E+02  0.58963069880E+02  0.00000000000E+00 0. -1.
         -2    1    5    5    0  503 -0.29085731457E+03  0.96585647990E+02  0.58561150504E+03  0.66095960517E+03  0.00000000000E+00 0.  1.
         -1    1    6    6    0  502  0.13236455827E+03 -0.22997445213E+03 -0.76473078693E+02  0.27614625959E+03  0.00000000000E+00 0.  1.
<mgrwt>
<rscale>  0 0.20160444E+04</rscale>
<asrwt>0</asrwt>
<pdfrwt beam="1">  1        1 0.19340373E+00 0.20160444E+04</pdfrwt>
<pdfrwt beam="2">  1       -1 0.12435081E+00 0.20160444E+04</pdfrwt>
<totfact> 0.51004960E+00</totfact>
</mgrwt>
</event>
<event>
12    1  0.1494110E-007  0.1638082E+04  0.7818608E-02  0.8797488E-01
          2   -1    0    0  501    0  0.00000000000E+00  0.00000000000E+00  0.18639904286E+04  0.18639904286E+04  0.00000000000E+00 0.  1.
         -2   -1    0    0    0  501 -0.00000000000E+00 -0.00000000000E+00 -0.35988832337E+03  0.35988832337E+03  0.00000000000E+00 0. -1.
         23    2    1    2    0    0  0.42618708683E+03  0.33028512771E+02  0.16545478663E+02  0.43677507313E+03  0.88161193292E+02 0.  0.
        254    2    1    2    0    0 -0.42618708683E+03 -0.33028512771E+02  0.14875566266E+04  0.17871036789E+04  0.89341397237E+03 0.  0.
        -24    2    4    4    0    0 -0.50629363546E+03 -0.12929183651E+03  0.33860276985E+03  0.62860288192E+03  0.86256148257E+02 0.  0.
         24    2    4    4    0    0  0.80106548628E+02  0.96263323742E+02  0.11489538567E+04  0.11585007969E+04  0.79658301181E+02 0.  0.
         13    1    3    3    0    0  0.13632735132E+03  0.49903704740E+02 -0.79603635775E+01  0.14539220699E+03  0.00000000000E+00 0.  1.
        -13    1    3    3    0    0  0.28985973551E+03 -0.16875191970E+02  0.24505842241E+02  0.29138286614E+03  0.00000000000E+00 0. -1.
          2    1    6    6  502    0 -0.17185532149E+01  0.30940482867E+02  0.10990630116E+03  0.11419133916E+03  0.00000000000E+00 0. -1.
          1    1    5    5  503    0 -0.66931917216E+02  0.10762386627E+02  0.54357278674E+02  0.86893177252E+02  0.00000000000E+00 0. -1.
         -2    1    5    5    0  503 -0.43936171825E+03 -0.14005422314E+03  0.28424549118E+03  0.54170970467E+03  0.00000000000E+00 0.  1.
         -3    1    6    6    0  502  0.81825101843E+02  0.65322840875E+02  0.10390475556E+04  0.10443094578E+04  0.00000000000E+00 0.  1.
<mgrwt>
<rscale>  0 0.16380823E+04</rscale>
<asrwt>0</asrwt>
<pdfrwt beam="1">  1        2 0.28676775E+00 0.16380823E+04</pdfrwt>
<pdfrwt beam="2">  1       -2 0.55367435E-01 0.16380823E+04</pdfrwt>
<totfact> 0.23309655E+01</totfact>
</mgrwt>
</event>
<event>
12    1  0.1494110E-007  0.3226720E+04  0.7818608E-02  0.8181796E-01
         -2   -1    0    0    0  501 -0.00000000000E+00  0.00000000000E+00  0.67183037876E+03  0.67183037876E+03  0.00000000000E+00 0.  1.
          2   -1    0    0  501    0  0.00000000000E+00 -0.00000000000E+00 -0.38743875869E+04  0.38743875869E+04  0.00000000000E+00 0. -1.
         23    2    1    2    0    0  0.48340580155E+03 -0.69305622557E+03 -0.32018828336E+04  0.33123154985E+04  0.73295163526E+02 0.  0.
        254    2    1    2    0    0 -0.48340580155E+03  0.69305622557E+03 -0.67437463830E+00  0.12339024672E+04  0.89917003010E+03 0.  0.
        -24    2    4    4    0    0 -0.41202284717E+03  0.34130128129E+03 -0.41366197218E+03  0.68095387714E+03  0.79577411129E+02 0.  0.
         24    2    4    4    0    0 -0.71382954378E+02  0.35175494428E+03  0.41298759755E+03  0.55294859007E+03  0.79789225639E+02 0.  0.
         13    1    3    3    0    0  0.17317786901E+03 -0.24678290900E+03 -0.10086905054E+04  0.10527815130E+04  0.00000000000E+00 0. -1.
        -13    1    3    3    0    0  0.31022793254E+03 -0.44627331657E+03 -0.21931923282E+04  0.22595339855E+04  0.00000000000E+00 0.  1.
          4    1    6    6  502    0  0.39291377000E+01  0.16117689093E+03  0.15693904204E+03  0.22499620266E+03  0.00000000000E+00 0. -1.
          3    1    5    5  503    0 -0.22729701372E+03  0.21863841777E+03 -0.28197395204E+03  0.42305555167E+03  0.00000000000E+00 0. -1.
         -4    1    5    5    0  503 -0.18472583345E+03  0.12266286352E+03 -0.13168802014E+03  0.25789832547E+03  0.00000000000E+00 0.  1.
         -3    1    6    6    0  502 -0.75312092078E+02  0.19057805335E+03  0.25604855550E+03  0.32795238741E+03  0.00000000000E+00 0.  1.
<mgrwt>
<rscale>  0 0.32267205E+04</rscale>
<asrwt>0</asrwt>
<pdfrwt beam="1">  1        2 0.59605964E+00 0.32267205E+04</pdfrwt>
<pdfrwt beam="2">  1       -2 0.10335852E+00 0.32267205E+04</pdfrwt>
<totfact> 0.27563895E-01</totfact>
</mgrwt>
</event>
<event>
12    1  0.1494110E-007  0.2466195E+04  0.7818608E-02  0.8415129E-01
          2   -1    0    0  501    0  0.00000000000E+00  0.00000000000E+00  0.28886569362E+04  0.28886569362E+04  0.00000000000E+00 0. -1.
         -2   -1    0    0    0  501 -0.00000000000E+00 -0.00000000000E+00 -0.52637938645E+03  0.52637938645E+03  0.00000000000E+00 0.  1.
         23    2    1    2    0    0 -0.47987301173E+03 -0.95409172027E+03  0.88350319615E+03  0.13890298315E+04  0.90867249640E+02 0.  0.
        254    2    1    2    0    0  0.47987301173E+03  0.95409172027E+03  0.14787743536E+04  0.20260064912E+04  0.88167998464E+03 0.  0.
        -24    2    4    4    0    0  0.42463932024E+03  0.53821979764E+03  0.26523822172E+03  0.73935509057E+03  0.79344393827E+02 0.  0.
         24    2    4    4    0    0  0.55233691496E+02  0.41587192263E+03  0.12135361319E+04  0.12866514006E+04  0.82472216953E+02 0.  0.
         11    1    3    3    0    0 -0.26859715310E+03 -0.45515228413E+03  0.47309659843E+03  0.70931546145E+03  0.00000000000E+00 0.  1.
        -11    1    3    3    0    0 -0.21127585863E+03 -0.49893943614E+03  0.41040659772E+03  0.67971437003E+03  0.00000000000E+00 0. -1.
          2    1    6    6  502    0 -0.20344066040E+02  0.82985184093E+02  0.27478179325E+03  0.28775937118E+03  0.00000000000E+00 0. -1.
          1    1    5    5  503    0  0.98735283906E+02  0.15112110347E+03  0.10365598027E+03  0.20816053047E+03  0.00000000000E+00 0. -1.
         -2    1    5    5    0  503  0.32590403633E+03  0.38709869417E+03  0.16158224145E+03  0.53119456010E+03  0.00000000000E+00 0.  1.
         -1    1    6    6    0  502  0.75577757537E+02  0.33288673853E+03  0.93875433862E+03  0.99889202941E+03  0.00000000000E+00 0.  1.
<mgrwt>
<rscale>  0 0.24661950E+04</rscale>
<asrwt>0</asrwt>
<pdfrwt beam="1">  1        2 0.44440875E+00 0.24661950E+04</pdfrwt>
<pdfrwt beam="2">  1       -2 0.80981446E-01 0.24661950E+04</pdfrwt>
<totfact> 0.24558286E+00</totfact>
</mgrwt>
</event>
<event>
12    1  0.1494110E-007  0.2683389E+04  0.7818608E-02  0.8340415E-01
          2   -1    0    0  501    0  0.00000000000E+00  0.00000000000E+00  0.73137972322E+03  0.73137972322E+03  0.00000000000E+00 0. -1.
         -2   -1    0    0    0  501 -0.00000000000E+00 -0.00000000000E+00 -0.24612994361E+04  0.24612994361E+04  0.00000000000E+00 0.  1.
         23    2    1    2    0    0 -0.48307030796E+03 -0.42362228399E+03  0.41947218789E+03  0.77233663309E+03  0.87944280529E+02 0.  0.
        254    2    1    2    0    0  0.48307030796E+03  0.42362228399E+03 -0.21493919008E+04  0.24203425263E+04  0.90849305954E+03 0.  0.
        -24    2    4    4    0    0  0.38228237799E+03  0.69963754731E+03 -0.16751875744E+04  0.18569123360E+04  0.78977844124E+02 0.  0.
         24    2    4    4    0    0  0.10078792997E+03 -0.27601526332E+03 -0.47420432637E+03  0.56343019027E+03  0.79001289524E+02 0.  0.
         11    1    3    3    0    0 -0.54342002369E+02 -0.75415229296E+02  0.89048103639E+02  0.12872480256E+03  0.00000000000E+00 0.  1.
        -11    1    3    3    0    0 -0.42872830560E+03 -0.34820705469E+03  0.33042408425E+03  0.64361183054E+03  0.00000000000E+00 0. -1.
          4    1    6    6  502    0  0.81727677940E+02 -0.27086329349E+03 -0.45561011321E+03  0.53630859806E+03  0.00000000000E+00 0. -1.
          1    1    5    5  503    0  0.19583696810E+03  0.43464932659E+03 -0.10270341402E+04  0.11322858651E+04  0.00000000000E+00 0. -1.
         -2    1    5    5    0  503  0.18644540989E+03  0.26498822072E+03 -0.64815343427E+03  0.72462647091E+03  0.00000000000E+00 0.  1.
         -3    1    6    6    0  502  0.19060252034E+02 -0.51519698340E+01 -0.18594213164E+02  0.27121592209E+02  0.00000000000E+00 0.  1.
<mgrwt>
<rscale>  0 0.26833893E+04</rscale>
<asrwt>0</asrwt>
<pdfrwt beam="1">  1        2 0.11251996E+00 0.26833893E+04</pdfrwt>
<pdfrwt beam="2">  1       -2 0.37866145E+00 0.26833893E+04</pdfrwt>
<totfact> 0.34758039E-01</totfact>
</mgrwt>
</event>
<event>
12    1  0.1494110E-007  0.1444247E+04  0.7818608E-02  0.8922399E-01
         -1   -1    0    0    0  501 -0.00000000000E+00  0.00000000000E+00  0.48748850236E+03  0.48748850236E+03  0.00000000000E+00 0.  1.
          1   -1    0    0  501    0  0.00000000000E+00 -0.00000000000E+00 -0.10696910586E+04  0.10696910586E+04  0.00000000000E+00 0. -1.
         23    2    1    2    0    0  0.14183271812E+03  0.34515321797E+03 -0.45201751598E+03  0.59294133751E+03  0.89511625901E+02 0.  0.
        254    2    1    2    0    0 -0.14183271812E+03 -0.34515321797E+03 -0.13018504028E+03  0.96423822347E+03  0.87952256542E+03 0.  0.
        -24    2    4    4    0    0  0.56474101556E+02 -0.64112743187E+02  0.34933619862E+03  0.36826037746E+03  0.79247447625E+02 0.  0.
         24    2    4    4    0    0 -0.19830681967E+03 -0.28104047479E+03 -0.47952123890E+03  0.59597784600E+03  0.83304448684E+02 0.  0.
         13    1    3    3    0    0  0.48760191530E+02  0.49978708409E+02 -0.12151384489E+03  0.14014650218E+03  0.00000000000E+00 0.  1.
        -13    1    3    3    0    0  0.93072526585E+02  0.29517450957E+03 -0.33050367109E+03  0.45279483533E+03  0.00000000000E+00 0. -1.
          2    1    6    6  502    0 -0.61741726881E+01 -0.43476688429E+02 -0.33001339775E+02  0.54931150289E+02  0.00000000000E+00 0. -1.
          1    1    5    5  503    0 -0.15720329372E+02  0.33218015641E+01  0.30547039986E+02  0.34514993453E+02  0.00000000000E+00 0. -1.
         -2    1    5    5    0  503  0.72194430928E+02 -0.67434544751E+02  0.31878915864E+03  0.33374538401E+03  0.00000000000E+00 0.  1.
         -1    1    6    6    0  502 -0.19213264698E+03 -0.23756378636E+03 -0.44651989913E+03  0.54104669571E+03  0.00000000000E+00 0.  1.
<mgrwt>
<rscale>  0 0.14442466E+04</rscale>
<asrwt>0</asrwt>
<pdfrwt beam="1">  1        1 0.16456785E+00 0.14442466E+04</pdfrwt>
<pdfrwt beam="2">  1       -1 0.74998231E-01 0.14442466E+04</pdfrwt>
<totfact> 0.23227773E+01</totfact>
</mgrwt>
</event>
<event>
12    1  0.1494110E-007  0.1407467E+04  0.7818608E-02  0.8948431E-01
          2   -1    0    0  501    0  0.00000000000E+00  0.00000000000E+00  0.62097245554E+03  0.62097245554E+03  0.00000000000E+00 0. -1.
         -2   -1    0    0    0  501 -0.00000000000E+00 -0.00000000000E+00 -0.79752453309E+03  0.79752453309E+03  0.00000000000E+00 0.  1.
         23    2    1    2    0    0  0.29173269185E+03  0.18421669918E+03  0.14188783909E+03  0.38415074849E+03  0.91629050714E+02 0.  0.
        254    2    1    2    0    0 -0.29173269185E+03 -0.18421669918E+03 -0.31843991664E+03  0.10343462401E+04  0.92164223439E+03 0.  0.
        -24    2    4    4    0    0  0.23143366100E+03 -0.29680775410E+03  0.37623486494E+02  0.38662024860E+03  0.80020669540E+02 0.  0.
         24    2    4    4    0    0 -0.52316635285E+03  0.11259105492E+03 -0.35606340314E+03  0.64772599153E+03  0.79925181612E+02 0.  0.
         13    1    3    3    0    0  0.17220291243E+03  0.54638403954E+02  0.69146375338E+02  0.19344358211E+03  0.00000000000E+00 0. -1.
        -13    1    3    3    0    0  0.11952977942E+03  0.12957829523E+03  0.72741463756E+02  0.19070716639E+03  0.00000000000E+00 0.  1.
          2    1    6    6  502    0 -0.47571290115E+03  0.89419440857E+02 -0.34321717559E+03  0.59337730858E+03  0.00000000000E+00 0. -1.
          1    1    5    5  503    0  0.45924005295E+01  0.52466008561E+01  0.16331752977E+01  0.71613004908E+01  0.00000000000E+00 0. -1.
         -2    1    5    5    0  503  0.22684126047E+03 -0.30205435496E+03  0.35990311196E+02  0.37945894811E+03  0.00000000000E+00 0.  1.
         -1    1    6    6    0  502 -0.47453451697E+02  0.23171614062E+02 -0.12846227551E+02  0.54348682951E+02  0.00000000000E+00 0.  1.
<mgrwt>
<rscale>  0 0.14074669E+04</rscale>
<asrwt>0</asrwt>
<pdfrwt beam="1">  1        2 0.95534224E-01 0.14074669E+04</pdfrwt>
<pdfrwt beam="2">  1       -2 0.12269608E+00 0.14074669E+04</pdfrwt>
<totfact> 0.23238787E+01</totfact>
</mgrwt>
</event>
<event>
12    1  0.1494110E-007  0.1553139E+04  0.7818608E-02  0.8849865E-01
         -2   -1    0    0    0  501 -0.00000000000E+00  0.00000000000E+00  0.24890846938E+03  0.24890846938E+03  0.00000000000E+00 0.  1.
          2   -1    0    0  501    0  0.00000000000E+00 -0.00000000000E+00 -0.24228186027E+04  0.24228186027E+04  0.00000000000E+00 0. -1.
         23    2    1    2    0    0  0.32514489476E+03  0.38522873309E+03 -0.13872235989E+04  0.14787418924E+04  0.90376389436E+02 0.  0.
        254    2    1    2    0    0 -0.32514489476E+03 -0.38522873309E+03 -0.78668653448E+03  0.11929851797E+04  0.74176651044E+03 0.  0.
        -24    2    4    4    0    0 -0.20459172080E+03 -0.59910828648E+03 -0.54832150134E+03  0.84124339604E+03  0.79028294920E+02 0.  0.
         24    2    4    4    0    0 -0.12055317396E+03  0.21387955339E+03 -0.23836503314E+03  0.35174178364E+03  0.81405541726E+02 0.  0.
         13    1    3    3    0    0  0.23151501250E+03  0.32259464375E+03 -0.11367057715E+04  0.12040625051E+04  0.00000000000E+00 0. -1.
        -13    1    3    3    0    0  0.93629882257E+02  0.62634089337E+02 -0.25051782732E+03  0.27467938729E+03  0.00000000000E+00 0.  1.
          2    1    6    6  502    0 -0.33880289027E+02  0.74630366530E+02 -0.31648922493E+02  0.87859091094E+02  0.00000000000E+00 0. -1.
          3    1    5    5  503    0 -0.10449132793E+03 -0.39060285195E+03 -0.38307824128E+03  0.55699009372E+03  0.00000000000E+00 0. -1.
         -4    1    5    5    0  503 -0.10010039287E+03 -0.20850543453E+03 -0.16524326005E+03  0.28425330231E+03  0.00000000000E+00 0.  1.
         -1    1    6    6    0  502 -0.86672884930E+02  0.13924918686E+03 -0.20671611065E+03  0.26388269254E+03  0.00000000000E+00 0.  1.
<mgrwt>
<rscale>  0 0.15531388E+04</rscale>
<asrwt>0</asrwt>
<pdfrwt beam="1">  1        2 0.37274130E+00 0.15531388E+04</pdfrwt>
<pdfrwt beam="2">  1       -2 0.38293613E-01 0.15531388E+04</pdfrwt>
<totfact> 0.23952428E+01</totfact>
</mgrwt>
</event>
<event>
12    1  0.1494110E-007  0.1350877E+04  0.7818608E-02  0.8990165E-01
         -2   -1    0    0    0  501 -0.00000000000E+00  0.00000000000E+00  0.98613248312E+03  0.98613248312E+03  0.00000000000E+00 0.  1.
          2   -1    0    0  501    0  0.00000000000E+00 -0.00000000000E+00 -0.46263272630E+03  0.46263272630E+03  0.00000000000E+00 0. -1.
         23    2    1    2    0    0 -0.19134034579E+03  0.25316504476E+03 -0.33108827920E+02  0.33112336993E+03  0.88559718906E+02 0.  0.
        254    2    1    2    0    0  0.19134034579E+03 -0.25316504476E+03  0.55660858474E+03  0.11176418395E+04  0.91575460522E+03 0.  0.
        -24    2    4    4    0    0  0.26426460480E+03  0.29265824593E+03  0.31206173831E+03  0.50976422899E+03  0.83620633680E+02 0.  0.
         24    2    4    4    0    0 -0.72924259013E+02 -0.54582329070E+03  0.24454684642E+03  0.60787761050E+03  0.80442631968E+02 0.  0.
         13    1    3    3    0    0 -0.79287795626E+01  0.16123807432E+01 -0.17657195029E+02  0.19422714880E+02  0.00000000000E+00 0.  1.
        -13    1    3    3    0    0 -0.18341156623E+03  0.25155266402E+03 -0.15451632891E+02  0.31170065505E+03  0.00000000000E+00 0. -1.
          2    1    6    6  502    0 -0.14464408819E+02 -0.24909161330E+02 -0.14503118433E+01  0.28840749732E+02  0.00000000000E+00 0. -1.
          1    1    5    5  503    0  0.68233339171E+01  0.44196851869E+01  0.30611127317E+02  0.31672268919E+02  0.00000000000E+00 0. -1.
         -2    1    5    5    0  503  0.25744127088E+03  0.28823856075E+03  0.28145061100E+03  0.47809196007E+03  0.00000000000E+00 0.  1.
         -1    1    6    6    0  502 -0.58459850193E+02 -0.52091412937E+03  0.24599715827E+03  0.57903686077E+03  0.00000000000E+00 0.  1.
<mgrwt>
<rscale>  0 0.13508770E+04</rscale>
<asrwt>0</asrwt>
<pdfrwt beam="1">  1        2 0.71174266E-01 0.13508770E+04</pdfrwt>
<pdfrwt beam="2">  1       -2 0.15171269E+00 0.13508770E+04</pdfrwt>
<totfact> 0.19111153E+01</totfact>
</mgrwt>
</event>
<event>
12    1  0.1494110E-007  0.1821412E+04  0.7818608E-02  0.8694995E-01
         -2   -1    0    0    0  501 -0.00000000000E+00  0.00000000000E+00  0.21575980419E+03  0.21575980419E+03  0.00000000000E+00 0.  1.
          2   -1    0    0  501    0  0.00000000000E+00 -0.00000000000E+00 -0.38440218651E+04  0.38440218651E+04  0.00000000000E+00 0. -1.
         23    2    1    2    0    0  0.24050299624E+03 -0.79966092396E+02  0.47363388203E+02  0.27210251569E+03  0.86949533469E+02 0.  0.
        254    2    1    2    0    0 -0.24050299624E+03  0.79966092396E+02 -0.36756254491E+04  0.37876791536E+04  0.87866641071E+03 0.  0.
        -24    2    4    4    0    0 -0.73024781495E+02  0.44428524900E+03 -0.25378739421E+04  0.25786800722E+04  0.77876617463E+02 0.  0.
         24    2    4    4    0    0 -0.16747821475E+03 -0.36431915661E+03 -0.11377515070E+04  0.12089990814E+04  0.80142915098E+02 0.  0.
         11    1    3    3    0    0  0.17270371719E+01 -0.62995312525E+01 -0.13428224526E+02  0.14932647632E+02  0.00000000000E+00 0. -1.
        -11    1    3    3    0    0  0.23877595907E+03 -0.73666561144E+02  0.60791612729E+02  0.25716986806E+03  0.00000000000E+00 0.  1.
          4    1    6    6  502    0 -0.37447228035E+02 -0.16647978547E+03 -0.52857428293E+03  0.55543549260E+03  0.00000000000E+00 0. -1.
          3    1    5    5  503    0 -0.57802480101E+02  0.15950329322E+03 -0.10687179697E+04  0.10821000536E+04  0.00000000000E+00 0. -1.
         -4    1    5    5    0  503 -0.15222301394E+02  0.28478195578E+03 -0.14691559724E+04  0.14965800186E+04  0.00000000000E+00 0.  1.
         -3    1    6    6    0  502 -0.13003098671E+03 -0.19783937113E+03 -0.60917722403E+03  0.65356358876E+03  0.00000000000E+00 0.  1.
<mgrwt>
<rscale>  0 0.18214120E+04</rscale>
<asrwt>0</asrwt>
<pdfrwt beam="1">  1        2 0.59138798E+00 0.18214120E+04</pdfrwt>
<pdfrwt beam="2">  1       -2 0.33193816E-01 0.18214120E+04</pdfrwt>
<totfact> 0.36735464E+00</totfact>
</mgrwt>
</event>
<event>
12    1  0.2060872E-007  0.1842334E+04  0.7818608E-02  0.8684105E-01
          3   -1    0    0  501    0  0.00000000000E+00  0.00000000000E+00  0.13320992244E+04  0.13320992244E+04  0.00000000000E+00 0. -1.
         -3   -1    0    0    0  501 -0.00000000000E+00 -0.00000000000E+00 -0.63700141681E+03  0.63700141681E+03  0.00000000000E+00 0.  1.
         23    2    1    2    0    0 -0.13019663591E+03  0.65151812845E+03  0.47804265360E+03  0.82395663794E+03  0.94618850275E+02 0.  0.
        254    2    1    2    0    0  0.13019663591E+03 -0.65151812845E+03  0.21705515399E+03  0.11451440033E+04  0.90709140258E+03 0.  0.
        -24    2    4    4    0    0  0.23776820764E+03 -0.10148422767E+03  0.45641881907E+03  0.53058916062E+03  0.79837021089E+02 0.  0.
         24    2    4    4    0    0 -0.10757157173E+03 -0.55003390078E+03 -0.23936366508E+03  0.61455484265E+03  0.79207041425E+02 0.  0.
         13    1    3    3    0    0 -0.11863693316E+03  0.63142716129E+03  0.43761572567E+03  0.77735609940E+03  0.00000000000E+00 0. -1.
        -13    1    3    3    0    0 -0.11559702753E+02  0.20090967162E+02  0.40426927938E+02  0.46600538535E+02  0.00000000000E+00 0.  1.
          2    1    6    6  502    0 -0.11737522030E+03 -0.43743158606E+03 -0.19591326732E+03  0.49346260561E+03  0.00000000000E+00 0. -1.
          3    1    5    5  503    0  0.22880677244E+03 -0.10176909016E+03  0.45750698567E+03  0.52155740697E+03  0.00000000000E+00 0. -1.
         -4    1    5    5    0  503  0.89614351952E+01  0.28486249466E+00 -0.10881666019E+01  0.90317536476E+01  0.00000000000E+00 0.  1.
         -1    1    6    6    0  502  0.98036485716E+01 -0.11260231472E+03 -0.43450397759E+02  0.12109223704E+03  0.00000000000E+00 0.  1.
<mgrwt>
<rscale>  0 0.18423345E+04</rscale>
<asrwt>0</asrwt>
<pdfrwt beam="1">  1        3 0.20493834E+00 0.18423345E+04</pdfrwt>
<pdfrwt beam="2">  1       -3 0.98000219E-01 0.18423345E+04</pdfrwt>
<totfact> 0.30920598E-01</totfact>
</mgrwt>
</event>
<event>
12    1  0.1494110E-007  0.1063070E+04  0.7818608E-02  0.9241953E-01
         -2   -1    0    0    0  501 -0.00000000000E+00  0.00000000000E+00  0.28012348469E+03  0.28012348469E+03  0.00000000000E+00 0.  1.
          2   -1    0    0  501    0  0.00000000000E+00 -0.00000000000E+00 -0.10085888061E+04  0.10085888061E+04  0.00000000000E+00 0. -1.
         23    2    1    2    0    0 -0.26955847818E+02 -0.29875724894E+02  0.30275900291E+02  0.11083711206E+03  0.98737321219E+02 0.  0.
        254    2    1    2    0    0  0.26955847818E+02  0.29875724894E+02 -0.75874122174E+03  0.11778751788E+04  0.90004584246E+03 0.  0.
        -24    2    4    4    0    0 -0.36403359838E+03  0.23784065419E+03 -0.29395388066E+03  0.53094339165E+03  0.80021019981E+02 0.  0.
         24    2    4    4    0    0  0.39098944620E+03 -0.20796492930E+03 -0.46478734108E+03  0.64693178712E+03  0.79820460444E+02 0.  0.
         13    1    3    3    0    0 -0.24027620060E+02 -0.65836108771E+02  0.24812736545E+02  0.74346429899E+02  0.00000000000E+00 0.  1.
        -13    1    3    3    0    0 -0.29282277585E+01  0.35960383877E+02  0.54631637458E+01  0.36490682160E+02  0.00000000000E+00 0. -1.
          4    1    6    6  502    0  0.34341185044E+03 -0.18675766576E+03 -0.44203636451E+03  0.59009005439E+03  0.00000000000E+00 0. -1.
          1    1    5    5  503    0 -0.21768455059E+03  0.14825269307E+03 -0.22359756698E+03  0.34548704249E+03  0.00000000000E+00 0. -1.
         -2    1    5    5    0  503 -0.14634904779E+03  0.89587961124E+02 -0.70356313678E+02  0.18545634915E+03  0.00000000000E+00 0.  1.
         -3    1    6    6    0  502  0.47577595760E+02 -0.21207263541E+02 -0.22750976569E+02  0.56841732733E+02  0.00000000000E+00 0.  1.
<mgrwt>
<rscale>  0 0.10630699E+04</rscale>
<asrwt>0</asrwt>
<pdfrwt beam="1">  1        2 0.15516752E+00 0.10630699E+04</pdfrwt>
<pdfrwt beam="2">  1       -2 0.43095919E-01 0.10630699E+04</pdfrwt>
<totfact> 0.12625151E+02</totfact>
</mgrwt>
</event>
<event>
12    1  0.1494110E-007  0.2510347E+04  0.7818608E-02  0.8399309E-01
         -2   -1    0    0    0  501 -0.00000000000E+00  0.00000000000E+00  0.40172537161E+03  0.40172537161E+03  0.00000000000E+00 0. -1.
          2   -1    0    0  501    0  0.00000000000E+00 -0.00000000000E+00 -0.39217354058E+04  0.39217354058E+04  0.00000000000E+00 0.  1.
         23    2    1    2    0    0  0.23927483545E+03 -0.63716750816E+03 -0.30029361498E+04  0.30803754857E+04  0.88615648479E+02 0.  0.
        254    2    1    2    0    0 -0.23927483545E+03  0.63716750816E+03 -0.51707388436E+03  0.12430852916E+04  0.90258559706E+03 0.  0.
        -24    2    4    4    0    0 -0.47682493320E+03  0.58369521511E+02 -0.31760697528E+03  0.58162962415E+03  0.81546373201E+02 0.  0.
         24    2    4    4    0    0  0.23755009775E+03  0.57879798665E+03 -0.19946690908E+03  0.66145566747E+03  0.79368721322E+02 0.  0.
         11    1    3    3    0    0  0.16247882187E+03 -0.45699932760E+03 -0.23051959728E+04  0.23556689551E+04  0.00000000000E+00 0.  1.
        -11    1    3    3    0    0  0.76796013577E+02 -0.18016818056E+03 -0.69774017699E+03  0.72470653066E+03  0.00000000000E+00 0. -1.
          4    1    6    6  502    0  0.18069075074E+03  0.43407886703E+03 -0.11312053345E+03  0.48360093599E+03  0.00000000000E+00 0. -1.
          3    1    5    5  503    0 -0.35299756162E+03  0.67765851730E+01 -0.23379885765E+03  0.42345614466E+03  0.00000000000E+00 0. -1.
         -4    1    5    5    0  503 -0.12382737158E+03  0.51592936338E+02 -0.83808117636E+02  0.15817347949E+03  0.00000000000E+00 0.  1.
         -3    1    6    6    0  502  0.56859347002E+02  0.14471911962E+03 -0.86346375628E+02  0.17785473148E+03  0.00000000000E+00 0.  1.
<mgrwt>
<rscale>  0 0.25103471E+04</rscale>
<asrwt>0</asrwt>
<pdfrwt beam="1">  1        2 0.60334389E+00 0.25103471E+04</pdfrwt>
<pdfrwt beam="2">  1       -2 0.61803905E-01 0.25103471E+04</pdfrwt>
<totfact> 0.85899630E-01</totfact>
</mgrwt>
</event>
<event>
12    1  0.1494110E-007  0.1974256E+04  0.7818608E-02  0.8618752E-01
         -1   -1    0    0    0  501 -0.00000000000E+00  0.00000000000E+00  0.18721789628E+04  0.18721789628E+04  0.00000000000E+00 0.  1.
          1   -1    0    0  501    0  0.00000000000E+00 -0.00000000000E+00 -0.52047488651E+03  0.52047488651E+03  0.00000000000E+00 0. -1.
         23    2    1    2    0    0  0.61758305362E+03  0.46870457582E+03  0.47885679257E+03  0.91575107605E+03  0.90572611690E+02 0.  0.
        254    2    1    2    0    0 -0.61758305362E+03 -0.46870457582E+03  0.87284728372E+03  0.14769027733E+04  0.90459195964E+03 0.  0.
        -24    2    4    4    0    0 -0.78126363671E+02 -0.57997904777E+03  0.64895358126E+03  0.87680559215E+03  0.71887907537E+02 0.  0.
         24    2    4    4    0    0 -0.53945668995E+03  0.11127447196E+03  0.22389370246E+03  0.60009718110E+03  0.81195494451E+02 0.  0.
         11    1    3    3    0    0  0.26813406946E+03  0.21115400540E+03  0.26341323802E+03  0.43112460746E+03  0.00000000000E+00 0.  1.
        -11    1    3    3    0    0  0.34944898417E+03  0.25755057042E+03  0.21544355455E+03  0.48462646859E+03  0.00000000000E+00 0. -1.
          4    1    6    6  502    0 -0.12422732158E+03  0.55790027976E+02  0.35286265671E+02  0.14067720211E+03  0.00000000000E+00 0. -1.
          1    1    5    5  503    0 -0.54384132901E+02 -0.16141025989E+03  0.18239520132E+03  0.24955743903E+03  0.00000000000E+00 0. -1.
         -2    1    5    5    0  503 -0.23742230770E+02 -0.41856878788E+03  0.46655837994E+03  0.62724815313E+03  0.00000000000E+00 0.  1.
         -3    1    6    6    0  502 -0.41522936837E+03  0.55484443981E+02  0.18860743679E+03  0.45941997899E+03  0.00000000000E+00 0.  1.
<mgrwt>
<rscale>  0 0.19742565E+04</rscale>
<asrwt>0</asrwt>
<pdfrwt beam="1">  1        1 0.80073060E-01 0.19742565E+04</pdfrwt>
<pdfrwt beam="2">  1       -1 0.28802753E+00 0.19742565E+04</pdfrwt>
<totfact> 0.15396008E+00</totfact>
</mgrwt>
</event>
<event>
12    1  0.1494110E-007  0.1305846E+04  0.7818608E-02  0.9024942E-01
          2   -1    0    0  501    0  0.00000000000E+00  0.00000000000E+00  0.14128418289E+04  0.14128418289E+04  0.00000000000E+00 0.  1.
         -2   -1    0    0    0  501 -0.00000000000E+00 -0.00000000000E+00 -0.30173821175E+03  0.30173821175E+03  0.00000000000E+00 0. -1.
         23    2    1    2    0    0 -0.14929944402E+03 -0.27221210121E+03  0.10660495082E+03  0.33978716822E+03  0.87755068863E+02 0.  0.
        254    2    1    2    0    0  0.14929944402E+03  0.27221210121E+03  0.10044986664E+04  0.13747928725E+04  0.88580365739E+03 0.  0.
        -24    2    4    4    0    0  0.29232730408E+02 -0.15518560900E+03 -0.84372169794E+02  0.19631985705E+03  0.80533828101E+02 0.  0.
         24    2    4    4    0    0  0.12006671362E+03  0.42739771022E+03  0.10888708362E+04  0.11784730154E+04  0.77936716786E+02 0.  0.
         11    1    3    3    0    0 -0.15437807934E+03 -0.23777827994E+03  0.11150373309E+03  0.30463779195E+03  0.00000000000E+00 0. -1.
        -11    1    3    3    0    0  0.50786353137E+01 -0.34433821270E+02 -0.48987822687E+01  0.35149376262E+02  0.00000000000E+00 0.  1.
          4    1    6    6  502    0  0.54451388443E+02  0.10513101837E+03  0.35655708997E+03  0.37569993763E+03  0.00000000000E+00 0. -1.
          3    1    5    5  503    0  0.30085534568E+02 -0.48206712122E+02  0.48279481603E+01  0.57029251857E+02  0.00000000000E+00 0. -1.
         -4    1    5    5    0  503 -0.85280416065E+00 -0.10697889688E+03 -0.89200117954E+02  0.13929060520E+03  0.00000000000E+00 0.  1.
         -3    1    6    6    0  502  0.65615325174E+02  0.32226669185E+03  0.73231374619E+03  0.80277307780E+03  0.00000000000E+00 0.  1.
<mgrwt>
<rscale>  0 0.13058459E+04</rscale>
<asrwt>0</asrwt>
<pdfrwt beam="1">  1        2 0.21736028E+00 0.13058459E+04</pdfrwt>
<pdfrwt beam="2">  1       -2 0.46421264E-01 0.13058459E+04</pdfrwt>
<totfact> 0.61309473E+01</totfact>
</mgrwt>
</event>
<event>
12    1  0.1494110E-007  0.2426894E+04  0.7818608E-02  0.8429503E-01
          2   -1    0    0  501    0  0.00000000000E+00  0.00000000000E+00  0.15939688027E+04  0.15939688027E+04  0.00000000000E+00 0.  1.
         -2   -1    0    0    0  501 -0.00000000000E+00 -0.00000000000E+00 -0.92376588754E+03  0.92376588754E+03  0.00000000000E+00 0. -1.
         23    2    1    2    0    0  0.51323049258E+03 -0.10460853928E+03  0.12094622670E+04  0.13211881290E+04  0.91600283537E+02 0.  0.
        254    2    1    2    0    0 -0.51323049258E+03  0.10460853928E+03 -0.53925935188E+03  0.11965465612E+04  0.93089985470E+03 0.  0.
        -24    2    4    4    0    0 -0.56485181573E+03 -0.28795424149E+03 -0.45333466028E+03  0.78347290972E+03  0.79638352104E+02 0.  0.
         24    2    4    4    0    0  0.51621323150E+02  0.39256278077E+03 -0.85924691594E+02  0.41307365146E+03  0.80476649138E+02 0.  0.
         13    1    3    3    0    0  0.45321083903E+03 -0.12163912249E+03  0.10594374343E+04  0.11587078225E+04  0.00000000000E+00 0.  1.
        -13    1    3    3    0    0  0.60019653553E+02  0.17030583212E+02  0.15002483268E+03  0.16248030649E+03  0.00000000000E+00 0. -1.
          4    1    6    6  502    0  0.42446793355E+02  0.38815644306E+03 -0.92078245808E+02  0.40118020627E+03  0.00000000000E+00 0. -1.
          3    1    5    5  503    0 -0.24972594428E+03 -0.10932088431E+03 -0.23924600341E+03  0.36270201701E+03  0.00000000000E+00 0. -1.
         -4    1    5    5    0  503 -0.31512587145E+03 -0.17863335717E+03 -0.21408865688E+03  0.42077089271E+03  0.00000000000E+00 0.  1.
         -3    1    6    6    0  502  0.91745297956E+01  0.44063377117E+01  0.61535542137E+01  0.11893445189E+02  0.00000000000E+00 0.  1.
<mgrwt>
<rscale>  0 0.24268943E+04</rscale>
<asrwt>0</asrwt>
<pdfrwt beam="1">  1        2 0.24522597E+00 0.24268943E+04</pdfrwt>
<pdfrwt beam="2">  1       -2 0.14211783E+00 0.24268943E+04</pdfrwt>
<totfact> 0.34834159E+00</totfact>
</mgrwt>
</event>
<event>
12    1  0.1494110E-007  0.2556470E+04  0.7818608E-02  0.8383140E-01
          2   -1    0    0  501    0  0.00000000000E+00  0.00000000000E+00  0.40356165502E+04  0.40356165502E+04  0.00000000000E+00 0. -1.
         -2   -1    0    0    0  501 -0.00000000000E+00 -0.00000000000E+00 -0.40486606065E+03  0.40486606065E+03  0.00000000000E+00 0.  1.
         23    2    1    2    0    0 -0.28720557710E+03  0.46733470911E+03  0.32824918050E+04  0.33292505983E+04  0.90930314057E+02 0.  0.
        254    2    1    2    0    0  0.28720557710E+03 -0.46733470911E+03  0.34825868455E+03  0.11112320126E+04  0.90147861909E+03 0.  0.
        -24    2    4    4    0    0  0.43651234082E+03 -0.61193708078E+03  0.77234784018E+02  0.75944551599E+03  0.76041208326E+02 0.  0.
         24    2    4    4    0    0 -0.14930676371E+03  0.14460237167E+03  0.27102390053E+03  0.35178649665E+03  0.84246240155E+02 0.  0.
         11    1    3    3    0    0 -0.67056994020E+02  0.14064180353E+03  0.11713697771E+04  0.11816868926E+04  0.00000000000E+00 0.  1.
        -11    1    3    3    0    0 -0.22014858308E+03  0.32669290558E+03  0.21111220279E+04  0.21475637057E+04  0.00000000000E+00 0. -1.
          4    1    6    6  502    0 -0.68564186202E+01  0.52533848955E+02  0.83940833581E+02  0.99261670873E+02  0.00000000000E+00 0. -1.
          3    1    5    5  503    0  0.34067109583E+03 -0.42187547924E+03  0.66540994246E+02  0.54631805702E+03  0.00000000000E+00 0. -1.
         -4    1    5    5    0  503  0.95841244986E+02 -0.19006160155E+03  0.10693789773E+02  0.21312745896E+03  0.00000000000E+00 0.  1.
         -3    1    6    6    0  502 -0.14245034509E+03  0.92068522720E+02  0.18708306695E+03  0.25252482577E+03  0.00000000000E+00 0.  1.
<mgrwt>
<rscale>  0 0.25564696E+04</rscale>
<asrwt>0</asrwt>
<pdfrwt beam="1">  1        2 0.62086406E+00 0.25564696E+04</pdfrwt>
<pdfrwt beam="2">  1       -2 0.62287089E-01 0.25564696E+04</pdfrwt>
<totfact> 0.68155661E-01</totfact>
</mgrwt>
</event>
<event>
12    1  0.1494110E-007  0.2597967E+04  0.7818608E-02  0.8368892E-01
         -2   -1    0    0    0  501 -0.00000000000E+00  0.00000000000E+00  0.50106538305E+03  0.50106538305E+03  0.00000000000E+00 0. -1.
          2   -1    0    0  501    0  0.00000000000E+00 -0.00000000000E+00 -0.33675409205E+04  0.33675409205E+04  0.00000000000E+00 0.  1.
         23    2    1    2    0    0  0.85672682423E+03 -0.54829408869E+03 -0.49686507293E+03  0.11356285753E+04  0.90388612285E+02 0.  0.
        254    2    1    2    0    0 -0.85672682423E+03  0.54829408869E+03 -0.23696104645E+04  0.27329777283E+04  0.90526584527E+03 0.  0.
        -24    2    4    4    0    0 -0.28763419400E+02  0.37582028512E+03 -0.27972011250E+03  0.47705096950E+03  0.85241217462E+02 0.  0.
         24    2    4    4    0    0 -0.82796340483E+03  0.17247380357E+03 -0.20898903520E+04  0.22559267588E+04  0.79329974405E+02 0.  0.
         13    1    3    3    0    0  0.48360146503E+03 -0.35092005445E+03 -0.32179332851E+03  0.67865028392E+03  0.00000000000E+00 0. -1.
        -13    1    3    3    0    0  0.37312535921E+03 -0.19737403424E+03 -0.17507174441E+03  0.45697829135E+03  0.00000000000E+00 0.  1.
          2    1    6    6  502    0 -0.76937514653E+03  0.13894725691E+03 -0.19130502407E+04  0.20666411589E+04  0.00000000000E+00 0. -1.
          3    1    5    5  503    0 -0.32848443017E+02  0.37091449912E+03 -0.28488009588E+03  0.46884246277E+03  0.00000000000E+00 0. -1.
         -4    1    5    5    0  503  0.40850236168E+01  0.49057860026E+01  0.51599833778E+01  0.82085067286E+01  0.00000000000E+00 0.  1.
         -1    1    6    6    0  502 -0.58588258307E+02  0.33526546652E+02 -0.17684011130E+03  0.18928559984E+03  0.00000000000E+00 0.  1.
<mgrwt>
<rscale>  0 0.25979670E+04</rscale>
<asrwt>0</asrwt>
<pdfrwt beam="1">  1        2 0.51808320E+00 0.25979670E+04</pdfrwt>
<pdfrwt beam="2">  1       -2 0.77086985E-01 0.25979670E+04</pdfrwt>
<totfact> 0.13337802E+00</totfact>
</mgrwt>
</event>
<event>
12    1  0.1494110E-007  0.1476085E+04  0.7818608E-02  0.8900514E-01
          2   -1    0    0  501    0  0.00000000000E+00  0.00000000000E+00  0.18674135703E+04  0.18674135703E+04  0.00000000000E+00 0. -1.
         -2   -1    0    0    0  501 -0.00000000000E+00 -0.00000000000E+00 -0.29169037742E+03  0.29169037742E+03  0.00000000000E+00 0.  1.
         23    2    1    2    0    0  0.22137779476E+03 -0.31044602336E+03  0.13586701042E+03  0.41533829787E+03  0.93065545279E+02 0.  0.
        254    2    1    2    0    0 -0.22137779476E+03  0.31044602336E+03  0.14398561825E+04  0.17437656499E+04  0.90672374736E+03 0.  0.
        -24    2    4    4    0    0 -0.85194097146E+02  0.42636838534E+03  0.19647813105E+03  0.48502326618E+03  0.87154337553E+02 0.  0.
         24    2    4    4    0    0 -0.13618369762E+03 -0.11592236197E+03  0.12433780514E+04  0.12587423837E+04  0.80370493521E+02 0.  0.
         13    1    3    3    0    0  0.35979085642E+02 -0.58887770368E+02 -0.11289569217E+02  0.69926521976E+02  0.00000000000E+00 0. -1.
        -13    1    3    3    0    0  0.18539870912E+03 -0.25155825300E+03  0.14715657963E+03  0.34541177589E+03  0.00000000000E+00 0.  1.
          4    1    6    6  502    0 -0.68317398980E+02 -0.10437348882E+03  0.70097809367E+03  0.71199113757E+03  0.00000000000E+00 0. -1.
          3    1    5    5  503    0 -0.94843202185E+02  0.33461612574E+03  0.17887637346E+03  0.39110093530E+03  0.00000000000E+00 0. -1.
         -4    1    5    5    0  503  0.96491050395E+01  0.91752259595E+02  0.17601757589E+02  0.93922330886E+02  0.00000000000E+00 0.  1.
         -3    1    6    6    0  502 -0.67866298636E+02 -0.11548873155E+02  0.54239995776E+03  0.54675124612E+03  0.00000000000E+00 0.  1.
<mgrwt>
<rscale>  0 0.14760848E+04</rscale>
<asrwt>0</asrwt>
<pdfrwt beam="1">  1        2 0.28729439E+00 0.14760848E+04</pdfrwt>
<pdfrwt beam="2">  1       -2 0.44875444E-01 0.14760848E+04</pdfrwt>
<totfact> 0.36088006E+01</totfact>
</mgrwt>
</event>
<event>
12    1  0.1494110E-007  0.1255849E+04  0.7818608E-02  0.9065329E-01
          2   -1    0    0  501    0  0.00000000000E+00  0.00000000000E+00  0.14630985030E+04  0.14630985030E+04  0.00000000000E+00 0. -1.
         -2   -1    0    0    0  501 -0.00000000000E+00 -0.00000000000E+00 -0.26948905703E+03  0.26948905703E+03  0.00000000000E+00 0.  1.
         23    2    1    2    0    0  0.27820092079E+02 -0.13244517901E+03  0.66202068534E+03  0.68177369082E+03  0.90709948239E+02 0.  0.
        254    2    1    2    0    0 -0.27820092079E+02  0.13244517901E+03  0.53158876063E+03  0.10508138692E+04  0.89627422942E+03 0.  0.
        -24    2    4    4    0    0  0.27749658066E+02  0.61332491648E+02 -0.24334389565E+03  0.26651438790E+03  0.85334338635E+02 0.  0.
         24    2    4    4    0    0 -0.55569750145E+02  0.71112687361E+02  0.77493265628E+03  0.78429948131E+03  0.80374393758E+02 0.  0.
         13    1    3    3    0    0 -0.19910783591E+02 -0.10414988622E+03  0.47521517323E+03  0.48690152903E+03  0.00000000000E+00 0. -1.
        -13    1    3    3    0    0  0.47730875670E+02 -0.28295292791E+02  0.18680551211E+03  0.19487216179E+03  0.00000000000E+00 0.  1.
          2    1    6    6  502    0 -0.69148717902E+02  0.57591614075E+02  0.72894860706E+03  0.73448241022E+03  0.00000000000E+00 0. -1.
          3    1    5    5  503    0  0.54611509878E+02  0.18219562203E+02 -0.11897659888E+03  0.13217337303E+03  0.00000000000E+00 0. -1.
         -4    1    5    5    0  503 -0.26861851812E+02  0.43112929445E+02 -0.12436729677E+03  0.13434101486E+03  0.00000000000E+00 0.  1.
         -1    1    6    6    0  502  0.13578967757E+02  0.13521073286E+02  0.45984049229E+02  0.49817071086E+02  0.00000000000E+00 0.  1.
<mgrwt>
<rscale>  0 0.12558488E+04</rscale>
<asrwt>0</asrwt>
<pdfrwt beam="1">  1        2 0.22509207E+00 0.12558488E+04</pdfrwt>
<pdfrwt beam="2">  1       -2 0.41459856E-01 0.12558488E+04</pdfrwt>
<totfact> 0.72140374E+01</totfact>
</mgrwt>
</event>
<event>
12    1  0.1494110E-007  0.2210126E+04  0.7818608E-02  0.8514225E-01
          2   -1    0    0  501    0  0.00000000000E+00  0.00000000000E+00  0.13402958797E+04  0.13402958797E+04  0.00000000000E+00 0. -1.
         -2   -1    0    0    0  501 -0.00000000000E+00 -0.00000000000E+00 -0.91111526801E+03  0.91111526801E+03  0.00000000000E+00 0.  1.
         23    2    1    2    0    0 -0.18053921459E+02  0.38500790083E+03  0.10454707550E+04  0.11179312657E+04  0.90576969455E+02 0.  0.
        254    2    1    2    0    0  0.18053921459E+02 -0.38500790083E+03 -0.61629014335E+03  0.11334798820E+04  0.86971608837E+03 0.  0.
        -24    2    4    4    0    0  0.23363686446E+03 -0.30133694659E+02 -0.66380040664E+03  0.70862646955E+03  0.77629050649E+02 0.  0.
         24    2    4    4    0    0 -0.21558294300E+03 -0.35487420617E+03  0.47510263292E+02  0.42485341246E+03  0.76364189578E+02 0.  0.
         11    1    3    3    0    0 -0.11834767567E+02  0.22026824405E+01  0.20268425381E+02  0.23573769336E+02  0.00000000000E+00 0.  1.
        -11    1    3    3    0    0 -0.62191538923E+01  0.38280521838E+03  0.10252023296E+04  0.10943574963E+04  0.00000000000E+00 0. -1.
          4    1    6    6  502    0 -0.12114930335E+03 -0.15095485860E+03  0.50772426662E+02  0.20010587784E+03  0.00000000000E+00 0. -1.
          1    1    5    5  503    0  0.15282677985E+03 -0.50064034317E+02 -0.49412645738E+03  0.51963774695E+03  0.00000000000E+00 0. -1.
         -2    1    5    5    0  503  0.80810084603E+02  0.19930339659E+02 -0.16967394926E+03  0.18898872260E+03  0.00000000000E+00 0.  1.
         -3    1    6    6    0  502 -0.94433639645E+02 -0.20391934756E+03 -0.32621633707E+01  0.22474753462E+03  0.00000000000E+00 0.  1.
<mgrwt>
<rscale>  0 0.22101258E+04</rscale>
<asrwt>0</asrwt>
<pdfrwt beam="1">  1        2 0.20619937E+00 0.22101258E+04</pdfrwt>
<pdfrwt beam="2">  1       -2 0.14017158E+00 0.22101258E+04</pdfrwt>
<totfact> 0.51222405E+00</totfact>
</mgrwt>
</event>
<event>
12    1  0.1494110E-007  0.1398968E+04  0.7818608E-02  0.8954566E-01
         -1   -1    0    0    0  501 -0.00000000000E+00  0.00000000000E+00  0.20170398506E+03  0.20170398506E+03  0.00000000000E+00 0.  1.
          1   -1    0    0  501    0  0.00000000000E+00 -0.00000000000E+00 -0.24257212920E+04  0.24257212920E+04  0.00000000000E+00 0. -1.
         23    2    1    2    0    0  0.47364040100E+01  0.62501733378E+00 -0.14269347444E+04  0.14299208027E+04  0.92238349066E+02 0.  0.
        254    2    1    2    0    0 -0.47364040100E+01 -0.62501733378E+00 -0.79708256253E+03  0.11975044744E+04  0.89367417465E+03 0.  0.
        -24    2    4    4    0    0 -0.23380445097E+03  0.37192082380E+03 -0.44910471745E+03  0.63295438771E+03  0.77114131100E+02 0.  0.
         24    2    4    4    0    0  0.22906804696E+03 -0.37254584113E+03 -0.34797784508E+03  0.56455008664E+03  0.79784997226E+02 0.  0.
         13    1    3    3    0    0  0.34199015992E+02 -0.25420233664E+02 -0.40622058678E+03  0.40844941682E+03  0.00000000000E+00 0.  1.
        -13    1    3    3    0    0 -0.29462611982E+02  0.26045250998E+02 -0.10207141576E+04  0.10214713858E+04  0.00000000000E+00 0. -1.
          4    1    6    6  502    0  0.17337297856E+03 -0.20957958312E+03 -0.20229428378E+03  0.33897605905E+03  0.00000000000E+00 0. -1.
          3    1    5    5  503    0 -0.16417711675E+03  0.29965840044E+03 -0.30945663081E+03  0.46099098578E+03  0.00000000000E+00 0. -1.
         -4    1    5    5    0  503 -0.69627334224E+02  0.72262423356E+02 -0.13964808664E+03  0.17196340193E+03  0.00000000000E+00 0.  1.
         -3    1    6    6    0  502  0.55695068395E+02 -0.16296625801E+03 -0.14568356130E+03  0.22557402760E+03  0.00000000000E+00 0.  1.
<mgrwt>
<rscale>  0 0.13989677E+04</rscale>
<asrwt>0</asrwt>
<pdfrwt beam="1">  1        1 0.37318786E+00 0.13989677E+04</pdfrwt>
<pdfrwt beam="2">  1       -1 0.31031385E-01 0.13989677E+04</pdfrwt>
<totfact> 0.14340910E+01</totfact>
</mgrwt>
</event>
<event>
12    1  0.1494110E-007  0.1875687E+04  0.7818608E-02  0.8667054E-01
         -2   -1    0    0    0  501 -0.00000000000E+00  0.00000000000E+00  0.70710877609E+03  0.70710877609E+03  0.00000000000E+00 0.  1.
          2   -1    0    0  501    0  0.00000000000E+00 -0.00000000000E+00 -0.12438681225E+04  0.12438681225E+04  0.00000000000E+00 0. -1.
         23    2    1    2    0    0 -0.87381059188E+02 -0.29214634942E+03 -0.88515566314E+03  0.94060432510E+03  0.90835067196E+02 0.  0.
        254    2    1    2    0    0  0.87381059188E+02  0.29214634942E+03  0.34839631669E+03  0.10103725735E+04  0.89804666074E+03 0.  0.
        -24    2    4    4    0    0  0.14371795376E+03 -0.13378668684E+03  0.50345975224E+03  0.54590745435E+03  0.77391852215E+02 0.  0.
         24    2    4    4    0    0 -0.56336894574E+02  0.42593303626E+03 -0.15506343554E+03  0.46446511917E+03  0.84204399064E+02 0.  0.
         11    1    3    3    0    0  0.17489836089E+02 -0.40350153084E+02 -0.94759521233E+02  0.10446720100E+03  0.00000000000E+00 0.  1.
        -11    1    3    3    0    0 -0.10487089528E+03 -0.25179619633E+03 -0.79039614190E+03  0.83613712410E+03  0.00000000000E+00 0. -1.
          2    1    6    6  502    0 -0.72990051695E+02  0.37527161449E+03 -0.15078572165E+03  0.41096552914E+03  0.00000000000E+00 0. -1.
          3    1    5    5  503    0  0.27815490479E+02 -0.68024356152E+02  0.23447938452E+03  0.24572666991E+03  0.00000000000E+00 0. -1.
         -2    1    5    5    0  503  0.11590246328E+03 -0.65762330685E+02  0.26898036771E+03  0.30018078444E+03  0.00000000000E+00 0.  1.
         -1    1    6    6    0  502  0.16653157122E+02  0.50661421767E+02 -0.42777138925E+01  0.53499590034E+02  0.00000000000E+00 0.  1.
<mgrwt>
<rscale>  0 0.18756866E+04</rscale>
<asrwt>0</asrwt>
<pdfrwt beam="1">  1        2 0.19136432E+00 0.18756866E+04</pdfrwt>
<pdfrwt beam="2">  1       -2 0.10878597E+00 0.18756866E+04</pdfrwt>
<totfact> 0.11298034E+01</totfact>
</mgrwt>
</event>
<event>
12    1  0.1494110E-007  0.1591944E+04  0.7818608E-02  0.8825513E-01
         -2   -1    0    0    0  501 -0.00000000000E+00  0.00000000000E+00  0.64311845175E+03  0.64311845175E+03  0.00000000000E+00 0. -1.
          2   -1    0    0  501    0  0.00000000000E+00 -0.00000000000E+00 -0.98515497049E+03  0.98515497049E+03  0.00000000000E+00 0.  1.
         23    2    1    2    0    0 -0.31571430673E+03  0.74352758449E+02 -0.55280377434E+03  0.64658262415E+03  0.85283179868E+02 0.  0.
        254    2    1    2    0    0  0.31571430673E+03 -0.74352758449E+02  0.21076725559E+03  0.98169079809E+03  0.90226943364E+03 0.  0.
        -24    2    4    4    0    0  0.16127183893E+03  0.39499334360E+03 -0.10961547067E+02  0.43421941083E+03  0.79987459716E+02 0.  0.
         24    2    4    4    0    0  0.15444246780E+03 -0.46934610205E+03  0.22172880266E+03  0.54747138726E+03  0.80143736935E+02 0.  0.
         13    1    3    3    0    0 -0.22620402722E+03  0.87733276205E+02 -0.36761576553E+03  0.44046196289E+03  0.00000000000E+00 0.  1.
        -13    1    3    3    0    0 -0.89510279504E+02 -0.13380517756E+02 -0.18518800881E+03  0.20612066126E+03  0.00000000000E+00 0. -1.
          2    1    6    6  502    0 -0.80818159444E+01 -0.43591409001E+02  0.26853849850E+02  0.51832961901E+02  0.00000000000E+00 0. -1.
          1    1    5    5  503    0  0.11322221090E+03  0.24889221746E+03 -0.43888526791E+02  0.27693466330E+03  0.00000000000E+00 0. -1.
         -2    1    5    5    0  503  0.48049628023E+02  0.14610112614E+03  0.32926979725E+02  0.15728474754E+03  0.00000000000E+00 0.  1.
         -1    1    6    6    0  502  0.16252428375E+03 -0.42575469305E+03  0.19487495281E+03  0.49563842536E+03  0.00000000000E+00 0.  1.
<mgrwt>
<rscale>  0 0.15919439E+04</rscale>
<asrwt>0</asrwt>
<pdfrwt beam="1">  1        2 0.15156230E+00 0.15919439E+04</pdfrwt>
<pdfrwt beam="2">  1       -2 0.98941300E-01 0.15919439E+04</pdfrwt>
<totfact> 0.20933999E+01</totfact>
</mgrwt>
</event>
<event>
12    1  0.1494110E-007  0.2494489E+04  0.7818608E-02  0.8404952E-01
         -2   -1    0    0    0  501 -0.00000000000E+00  0.00000000000E+00  0.11475138485E+04  0.11475138485E+04  0.00000000000E+00 0.  1.
          2   -1    0    0  501    0  0.00000000000E+00 -0.00000000000E+00 -0.13556422959E+04  0.13556422959E+04  0.00000000000E+00 0. -1.
         23    2    1    2    0    0 -0.82819076285E+03 -0.33517977265E+03 -0.70766142117E+03  0.11438608814E+04  0.96889675601E+02 0.  0.
        254    2    1    2    0    0  0.82819076285E+03  0.33517977265E+03  0.49953297374E+03  0.13592952630E+04  0.89437408312E+03 0.  0.
        -24    2    4    4    0    0 -0.18349485382E+03  0.16978135335E+02  0.68452817584E+02  0.21189128378E+03  0.79079134101E+02 0.  0.
         24    2    4    4    0    0  0.10116856167E+04  0.31820163732E+03  0.43108015615E+03  0.11474039792E+04  0.77108505163E+02 0.  0.
         13    1    3    3    0    0 -0.38361116394E+03 -0.15366694168E+03 -0.38908163301E+03  0.56758750093E+03  0.00000000000E+00 0. -1.
        -13    1    3    3    0    0 -0.44457959891E+03 -0.18151283097E+03 -0.31857978816E+03  0.57627338043E+03  0.00000000000E+00 0.  1.
          4    1    6    6  502    0  0.23216657288E+03  0.83920566548E+02  0.67509566793E+02  0.25593264868E+03  0.00000000000E+00 0. -1.
          1    1    5    5  503    0 -0.96469365021E+02 -0.29284942099E+02  0.23255337198E+02  0.10346379526E+03  0.00000000000E+00 0. -1.
         -2    1    5    5    0  503 -0.87025488800E+02  0.46263077434E+02  0.45197480386E+02  0.10842748852E+03  0.00000000000E+00 0.  1.
         -3    1    6    6    0  502  0.77951904379E+03  0.23428107077E+03  0.36357058936E+03  0.89147133055E+03  0.00000000000E+00 0.  1.
<mgrwt>
<rscale>  0 0.24944886E+04</rscale>
<asrwt>0</asrwt>
<pdfrwt beam="1">  1        2 0.20856035E+00 0.24944886E+04</pdfrwt>
<pdfrwt beam="2">  1       -2 0.17654059E+00 0.24944886E+04</pdfrwt>
<totfact> 0.26246236E+00</totfact>
</mgrwt>
</event>
<event>
12    1  0.1494110E-007  0.2676235E+04  0.7818608E-02  0.8342757E-01
          2   -1    0    0  501    0  0.00000000000E+00  0.00000000000E+00  0.34412277734E+04  0.34412277734E+04  0.00000000000E+00 0. -1.
         -2   -1    0    0    0  501 -0.00000000000E+00 -0.00000000000E+00 -0.52032541097E+03  0.52032541097E+03  0.00000000000E+00 0.  1.
         23    2    1    2    0    0 -0.72320854901E+03  0.89236898636E+03  0.17352483765E+04  0.20829595055E+04  0.90996485423E+02 0.  0.
        254    2    1    2    0    0  0.72320854901E+03 -0.89236898636E+03  0.11856539859E+04  0.18785936788E+04  0.89665256519E+03 0.  0.
        -24    2    4    4    0    0  0.38032446093E+02  0.59063183533E+02  0.51434733832E+03  0.52522836194E+03  0.79854374596E+02 0.  0.
         24    2    4    4    0    0  0.68517610292E+03 -0.95143216989E+03  0.67130664761E+03  0.13533653169E+04  0.79092350864E+02 0.  0.
         11    1    3    3    0    0 -0.71404979964E+03  0.88942412407E+03  0.17059560658E+04  0.20521277950E+04  0.00000000000E+00 0. -1.
        -11    1    3    3    0    0 -0.91587493669E+01  0.29448622906E+01  0.29292310718E+02  0.30831710479E+02  0.00000000000E+00 0.  1.
          4    1    6    6  502    0  0.16738064222E+02 -0.50055581251E+02  0.25396198660E+02  0.58572100138E+02  0.00000000000E+00 0. -1.
          3    1    5    5  503    0  0.44115453398E+02  0.66425872027E+02  0.29247156574E+03  0.30314713667E+03  0.00000000000E+00 0. -1.
         -4    1    5    5    0  503 -0.60830073055E+01 -0.73626884942E+01  0.22187577258E+03  0.22208122527E+03  0.00000000000E+00 0.  1.
         -3    1    6    6    0  502  0.66843803870E+03 -0.90137658864E+03  0.64591044895E+03  0.12947932168E+04  0.00000000000E+00 0.  1.
<mgrwt>
<rscale>  0 0.26762349E+04</rscale>
<asrwt>0</asrwt>
<pdfrwt beam="1">  1        2 0.52941964E+00 0.26762349E+04</pdfrwt>
<pdfrwt beam="2">  1       -2 0.80050066E-01 0.26762349E+04</pdfrwt>
<totfact> 0.10839966E+00</totfact>
</mgrwt>
</event>
<event>
12    1  0.1494110E-007  0.1279959E+04  0.7818608E-02  0.9045610E-01
         -2   -1    0    0    0  501 -0.00000000000E+00  0.00000000000E+00  0.12679668686E+04  0.12679668686E+04  0.00000000000E+00 0.  1.
          2   -1    0    0  501    0  0.00000000000E+00 -0.00000000000E+00 -0.32301633217E+03  0.32301633217E+03  0.00000000000E+00 0. -1.
         23    2    1    2    0    0 -0.68782979444E+02  0.12823433845E+03 -0.10743147538E+03  0.20211543016E+03  0.90188587895E+02 0.  0.
        254    2    1    2    0    0  0.68782979444E+02 -0.12823433845E+03  0.10523820118E+04  0.13888677706E+04  0.89457847149E+03 0.  0.
        -24    2    4    4    0    0  0.32856008215E+03  0.17262133352E+03  0.85624831401E+03  0.93693344685E+03  0.83266176957E+02 0.  0.
         24    2    4    4    0    0 -0.25977710271E+03 -0.30085567197E+03  0.19613369781E+03  0.45193432377E+03  0.88192557153E+02 0.  0.
         13    1    3    3    0    0 -0.23000103416E+02  0.43704165802E+02  0.99637683790E+01  0.50381897006E+02  0.00000000000E+00 0. -1.
        -13    1    3    3    0    0 -0.45782876028E+02  0.84530172647E+02 -0.11739524376E+03  0.15173353315E+03  0.00000000000E+00 0.  1.
          2    1    6    6  502    0 -0.65681989897E+01 -0.28520150705E+02 -0.41607172331E+01  0.29560984458E+02  0.00000000000E+00 0. -1.
          1    1    5    5  503    0  0.62134926726E+02  0.73155997587E+02  0.21426422833E+03  0.23478012830E+03  0.00000000000E+00 0. -1.
         -2    1    5    5    0  503  0.26642515542E+03  0.99465335930E+02  0.64198408568E+03  0.70215331855E+03  0.00000000000E+00 0.  1.
         -1    1    6    6    0  502 -0.25320890372E+03 -0.27233552126E+03  0.20029441504E+03  0.42237333931E+03  0.00000000000E+00 0.  1.
<mgrwt>
<rscale>  0 0.12799594E+04</rscale>
<asrwt>0</asrwt>
<pdfrwt beam="1">  1        2 0.49694821E-01 0.12799594E+04</pdfrwt>
<pdfrwt beam="2">  1       -2 0.19507182E+00 0.12799594E+04</pdfrwt>
<totfact> 0.14211406E+01</totfact>
</mgrwt>
</event>
<event>
12    1  0.1494110E-007  0.2202184E+04  0.7818608E-02  0.8517520E-01
          2   -1    0    0  501    0  0.00000000000E+00  0.00000000000E+00  0.13223354196E+04  0.13223354196E+04  0.00000000000E+00 0. -1.
         -2   -1    0    0    0  501 -0.00000000000E+00 -0.00000000000E+00 -0.91686533964E+03  0.91686533964E+03  0.00000000000E+00 0.  1.
         23    2    1    2    0    0 -0.63742439565E+03 -0.59437554340E+03 -0.95425929695E+02  0.88143607449E+03  0.90726504302E+02 0.  0.
        254    2    1    2    0    0  0.63742439565E+03  0.59437554340E+03  0.50089600967E+03  0.13577646848E+04  0.91270804749E+03 0.  0.
        -24    2    4    4    0    0  0.57673840899E+01 -0.21391953150E+03  0.45573962299E+02  0.23242393406E+03  0.78416008627E+02 0.  0.
         24    2    4    4    0    0  0.63165701156E+03  0.80829507490E+03  0.45532204737E+03  0.11253407507E+04  0.82110474520E+02 0.  0.
         11    1    3    3    0    0 -0.58536845320E+03 -0.53861152756E+03 -0.11218067617E+03  0.80333250135E+03  0.00000000000E+00 0. -1.
        -11    1    3    3    0    0 -0.52055942454E+02 -0.55764015837E+02  0.16754746470E+02  0.78103573134E+02  0.00000000000E+00 0.  1.
          2    1    6    6  502    0  0.91576322112E+02  0.13318970606E+03  0.10356051439E+03  0.19196484239E+03  0.00000000000E+00 0. -1.
          3    1    5    5  503    0  0.29861811406E+02 -0.30686071356E+02  0.40759480134E+01  0.43011348595E+02  0.00000000000E+00 0. -1.
         -4    1    5    5    0  503 -0.24094427316E+02 -0.18323346015E+03  0.41498014285E+02  0.18941258547E+03  0.00000000000E+00 0.  1.
         -1    1    6    6    0  502  0.54008068945E+03  0.67510536884E+03  0.35176153297E+03  0.93337590832E+03  0.00000000000E+00 0.  1.
<mgrwt>
<rscale>  0 0.22021839E+04</rscale>
<asrwt>0</asrwt>
<pdfrwt beam="1">  1        2 0.20343622E+00 0.22021839E+04</pdfrwt>
<pdfrwt beam="2">  1       -2 0.14105621E+00 0.22021839E+04</pdfrwt>
<totfact> 0.51646994E+00</totfact>
</mgrwt>
</event>
<event>
12    1  0.1494110E-007  0.3022506E+04  0.7818608E-02  0.8237333E-01
          2   -1    0    0  501    0  0.00000000000E+00  0.00000000000E+00  0.11398060110E+04  0.11398060110E+04  0.00000000000E+00 0. -1.
         -2   -1    0    0    0  501 -0.00000000000E+00 -0.00000000000E+00 -0.20037492616E+04  0.20037492616E+04  0.00000000000E+00 0.  1.
         23    2    1    2    0    0 -0.10088817940E+04  0.88441418855E+03 -0.73652359603E+02  0.13470728454E+04  0.95653799990E+02 0.  0.
        254    2    1    2    0    0  0.10088817940E+04 -0.88441418855E+03 -0.79029089104E+03  0.17964824272E+04  0.89596790554E+03 0.  0.
        -24    2    4    4    0    0  0.10241626668E+04 -0.75448616844E+03 -0.33753642923E+03  0.13184794508E+04  0.79364190966E+02 0.  0.
         24    2    4    4    0    0 -0.15280872758E+02 -0.12992802012E+03 -0.45275446181E+03  0.47800297644E+03  0.79908993926E+02 0.  0.
         11    1    3    3    0    0 -0.10031501221E+04  0.86509088759E+03 -0.75727454821E+02  0.13268108602E+04  0.00000000000E+00 0. -1.
        -11    1    3    3    0    0 -0.57316718696E+01  0.19323300970E+02  0.20750952174E+01  0.20261985168E+02  0.00000000000E+00 0.  1.
          2    1    6    6  502    0  0.19876051046E+02 -0.90979536241E+02 -0.21126576955E+03  0.23087996622E+03  0.00000000000E+00 0. -1.
          3    1    5    5  503    0  0.43582906202E+02 -0.16900121448E+02 -0.21284642191E+02  0.51362630493E+02  0.00000000000E+00 0. -1.
         -4    1    5    5    0  503  0.98057976055E+03 -0.73758604699E+03 -0.31625178704E+03  0.12671168203E+04  0.00000000000E+00 0.  1.
         -1    1    6    6    0  502 -0.35156923804E+02 -0.38948483875E+02 -0.24148869226E+03  0.24712301021E+03  0.00000000000E+00 0.  1.
<mgrwt>
<rscale>  0 0.30225059E+04</rscale>
<asrwt>0</asrwt>
<pdfrwt beam="1">  1        2 0.17535477E+00 0.30225059E+04</pdfrwt>
<pdfrwt beam="2">  1       -2 0.30826912E+00 0.30225059E+04</pdfrwt>
<totfact> 0.49758012E-01</totfact>
</mgrwt>
</event>
<event>
12    1  0.1494110E-007  0.1466983E+04  0.7818608E-02  0.8906711E-01
         -2   -1    0    0    0  501 -0.00000000000E+00  0.00000000000E+00  0.43133182639E+03  0.43133182639E+03  0.00000000000E+00 0.  1.
          2   -1    0    0  501    0  0.00000000000E+00 -0.00000000000E+00 -0.12473217153E+04  0.12473217153E+04  0.00000000000E+00 0. -1.
         23    2    1    2    0    0 -0.11186359420E+03 -0.42556768228E+03 -0.13840433011E+03  0.47016341685E+03  0.90975623358E+02 0.  0.
        254    2    1    2    0    0  0.11186359420E+03  0.42556768228E+03 -0.67758555880E+03  0.12084901248E+04  0.89872402685E+03 0.  0.
        -24    2    4    4    0    0 -0.29270204380E+03 -0.10564002337E+03 -0.28666540615E+03  0.43011655934E+03  0.77387974249E+02 0.  0.
         24    2    4    4    0    0  0.40456563800E+03  0.53120770565E+03 -0.39092015265E+03  0.77837356550E+03  0.84804833145E+02 0.  0.
         13    1    3    3    0    0 -0.49010897053E+02 -0.28408195829E+03 -0.12673229930E+03  0.31490586330E+03  0.00000000000E+00 0.  1.
        -13    1    3    3    0    0 -0.62852697151E+02 -0.14148572399E+03 -0.11672030814E+02  0.15525755355E+03  0.00000000000E+00 0. -1.
          4    1    6    6  502    0  0.22337752917E+03  0.22957792383E+03 -0.20644949455E+03  0.38108389817E+03  0.00000000000E+00 0. -1.
          3    1    5    5  503    0 -0.76173657033E+02  0.24857664272E+01 -0.47194673866E+02  0.89643417504E+02  0.00000000000E+00 0. -1.
         -4    1    5    5    0  503 -0.21652838676E+03 -0.10812578980E+03 -0.23947073228E+03  0.34047314184E+03  0.00000000000E+00 0.  1.
         -1    1    6    6    0  502  0.18118810884E+03  0.30162978182E+03 -0.18447065810E+03  0.39728966733E+03  0.00000000000E+00 0.  1.
<mgrwt>
<rscale>  0 0.14669827E+04</rscale>
<asrwt>0</asrwt>
<pdfrwt beam="1">  1        2 0.19189564E+00 0.14669827E+04</pdfrwt>
<pdfrwt beam="2">  1       -2 0.66358744E-01 0.14669827E+04</pdfrwt>
<totfact> 0.35900241E+01</totfact>
</mgrwt>
</event>
<event>
12    1  0.1494110E-007  0.1819780E+04  0.7818608E-02  0.8695851E-01
         -1   -1    0    0    0  501 -0.00000000000E+00  0.00000000000E+00  0.36268608411E+03  0.36268608411E+03  0.00000000000E+00 0.  1.
          1   -1    0    0  501    0  0.00000000000E+00 -0.00000000000E+00 -0.22826886936E+04  0.22826886936E+04  0.00000000000E+00 0. -1.
         23    2    1    2    0    0  0.38635736445E+03  0.46786407099E+03 -0.11501744005E+04  0.13036663543E+04  0.92065248201E+02 0.  0.
        254    2    1    2    0    0 -0.38635736445E+03 -0.46786407099E+03 -0.76982820908E+03  0.13417084234E+04  0.91617532167E+03 0.  0.
        -24    2    4    4    0    0 -0.17795001194E+02  0.25511701086E+03 -0.29610355230E+03  0.39895357998E+03  0.78008294401E+02 0.  0.
         24    2    4    4    0    0 -0.36856236326E+03 -0.72298108185E+03 -0.47372465678E+03  0.94275484345E+03  0.76366118735E+02 0.  0.
         13    1    3    3    0    0  0.12278836107E+03  0.18042099669E+03 -0.33211445409E+03  0.39740247644E+03  0.00000000000E+00 0.  1.
        -13    1    3    3    0    0  0.26356900338E+03  0.28744307430E+03 -0.81805994636E+03  0.90626387788E+03  0.00000000000E+00 0. -1.
          4    1    6    6  502    0 -0.81705786736E+02 -0.21928270593E+03 -0.16183458220E+03  0.28451919566E+03  0.00000000000E+00 0. -1.
          3    1    5    5  503    0  0.17924799513E+02  0.13686686429E+02 -0.17334132974E+02  0.28444612653E+02  0.00000000000E+00 0. -1.
         -4    1    5    5    0  503 -0.35719800707E+02  0.24143032443E+03 -0.27876941933E+03  0.37050896733E+03  0.00000000000E+00 0.  1.
         -3    1    6    6    0  502 -0.28685657652E+03 -0.50369837592E+03 -0.31189007458E+03  0.65823564779E+03  0.00000000000E+00 0.  1.
<mgrwt>
<rscale>  0 0.18197796E+04</rscale>
<asrwt>0</asrwt>
<pdfrwt beam="1">  1        1 0.35118288E+00 0.18197796E+04</pdfrwt>
<pdfrwt beam="2">  1       -1 0.55797859E-01 0.18197796E+04</pdfrwt>
<totfact> 0.58564247E+00</totfact>
</mgrwt>
</event>
<event>
12    1  0.1494110E-007  0.1352482E+04  0.7818608E-02  0.8988952E-01
          2   -1    0    0  501    0  0.00000000000E+00  0.00000000000E+00  0.13312108417E+04  0.13312108417E+04  0.00000000000E+00 0.  1.
         -2   -1    0    0    0  501 -0.00000000000E+00 -0.00000000000E+00 -0.34352303134E+03  0.34352303134E+03  0.00000000000E+00 0. -1.
         23    2    1    2    0    0 -0.31291594890E+03  0.84091746595E+02  0.49200051860E+03  0.59626344448E+03  0.92074817436E+02 0.  0.
        254    2    1    2    0    0  0.31291594890E+03 -0.84091746595E+02  0.49568729173E+03  0.10784704285E+04  0.90133498829E+03 0.  0.
        -24    2    4    4    0    0 -0.10708365941E+03 -0.20759342741E+03 -0.15313670945E+03  0.29143200653E+03  0.83185464093E+02 0.  0.
         24    2    4    4    0    0  0.41999960831E+03  0.12350168081E+03  0.64882400117E+03  0.78703842200E+03  0.82489739083E+02 0.  0.
         13    1    3    3    0    0 -0.46166518014E+01 -0.38282096841E+00  0.53048011058E+02  0.53249896741E+02  0.00000000000E+00 0. -1.
        -13    1    3    3    0    0 -0.30829929710E+03  0.84474567563E+02  0.43895250754E+03  0.54301354774E+03  0.00000000000E+00 0.  1.
          2    1    6    6  502    0  0.20558836371E+03  0.23577251861E+02  0.26580772114E+03  0.33686229637E+03  0.00000000000E+00 0. -1.
          3    1    5    5  503    0  0.10867569369E+02 -0.10766312781E+02  0.46314774744E+00  0.15304641803E+02  0.00000000000E+00 0. -1.
         -4    1    5    5    0  503 -0.11795122878E+03 -0.19682711463E+03 -0.15359985719E+03  0.27612736473E+03  0.00000000000E+00 0.  1.
         -1    1    6    6    0  502  0.21441124460E+03  0.99924428951E+02  0.38301628003E+03  0.45017612562E+03  0.00000000000E+00 0.  1.
<mgrwt>
<rscale>  0 0.13524815E+04</rscale>
<asrwt>0</asrwt>
<pdfrwt beam="1">  1        2 0.20480167E+00 0.13524815E+04</pdfrwt>
<pdfrwt beam="2">  1       -2 0.52849698E-01 0.13524815E+04</pdfrwt>
<totfact> 0.52276774E+01</totfact>
</mgrwt>
</event>
<event>
12    1  0.1494110E-007  0.1668333E+04  0.7818608E-02  0.8779634E-01
          2   -1    0    0  501    0  0.00000000000E+00  0.00000000000E+00  0.25577704365E+04  0.25577704365E+04  0.00000000000E+00 0.  1.
         -2   -1    0    0    0  501 -0.00000000000E+00 -0.00000000000E+00 -0.27204704750E+03  0.27204704750E+03  0.00000000000E+00 0. -1.
         23    2    1    2    0    0  0.57199603325E+03 -0.10531579680E+03  0.89583304701E+03  0.10719549388E+04  0.91102490006E+02 0.  0.
        254    2    1    2    0    0 -0.57199603325E+03  0.10531579680E+03  0.13898903420E+04  0.17578625451E+04  0.90554662265E+03 0.  0.
        -24    2    4    4    0    0  0.22411520679E+03  0.12247584619E+03  0.26418090587E+03  0.37608423149E+03  0.80123899906E+02 0.  0.
         24    2    4    4    0    0 -0.79611124004E+03 -0.17160049388E+02  0.11257094361E+04  0.13817783137E+04  0.89453897232E+02 0.  0.
         13    1    3    3    0    0  0.95322417377E+02 -0.40078969607E+02  0.11366964709E+03  0.15366676846E+03  0.00000000000E+00 0.  1.
        -13    1    3    3    0    0  0.47667361587E+03 -0.65236827195E+02  0.78216339991E+03  0.91828817038E+03  0.00000000000E+00 0. -1.
          2    1    6    6  502    0 -0.21625415822E+03 -0.35591745545E+02  0.35337948343E+03  0.41582411258E+03  0.00000000000E+00 0. -1.
          1    1    5    5  503    0  0.15774254339E+03  0.11335175498E+03  0.15733766484E+03  0.24997294080E+03  0.00000000000E+00 0. -1.
         -2    1    5    5    0  503  0.66372663397E+02  0.91240912064E+01  0.10684324103E+03  0.12611129069E+03  0.00000000000E+00 0.  1.
         -1    1    6    6    0  502 -0.57985708181E+03  0.18431696157E+02  0.77232995269E+03  0.96595420107E+03  0.00000000000E+00 0.  1.
<mgrwt>
<rscale>  0 0.16683332E+04</rscale>
<asrwt>0</asrwt>
<pdfrwt beam="1">  1        2 0.39350313E+00 0.16683332E+04</pdfrwt>
<pdfrwt beam="2">  1       -2 0.41853394E-01 0.16683332E+04</pdfrwt>
<totfact> 0.16659890E+01</totfact>
</mgrwt>
</event>
<event>
12    1  0.1494110E-007  0.1674294E+04  0.7818608E-02  0.8776163E-01
         -1   -1    0    0    0  501 -0.00000000000E+00  0.00000000000E+00  0.17563095233E+04  0.17563095233E+04  0.00000000000E+00 0.  1.
          1   -1    0    0  501    0  0.00000000000E+00 -0.00000000000E+00 -0.39902727394E+03  0.39902727394E+03  0.00000000000E+00 0. -1.
         23    2    1    2    0    0 -0.36544151850E+03  0.21417751213E+03  0.10394528965E+04  0.11260804238E+04  0.90417291529E+02 0.  0.
        254    2    1    2    0    0  0.36544151850E+03 -0.21417751213E+03  0.31782935290E+03  0.10292563735E+04  0.88257219235E+03 0.  0.
        -24    2    4    4    0    0  0.79995107145E+02 -0.27103132821E+03  0.56640400037E+03  0.63810264793E+03  0.80649238181E+02 0.  0.
         24    2    4    4    0    0  0.28544641135E+03  0.56853816085E+02 -0.24857464747E+03  0.39115372558E+03  0.80621780638E+02 0.  0.
         13    1    3    3    0    0 -0.32776428274E+03  0.16233898960E+03  0.92856984964E+03  0.99801069045E+03  0.00000000000E+00 0.  1.
        -13    1    3    3    0    0 -0.37677235756E+02  0.51838522526E+02  0.11088304686E+03  0.12806973332E+03  0.00000000000E+00 0. -1.
          4    1    6    6  502    0  0.14979425881E+03  0.15719667797E+02 -0.78809729332E+02  0.16998941545E+03  0.00000000000E+00 0. -1.
          1    1    5    5  503    0  0.12786797721E+02 -0.12714591938E+03  0.32422009793E+03  0.34849427386E+03  0.00000000000E+00 0. -1.
         -2    1    5    5    0  503  0.67208309424E+02 -0.14388540883E+03  0.24218390244E+03  0.28960837407E+03  0.00000000000E+00 0.  1.
         -3    1    6    6    0  502  0.13565215254E+03  0.41134148288E+02 -0.16976491814E+03  0.22116431013E+03  0.00000000000E+00 0.  1.
<mgrwt>
<rscale>  0 0.16742944E+04</rscale>
<asrwt>0</asrwt>
<pdfrwt beam="1">  1        1 0.61388813E-01 0.16742944E+04</pdfrwt>
<pdfrwt beam="2">  1       -1 0.27020146E+00 0.16742944E+04</pdfrwt>
<totfact> 0.29591604E+00</totfact>
</mgrwt>
</event>
<event>
12    1  0.1494110E-007  0.1179142E+04  0.7818608E-02  0.9131312E-01
          4   -1    0    0  501    0  0.00000000000E+00  0.00000000000E+00  0.69770423482E+03  0.69770423482E+03  0.00000000000E+00 0. -1.
         -4   -1    0    0    0  501 -0.00000000000E+00 -0.00000000000E+00 -0.49819675799E+03  0.49819675799E+03  0.00000000000E+00 0.  1.
         23    2    1    2    0    0  0.11608842304E+03 -0.13457562664E+03  0.17265378242E+03  0.26321422320E+03  0.88799084787E+02 0.  0.
        254    2    1    2    0    0 -0.11608842304E+03  0.13457562664E+03  0.26853694417E+02  0.93268676962E+03  0.91520291087E+03 0.  0.
        -24    2    4    4    0    0 -0.45535603722E+03  0.27125795374E+03  0.11753652137E+03  0.54776972883E+03  0.72848087624E+02 0.  0.
         24    2    4    4    0    0  0.33926761418E+03 -0.13668232710E+03 -0.90682826949E+02  0.38491704078E+03  0.78442211914E+02 0.  0.
         13    1    3    3    0    0  0.54438643663E+02 -0.64707146631E+02  0.14172750475E+03  0.16503716657E+03  0.00000000000E+00 0. -1.
        -13    1    3    3    0    0  0.61649779382E+02 -0.69868480007E+02  0.30926277672E+02  0.98177056622E+02  0.00000000000E+00 0.  1.
          2    1    6    6  502    0  0.21273493908E+03 -0.11211521041E+03 -0.87773720750E+02  0.25598867312E+03  0.00000000000E+00 0. -1.
          1    1    5    5  503    0 -0.29729753152E+03  0.18695573402E+03  0.11173166177E+03  0.36854068021E+03  0.00000000000E+00 0. -1.
         -2    1    5    5    0  503 -0.15805850570E+03  0.84302219720E+02  0.58048595983E+01  0.17922904862E+03  0.00000000000E+00 0.  1.
         -1    1    6    6    0  502  0.12653267510E+03 -0.24567116694E+02 -0.29091061990E+01  0.12892836766E+03  0.00000000000E+00 0.  1.
<mgrwt>
<rscale>  0 0.11791420E+04</rscale>
<asrwt>0</asrwt>
<pdfrwt beam="1">  1        4 0.10733911E+00 0.11791420E+04</pdfrwt>
<pdfrwt beam="2">  1       -4 0.76645654E-01 0.11791420E+04</pdfrwt>
<totfact> 0.20961174E+00</totfact>
</mgrwt>
</event>
<event>
12    1  0.1494110E-007  0.1504467E+04  0.7818608E-02  0.8881488E-01
         -1   -1    0    0    0  501 -0.00000000000E+00  0.00000000000E+00  0.41817491629E+03  0.41817491629E+03  0.00000000000E+00 0.  1.
          1   -1    0    0  501    0  0.00000000000E+00 -0.00000000000E+00 -0.13531535463E+04  0.13531535463E+04  0.00000000000E+00 0. -1.
         23    2    1    2    0    0  0.28244750511E+03  0.57345853226E+02  0.14281974424E+03  0.33426675455E+03  0.90948577918E+02 0.  0.
        254    2    1    2    0    0 -0.28244750511E+03 -0.57345853226E+02 -0.10777983742E+04  0.14370617080E+04  0.90577694669E+03 0.  0.
        -24    2    4    4    0    0  0.31697327669E+03  0.19786879703E+02 -0.49447666139E+03  0.59325130579E+03  0.81094786616E+02 0.  0.
         24    2    4    4    0    0 -0.59942078180E+03 -0.77132732929E+02 -0.58332171282E+03  0.84381040223E+03  0.80604231343E+02 0.  0.
         13    1    3    3    0    0  0.20630695226E+03  0.40160247554E+02  0.55988449827E+02  0.21750887464E+03  0.00000000000E+00 0.  1.
        -13    1    3    3    0    0  0.76140552852E+02  0.17185605672E+02  0.86831294408E+02  0.11675787990E+03  0.00000000000E+00 0. -1.
          4    1    6    6  502    0 -0.19835853823E+03 -0.73263406390E+01 -0.23861063331E+03  0.31037850970E+03  0.00000000000E+00 0. -1.
          1    1    5    5  503    0  0.36921872075E+02  0.89268283700E+01 -0.21975542874E+02  0.43884363809E+02  0.00000000000E+00 0. -1.
         -2    1    5    5    0  503  0.28005140462E+03  0.10860051333E+02 -0.47250111851E+03  0.54936694198E+03  0.00000000000E+00 0.  1.
         -3    1    6    6    0  502 -0.40106224358E+03 -0.69806392290E+02 -0.34471107951E+03  0.53343189252E+03  0.00000000000E+00 0.  1.
<mgrwt>
<rscale>  0 0.15044665E+04</rscale>
<asrwt>0</asrwt>
<pdfrwt beam="1">  1        1 0.20817747E+00 0.15044665E+04</pdfrwt>
<pdfrwt beam="2">  1       -1 0.64334601E-01 0.15044665E+04</pdfrwt>
<totfact> 0.19641307E+01</totfact>
</mgrwt>
</event>
<event>
12    1  0.1494110E-007  0.3379865E+04  0.7818608E-02  0.8142866E-01
          2   -1    0    0  501    0  0.00000000000E+00  0.00000000000E+00  0.31149829443E+04  0.31149829443E+04  0.00000000000E+00 0. -1.
         -2   -1    0    0    0  501 -0.00000000000E+00 -0.00000000000E+00 -0.91681760368E+03  0.91681760368E+03  0.00000000000E+00 0.  1.
         23    2    1    2    0    0  0.13870998247E+04 -0.25183499007E+03  0.18444861943E+04  0.23234809069E+04  0.94696449902E+02 0.  0.
        254    2    1    2    0    0 -0.13870998247E+04  0.25183499007E+03  0.35367914627E+03  0.17083196411E+04  0.89766378550E+03 0.  0.
        -24    2    4    4    0    0 -0.46490374133E+03  0.38099633743E+03 -0.17947516737E+03  0.63242818202E+03  0.80376438482E+02 0.  0.
         24    2    4    4    0    0 -0.92219608335E+03 -0.12916134736E+03  0.53315431363E+03  0.10758914591E+04  0.78489743145E+02 0.  0.
         13    1    3    3    0    0  0.54792561092E+03 -0.52588767489E+02  0.72163966782E+03  0.90760776976E+03  0.00000000000E+00 0.  1.
        -13    1    3    3    0    0  0.83917421377E+03 -0.19924622258E+03  0.11228465265E+04  0.14158731371E+04  0.00000000000E+00 0. -1.
          4    1    6    6  502    0 -0.18733623361E+02 -0.92477330840E+01  0.24399709547E+02  0.32121877862E+02  0.00000000000E+00 0. -1.
          1    1    5    5  503    0 -0.24461247370E+03  0.18610166713E+03 -0.51411184502E+02  0.31162830855E+03  0.00000000000E+00 0. -1.
         -4    1    5    5    0  503 -0.22029126764E+03  0.19489467030E+03 -0.12806398287E+03  0.32079987347E+03  0.00000000000E+00 0.  1.
         -3    1    6    6    0  502 -0.90346245999E+03 -0.11991361428E+03  0.50875460409E+03  0.10437695812E+04  0.00000000000E+00 0.  1.
<mgrwt>
<rscale>  0 0.33798646E+04</rscale>
<asrwt>0</asrwt>
<pdfrwt beam="1">  1        2 0.47922814E+00 0.33798646E+04</pdfrwt>
<pdfrwt beam="2">  1       -2 0.14104886E+00 0.33798646E+04</pdfrwt>
<totfact> 0.42985973E-01</totfact>
</mgrwt>
</event>
<event>
12    1  0.1494110E-007  0.1795165E+04  0.7818608E-02  0.8708875E-01
          2   -1    0    0  501    0  0.00000000000E+00  0.00000000000E+00  0.13329357915E+04  0.13329357915E+04  0.00000000000E+00 0.  1.
         -2   -1    0    0    0  501 -0.00000000000E+00 -0.00000000000E+00 -0.60442090919E+03  0.60442090919E+03  0.00000000000E+00 0. -1.
         23    2    1    2    0    0 -0.37578054557E+03  0.42205729425E+03  0.65301211113E+03  0.86829994285E+03  0.90424528852E+02 0.  0.
        254    2    1    2    0    0  0.37578054557E+03 -0.42205729425E+03  0.75502771160E+02  0.10690567578E+04  0.90434412969E+03 0.  0.
        -24    2    4    4    0    0  0.23631434727E+03  0.65834523984E+02 -0.32715520454E+03  0.41638515299E+03  0.78532875275E+02 0.  0.
         24    2    4    4    0    0  0.13946619830E+03 -0.48789181823E+03  0.40265797570E+03  0.65267160482E+03  0.79734130553E+02 0.  0.
         11    1    3    3    0    0 -0.31439852943E+03  0.37331097647E+03  0.51463579676E+03  0.70926548187E+03  0.00000000000E+00 0. -1.
        -11    1    3    3    0    0 -0.61382016142E+02  0.48746317777E+02  0.13837631437E+03  0.15903446098E+03  0.00000000000E+00 0.  1.
          4    1    6    6  502    0  0.87735105865E+02 -0.23277429549E+03  0.24036520227E+03  0.34591437077E+03  0.00000000000E+00 0. -1.
          1    1    5    5  503    0  0.20615055535E+03  0.29529665168E+02 -0.28582667874E+03  0.35364804944E+03  0.00000000000E+00 0. -1.
         -2    1    5    5    0  503  0.30163791924E+02  0.36304858816E+02 -0.41328525805E+02  0.62737103552E+02  0.00000000000E+00 0.  1.
         -3    1    6    6    0  502  0.51731092438E+02 -0.25511752274E+03  0.16229277344E+03  0.30675723406E+03  0.00000000000E+00 0.  1.
<mgrwt>
<rscale>  0 0.17951649E+04</rscale>
<asrwt>0</asrwt>
<pdfrwt beam="1">  1        2 0.20506704E+00 0.17951649E+04</pdfrwt>
<pdfrwt beam="2">  1       -2 0.92987833E-01 0.17951649E+04</pdfrwt>
<totfact> 0.14637990E+01</totfact>
</mgrwt>
</event>
<event>
12    1  0.1494110E-007  0.1208388E+04  0.7818608E-02  0.9105546E-01
         -1   -1    0    0    0  501 -0.00000000000E+00  0.00000000000E+00  0.67691964419E+03  0.67691964419E+03  0.00000000000E+00 0.  1.
          1   -1    0    0  501    0  0.00000000000E+00 -0.00000000000E+00 -0.53928211783E+03  0.53928211783E+03  0.00000000000E+00 0. -1.
         23    2    1    2    0    0 -0.25896476668E+02 -0.61809351399E+02  0.31730284380E+03  0.33683330237E+03  0.91019533479E+02 0.  0.
        254    2    1    2    0    0  0.25896476668E+02  0.61809351399E+02 -0.17966531744E+03  0.87936845965E+03  0.85820640764E+03 0.  0.
        -24    2    4    4    0    0 -0.33323804413E+03  0.17979789530E+03  0.10390167461E+03  0.40072753388E+03  0.80075721740E+02 0.  0.
         24    2    4    4    0    0  0.35913452080E+03 -0.11798854390E+03 -0.28356699206E+03  0.47864092577E+03  0.76078882237E+02 0.  0.
         13    1    3    3    0    0  0.27825367474E+02 -0.43007402216E+02  0.10207547297E+03  0.11420722351E+03  0.00000000000E+00 0. -1.
        -13    1    3    3    0    0 -0.53721844141E+02 -0.18801949184E+02  0.21522737084E+03  0.22262607886E+03  0.00000000000E+00 0.  1.
          2    1    6    6  502    0  0.24266374105E+03 -0.46739181000E+02 -0.20521129400E+03  0.32121942258E+03  0.00000000000E+00 0. -1.
          3    1    5    5  503    0 -0.52346650002E+02  0.93644524658E+01 -0.77100989883E+01  0.53733698577E+02  0.00000000000E+00 0. -1.
         -4    1    5    5    0  503 -0.28089139413E+03  0.17043344283E+03  0.11161177360E+03  0.34699383530E+03  0.00000000000E+00 0.  1.
         -1    1    6    6    0  502  0.11647077975E+03 -0.71249362900E+02 -0.78355698060E+02  0.15742150319E+03  0.00000000000E+00 0.  1.
<mgrwt>
<rscale>  0 0.12083884E+04</rscale>
<asrwt>0</asrwt>
<pdfrwt beam="1">  1        1 0.82966480E-01 0.12083884E+04</pdfrwt>
<pdfrwt beam="2">  1       -1 0.10414148E+00 0.12083884E+04</pdfrwt>
<totfact> 0.34253319E+01</totfact>
</mgrwt>
</event>
<event>
12    1  0.1494110E-007  0.1874419E+04  0.7818608E-02  0.8667695E-01
         -1   -1    0    0    0  501 -0.00000000000E+00  0.00000000000E+00  0.52218981032E+03  0.52218981032E+03  0.00000000000E+00 0.  1.
          1   -1    0    0  501    0  0.00000000000E+00 -0.00000000000E+00 -0.16820734662E+04  0.16820734662E+04  0.00000000000E+00 0. -1.
         23    2    1    2    0    0  0.55437340272E+03  0.31233398154E+03 -0.64394160895E+03  0.90989517570E+03  0.91466110392E+02 0.  0.
        254    2    1    2    0    0 -0.55437340272E+03 -0.31233398154E+03 -0.51594204690E+03  0.12943681008E+04  0.10021527822E+04 0.  0.
        -24    2    4    4    0    0  0.20170743751E+03 -0.34308763437E+03 -0.68985683137E+02  0.41187103149E+03  0.80521468537E+02 0.  0.
         24    2    4    4    0    0 -0.75608084023E+03  0.30753652829E+02 -0.44695636376E+03  0.88249706931E+03  0.80168959809E+02 0.  0.
         13    1    3    3    0    0  0.17331054035E+03  0.11029839538E+03 -0.15135949903E+03  0.25517048687E+03  0.00000000000E+00 0.  1.
        -13    1    3    3    0    0  0.38106286237E+03  0.20203558616E+03 -0.49258210992E+03  0.65472468883E+03  0.00000000000E+00 0. -1.
          4    1    6    6  502    0 -0.52414492325E+02  0.15071364087E+02 -0.52291571031E+02  0.75556822471E+02  0.00000000000E+00 0. -1.
          1    1    5    5  503    0  0.38925280182E+02 -0.19572777734E+02 -0.23561874939E+01  0.43632816606E+02  0.00000000000E+00 0. -1.
         -2    1    5    5    0  503  0.16278215733E+03 -0.32351485664E+03 -0.66629495643E+02  0.36823821488E+03  0.00000000000E+00 0.  1.
         -3    1    6    6    0  502 -0.70366634790E+03  0.15682288742E+02 -0.39466479273E+03  0.80694024684E+03  0.00000000000E+00 0.  1.
<mgrwt>
<rscale>  0 0.18744190E+04</rscale>
<asrwt>0</asrwt>
<pdfrwt beam="1">  1        1 0.25878054E+00 0.18744190E+04</pdfrwt>
<pdfrwt beam="2">  1       -1 0.80336893E-01 0.18744190E+04</pdfrwt>
<totfact> 0.71056612E+00</totfact>
</mgrwt>
</event>
<event>
12    1  0.1494110E-007  0.1182156E+04  0.7818608E-02  0.9128621E-01
          2   -1    0    0  501    0  0.00000000000E+00  0.00000000000E+00  0.49426157052E+04  0.49426157052E+04  0.00000000000E+00 0. -1.
         -2   -1    0    0    0  501 -0.00000000000E+00 -0.00000000000E+00 -0.70685851963E+02  0.70685851963E+02  0.00000000000E+00 0.  1.
         23    2    1    2    0    0 -0.77116887169E+02  0.20926223498E+03  0.13711015988E+04  0.13922694698E+04  0.93578763160E+02 0.  0.
        254    2    1    2    0    0  0.77116887169E+02 -0.20926223498E+03  0.35008282544E+04  0.36210320873E+04  0.89796281307E+03 0.  0.
        -24    2    4    4    0    0  0.31649943440E+03 -0.12785833793E+03  0.51476309035E+03  0.62319890773E+03  0.82922812627E+02 0.  0.
         24    2    4    4    0    0 -0.23938254723E+03 -0.81403897051E+02  0.29860651640E+04  0.29978331796E+04  0.80548188208E+02 0.  0.
         13    1    3    3    0    0 -0.45211061221E+02  0.16709652266E+03  0.78873932476E+03  0.80751161624E+03  0.00000000000E+00 0.  1.
        -13    1    3    3    0    0 -0.31905825948E+02  0.42165712324E+02  0.58236227408E+03  0.58475785356E+03  0.00000000000E+00 0. -1.
          2    1    6    6  502    0 -0.44796592945E+01 -0.67498175737E+01  0.20499809720E+02  0.22042449574E+02  0.00000000000E+00 0. -1.
          3    1    5    5  503    0  0.85566237575E+02 -0.14771474621E+02  0.79888367775E+02  0.11799122332E+03  0.00000000000E+00 0. -1.
         -4    1    5    5    0  503  0.23093319682E+03 -0.11308686331E+03  0.43487472258E+03  0.50520768441E+03  0.00000000000E+00 0.  1.
         -1    1    6    6    0  502 -0.23490288793E+03 -0.74654079478E+02  0.29655653543E+04  0.29757907300E+04  0.00000000000E+00 0.  1.
<mgrwt>
<rscale>  0 0.11821557E+04</rscale>
<asrwt>0</asrwt>
<pdfrwt beam="1">  1        2 0.76040214E+00 0.11821557E+04</pdfrwt>
<pdfrwt beam="2">  1       -2 0.10874750E-01 0.11821557E+04</pdfrwt>
<totfact> 0.25957999E+00</totfact>
</mgrwt>
</event>
<event>
12    1  0.1494110E-007  0.4431010E+04  0.7818608E-02  0.7922827E-01
         -2   -1    0    0    0  501 -0.00000000000E+00  0.00000000000E+00  0.23289644264E+04  0.23289644264E+04  0.00000000000E+00 0. -1.
          2   -1    0    0  501    0  0.00000000000E+00 -0.00000000000E+00 -0.21075726293E+04  0.21075726293E+04  0.00000000000E+00 0.  1.
         23    2    1    2    0    0  0.64475886969E+03  0.21307362741E+03  0.21195861638E+04  0.22276862489E+04  0.93947577014E+02 0.  0.
        254    2    1    2    0    0 -0.64475886969E+03 -0.21307362741E+03 -0.18981943666E+04  0.22088508068E+04  0.90264370732E+03 0.  0.
        -24    2    4    4    0    0 -0.76896686933E+03  0.66384752755E+02 -0.15813752560E+04  0.17614858178E+04  0.79797272811E+02 0.  0.
         24    2    4    4    0    0  0.12420799964E+03 -0.27945838017E+03 -0.31681911065E+03  0.44736498892E+03  0.78971330401E+02 0.  0.
         13    1    3    3    0    0  0.11377899550E+03  0.32416298507E+02  0.26647899142E+03  0.29156050675E+03  0.00000000000E+00 0.  1.
        -13    1    3    3    0    0  0.53097987419E+03  0.18065732890E+03  0.18531071724E+04  0.19361257422E+04  0.00000000000E+00 0. -1.
          4    1    6    6  502    0  0.10784969712E+03 -0.20297984897E+03 -0.27589409485E+03  0.35909598693E+03  0.00000000000E+00 0. -1.
          3    1    5    5  503    0 -0.45920151704E+03  0.72184808419E+02 -0.89882671411E+03  0.10119121216E+04  0.00000000000E+00 0. -1.
         -4    1    5    5    0  503 -0.30976535229E+03 -0.58000556635E+01 -0.68254854186E+03  0.74957369626E+03  0.00000000000E+00 0.  1.
         -3    1    6    6    0  502  0.16358302514E+02 -0.76478531192E+02 -0.40925015798E+02  0.88269001991E+02  0.00000000000E+00 0.  1.
<mgrwt>
<rscale>  0 0.44310097E+04</rscale>
<asrwt>0</asrwt>
<pdfrwt beam="1">  1        2 0.32424194E+00 0.44310097E+04</pdfrwt>
<pdfrwt beam="2">  1       -2 0.35830222E+00 0.44310097E+04</pdfrwt>
<totfact> 0.61116667E-02</totfact>
</mgrwt>
</event>
<event>
12    1  0.1494110E-007  0.1137946E+04  0.7818608E-02  0.9168977E-01
         -2   -1    0    0    0  501 -0.00000000000E+00  0.00000000000E+00  0.15747898080E+03  0.15747898080E+03  0.00000000000E+00 0.  1.
          2   -1    0    0  501    0  0.00000000000E+00 -0.00000000000E+00 -0.20557030623E+04  0.20557030623E+04  0.00000000000E+00 0. -1.
         23    2    1    2    0    0 -0.13550151219E+03  0.11894962372E+03 -0.24821451834E+03  0.32147543832E+03  0.96053826281E+02 0.  0.
        254    2    1    2    0    0  0.13550151219E+03 -0.11894962372E+03 -0.16500095631E+04  0.18917066047E+04  0.90747597611E+03 0.  0.
        -24    2    4    4    0    0  0.20074564116E+03  0.35193376975E+03 -0.52201304314E+03  0.66500944017E+03  0.74724477757E+02 0.  0.
         24    2    4    4    0    0 -0.65244128973E+02 -0.47088339347E+03 -0.11279965200E+04  0.12266971646E+04  0.80136245453E+02 0.  0.
         11    1    3    3    0    0 -0.11721890276E+03  0.56850927676E+02 -0.11674747825E+03  0.17493505315E+03  0.00000000000E+00 0.  1.
        -11    1    3    3    0    0 -0.18282609426E+02  0.62098696042E+02 -0.13146704009E+03  0.14654038517E+03  0.00000000000E+00 0. -1.
          2    1    6    6  502    0  0.71115765269E+01 -0.23345126706E+03 -0.52463540548E+03  0.57427552386E+03  0.00000000000E+00 0. -1.
          3    1    5    5  503    0  0.27093309431E+02  0.54703836455E+02 -0.12792861443E+03  0.14174726639E+03  0.00000000000E+00 0. -1.
         -4    1    5    5    0  503  0.17365233173E+03  0.29722993330E+03 -0.39408442871E+03  0.52326217379E+03  0.00000000000E+00 0.  1.
         -1    1    6    6    0  502 -0.72355705500E+02 -0.23743212641E+03 -0.60336111451E+03  0.65242164072E+03  0.00000000000E+00 0.  1.
<mgrwt>
<rscale>  0 0.11379456E+04</rscale>
<asrwt>0</asrwt>
<pdfrwt beam="1">  1        2 0.31626202E+00 0.11379456E+04</pdfrwt>
<pdfrwt beam="2">  1       -2 0.24227535E-01 0.11379456E+04</pdfrwt>
<totfact> 0.93787648E+01</totfact>
</mgrwt>
</event>
<event>
12    1  0.1494110E-007  0.2537333E+04  0.7818608E-02  0.8389805E-01
          2   -1    0    0  501    0  0.00000000000E+00  0.00000000000E+00  0.17531653031E+04  0.17531653031E+04  0.00000000000E+00 0. -1.
         -2   -1    0    0    0  501 -0.00000000000E+00 -0.00000000000E+00 -0.91806190191E+03  0.91806190191E+03  0.00000000000E+00 0.  1.
         23    2    1    2    0    0  0.24598364437E+03  0.75564862665E+03 -0.44550124008E+03  0.91560312678E+03  0.91350591657E+02 0.  0.
        254    2    1    2    0    0 -0.24598364437E+03 -0.75564862665E+03  0.12806046412E+04  0.17556240782E+04  0.90041926708E+03 0.  0.
        -24    2    4    4    0    0  0.11865666912E+02 -0.22293918538E+03 -0.95649390946E+02  0.25539322311E+03  0.78957064232E+02 0.  0.
         24    2    4    4    0    0 -0.25784931128E+03 -0.53270944128E+03  0.13762540322E+04  0.15002308551E+04  0.79698439847E+02 0.  0.
         13    1    3    3    0    0  0.11696307465E+03  0.34446089731E+03 -0.25599543022E+03  0.44482280843E+03  0.00000000000E+00 0. -1.
        -13    1    3    3    0    0  0.12902056973E+03  0.41118772935E+03 -0.18950580986E+03  0.47078031835E+03  0.00000000000E+00 0.  1.
          4    1    6    6  502    0 -0.41576241601E+02 -0.74405678867E+02  0.13682812136E+03  0.16120398167E+03  0.00000000000E+00 0. -1.
          3    1    5    5  503    0  0.15462650641E+02 -0.57931220060E+02 -0.63330297390E+02  0.87211503771E+02  0.00000000000E+00 0. -1.
         -4    1    5    5    0  503 -0.35969837291E+01 -0.16500796532E+03 -0.32319093556E+02  0.16818171934E+03  0.00000000000E+00 0.  1.
         -3    1    6    6    0  502 -0.21627306968E+03 -0.45830376241E+03  0.12394259108E+04  0.13390268734E+04  0.00000000000E+00 0.  1.
<mgrwt>
<rscale>  0 0.25373327E+04</rscale>
<asrwt>0</asrwt>
<pdfrwt beam="1">  1        2 0.26971774E+00 0.25373327E+04</pdfrwt>
<pdfrwt beam="2">  1       -2 0.14124029E+00 0.25373327E+04</pdfrwt>
<totfact> 0.28596197E+00</totfact>
</mgrwt>
</event>
<event>
12    1  0.1494110E-007  0.1769944E+04  0.7818608E-02  0.8722448E-01
         -2   -1    0    0    0  501 -0.00000000000E+00  0.00000000000E+00  0.45055774250E+03  0.45055774250E+03  0.00000000000E+00 0.  1.
          2   -1    0    0  501    0  0.00000000000E+00 -0.00000000000E+00 -0.17382350240E+04  0.17382350240E+04  0.00000000000E+00 0. -1.
         23    2    1    2    0    0  0.84218493790E+02  0.50012258120E+03 -0.98680498251E+03  0.11131720393E+04  0.90291553510E+02 0.  0.
        254    2    1    2    0    0 -0.84218493790E+02 -0.50012258120E+03 -0.30087229903E+03  0.10756207272E+04  0.89956681665E+03 0.  0.
        -24    2    4    4    0    0 -0.15573722460E+03 -0.70881722503E+03 -0.49884771727E+02  0.73165732722E+03  0.78473004266E+02 0.  0.
         24    2    4    4    0    0  0.71518730805E+02  0.20869464384E+03 -0.25098752730E+03  0.34396340001E+03  0.81533419323E+02 0.  0.
         13    1    3    3    0    0  0.10101830715E+03  0.46901383424E+03 -0.92114058464E+03  0.10385945560E+04  0.00000000000E+00 0. -1.
        -13    1    3    3    0    0 -0.16799813359E+02  0.31108746961E+02 -0.65664397867E+02  0.74577483288E+02  0.00000000000E+00 0.  1.
          2    1    6    6  502    0  0.24529567893E+02  0.65975307464E+02 -0.14152758385E+03  0.15806485342E+03  0.00000000000E+00 0. -1.
          3    1    5    5  503    0 -0.10612412947E+03 -0.40435716486E+03  0.63388529795E+01  0.41809954399E+03  0.00000000000E+00 0. -1.
         -4    1    5    5    0  503 -0.49613095123E+02 -0.30446006017E+03 -0.56223624706E+02  0.31355778323E+03  0.00000000000E+00 0.  1.
         -1    1    6    6    0  502  0.46989162912E+02  0.14271933637E+03 -0.10945994345E+03  0.18589854659E+03  0.00000000000E+00 0.  1.
<mgrwt>
<rscale>  0 0.17699438E+04</rscale>
<asrwt>0</asrwt>
<pdfrwt beam="1">  1        2 0.26742077E+00 0.17699438E+04</pdfrwt>
<pdfrwt beam="2">  1       -2 0.69316576E-01 0.17699438E+04</pdfrwt>
<totfact> 0.16781242E+01</totfact>
</mgrwt>
</event>
<event>
12    1  0.1494110E-007  0.1468714E+04  0.7818608E-02  0.8905528E-01
         -2   -1    0    0    0  501 -0.00000000000E+00  0.00000000000E+00  0.54055777472E+03  0.54055777472E+03  0.00000000000E+00 0. -1.
          2   -1    0    0  501    0  0.00000000000E+00 -0.00000000000E+00 -0.99763697232E+03  0.99763697232E+03  0.00000000000E+00 0.  1.
         23    2    1    2    0    0  0.47279439612E+02 -0.42771267350E+03 -0.52235522192E+02  0.44232966348E+03  0.88053988730E+02 0.  0.
        254    2    1    2    0    0 -0.47279439612E+02  0.42771267350E+03 -0.40484367541E+03  0.10958650836E+04  0.92295633883E+03 0.  0.
        -24    2    4    4    0    0 -0.15615287990E+03 -0.24461901743E+03 -0.25864521842E+01  0.30087227493E+03  0.79342614644E+02 0.  0.
         24    2    4    4    0    0  0.10887344029E+03  0.67233169093E+03 -0.40225722322E+03  0.79499280864E+03  0.79494424473E+02 0.  0.
         11    1    3    3    0    0  0.61109431183E+02 -0.30501677179E+03 -0.66279573259E+02  0.31806064749E+03  0.00000000000E+00 0. -1.
        -11    1    3    3    0    0 -0.13829991571E+02 -0.12269590171E+03  0.14044051067E+02  0.12426901598E+03  0.00000000000E+00 0.  1.
          2    1    6    6  502    0  0.71353409123E+02  0.32351934338E+03 -0.15480129458E+03  0.36567679081E+03  0.00000000000E+00 0. -1.
          1    1    5    5  503    0 -0.67868166600E+02 -0.70788661261E+02 -0.33167406365E+02  0.10352390760E+03  0.00000000000E+00 0. -1.
         -2    1    5    5    0  503 -0.88284713302E+02 -0.17383035617E+03  0.30580954181E+02  0.19734836733E+03  0.00000000000E+00 0.  1.
         -1    1    6    6    0  502  0.37520031167E+02  0.34881234755E+03 -0.24745592864E+03  0.42931601783E+03  0.00000000000E+00 0.  1.
<mgrwt>
<rscale>  0 0.14687143E+04</rscale>
<asrwt>0</asrwt>
<pdfrwt beam="1">  1        2 0.15348261E+00 0.14687143E+04</pdfrwt>
<pdfrwt beam="2">  1       -2 0.83162735E-01 0.14687143E+04</pdfrwt>
<totfact> 0.31005654E+01</totfact>
</mgrwt>
</event>
<event>
12    1  0.1494110E-007  0.1207635E+04  0.7818608E-02  0.9106200E-01
          3   -1    0    0  501    0  0.00000000000E+00  0.00000000000E+00  0.36407884390E+03  0.36407884390E+03  0.00000000000E+00 0. -1.
         -3   -1    0    0    0  501 -0.00000000000E+00 -0.00000000000E+00 -0.10014189954E+04  0.10014189954E+04  0.00000000000E+00 0.  1.
         23    2    1    2    0    0 -0.23150423082E+03  0.96318496189E+02 -0.11598717429E+03  0.29085978850E+03  0.90966644286E+02 0.  0.
        254    2    1    2    0    0  0.23150423082E+03 -0.96318496189E+02 -0.52135297720E+03  0.10746380508E+04  0.90563047197E+03 0.  0.
        -24    2    4    4    0    0  0.47214801390E+03  0.19442896244E+03 -0.44462623306E+03  0.68162441800E+03  0.78695562868E+02 0.  0.
         24    2    4    4    0    0 -0.24064378308E+03 -0.29074745863E+03 -0.76726744136E+02  0.39301363279E+03  0.78289253758E+02 0.  0.
         13    1    3    3    0    0 -0.41656044495E+02  0.54499381194E+02 -0.52416190059E+02  0.86329980735E+02  0.00000000000E+00 0. -1.
        -13    1    3    3    0    0 -0.18984818632E+03  0.41819114995E+02 -0.63570984232E+02  0.20452980776E+03  0.00000000000E+00 0.  1.
          2    1    6    6  502    0 -0.92224385822E+02 -0.91885604229E+02 -0.62641616794E+02  0.14447239791E+03  0.00000000000E+00 0. -1.
          1    1    5    5  503    0  0.28521895657E+03  0.82669345818E+02 -0.22744353524E+03  0.37405164837E+03  0.00000000000E+00 0. -1.
         -2    1    5    5    0  503  0.18692905732E+03  0.11175961663E+03 -0.21718269782E+03  0.30757276962E+03  0.00000000000E+00 0.  1.
         -1    1    6    6    0  502 -0.14841939726E+03 -0.19886185440E+03 -0.14085127342E+02  0.24854123487E+03  0.00000000000E+00 0.  1.
<mgrwt>
<rscale>  0 0.12076348E+04</rscale>
<asrwt>0</asrwt>
<pdfrwt beam="1">  1        3 0.56012131E-01 0.12076348E+04</pdfrwt>
<pdfrwt beam="2">  1       -3 0.15406446E+00 0.12076348E+04</pdfrwt>
<totfact> 0.24395605E+00</totfact>
</mgrwt>
</event>
<event>
12    1  0.1494110E-007  0.2218779E+04  0.7818608E-02  0.8510652E-01
          2   -1    0    0  501    0  0.00000000000E+00  0.00000000000E+00  0.18598520683E+04  0.18598520683E+04  0.00000000000E+00 0. -1.
         -2   -1    0    0    0  501 -0.00000000000E+00 -0.00000000000E+00 -0.66174375144E+03  0.66174375144E+03  0.00000000000E+00 0.  1.
         23    2    1    2    0    0  0.92733771251E+02  0.69305082422E+03 -0.18527407414E+03  0.72916413981E+03  0.91841509969E+02 0.  0.
        254    2    1    2    0    0 -0.92733771251E+02 -0.69305082422E+03  0.13833823910E+04  0.17924316799E+04  0.90008082425E+03 0.  0.
        -24    2    4    4    0    0 -0.44881182055E+03 -0.26050533587E+03  0.92625530594E+03  0.10649414471E+04  0.82802859833E+02 0.  0.
         24    2    4    4    0    0  0.35607804929E+03 -0.43254548835E+03  0.45712708502E+03  0.72749023283E+03  0.79935538607E+02 0.  0.
         13    1    3    3    0    0 -0.38844702526E+01  0.21089371265E+02  0.86721055276E+01  0.23131279770E+02  0.00000000000E+00 0. -1.
        -13    1    3    3    0    0  0.96618241504E+02  0.67196145296E+03 -0.19394617967E+03  0.70603286004E+03  0.00000000000E+00 0.  1.
          2    1    6    6  502    0  0.18344043906E+03 -0.22913404971E+03  0.29031039989E+03  0.41283524038E+03  0.00000000000E+00 0. -1.
          1    1    5    5  503    0 -0.29596842091E+03 -0.18430021538E+03  0.54225006615E+03  0.64466969047E+03  0.00000000000E+00 0. -1.
         -2    1    5    5    0  503 -0.15284339964E+03 -0.76205120490E+02  0.38400523979E+03  0.42027175659E+03  0.00000000000E+00 0.  1.
         -1    1    6    6    0  502  0.17263761023E+03 -0.20341143864E+03  0.16681668513E+03  0.31465499245E+03  0.00000000000E+00 0.  1.
<mgrwt>
<rscale>  0 0.22187794E+04</rscale>
<asrwt>0</asrwt>
<pdfrwt beam="1">  1        2 0.28613109E+00 0.22187794E+04</pdfrwt>
<pdfrwt beam="2">  1       -2 0.10180673E+00 0.22187794E+04</pdfrwt>
<totfact> 0.57740273E+00</totfact>
</mgrwt>
</event>
<event>
12    1  0.1577491E-007  0.1607872E+04  0.7818608E-02  0.8815727E-01
          2   -1    0    0  501    0  0.00000000000E+00  0.00000000000E+00  0.10494451255E+04  0.10494451255E+04  0.00000000000E+00 0. -1.
         -2   -1    0    0    0  501 -0.00000000000E+00 -0.00000000000E+00 -0.61586155783E+03  0.61586155783E+03  0.00000000000E+00 0.  1.
         23    2    1    2    0    0 -0.11341461097E+03  0.21883653668E+03 -0.35716163145E+03  0.44250694696E+03  0.86577499147E+02 0.  0.
        254    2    1    2    0    0  0.11341461097E+03 -0.21883653668E+03  0.79074519911E+03  0.12227997364E+04  0.89956040462E+03 0.  0.
        -24    2    4    4    0    0 -0.18982726964E+03 -0.38185543313E+03  0.75150324115E+03  0.86718029215E+03  0.73461374376E+02 0.  0.
         24    2    4    4    0    0  0.30324188061E+03  0.16301889645E+03  0.39241957966E+02  0.35561944422E+03  0.79965361786E+02 0.  0.
         13    1    3    3    0    0 -0.88240911688E+02  0.21874218145E+03 -0.31738930137E+03  0.39543718726E+03  0.00000000000E+00 0.  1.
        -13    1    3    3    0    0 -0.25173699278E+02  0.94355228612E-01 -0.39772330073E+02  0.47069759694E+02  0.00000000000E+00 0. -1.
          2    1    6    6  502    0  0.29326440576E+03  0.13889075427E+03  0.23979725744E+02  0.32537621387E+03  0.00000000000E+00 0. -1.
          3    1    5    5  503    0 -0.16166619903E+03 -0.33872925184E+03  0.70037599394E+03  0.79460682029E+03  0.00000000000E+00 0. -1.
         -4    1    5    5    0  503 -0.28161070615E+02 -0.43126181292E+02  0.51127247204E+02  0.72573471859E+02  0.00000000000E+00 0.  1.
         -1    1    6    6    0  502  0.99774748535E+01  0.24128142180E+02  0.15262232223E+02  0.30243230349E+02  0.00000000000E+00 0.  1.
<mgrwt>
<rscale>  0 0.16078718E+04</rscale>
<asrwt>0</asrwt>
<pdfrwt beam="1">  1        2 0.16145310E+00 0.16078718E+04</pdfrwt>
<pdfrwt beam="2">  1       -2 0.94747932E-01 0.16078718E+04</pdfrwt>
<totfact> 0.21059764E+01</totfact>
</mgrwt>
</event>
<event>
12    1  0.1494110E-007  0.1491713E+04  0.7818608E-02  0.8889982E-01
          2   -1    0    0  501    0  0.00000000000E+00  0.00000000000E+00  0.47880213314E+03  0.47880213314E+03  0.00000000000E+00 0. -1.
         -2   -1    0    0    0  501 -0.00000000000E+00 -0.00000000000E+00 -0.11618625351E+04  0.11618625351E+04  0.00000000000E+00 0.  1.
         23    2    1    2    0    0 -0.30544360750E+03  0.26559368041E+01  0.17971999167E+03  0.36716128102E+03  0.95944147870E+02 0.  0.
        254    2    1    2    0    0  0.30544360750E+03 -0.26559368041E+01 -0.86278039359E+03  0.12735033872E+04  0.88550438635E+03 0.  0.
        -24    2    4    4    0    0 -0.11796765581E+03 -0.30064643285E+03 -0.60214398643E+03  0.68815628566E+03  0.81713203962E+02 0.  0.
         24    2    4    4    0    0  0.42341126332E+03  0.29799049604E+03 -0.26063640716E+03  0.58534710152E+03  0.81390778885E+02 0.  0.
         13    1    3    3    0    0 -0.11277707986E+03 -0.45253202111E+02  0.73079623771E+02  0.14179969483E+03  0.00000000000E+00 0.  1.
        -13    1    3    3    0    0 -0.19266652764E+03  0.47909138915E+02  0.10664036790E+03  0.22536158619E+03  0.00000000000E+00 0. -1.
          2    1    6    6  502    0  0.19829474542E+03  0.10694742661E+03 -0.14682774537E+03  0.26891810078E+03  0.00000000000E+00 0. -1.
          1    1    5    5  503    0 -0.10762088393E+03 -0.17142826032E+03 -0.33940027268E+03  0.39517394675E+03  0.00000000000E+00 0. -1.
         -2    1    5    5    0  503 -0.10346771880E+02 -0.12921817253E+03 -0.26274371375E+03  0.29298233891E+03  0.00000000000E+00 0.  1.
         -1    1    6    6    0  502  0.22511651790E+03  0.19104306943E+03 -0.11380866179E+03  0.31642900074E+03  0.00000000000E+00 0.  1.
<mgrwt>
<rscale>  0 0.14917135E+04</rscale>
<asrwt>0</asrwt>
<pdfrwt beam="1">  1        2 0.73661866E-01 0.14917135E+04</pdfrwt>
<pdfrwt beam="2">  1       -2 0.17874808E+00 0.14917135E+04</pdfrwt>
<totfact> 0.11568088E+01</totfact>
</mgrwt>
</event>
<event>
12    1  0.1494110E-007  0.1955591E+04  0.7818608E-02  0.8627670E-01
         -2   -1    0    0    0  501 -0.00000000000E+00  0.00000000000E+00  0.46610706607E+03  0.46610706607E+03  0.00000000000E+00 0.  1.
          2   -1    0    0  501    0  0.00000000000E+00 -0.00000000000E+00 -0.20512103968E+04  0.20512103968E+04  0.00000000000E+00 0. -1.
         23    2    1    2    0    0  0.41277707954E+03  0.51390717899E+03 -0.11291814513E+03  0.67429330665E+03  0.86229054728E+02 0.  0.
        254    2    1    2    0    0 -0.41277707954E+03 -0.51390717899E+03 -0.14721851856E+04  0.18430241562E+04  0.89158472041E+03 0.  0.
        -24    2    4    4    0    0  0.15935754651E+03  0.12082904418E+03 -0.13808435670E+03  0.25652034307E+03  0.82103052929E+02 0.  0.
         24    2    4    4    0    0 -0.57213462605E+03 -0.63473622317E+03 -0.13341008289E+04  0.15865038131E+04  0.83314009097E+02 0.  0.
         11    1    3    3    0    0  0.49580615581E+01  0.19437645514E+02 -0.16822192168E+02  0.26179965372E+02  0.00000000000E+00 0. -1.
        -11    1    3    3    0    0  0.40781901799E+03  0.49446953348E+03 -0.96095952966E+02  0.64811334128E+03  0.00000000000E+00 0.  1.
          2    1    6    6  502    0 -0.33002933924E+03 -0.36885708140E+03 -0.84765370176E+03  0.98157613529E+03  0.00000000000E+00 0. -1.
          1    1    5    5  503    0  0.15715258262E+03  0.10359169663E+03 -0.96646660690E+02  0.21158627285E+03  0.00000000000E+00 0. -1.
         -2    1    5    5    0  503  0.22049638818E+01  0.17237347544E+02 -0.41437696011E+02  0.44934070222E+02  0.00000000000E+00 0.  1.
         -1    1    6    6    0  502 -0.24210528680E+03 -0.26587914177E+03 -0.48644712710E+03  0.60492767782E+03  0.00000000000E+00 0.  1.
<mgrwt>
<rscale>  0 0.19555906E+04</rscale>
<asrwt>0</asrwt>
<pdfrwt beam="1">  1        2 0.31557083E+00 0.19555906E+04</pdfrwt>
<pdfrwt beam="2">  1       -2 0.71708780E-01 0.19555906E+04</pdfrwt>
<totfact> 0.10284797E+01</totfact>
</mgrwt>
</event>
<event>
12    1  0.1494110E-007  0.3532302E+04  0.7818608E-02  0.8106177E-01
         -1   -1    0    0    0  501 -0.00000000000E+00  0.00000000000E+00  0.12703742746E+04  0.12703742746E+04  0.00000000000E+00 0.  1.
          1   -1    0    0  501    0  0.00000000000E+00 -0.00000000000E+00 -0.24554104076E+04  0.24554104076E+04  0.00000000000E+00 0. -1.
         23    2    1    2    0    0  0.97036401886E+03  0.12861565961E+03  0.84622267257E+03  0.12969689097E+04  0.88810045660E+02 0.  0.
        254    2    1    2    0    0 -0.97036401886E+03 -0.12861565961E+03 -0.20312588056E+04  0.24288157724E+04  0.90276542041E+03 0.  0.
        -24    2    4    4    0    0 -0.73253941322E+02  0.18817879639E+03 -0.41272859640E+02  0.22144835118E+03  0.80984714404E+02 0.  0.
         24    2    4    4    0    0 -0.89711007753E+03 -0.31679445599E+03 -0.19899859459E+04  0.22073674213E+04  0.85215309138E+02 0.  0.
         11    1    3    3    0    0  0.92930402407E+03  0.13890655698E+03  0.79762170595E+03  0.12325183108E+04  0.00000000000E+00 0.  1.
        -11    1    3    3    0    0  0.41059994788E+02 -0.10290897371E+02  0.48600966621E+02  0.64450598889E+02  0.00000000000E+00 0. -1.
          4    1    6    6  502    0 -0.11845033789E+03 -0.45225579118E+02 -0.20410578051E+03  0.24028109620E+03  0.00000000000E+00 0. -1.
          1    1    5    5  503    0 -0.29578459744E+02  0.11104050864E+03 -0.61773656158E+02  0.13046403503E+03  0.00000000000E+00 0. -1.
         -2    1    5    5    0  503 -0.43675481579E+02  0.77138287745E+02  0.20500796518E+02  0.90984316150E+02  0.00000000000E+00 0.  1.
         -3    1    6    6    0  502 -0.77865973964E+03 -0.27156887688E+03 -0.17858801654E+04  0.19670863251E+04  0.00000000000E+00 0.  1.
<mgrwt>
<rscale>  0 0.35323025E+04</rscale>
<asrwt>0</asrwt>
<pdfrwt beam="1">  1        1 0.37775545E+00 0.35323025E+04</pdfrwt>
<pdfrwt beam="2">  1       -1 0.19544220E+00 0.35323025E+04</pdfrwt>
<totfact> 0.19156004E-01</totfact>
</mgrwt>
</event>
<event>
12    1  0.1494110E-007  0.1338649E+04  0.7818608E-02  0.8999466E-01
          2   -1    0    0  501    0  0.00000000000E+00  0.00000000000E+00  0.12517283607E+04  0.12517283607E+04  0.00000000000E+00 0. -1.
         -2   -1    0    0    0  501 -0.00000000000E+00 -0.00000000000E+00 -0.35790111613E+03  0.35790111613E+03  0.00000000000E+00 0.  1.
         23    2    1    2    0    0 -0.93374644842E+02 -0.22669153179E+03  0.55663175253E+03  0.61484682478E+03  0.89943510824E+02 0.  0.
        254    2    1    2    0    0  0.93374644842E+02  0.22669153179E+03  0.33719549206E+03  0.99478265208E+03  0.90320753435E+03 0.  0.
        -24    2    4    4    0    0  0.21806217518E+03  0.53455746974E+03  0.13666325650E+03  0.59912047238E+03  0.83460733564E+02 0.  0.
         24    2    4    4    0    0 -0.12468753034E+03 -0.30786593795E+03  0.20053223557E+03  0.39566217970E+03  0.77504625477E+02 0.  0.
         13    1    3    3    0    0 -0.13007929677E+02 -0.30023137990E+02  0.21679411764E+02  0.39250375077E+02  0.00000000000E+00 0.  1.
        -13    1    3    3    0    0 -0.80366715165E+02 -0.19666839380E+03  0.53495234076E+03  0.57559644971E+03  0.00000000000E+00 0. -1.
          2    1    6    6  502    0 -0.10937590604E+03 -0.16863375973E+03  0.11963407458E+03  0.23390755769E+03  0.00000000000E+00 0. -1.
          3    1    5    5  503    0  0.11838137685E+03  0.18870810345E+03  0.38741790706E+02  0.22611020552E+03  0.00000000000E+00 0. -1.
         -4    1    5    5    0  503  0.99680798329E+02  0.34584936629E+03  0.97921465792E+02  0.37301026686E+03  0.00000000000E+00 0.  1.
         -1    1    6    6    0  502 -0.15311624298E+02 -0.13923217822E+03  0.80898160988E+02  0.16175462201E+03  0.00000000000E+00 0.  1.
<mgrwt>
<rscale>  0 0.13386485E+04</rscale>
<asrwt>0</asrwt>
<pdfrwt beam="1">  1        2 0.19257359E+00 0.13386485E+04</pdfrwt>
<pdfrwt beam="2">  1       -2 0.55061711E-01 0.13386485E+04</pdfrwt>
<totfact> 0.53498144E+01</totfact>
</mgrwt>
</event>
<event>
12    1  0.1977945E-007  0.1560265E+04  0.7818608E-02  0.8845337E-01
          2   -1    0    0  501    0  0.00000000000E+00  0.00000000000E+00  0.23554799600E+04  0.23554799600E+04  0.00000000000E+00 0. -1.
         -2   -1    0    0    0  501 -0.00000000000E+00 -0.00000000000E+00 -0.25837921545E+03  0.25837921545E+03  0.00000000000E+00 0.  1.
         23    2    1    2    0    0  0.23826525794E+03 -0.10513933975E+03  0.14632004185E+04  0.14890036459E+04  0.91388066610E+02 0.  0.
        254    2    1    2    0    0 -0.23826525794E+03  0.10513933975E+03  0.63390032607E+03  0.11248555296E+04  0.89198975625E+03 0.  0.
        -24    2    4    4    0    0 -0.56048475016E+03 -0.33991734689E+02  0.42214345650E+03  0.70709882282E+03  0.80529834038E+02 0.  0.
         24    2    4    4    0    0  0.32221949222E+03  0.13913107444E+03  0.21175686957E+03  0.41775670682E+03  0.80602960503E+02 0.  0.
         13    1    3    3    0    0  0.34146705711E+02  0.96077652876E+01  0.10672608729E+03  0.11246672563E+03  0.00000000000E+00 0.  1.
        -13    1    3    3    0    0  0.20411855223E+03 -0.11474710504E+03  0.13564743312E+04  0.13765369202E+04  0.00000000000E+00 0. -1.
          2    1    6    6  502    0  0.32328528028E+03  0.14487610600E+03  0.20857800286E+03  0.41110490366E+03  0.00000000000E+00 0. -1.
          1    1    5    5  503    0 -0.55333527580E+03 -0.22648383468E+02  0.41066081837E+03  0.68944556308E+03  0.00000000000E+00 0. -1.
         -2    1    5    5    0  503 -0.71494743643E+01 -0.11343351221E+02  0.11482638136E+02  0.17653259732E+02  0.00000000000E+00 0.  1.
         -1    1    6    6    0  502 -0.10657880577E+01 -0.57450315568E+01  0.31788667071E+01  0.66518031626E+01  0.00000000000E+00 0.  1.
<mgrwt>
<rscale>  0 0.15602654E+04</rscale>
<asrwt>0</asrwt>
<pdfrwt beam="1">  1        2 0.36238152E+00 0.15602654E+04</pdfrwt>
<pdfrwt beam="2">  1       -2 0.39750650E-01 0.15602654E+04</pdfrwt>
<totfact> 0.24314426E+01</totfact>
</mgrwt>
</event>
<event>
12    1  0.1494110E-007  0.3809123E+04  0.7818608E-02  0.8044200E-01
         -1   -1    0    0    0  501 -0.00000000000E+00  0.00000000000E+00  0.15522848408E+04  0.15522848408E+04  0.00000000000E+00 0.  1.
          1   -1    0    0  501    0  0.00000000000E+00 -0.00000000000E+00 -0.23367838828E+04  0.23367838828E+04  0.00000000000E+00 0. -1.
         23    2    1    2    0    0  0.12520423111E+04 -0.10384148100E+04 -0.11455243118E+04  0.19916835532E+04  0.93070729094E+02 0.  0.
        254    2    1    2    0    0 -0.12520423111E+04  0.10384148100E+04  0.36102526988E+03  0.18973851704E+04  0.90764308680E+03 0.  0.
        -24    2    4    4    0    0 -0.10379003286E+04  0.11905403495E+04  0.36525588246E+03  0.16230879369E+04  0.79869740656E+02 0.  0.
         24    2    4    4    0    0 -0.21414198248E+03 -0.15212553945E+03 -0.42306125790E+01  0.27429723350E+03  0.78880325873E+02 0.  0.
         13    1    3    3    0    0  0.10358610365E+04 -0.81150785213E+03 -0.92505371425E+03  0.16085016181E+04  0.00000000000E+00 0. -1.
        -13    1    3    3    0    0  0.21618127460E+03 -0.22690695788E+03 -0.22047059760E+03  0.38318193515E+03  0.00000000000E+00 0.  1.
          2    1    6    6  502    0 -0.15540972356E+03 -0.13848718153E+03 -0.26878955785E+02  0.20988892274E+03  0.00000000000E+00 0. -1.
          1    1    5    5  503    0 -0.76202955220E+03  0.81924311125E+03  0.25382058048E+03  0.11472895018E+04  0.00000000000E+00 0. -1.
         -2    1    5    5    0  503 -0.27587077644E+03  0.37129723820E+03  0.11143530198E+03  0.47579843518E+03  0.00000000000E+00 0.  1.
         -1    1    6    6    0  502 -0.58732258926E+02 -0.13638357916E+02  0.22648343206E+02  0.64408310762E+02  0.00000000000E+00 0.  1.
<mgrwt>
<rscale>  0 0.38091228E+04</rscale>
<asrwt>0</asrwt>
<pdfrwt beam="1">  1        1 0.35950521E+00 0.38091228E+04</pdfrwt>
<pdfrwt beam="2">  1       -1 0.23881305E+00 0.38091228E+04</pdfrwt>
<totfact> 0.11525438E-01</totfact>
</mgrwt>
</event>
<event>
12    1  0.1494110E-007  0.1283902E+04  0.7818608E-02  0.9042430E-01
         -4   -1    0    0    0  501 -0.00000000000E+00  0.00000000000E+00  0.16323614726E+03  0.16323614726E+03  0.00000000000E+00 0.  1.
          4   -1    0    0  501    0  0.00000000000E+00 -0.00000000000E+00 -0.25245682371E+04  0.25245682371E+04  0.00000000000E+00 0. -1.
         23    2    1    2    0    0  0.23771416963E+03 -0.12759060190E+03 -0.96102669981E+03  0.10023195122E+04  0.91020320519E+02 0.  0.
        254    2    1    2    0    0 -0.23771416963E+03  0.12759060190E+03 -0.14003053901E+04  0.16854848722E+04  0.89845238085E+03 0.  0.
        -24    2    4    4    0    0 -0.82528042786E+02 -0.29690239006E+03 -0.14716377053E+03  0.35071879857E+03  0.79903649785E+02 0.  0.
         24    2    4    4    0    0 -0.15518612685E+03  0.42449299195E+03 -0.12531416195E+04  0.13347660736E+04  0.83423727822E+02 0.  0.
         13    1    3    3    0    0  0.11405079255E+03 -0.36151843325E+02 -0.56388006137E+03  0.57643322481E+03  0.00000000000E+00 0. -1.
        -13    1    3    3    0    0  0.12366337709E+03 -0.91438758571E+02 -0.39714663844E+03  0.42588628743E+03  0.00000000000E+00 0.  1.
          4    1    6    6  502    0 -0.30512138816E+00 -0.37432642168E+01 -0.59285772595E+01  0.70180591605E+01  0.00000000000E+00 0. -1.
          1    1    5    5  503    0  0.85209646888E+01 -0.89553801727E+02 -0.24791635055E+02  0.93311925345E+02  0.00000000000E+00 0. -1.
         -2    1    5    5    0  503 -0.91049007474E+02 -0.20734858833E+03 -0.12237213548E+03  0.25740687323E+03  0.00000000000E+00 0.  1.
         -3    1    6    6    0  502 -0.15488100546E+03  0.42823625617E+03 -0.12472130423E+04  0.13277480144E+04  0.00000000000E+00 0.  1.
<mgrwt>
<rscale>  0 0.12839015E+04</rscale>
<asrwt>0</asrwt>
<pdfrwt beam="1">  1        4 0.38839511E+00 0.12839015E+04</pdfrwt>
<pdfrwt beam="2">  1       -4 0.25113254E-01 0.12839015E+04</pdfrwt>
<totfact> 0.24870189E-01</totfact>
</mgrwt>
</event>
<event>
12    1  0.1494110E-007  0.2204984E+04  0.7818608E-02  0.8516357E-01
          2   -1    0    0  501    0  0.00000000000E+00  0.00000000000E+00  0.11203921878E+04  0.11203921878E+04  0.00000000000E+00 0. -1.
         -2   -1    0    0    0  501 -0.00000000000E+00 -0.00000000000E+00 -0.10848776942E+04  0.10848776942E+04  0.00000000000E+00 0.  1.
         23    2    1    2    0    0  0.15169675136E+03  0.61464594399E+03  0.62264452346E+03  0.89551342775E+03  0.11600239587E+03 0.  0.
        254    2    1    2    0    0 -0.15169675136E+03 -0.61464594399E+03 -0.58713002985E+03  0.13097564542E+04  0.98485468802E+03 0.  0.
        -24    2    4    4    0    0  0.41584719389E+00  0.26392529365E+03 -0.14884706314E+03  0.31286254297E+03  0.77915268257E+02 0.  0.
         24    2    4    4    0    0 -0.15211259855E+03 -0.87857123764E+03 -0.43828296670E+03  0.99689391123E+03  0.81730343726E+02 0.  0.
         11    1    3    3    0    0  0.44356199901E+02  0.49490457588E+02  0.87064209149E+02  0.10953060931E+03  0.00000000000E+00 0.  1.
        -11    1    3    3    0    0  0.10734055146E+03  0.56515548640E+03  0.53558031431E+03  0.78598281843E+03  0.00000000000E+00 0. -1.
          2    1    6    6  502    0  0.81921433140E+01 -0.15417132610E+02 -0.79739382862E+01  0.19193303045E+02  0.00000000000E+00 0. -1.
          1    1    5    5  503    0 -0.14844630582E+02  0.48249883029E+01 -0.74255960692E+01  0.17285341947E+02  0.00000000000E+00 0. -1.
         -2    1    5    5    0  503  0.15260477776E+02  0.25910030535E+03 -0.14142146708E+03  0.29557720102E+03  0.00000000000E+00 0.  1.
         -1    1    6    6    0  502 -0.16030474187E+03 -0.86315410503E+03 -0.43030902841E+03  0.97770060818E+03  0.00000000000E+00 0.  1.
<mgrwt>
<rscale>  0 0.22049839E+04</rscale>
<asrwt>0</asrwt>
<pdfrwt beam="1">  1        2 0.17236803E+00 0.22049839E+04</pdfrwt>
<pdfrwt beam="2">  1       -2 0.16690426E+00 0.22049839E+04</pdfrwt>
<totfact> 0.43372861E+00</totfact>
</mgrwt>
</event>
<event>
12    1  0.1494110E-007  0.1466797E+04  0.7818608E-02  0.8906838E-01
         -3   -1    0    0    0  501 -0.00000000000E+00  0.00000000000E+00  0.13599980406E+03  0.13599980406E+03  0.00000000000E+00 0.  1.
          3   -1    0    0  501    0  0.00000000000E+00 -0.00000000000E+00 -0.39549563418E+04  0.39549563418E+04  0.00000000000E+00 0. -1.
         23    2    1    2    0    0  0.24944437956E+03 -0.19206125070E+03 -0.28818844875E+03  0.43658086590E+03  0.91870822149E+02 0.  0.
        254    2    1    2    0    0 -0.24944437956E+03  0.19206125070E+03 -0.35307680890E+04  0.36543752799E+04  0.88827099806E+03 0.  0.
        -24    2    4    4    0    0 -0.83140922917E+02  0.67673936237E+01 -0.33123396809E+04  0.33144476818E+04  0.83732091293E+02 0.  0.
         24    2    4    4    0    0 -0.16630345664E+03  0.18529385707E+03 -0.21842840811E+03  0.33992759816E+03  0.76479731714E+02 0.  0.
         13    1    3    3    0    0  0.11657564842E+03 -0.41785313785E+02 -0.14173837101E+03  0.18821705573E+03  0.00000000000E+00 0. -1.
        -13    1    3    3    0    0  0.13286873114E+03 -0.15027593691E+03 -0.14645007774E+03  0.24836381017E+03  0.00000000000E+00 0.  1.
          4    1    6    6  502    0 -0.47021776937E+02  0.10679232128E+03 -0.11295532324E+03  0.16240243976E+03  0.00000000000E+00 0. -1.
          3    1    5    5  503    0 -0.84816385427E+02 -0.23053798264E+02 -0.23432861324E+04  0.23449339425E+04  0.00000000000E+00 0. -1.
         -4    1    5    5    0  503  0.16754625103E+01  0.29821191888E+02 -0.96905354851E+03  0.96951373922E+03  0.00000000000E+00 0.  1.
         -3    1    6    6    0  502 -0.11928167971E+03  0.78501535799E+02 -0.10547308487E+03  0.17752515841E+03  0.00000000000E+00 0.  1.
<mgrwt>
<rscale>  0 0.14667969E+04</rscale>
<asrwt>0</asrwt>
<pdfrwt beam="1">  1        3 0.60845487E+00 0.14667969E+04</pdfrwt>
<pdfrwt beam="2">  1       -3 0.20923045E-01 0.14667969E+04</pdfrwt>
<totfact> 0.56426753E-02</totfact>
</mgrwt>
</event>
<event>
12    1  0.1494110E-007  0.3781991E+04  0.7818608E-02  0.8050031E-01
          1   -1    0    0  501    0  0.00000000000E+00  0.00000000000E+00  0.21255471832E+04  0.21255471832E+04  0.00000000000E+00 0. -1.
         -1   -1    0    0    0  501 -0.00000000000E+00 -0.00000000000E+00 -0.16823265552E+04  0.16823265552E+04  0.00000000000E+00 0.  1.
         23    2    1    2    0    0 -0.95736588000E+03  0.14720295881E+04 -0.99354704707E+02  0.17610996758E+04  0.90444314472E+02 0.  0.
        254    2    1    2    0    0  0.95736588000E+03 -0.14720295881E+04  0.54257533263E+03  0.20467740626E+04  0.90081936888E+03 0.  0.
        -24    2    4    4    0    0  0.71789422268E+03 -0.15100389072E+04  0.31253420442E+03  0.17028701760E+04  0.80620040468E+02 0.  0.
         24    2    4    4    0    0  0.23947165731E+03  0.38009319081E+02  0.23004112821E+03  0.34390388668E+03  0.80991231714E+02 0.  0.
         11    1    3    3    0    0 -0.38380108163E+03  0.66047811080E+03 -0.66433888825E+02  0.76677771661E+03  0.00000000000E+00 0. -1.
        -11    1    3    3    0    0 -0.57356479837E+03  0.81155147735E+03 -0.32920815882E+02  0.99432195914E+03  0.00000000000E+00 0.  1.
          2    1    6    6  502    0  0.31162976048E+02 -0.18397715070E+02  0.55923969209E+02  0.66611540502E+02  0.00000000000E+00 0. -1.
          1    1    5    5  503    0  0.22151029680E+03 -0.53053969437E+03  0.13430093053E+03  0.59040318328E+03  0.00000000000E+00 0. -1.
         -2    1    5    5    0  503  0.49638392588E+03 -0.97949921286E+03  0.17823327389E+03  0.11124669927E+04  0.00000000000E+00 0.  1.
         -1    1    6    6    0  502  0.20830868127E+03  0.56407034151E+02  0.17411715900E+03  0.27729234618E+03  0.00000000000E+00 0.  1.
<mgrwt>
<rscale>  0 0.37819913E+04</rscale>
<asrwt>0</asrwt>
<pdfrwt beam="1">  1        1 0.32700726E+00 0.37819913E+04</pdfrwt>
<pdfrwt beam="2">  1       -1 0.25881947E+00 0.37819913E+04</pdfrwt>
<totfact> 0.11916635E-01</totfact>
</mgrwt>
</event>
<event>
12    1  0.1494110E-007  0.1565783E+04  0.7818608E-02  0.8841849E-01
         -2   -1    0    0    0  501 -0.00000000000E+00  0.00000000000E+00  0.21015588888E+03  0.21015588888E+03  0.00000000000E+00 0.  1.
          2   -1    0    0  501    0  0.00000000000E+00 -0.00000000000E+00 -0.29164962451E+04  0.29164962451E+04  0.00000000000E+00 0. -1.
         23    2    1    2    0    0  0.42223825599E+03 -0.23380307716E+03 -0.12613962882E+04  0.13540556549E+04  0.96938624317E+02 0.  0.
        254    2    1    2    0    0 -0.42223825599E+03  0.23380307716E+03 -0.14449440680E+04  0.17725964791E+04  0.90624825204E+03 0.  0.
        -24    2    4    4    0    0 -0.54501532658E+03 -0.17986903707E+03 -0.93135337225E+03  0.10970060242E+04  0.81292905278E+02 0.  0.
         24    2    4    4    0    0  0.12277707059E+03  0.41367211423E+03 -0.51359069578E+03  0.67559045491E+03  0.80300889253E+02 0.  0.
         11    1    3    3    0    0  0.40088328315E+03 -0.20655265984E+03 -0.12162382788E+04  0.12971534060E+04  0.00000000000E+00 0. -1.
        -11    1    3    3    0    0  0.21354972842E+02 -0.27250417327E+02 -0.45158009478E+02  0.56902248898E+02  0.00000000000E+00 0.  1.
          4    1    6    6  502    0  0.41381341667E+02  0.44342818752E+02 -0.75243787325E+02  0.96645375182E+02  0.00000000000E+00 0. -1.
          1    1    5    5  503    0 -0.68355248402E+02  0.44284616478E+01 -0.10328737595E+03  0.12393681167E+03  0.00000000000E+00 0. -1.
         -2    1    5    5    0  503 -0.47666007818E+03 -0.18429749872E+03 -0.82806599630E+03  0.97306921254E+03  0.00000000000E+00 0.  1.
         -1    1    6    6    0  502  0.81395728921E+02  0.36932929548E+03 -0.43834690845E+03  0.57894507973E+03  0.00000000000E+00 0.  1.
<mgrwt>
<rscale>  0 0.15657827E+04</rscale>
<asrwt>0</asrwt>
<pdfrwt beam="1">  1        2 0.44869169E+00 0.15657827E+04</pdfrwt>
<pdfrwt beam="2">  1       -2 0.32331678E-01 0.15657827E+04</pdfrwt>
<totfact> 0.16903512E+01</totfact>
</mgrwt>
</event>
<event>
12    1  0.1494110E-007  0.1928078E+04  0.7818608E-02  0.8641005E-01
         -2   -1    0    0    0  501 -0.00000000000E+00  0.00000000000E+00  0.29545916121E+03  0.29545916121E+03  0.00000000000E+00 0.  1.
          2   -1    0    0  501    0  0.00000000000E+00 -0.00000000000E+00 -0.31455133472E+04  0.31455133472E+04  0.00000000000E+00 0. -1.
         23    2    1    2    0    0  0.66564786814E+03 -0.16047404773E+03 -0.56728074770E+03  0.89421827845E+03  0.94762220549E+02 0.  0.
        254    2    1    2    0    0 -0.66564786814E+03  0.16047404773E+03 -0.22827734382E+04  0.25467542299E+04  0.89781041034E+03 0.  0.
        -24    2    4    4    0    0 -0.42163527518E+03  0.39858595645E+03 -0.20356593066E+04  0.21182643467E+04  0.80547875165E+02 0.  0.
         24    2    4    4    0    0 -0.24401259297E+03 -0.23811190872E+03 -0.24711413169E+03  0.42848988322E+03  0.79364723546E+02 0.  0.
         11    1    3    3    0    0  0.64164550580E+03 -0.17025232084E+03 -0.53358993406E+03  0.85171182074E+03  0.00000000000E+00 0.  1.
        -11    1    3    3    0    0  0.24002362345E+02  0.97782731068E+01 -0.33690813641E+02  0.42506457708E+02  0.00000000000E+00 0. -1.
          2    1    6    6  502    0 -0.22333953107E+03 -0.22453114779E+03 -0.19799029970E+03  0.37349021572E+03  0.00000000000E+00 0. -1.
          1    1    5    5  503    0 -0.36705528262E+03  0.35269755319E+03 -0.16758017275E+04  0.17514098819E+04  0.00000000000E+00 0. -1.
         -2    1    5    5    0  503 -0.54579992554E+02  0.45888403263E+02 -0.35985757910E+03  0.36685446484E+03  0.00000000000E+00 0.  1.
         -1    1    6    6    0  502 -0.20673061900E+02 -0.13580760928E+02 -0.49123831992E+02  0.54999667502E+02  0.00000000000E+00 0.  1.
<mgrwt>
<rscale>  0 0.19280775E+04</rscale>
<asrwt>0</asrwt>
<pdfrwt beam="1">  1        2 0.48392514E+00 0.19280775E+04</pdfrwt>
<pdfrwt beam="2">  1       -2 0.45455255E-01 0.19280775E+04</pdfrwt>
<totfact> 0.60563825E+00</totfact>
</mgrwt>
</event>
<event>
12    1  0.1494110E-007  0.1870301E+04  0.7818608E-02  0.8669782E-01
          2   -1    0    0  501    0  0.00000000000E+00  0.00000000000E+00  0.61627097802E+03  0.61627097802E+03  0.00000000000E+00 0.  1.
         -2   -1    0    0    0  501 -0.00000000000E+00 -0.00000000000E+00 -0.14190298364E+04  0.14190298364E+04  0.00000000000E+00 0. -1.
         23    2    1    2    0    0  0.24897772886E+03 -0.51685989949E+03  0.15361959723E+03  0.60098889521E+03  0.91948933352E+02 0.  0.
        254    2    1    2    0    0 -0.24897772886E+03  0.51685989949E+03 -0.95637845559E+03  0.14343119192E+04  0.90191843646E+03 0.  0.
        -24    2    4    4    0    0  0.20381987082E+03  0.46517178759E+03 -0.21168002936E+03  0.55748513983E+03  0.89743604766E+02 0.  0.
         24    2    4    4    0    0 -0.45279759968E+03  0.51688111907E+02 -0.74469842623E+03  0.87682677935E+03  0.80945214593E+02 0.  0.
         11    1    3    3    0    0  0.13082683444E+03 -0.34822381369E+03  0.12848715309E+03  0.39355359679E+03  0.00000000000E+00 0.  1.
        -11    1    3    3    0    0  0.11815089442E+03 -0.16863608580E+03  0.25132444142E+02  0.20743529843E+03  0.00000000000E+00 0. -1.
          2    1    6    6  502    0 -0.39072520773E+03  0.16899522464E+02 -0.64581423573E+03  0.75500186019E+03  0.00000000000E+00 0. -1.
          3    1    5    5  503    0  0.13274763720E+03  0.23138764643E+03 -0.73196882969E+02  0.27662241734E+03  0.00000000000E+00 0. -1.
         -4    1    5    5    0  503  0.71072233626E+02  0.23378414116E+03 -0.13848314639E+03  0.28086272249E+03  0.00000000000E+00 0.  1.
         -1    1    6    6    0  502 -0.62072391956E+02  0.34788589443E+02 -0.98884190498E+02  0.12182491916E+03  0.00000000000E+00 0.  1.
<mgrwt>
<rscale>  0 0.18703015E+04</rscale>
<asrwt>0</asrwt>
<pdfrwt beam="1">  1        2 0.94810920E-01 0.18703015E+04</pdfrwt>
<pdfrwt beam="2">  1       -2 0.21831228E+00 0.18703015E+04</pdfrwt>
<totfact> 0.45627047E+00</totfact>
</mgrwt>
</event>
<event>
12    1  0.1494110E-007  0.1988776E+04  0.7818608E-02  0.8611886E-01
          2   -1    0    0  501    0  0.00000000000E+00  0.00000000000E+00  0.24661605311E+04  0.24661605311E+04  0.00000000000E+00 0. -1.
         -2   -1    0    0    0  501 -0.00000000000E+00 -0.00000000000E+00 -0.40095014430E+03  0.40095014430E+03  0.00000000000E+00 0.  1.
         23    2    1    2    0    0  0.36765403051E+02  0.78580176516E+03  0.78006862478E+03  0.11118781734E+04  0.94498170486E+02 0.  0.
        254    2    1    2    0    0 -0.36765403051E+02 -0.78580176516E+03  0.12851417620E+04  0.17552325020E+04  0.90023090283E+03 0.  0.
        -24    2    4    4    0    0 -0.29121660145E+03  0.58149117685E+02  0.27021525546E+03  0.40857937565E+03  0.75712568821E+02 0.  0.
         24    2    4    4    0    0  0.25445119840E+03 -0.84395088285E+03  0.10149265066E+04  0.13466531263E+04  0.80002023907E+02 0.  0.
         11    1    3    3    0    0  0.21885847593E+02  0.21371807215E+03  0.15846047803E+03  0.26695341875E+03  0.00000000000E+00 0. -1.
        -11    1    3    3    0    0  0.14879555458E+02  0.57208369302E+03  0.62160814675E+03  0.84492475469E+03  0.00000000000E+00 0.  1.
          4    1    6    6  502    0  0.48695520396E+02 -0.25517372306E+03  0.33638478835E+03  0.42501718610E+03  0.00000000000E+00 0. -1.
          1    1    5    5  503    0 -0.88722942450E+02  0.31001454219E+02  0.44036821267E+02  0.10378869066E+03  0.00000000000E+00 0. -1.
         -2    1    5    5    0  503 -0.20249365900E+03  0.27147663466E+02  0.22617843419E+03  0.30479068499E+03  0.00000000000E+00 0.  1.
         -3    1    6    6    0  502  0.20575567800E+03 -0.58877715978E+03  0.67854171823E+03  0.92163594021E+03  0.00000000000E+00 0.  1.
<mgrwt>
<rscale>  0 0.19887759E+04</rscale>
<asrwt>0</asrwt>
<pdfrwt beam="1">  1        2 0.37940930E+00 0.19887759E+04</pdfrwt>
<pdfrwt beam="2">  1       -2 0.61684639E-01 0.19887759E+04</pdfrwt>
<totfact> 0.82741088E+00</totfact>
</mgrwt>
</event>
<event>
12    1  0.1494110E-007  0.2797616E+04  0.7818608E-02  0.8304009E-01
          1   -1    0    0  501    0  0.00000000000E+00  0.00000000000E+00  0.12884708154E+04  0.12884708154E+04  0.00000000000E+00 0. -1.
         -1   -1    0    0    0  501 -0.00000000000E+00 -0.00000000000E+00 -0.15185942343E+04  0.15185942343E+04  0.00000000000E+00 0.  1.
         23    2    1    2    0    0 -0.39028387682E+03  0.49060582749E+03  0.98325013913E+03  0.11695568178E+04  0.89814984726E+02 0.  0.
        254    2    1    2    0    0  0.39028387682E+03 -0.49060582749E+03 -0.12133735580E+04  0.16375082318E+04  0.90340590857E+03 0.  0.
        -24    2    4    4    0    0  0.19124912822E+03 -0.60469067051E+02 -0.11291957943E+04  0.11495913395E+04  0.79021319322E+02 0.  0.
         24    2    4    4    0    0  0.19903474860E+03 -0.43013676044E+03 -0.84177763700E+02  0.48791689233E+03  0.79652583711E+02 0.  0.
         13    1    3    3    0    0 -0.33804833814E+03  0.38552242955E+03  0.84299463680E+03  0.98668342455E+03  0.00000000000E+00 0. -1.
        -13    1    3    3    0    0 -0.52235538674E+02  0.10508339794E+03  0.14025550233E+03  0.18287339324E+03  0.00000000000E+00 0.  1.
          2    1    6    6  502    0  0.18484493838E+03 -0.32150796512E+03 -0.70748561616E+02  0.37754520504E+03  0.00000000000E+00 0. -1.
          3    1    5    5  503    0  0.16626049566E+03 -0.79367550223E+02 -0.95915913991E+03  0.97669238561E+03  0.00000000000E+00 0. -1.
         -4    1    5    5    0  503  0.24988632557E+02  0.18898483172E+02 -0.17003665439E+03  0.17289895390E+03  0.00000000000E+00 0.  1.
         -1    1    6    6    0  502  0.14189810217E+02 -0.10862879532E+03 -0.13429202083E+02  0.11037168729E+03  0.00000000000E+00 0.  1.
<mgrwt>
<rscale>  0 0.27976164E+04</rscale>
<asrwt>0</asrwt>
<pdfrwt beam="1">  1        1 0.19822628E+00 0.27976164E+04</pdfrwt>
<pdfrwt beam="2">  1       -1 0.23362988E+00 0.27976164E+04</pdfrwt>
<totfact> 0.71294098E-01</totfact>
</mgrwt>
</event>
<event>
12    1  0.1494110E-007  0.1256429E+04  0.7818608E-02  0.9064849E-01
          2   -1    0    0  501    0  0.00000000000E+00  0.00000000000E+00  0.10453954540E+04  0.10453954540E+04  0.00000000000E+00 0. -1.
         -2   -1    0    0    0  501 -0.00000000000E+00 -0.00000000000E+00 -0.37751587441E+03  0.37751587441E+03  0.00000000000E+00 0.  1.
         23    2    1    2    0    0  0.28569621437E+03 -0.24832947169E+02  0.81499706641E+02  0.31057815529E+03  0.87049331930E+02 0.  0.
        254    2    1    2    0    0 -0.28569621437E+03  0.24832947169E+02  0.58637987298E+03  0.11123331731E+04  0.90066904603E+03 0.  0.
        -24    2    4    4    0    0 -0.28012388190E+03  0.17759317209E+03  0.78150758986E+03  0.85285252511E+03  0.81207096951E+02 0.  0.
         24    2    4    4    0    0 -0.55723324680E+01 -0.15276022492E+03 -0.19512771689E+03  0.25948064803E+03  0.76737498010E+02 0.  0.
         13    1    3    3    0    0  0.12538920904E+03 -0.61292065092E+01  0.80591544728E+02  0.14918115832E+03  0.00000000000E+00 0. -1.
        -13    1    3    3    0    0  0.16030700533E+03 -0.18703740660E+02  0.90816191340E+00  0.16139699697E+03  0.00000000000E+00 0.  1.
          2    1    6    6  502    0 -0.38366249748E+02 -0.10261422237E+03 -0.10881667900E+03  0.15441087196E+03  0.00000000000E+00 0. -1.
          3    1    5    5  503    0 -0.10134914042E+01  0.10464154831E+02  0.66348171880E+02  0.67175930309E+02  0.00000000000E+00 0. -1.
         -4    1    5    5    0  503 -0.27911039050E+03  0.16712901726E+03  0.71515941798E+03  0.78567659480E+03  0.00000000000E+00 0.  1.
         -1    1    6    6    0  502  0.32793917280E+02 -0.50146002548E+02 -0.86311037890E+02  0.10506977607E+03  0.00000000000E+00 0.  1.
<mgrwt>
<rscale>  0 0.12564289E+04</rscale>
<asrwt>0</asrwt>
<pdfrwt beam="1">  1        2 0.16083007E+00 0.12564289E+04</pdfrwt>
<pdfrwt beam="2">  1       -2 0.58079366E-01 0.12564289E+04</pdfrwt>
<totfact> 0.64266829E+01</totfact>
</mgrwt>
</event>
<event>
12    1  0.1494110E-007  0.1349915E+04  0.7818608E-02  0.8990893E-01
          1   -1    0    0  501    0  0.00000000000E+00  0.00000000000E+00  0.86035018115E+03  0.86035018115E+03  0.00000000000E+00 0. -1.
         -1   -1    0    0    0  501 -0.00000000000E+00 -0.00000000000E+00 -0.52951410780E+03  0.52951410780E+03  0.00000000000E+00 0.  1.
         23    2    1    2    0    0  0.18159240901E+03 -0.35335614609E+03  0.21560902042E+03  0.46075005071E+03  0.89257999906E+02 0.  0.
        254    2    1    2    0    0 -0.18159240901E+03  0.35335614609E+03  0.11522705293E+03  0.92911423824E+03  0.83194929232E+03 0.  0.
        -24    2    4    4    0    0 -0.19080249030E+03  0.51304799544E+03 -0.18208859912E+03  0.58208740314E+03  0.77753784673E+02 0.  0.
         24    2    4    4    0    0  0.92100812934E+01 -0.15969184935E+03  0.29731565205E+03  0.34702683510E+03  0.80278982209E+02 0.  0.
         13    1    3    3    0    0  0.10111221704E+03 -0.16832230105E+03  0.15470766422E+03  0.24998107695E+03  0.00000000000E+00 0.  1.
        -13    1    3    3    0    0  0.80480191972E+02 -0.18503384504E+03  0.60901356202E+02  0.21076897375E+03  0.00000000000E+00 0. -1.
          2    1    6    6  502    0  0.11121440395E+02 -0.43480793536E+02  0.26008001073E+02  0.51871783880E+02  0.00000000000E+00 0. -1.
          1    1    5    5  503    0 -0.48085021918E+02  0.14413276891E+03 -0.14981122036E+02  0.15267893903E+03  0.00000000000E+00 0. -1.
         -2    1    5    5    0  503 -0.14271746839E+03  0.36891522653E+03 -0.16710747708E+03  0.42940846411E+03  0.00000000000E+00 0.  1.
         -1    1    6    6    0  502 -0.19113591020E+01 -0.11621105581E+03  0.27130765097E+03  0.29515505122E+03  0.00000000000E+00 0.  1.
<mgrwt>
<rscale>  0 0.13499149E+04</rscale>
<asrwt>0</asrwt>
<pdfrwt beam="1">  1        1 0.13236157E+00 0.13499149E+04</pdfrwt>
<pdfrwt beam="2">  1       -1 0.81463709E-01 0.13499149E+04</pdfrwt>
<totfact> 0.28842633E+01</totfact>
</mgrwt>
</event>
<event>
12    1  0.1494110E-007  0.2123332E+04  0.7818608E-02  0.8551034E-01
         -1   -1    0    0    0  501 -0.00000000000E+00  0.00000000000E+00  0.20466931100E+04  0.20466931100E+04  0.00000000000E+00 0.  1.
          1   -1    0    0  501    0  0.00000000000E+00 -0.00000000000E+00 -0.55071025839E+03  0.55071025839E+03  0.00000000000E+00 0. -1.
         23    2    1    2    0    0 -0.42048634348E+03  0.41917385084E+03 -0.15695071074E+03  0.62080136255E+03  0.90803765673E+02 0.  0.
        254    2    1    2    0    0  0.42048634348E+03 -0.41917385084E+03  0.16529335624E+04  0.19766020058E+04  0.90678037347E+03 0.  0.
        -24    2    4    4    0    0 -0.15605369585E+03 -0.36628500695E+03  0.30876468189E+03  0.51065132274E+03  0.83136528225E+02 0.  0.
         24    2    4    4    0    0  0.57654003933E+03 -0.52888843888E+02  0.13441688805E+04  0.14659506831E+04  0.83819922216E+02 0.  0.
         11    1    3    3    0    0 -0.39184118030E+03  0.41501762180E+03 -0.14175620750E+03  0.58811049927E+03  0.00000000000E+00 0. -1.
        -11    1    3    3    0    0 -0.28645163179E+02  0.41562290389E+01 -0.15194503238E+02  0.32690863280E+02  0.00000000000E+00 0.  1.
          4    1    6    6  502    0  0.22496438469E+02 -0.14311709664E+02  0.36258404715E+02  0.45006518303E+02  0.00000000000E+00 0. -1.
          1    1    5    5  503    0 -0.58329161386E+02 -0.24024924657E+03  0.18538350409E+03  0.30901300156E+03  0.00000000000E+00 0. -1.
         -2    1    5    5    0  503 -0.97724534466E+02 -0.12603576038E+03  0.12338117781E+03  0.20163832118E+03  0.00000000000E+00 0.  1.
         -3    1    6    6    0  502  0.55404360086E+03 -0.38577134224E+02  0.13079104757E+04  0.14209441648E+04  0.00000000000E+00 0.  1.
<mgrwt>
<rscale>  0 0.21233322E+04</rscale>
<asrwt>0</asrwt>
<pdfrwt beam="1">  1        1 0.84724656E-01 0.21233322E+04</pdfrwt>
<pdfrwt beam="2">  1       -1 0.31487586E+00 0.21233322E+04</pdfrwt>
<totfact> 0.94000735E-01</totfact>
</mgrwt>
</event>
<event>
12    1  0.1494110E-007  0.1710850E+04  0.7818608E-02  0.8755200E-01
         -2   -1    0    0    0  501 -0.00000000000E+00  0.00000000000E+00  0.34535936915E+03  0.34535936915E+03  0.00000000000E+00 0.  1.
          2   -1    0    0  501    0  0.00000000000E+00 -0.00000000000E+00 -0.21188133971E+04  0.21188133971E+04  0.00000000000E+00 0. -1.
         23    2    1    2    0    0  0.17114060860E+03 -0.38668074472E+03 -0.12830425653E+04  0.13538305133E+04  0.88587403290E+02 0.  0.
        254    2    1    2    0    0 -0.17114060860E+03  0.38668074472E+03 -0.49041146264E+03  0.11103422530E+04  0.90196752147E+03 0.  0.
        -24    2    4    4    0    0 -0.10827704706E+03 -0.28267406916E+03 -0.96931144331E+02  0.32716427051E+03  0.77538795810E+02 0.  0.
         24    2    4    4    0    0 -0.62863561538E+02  0.66935481389E+03 -0.39348031831E+03  0.78317798246E+03  0.80952437095E+02 0.  0.
         11    1    3    3    0    0  0.13500045502E+03 -0.33725580046E+03 -0.99216051285E+03  0.10565742194E+04  0.00000000000E+00 0. -1.
        -11    1    3    3    0    0  0.36140153579E+02 -0.49424944261E+02 -0.29088205244E+03  0.29725629387E+03  0.00000000000E+00 0.  1.
          4    1    6    6  502    0 -0.69983203567E+02  0.32246580600E+03 -0.18178259994E+03  0.37673167967E+03  0.00000000000E+00 0. -1.
          1    1    5    5  503    0 -0.88941467286E+02 -0.27894504798E+03 -0.90533501662E+02  0.30645919683E+03  0.00000000000E+00 0. -1.
         -2    1    5    5    0  503 -0.19335579777E+02 -0.37290211810E+01 -0.63976426694E+01  0.20705073678E+02  0.00000000000E+00 0.  1.
         -3    1    6    6    0  502  0.71196420284E+01  0.34688900789E+03 -0.21169771837E+03  0.40644630280E+03  0.00000000000E+00 0.  1.
<mgrwt>
<rscale>  0 0.17108501E+04</rscale>
<asrwt>0</asrwt>
<pdfrwt beam="1">  1        2 0.32597128E+00 0.17108501E+04</pdfrwt>
<pdfrwt beam="2">  1       -2 0.53132212E-01 0.17108501E+04</pdfrwt>
<totfact> 0.18217298E+01</totfact>
</mgrwt>
</event>
<event>
12    1  0.1494110E-007  0.1062600E+04  0.7818608E-02  0.9242431E-01
          2   -1    0    0  501    0  0.00000000000E+00  0.00000000000E+00  0.41021618410E+04  0.41021618410E+04  0.00000000000E+00 0. -1.
         -2   -1    0    0    0  501 -0.00000000000E+00 -0.00000000000E+00 -0.68812473988E+02  0.68812473988E+02  0.00000000000E+00 0.  1.
         23    2    1    2    0    0 -0.39565693063E+02 -0.86772762354E+02  0.77490437513E+03  0.78627744560E+03  0.93061670446E+02 0.  0.
        254    2    1    2    0    0  0.39565693063E+02  0.86772762354E+02  0.32584449919E+04  0.33846968694E+04  0.91083158497E+03 0.  0.
        -24    2    4    4    0    0 -0.38818184222E+03  0.16520527171E+03  0.10859273043E+04  0.11676587344E+04  0.78809170496E+02 0.  0.
         24    2    4    4    0    0  0.42774753528E+03 -0.78432509355E+02  0.21725176875E+04  0.22170381350E+04  0.79406402232E+02 0.  0.
         11    1    3    3    0    0 -0.65012206584E+02 -0.32637143120E+02  0.38516405340E+03  0.39197336408E+03  0.00000000000E+00 0.  1.
        -11    1    3    3    0    0  0.25446513521E+02 -0.54135619234E+02  0.38974032173E+03  0.39430408152E+03  0.00000000000E+00 0. -1.
          2    1    6    6  502    0  0.34043008479E+03 -0.84524421040E+02  0.18436714075E+04  0.18767421984E+04  0.00000000000E+00 0. -1.
          3    1    5    5  503    0 -0.23037098785E+03  0.59173495374E+02  0.64651961675E+03  0.68888308837E+03  0.00000000000E+00 0. -1.
         -4    1    5    5    0  503 -0.15781085436E+03  0.10603177634E+03  0.43940768757E+03  0.47877564604E+03  0.00000000000E+00 0.  1.
         -1    1    6    6    0  502  0.87317450491E+02  0.60919116849E+01  0.32884628005E+03  0.34029593658E+03  0.00000000000E+00 0.  1.
<mgrwt>
<rscale>  0 0.10626004E+04</rscale>
<asrwt>0</asrwt>
<pdfrwt beam="1">  1        2 0.63110163E+00 0.10626004E+04</pdfrwt>
<pdfrwt beam="2">  1       -2 0.10586538E-01 0.10626004E+04</pdfrwt>
<totfact> 0.18576676E+01</totfact>
</mgrwt>
</event>
<event>
12    1  0.1494110E-007  0.1686683E+04  0.7818608E-02  0.8768996E-01
          2   -1    0    0  501    0  0.00000000000E+00  0.00000000000E+00  0.26148964742E+04  0.26148964742E+04  0.00000000000E+00 0. -1.
         -2   -1    0    0    0  501 -0.00000000000E+00 -0.00000000000E+00 -0.27198960647E+03  0.27198960647E+03  0.00000000000E+00 0.  1.
         23    2    1    2    0    0 -0.32471620422E+03 -0.17706687524E+03  0.32446173136E+02  0.38233477743E+03  0.91289847676E+02 0.  0.
        254    2    1    2    0    0  0.32471620422E+03  0.17706687524E+03  0.23104606946E+04  0.25045513033E+04  0.89317149401E+03 0.  0.
        -24    2    4    4    0    0 -0.23706550045E+03 -0.14690104661E+03  0.48105577364E+03  0.56174759800E+03  0.79785572041E+02 0.  0.
         24    2    4    4    0    0  0.56178170467E+03  0.32396792185E+03  0.18294049210E+04  0.19428037053E+04  0.84911566935E+02 0.  0.
         13    1    3    3    0    0 -0.94662922817E+02 -0.61510753554E+02  0.51707807053E+02  0.12417060469E+03  0.00000000000E+00 0. -1.
        -13    1    3    3    0    0 -0.23005328141E+03 -0.11555612168E+03 -0.19261633917E+02  0.25816417274E+03  0.00000000000E+00 0.  1.
          4    1    6    6  502    0  0.43194424614E+03  0.20824358449E+03  0.13052445426E+04  0.13905410955E+04  0.00000000000E+00 0. -1.
          3    1    5    5  503    0 -0.22026448199E+03 -0.10768570235E+03  0.38222858638E+03  0.45410499310E+03  0.00000000000E+00 0. -1.
         -4    1    5    5    0  503 -0.16801018464E+02 -0.39215344261E+02  0.98827187263E+02  0.10764260490E+03  0.00000000000E+00 0.  1.
         -3    1    6    6    0  502  0.12983745853E+03  0.11572433735E+03  0.52416037840E+03  0.55226260980E+03  0.00000000000E+00 0.  1.
<mgrwt>
<rscale>  0 0.16866827E+04</rscale>
<asrwt>0</asrwt>
<pdfrwt beam="1">  1        2 0.40229175E+00 0.16866827E+04</pdfrwt>
<pdfrwt beam="2">  1       -2 0.41844557E-01 0.16866827E+04</pdfrwt>
<totfact> 0.15410370E+01</totfact>
</mgrwt>
</event>
<event>
12    1  0.1494110E-007  0.1653161E+04  0.7818608E-02  0.8788538E-01
          2   -1    0    0  501    0  0.00000000000E+00  0.00000000000E+00  0.30669678895E+04  0.30669678895E+04  0.00000000000E+00 0.  1.
         -2   -1    0    0    0  501 -0.00000000000E+00 -0.00000000000E+00 -0.22277236175E+03  0.22277236175E+03  0.00000000000E+00 0. -1.
         23    2    1    2    0    0 -0.22194974410E+03  0.13177751166E+03 -0.22702136620E+02  0.27499820443E+03  0.92095732504E+02 0.  0.
        254    2    1    2    0    0  0.22194974410E+03 -0.13177751166E+03  0.28668976643E+04  0.30147420468E+04  0.89606941104E+03 0.  0.
        -24    2    4    4    0    0  0.55135214959E+03 -0.16737484663E+03  0.20093927350E+04  0.20919174418E+04  0.80348538401E+02 0.  0.
         24    2    4    4    0    0 -0.32940240549E+03  0.35597334971E+02  0.85750492930E+03  0.92282460497E+03  0.80730618511E+02 0.  0.
         11    1    3    3    0    0 -0.20584193806E+03  0.10251801300E+03 -0.45687655508E+02  0.23445299810E+03  0.00000000000E+00 0. -1.
        -11    1    3    3    0    0 -0.16107806039E+02  0.29259498660E+02  0.22985518888E+02  0.40545206323E+02  0.00000000000E+00 0.  1.
          4    1    6    6  502    0 -0.70758662183E+02  0.41752386073E+02  0.21810122920E+03  0.23306264436E+03  0.00000000000E+00 0. -1.
          3    1    5    5  503    0  0.29781286092E+02 -0.12794777874E+02  0.61885733696E+02  0.69860399206E+02  0.00000000000E+00 0. -1.
         -4    1    5    5    0  503  0.52157086349E+03 -0.15458006876E+03  0.19475070013E+04  0.20220570426E+04  0.00000000000E+00 0.  1.
         -3    1    6    6    0  502 -0.25864374330E+03 -0.61550511020E+01  0.63940370009E+03  0.68976196060E+03  0.00000000000E+00 0.  1.
<mgrwt>
<rscale>  0 0.16531614E+04</rscale>
<asrwt>0</asrwt>
<pdfrwt beam="1">  1        2 0.47184118E+00 0.16531614E+04</pdfrwt>
<pdfrwt beam="2">  1       -2 0.34272673E-01 0.16531614E+04</pdfrwt>
<totfact> 0.12102498E+01</totfact>
</mgrwt>
</event>
<event>
12    1  0.1494110E-007  0.2232552E+04  0.7818608E-02  0.8505000E-01
          2   -1    0    0  501    0  0.00000000000E+00  0.00000000000E+00  0.92753882548E+03  0.92753882548E+03  0.00000000000E+00 0. -1.
         -2   -1    0    0    0  501 -0.00000000000E+00 -0.00000000000E+00 -0.13434173248E+04  0.13434173248E+04  0.00000000000E+00 0.  1.
         23    2    1    2    0    0  0.26027510089E+03  0.89315823647E+03 -0.27208507749E+03  0.97453253870E+03  0.10103769632E+03 0.  0.
        254    2    1    2    0    0 -0.26027510089E+03 -0.89315823647E+03 -0.14379342184E+03  0.12964236116E+04  0.89138256043E+03 0.  0.
        -24    2    4    4    0    0 -0.32742219252E+03 -0.10468242106E+04 -0.15337545180E+03  0.11100607943E+04  0.75264318809E+02 0.  0.
         24    2    4    4    0    0  0.67147091631E+02  0.15366597413E+03  0.95820299636E+01  0.18636281734E+03  0.80729925465E+02 0.  0.
         13    1    3    3    0    0  0.26832643344E+03  0.84514736569E+03 -0.25166600854E+03  0.92174233085E+03  0.00000000000E+00 0. -1.
        -13    1    3    3    0    0 -0.80513325503E+01  0.48010870775E+02 -0.20419068945E+02  0.52790207852E+02  0.00000000000E+00 0.  1.
          4    1    6    6  502    0  0.25096646521E+02  0.47064224127E+02  0.41300806667E+02  0.67458427869E+02  0.00000000000E+00 0. -1.
          1    1    5    5  503    0 -0.18490767673E+03 -0.64100614213E+03 -0.12711599973E+03  0.67914519843E+03  0.00000000000E+00 0. -1.
         -2    1    5    5    0  503 -0.14251451580E+03 -0.40581806847E+03 -0.26259452076E+02  0.43091559584E+03  0.00000000000E+00 0.  1.
         -3    1    6    6    0  502  0.42050445110E+02  0.10660175001E+03 -0.31718776703E+02  0.11890438947E+03  0.00000000000E+00 0.  1.
<mgrwt>
<rscale>  0 0.22325517E+04</rscale>
<asrwt>0</asrwt>
<pdfrwt beam="1">  1        2 0.14269828E+00 0.22325517E+04</pdfrwt>
<pdfrwt beam="2">  1       -2 0.20667959E+00 0.22325517E+04</pdfrwt>
<totfact> 0.30804837E+00</totfact>
</mgrwt>
</event>
<event>
12    1  0.1494110E-007  0.2536340E+04  0.7818608E-02  0.8390152E-01
          1   -1    0    0  501    0  0.00000000000E+00  0.00000000000E+00  0.24989332071E+04  0.24989332071E+04  0.00000000000E+00 0. -1.
         -1   -1    0    0    0  501 -0.00000000000E+00 -0.00000000000E+00 -0.64357682805E+03  0.64357682805E+03  0.00000000000E+00 0.  1.
         23    2    1    2    0    0 -0.25442990858E+03 -0.10649754647E+04  0.58106038307E+03  0.12428586293E+04  0.90327652623E+02 0.  0.
        254    2    1    2    0    0  0.25442990858E+03  0.10649754647E+04  0.12742959960E+04  0.18996514059E+04  0.88653136415E+03 0.  0.
        -24    2    4    4    0    0  0.35458397319E+03  0.11709753472E+04  0.10150316074E+04  0.15917445138E+04  0.80301777640E+02 0.  0.
         24    2    4    4    0    0 -0.10015406461E+03 -0.10599988247E+03  0.25926438864E+03  0.30790689209E+03  0.79509868814E+02 0.  0.
         13    1    3    3    0    0 -0.12989758130E+03 -0.57769261606E+03  0.36416688566E+03  0.69514002970E+03  0.00000000000E+00 0. -1.
        -13    1    3    3    0    0 -0.12453232728E+03 -0.48728284865E+03  0.21689349741E+03  0.54771859960E+03  0.00000000000E+00 0.  1.
          2    1    6    6  502    0 -0.90124274639E+02 -0.85379935474E+02  0.14285576942E+03  0.18926143061E+03  0.00000000000E+00 0. -1.
          1    1    5    5  503    0  0.28484856578E+03  0.81853609829E+03  0.72925484880E+03  0.11326750126E+04  0.00000000000E+00 0. -1.
         -4    1    5    5    0  503  0.69735407407E+02  0.35243924889E+03  0.28577675856E+03  0.45906950121E+03  0.00000000000E+00 0.  1.
         -1    1    6    6    0  502 -0.10029789970E+02 -0.20619946993E+02  0.11640861921E+03  0.11864546147E+03  0.00000000000E+00 0.  1.
<mgrwt>
<rscale>  0 0.25363403E+04</rscale>
<asrwt>0</asrwt>
<pdfrwt beam="1">  1        1 0.38445126E+00 0.25363403E+04</pdfrwt>
<pdfrwt beam="2">  1       -1 0.99011821E-01 0.25363403E+04</pdfrwt>
<totfact> 0.11713785E+00</totfact>
</mgrwt>
</event>
<event>
12    1  0.1494110E-007  0.2574952E+04  0.7818608E-02  0.8376760E-01
          2   -1    0    0  501    0  0.00000000000E+00  0.00000000000E+00  0.21882008405E+04  0.21882008405E+04  0.00000000000E+00 0. -1.
         -2   -1    0    0    0  501 -0.00000000000E+00 -0.00000000000E+00 -0.75751466846E+03  0.75751466846E+03  0.00000000000E+00 0.  1.
         23    2    1    2    0    0 -0.68986736527E+03 -0.86719505023E+03  0.80342284336E+03  0.13717142686E+04  0.90374402976E+02 0.  0.
        254    2    1    2    0    0  0.68986736527E+03  0.86719505023E+03  0.62726332864E+03  0.15740012403E+04  0.92524395928E+03 0.  0.
        -24    2    4    4    0    0  0.76301096522E+03  0.86063989174E+03  0.77590949110E+03  0.13897085971E+04  0.79797808016E+02 0.  0.
         24    2    4    4    0    0 -0.73143599958E+02  0.65551584907E+01 -0.14864616246E+03  0.18429264320E+03  0.80468257136E+02 0.  0.
         11    1    3    3    0    0 -0.37951305665E+03 -0.48647629121E+03  0.39210211895E+03  0.73104952894E+03  0.00000000000E+00 0. -1.
        -11    1    3    3    0    0 -0.31035430861E+03 -0.38071875901E+03  0.41132072441E+03  0.64066473968E+03  0.00000000000E+00 0.  1.
          4    1    6    6  502    0 -0.59351943223E+02  0.18884120018E+01 -0.15675601323E+03  0.16762656994E+03  0.00000000000E+00 0. -1.
          3    1    5    5  503    0  0.40723604162E+03  0.43683311725E+03  0.44724672975E+03  0.74611929555E+03  0.00000000000E+00 0. -1.
         -4    1    5    5    0  503  0.35577492360E+03  0.42380677449E+03  0.32866276135E+03  0.64358930154E+03  0.00000000000E+00 0.  1.
         -3    1    6    6    0  502 -0.13791656735E+02  0.46667464889E+01  0.81098507778E+01  0.16666073260E+02  0.00000000000E+00 0.  1.
<mgrwt>
<rscale>  0 0.25749518E+04</rscale>
<asrwt>0</asrwt>
<pdfrwt beam="1">  1        2 0.33664628E+00 0.25749518E+04</pdfrwt>
<pdfrwt beam="2">  1       -2 0.11654072E+00 0.25749518E+04</pdfrwt>
<totfact> 0.26524341E+00</totfact>
</mgrwt>
</event>
<event>
12    1  0.1494110E-007  0.1072109E+04  0.7818608E-02  0.9232811E-01
          1   -1    0    0  501    0  0.00000000000E+00  0.00000000000E+00  0.11423009638E+04  0.11423009638E+04  0.00000000000E+00 0. -1.
         -1   -1    0    0    0  501 -0.00000000000E+00 -0.00000000000E+00 -0.25155733784E+03  0.25155733784E+03  0.00000000000E+00 0.  1.
         23    2    1    2    0    0 -0.10206936773E+03 -0.11017736963E+03  0.95437693338E+02  0.20158466513E+03  0.94714388017E+02 0.  0.
        254    2    1    2    0    0  0.10206936773E+03  0.11017736963E+03  0.79530593267E+03  0.11922736366E+04  0.87546998193E+03 0.  0.
        -24    2    4    4    0    0  0.19664691151E+03 -0.28021287093E+03  0.68754436995E+02  0.35827684872E+03  0.80286156194E+02 0.  0.
         24    2    4    4    0    0 -0.94577543779E+02  0.39039024056E+03  0.72655149568E+03  0.83399678784E+03  0.79524301549E+02 0.  0.
         11    1    3    3    0    0  0.15723537155E+02 -0.36209610176E+01  0.20130991793E+02  0.25799182350E+02  0.00000000000E+00 0. -1.
        -11    1    3    3    0    0 -0.11779290489E+03 -0.10655640861E+03  0.75306701546E+02  0.17578548278E+03  0.00000000000E+00 0.  1.
          2    1    6    6  502    0 -0.73308981311E+02  0.27502521630E+03  0.58169404429E+03  0.64759635384E+03  0.00000000000E+00 0. -1.
          3    1    5    5  503    0  0.12868117624E+03 -0.19300536548E+03  0.79725365812E+01  0.23210660819E+03  0.00000000000E+00 0. -1.
         -4    1    5    5    0  503  0.67965735266E+02 -0.87207505449E+02  0.60781900414E+02  0.12617024053E+03  0.00000000000E+00 0.  1.
         -1    1    6    6    0  502 -0.21268562468E+02  0.11536502426E+03  0.14485745138E+03  0.18640043399E+03  0.00000000000E+00 0.  1.
<mgrwt>
<rscale>  0 0.10721086E+04</rscale>
<asrwt>0</asrwt>
<pdfrwt beam="1">  1        1 0.17573861E+00 0.10721086E+04</pdfrwt>
<pdfrwt beam="2">  1       -1 0.38701130E-01 0.10721086E+04</pdfrwt>
<totfact> 0.76062057E+01</totfact>
</mgrwt>
</event>
<event>
12    1  0.1494110E-007  0.1377122E+04  0.7818608E-02  0.8970547E-01
         -2   -1    0    0    0  501 -0.00000000000E+00  0.00000000000E+00  0.24896127952E+03  0.24896127952E+03  0.00000000000E+00 0.  1.
          2   -1    0    0  501    0  0.00000000000E+00 -0.00000000000E+00 -0.19043786910E+04  0.19043786910E+04  0.00000000000E+00 0. -1.
         23    2    1    2    0    0  0.75882993751E+00 -0.38556565497E+03 -0.61068991980E+03  0.72724334724E+03  0.85318566816E+02 0.  0.
        254    2    1    2    0    0 -0.75882993751E+00  0.38556565497E+03 -0.10447274917E+04  0.14260966233E+04  0.89086171596E+03 0.  0.
        -24    2    4    4    0    0  0.48456932337E+02  0.66302395405E+03 -0.63993224492E+03  0.92641012663E+03  0.82301924036E+02 0.  0.
         24    2    4    4    0    0 -0.49215762274E+02 -0.27745829908E+03 -0.40479524679E+03  0.49968649668E+03  0.80138031907E+02 0.  0.
         11    1    3    3    0    0 -0.24390169873E+02 -0.18658816418E+03 -0.35984796279E+03  0.40607952389E+03  0.00000000000E+00 0. -1.
        -11    1    3    3    0    0  0.25148999811E+02 -0.19897749078E+03 -0.25084195701E+03  0.32116382335E+03  0.00000000000E+00 0.  1.
          4    1    6    6  502    0  0.73727885207E+01 -0.18067595981E+03 -0.24670037869E+03  0.30587454505E+03  0.00000000000E+00 0. -1.
          3    1    5    5  503    0  0.69318438049E+02  0.52835013533E+03 -0.52637962980E+03  0.74902231344E+03  0.00000000000E+00 0. -1.
         -4    1    5    5    0  503 -0.20861505713E+02  0.13467381872E+03 -0.11355261511E+03  0.17738781319E+03  0.00000000000E+00 0.  1.
         -3    1    6    6    0  502 -0.56588550795E+02 -0.96782339265E+02 -0.15809486810E+03  0.19381195163E+03  0.00000000000E+00 0.  1.
<mgrwt>
<rscale>  0 0.13771224E+04</rscale>
<asrwt>0</asrwt>
<pdfrwt beam="1">  1        2 0.29298133E+00 0.13771224E+04</pdfrwt>
<pdfrwt beam="2">  1       -2 0.38301736E-01 0.13771224E+04</pdfrwt>
<totfact> 0.47403247E+01</totfact>
</mgrwt>
</event>
<event>
12    1  0.1494110E-007  0.1780548E+04  0.7818608E-02  0.8716713E-01
         -2   -1    0    0    0  501 -0.00000000000E+00  0.00000000000E+00  0.94634064829E+03  0.94634064829E+03  0.00000000000E+00 0. -1.
          2   -1    0    0  501    0  0.00000000000E+00 -0.00000000000E+00 -0.83752942760E+03  0.83752942760E+03  0.00000000000E+00 0.  1.
         23    2    1    2    0    0 -0.82672170612E+02  0.44604444169E+03 -0.45503913376E+03  0.64870919533E+03  0.89289837567E+02 0.  0.
        254    2    1    2    0    0  0.82672170612E+02 -0.44604444169E+03  0.56385035445E+03  0.11351608806E+04  0.87456999194E+03 0.  0.
        -24    2    4    4    0    0  0.34474392003E+03 -0.25484427196E+03 -0.46674775326E+02  0.43937950031E+03  0.84153652847E+02 0.  0.
         24    2    4    4    0    0 -0.26207174942E+03 -0.19120016972E+03  0.61052512978E+03  0.69578138026E+03  0.78305097409E+02 0.  0.
         13    1    3    3    0    0 -0.70828408187E+02  0.38678509967E+03 -0.34473387180E+03  0.52293481343E+03  0.00000000000E+00 0.  1.
        -13    1    3    3    0    0 -0.11843762426E+02  0.59259342018E+02 -0.11030526196E+03  0.12577438189E+03  0.00000000000E+00 0. -1.
          4    1    6    6  502    0 -0.26708835595E+03 -0.18442627246E+03  0.60112956128E+03  0.68315883168E+03  0.00000000000E+00 0. -1.
          1    1    5    5  503    0  0.15060621127E+03 -0.16364697294E+03 -0.24105103469E+02  0.22370431073E+03  0.00000000000E+00 0. -1.
         -2    1    5    5    0  503  0.19413770876E+03 -0.91197299024E+02 -0.22569671857E+02  0.21567518958E+03  0.00000000000E+00 0.  1.
         -3    1    6    6    0  502  0.50166065310E+01 -0.67738972659E+01  0.93955684922E+01  0.12622548576E+02  0.00000000000E+00 0.  1.
<mgrwt>
<rscale>  0 0.17805484E+04</rscale>
<asrwt>0</asrwt>
<pdfrwt beam="1">  1        2 0.12885068E+00 0.17805484E+04</pdfrwt>
<pdfrwt beam="2">  1       -2 0.14559087E+00 0.17805484E+04</pdfrwt>
<totfact> 0.99241123E+00</totfact>
</mgrwt>
</event>
<event>
12    1  0.1494110E-007  0.2085204E+04  0.7818608E-02  0.8567789E-01
          2   -1    0    0  501    0  0.00000000000E+00  0.00000000000E+00  0.72184543534E+03  0.72184543534E+03  0.00000000000E+00 0. -1.
         -2   -1    0    0    0  501 -0.00000000000E+00 -0.00000000000E+00 -0.15058884654E+04  0.15058884654E+04  0.00000000000E+00 0.  1.
         23    2    1    2    0    0  0.56151573238E+03  0.41484780857E+03  0.18908312275E+03  0.72899411034E+03  0.91001997892E+02 0.  0.
        254    2    1    2    0    0 -0.56151573238E+03 -0.41484780857E+03 -0.97312615280E+03  0.14987397904E+04  0.90102598634E+03 0.  0.
        -24    2    4    4    0    0 -0.28567197331E+03  0.22933471036E+03 -0.12407187098E+03  0.39497862009E+03  0.80071189849E+02 0.  0.
         24    2    4    4    0    0 -0.27584375907E+03 -0.64418251893E+03 -0.84905428182E+03  0.11037611703E+04  0.79590517615E+02 0.  0.
         13    1    3    3    0    0  0.45412478029E+03  0.37514219991E+03  0.16851864476E+03  0.61266591210E+03  0.00000000000E+00 0. -1.
        -13    1    3    3    0    0  0.10739095209E+03  0.39705608661E+02  0.20564477989E+02  0.11632819824E+03  0.00000000000E+00 0.  1.
          2    1    6    6  502    0 -0.44012052260E+01 -0.68478920375E+02 -0.89653053316E+02  0.11289996950E+03  0.00000000000E+00 0. -1.
          3    1    5    5  503    0 -0.78916504746E+02  0.24877136169E+02 -0.13244873722E+02  0.83798050724E+02  0.00000000000E+00 0. -1.
         -4    1    5    5    0  503 -0.20675546857E+03  0.20445757419E+03 -0.11082699726E+03  0.31118056936E+03  0.00000000000E+00 0.  1.
         -1    1    6    6    0  502 -0.27144255384E+03 -0.57570359855E+03 -0.75940122850E+03  0.99086120081E+03  0.00000000000E+00 0.  1.
<mgrwt>
<rscale>  0 0.20852038E+04</rscale>
<asrwt>0</asrwt>
<pdfrwt beam="1">  1        2 0.11105314E+00 0.20852038E+04</pdfrwt>
<pdfrwt beam="2">  1       -2 0.23167515E+00 0.20852038E+04</pdfrwt>
<totfact> 0.30326676E+00</totfact>
</mgrwt>
</event>
<event>
12    1  0.1494110E-007  0.1688109E+04  0.7818608E-02  0.8768176E-01
         -1   -1    0    0    0  501 -0.00000000000E+00  0.00000000000E+00  0.41338677200E+03  0.41338677200E+03  0.00000000000E+00 0.  1.
          1   -1    0    0  501    0  0.00000000000E+00 -0.00000000000E+00 -0.17233927839E+04  0.17233927839E+04  0.00000000000E+00 0. -1.
         23    2    1    2    0    0  0.27995995622E+03  0.37421375001E+03  0.98108172273E+00  0.47740132706E+03  0.97455409125E+02 0.  0.
        254    2    1    2    0    0 -0.27995995622E+03 -0.37421375001E+03 -0.13109870937E+04  0.16593782289E+04  0.90356817063E+03 0.  0.
        -24    2    4    4    0    0 -0.10173873102E+03 -0.25682589946E+03  0.39140133259E+02  0.29029965672E+03  0.80197435350E+02 0.  0.
         24    2    4    4    0    0 -0.17822122520E+03 -0.11738785055E+03 -0.13501272269E+04  0.13690785722E+04  0.77394414139E+02 0.  0.
         13    1    3    3    0    0  0.22681171101E+03  0.35283209483E+03 -0.73589551473E+01  0.41950946785E+03  0.00000000000E+00 0. -1.
        -13    1    3    3    0    0  0.53148245214E+02  0.21381655182E+02  0.83400368700E+01  0.57891859209E+02  0.00000000000E+00 0.  1.
          2    1    6    6  502    0 -0.43094466235E+02 -0.54066095788E+02 -0.62100569471E+03  0.62484265907E+03  0.00000000000E+00 0. -1.
          3    1    5    5  503    0 -0.10147136112E+02 -0.13403868303E+03  0.20754575977E+02  0.13601501881E+03  0.00000000000E+00 0. -1.
         -2    1    5    5    0  503 -0.91591594906E+02 -0.12278721643E+03  0.18385557282E+02  0.15428463790E+03  0.00000000000E+00 0.  1.
         -1    1    6    6    0  502 -0.13512675897E+03 -0.63321754766E+02 -0.72912153220E+03  0.74423591309E+03  0.00000000000E+00 0.  1.
<mgrwt>
<rscale>  0 0.16881087E+04</rscale>
<asrwt>0</asrwt>
<pdfrwt beam="1">  1        1 0.26513735E+00 0.16881087E+04</pdfrwt>
<pdfrwt beam="2">  1       -1 0.63597964E-01 0.16881087E+04</pdfrwt>
<totfact> 0.10972678E+01</totfact>
</mgrwt>
</event>
<event>
12    1  0.1494110E-007  0.1544553E+04  0.7818608E-02  0.8855354E-01
          2   -1    0    0  501    0  0.00000000000E+00  0.00000000000E+00  0.70277670137E+03  0.70277670137E+03  0.00000000000E+00 0. -1.
         -2   -1    0    0    0  501 -0.00000000000E+00 -0.00000000000E+00 -0.84864983118E+03  0.84864983118E+03  0.00000000000E+00 0.  1.
         23    2    1    2    0    0  0.21659803394E+03  0.89113881230E+02 -0.50061226824E+03  0.55905982798E+03  0.84138314757E+02 0.  0.
        254    2    1    2    0    0 -0.21659803394E+03 -0.89113881230E+02  0.35473913844E+03  0.99236670457E+03  0.89671390525E+03 0.  0.
        -24    2    4    4    0    0 -0.29742968057E+03  0.35467645709E+03  0.17504877103E+03  0.50129519988E+03  0.79968750659E+02 0.  0.
         24    2    4    4    0    0  0.80831646638E+02 -0.44379033832E+03  0.17969036741E+03  0.49107150469E+03  0.73341496401E+02 0.  0.
         11    1    3    3    0    0  0.54467233798E+02  0.32596546612E+02 -0.65103231829E+02  0.90926592388E+02  0.00000000000E+00 0. -1.
        -11    1    3    3    0    0  0.16213080014E+03  0.56517334619E+02 -0.43550903641E+03  0.46813323559E+03  0.00000000000E+00 0.  1.
          4    1    6    6  502    0  0.33001982908E+02 -0.53805567979E+02  0.36321875165E+02  0.72824780377E+02  0.00000000000E+00 0. -1.
          1    1    5    5  503    0 -0.83952885439E+02  0.13035966625E+03  0.93546474830E+02  0.18108747199E+03  0.00000000000E+00 0. -1.
         -2    1    5    5    0  503 -0.21347679514E+03  0.22431679084E+03  0.81502296196E+02  0.32020772789E+03  0.00000000000E+00 0.  1.
         -3    1    6    6    0  502  0.47829663731E+02 -0.38998477034E+03  0.14336849225E+03  0.41824672432E+03  0.00000000000E+00 0.  1.
<mgrwt>
<rscale>  0 0.15445534E+04</rscale>
<asrwt>0</asrwt>
<pdfrwt beam="1">  1        2 0.10811949E+00 0.15445534E+04</pdfrwt>
<pdfrwt beam="2">  1       -2 0.13056151E+00 0.15445534E+04</pdfrwt>
<totfact> 0.16859438E+01</totfact>
</mgrwt>
</event>
<event>
12    1  0.1494110E-007  0.3122075E+04  0.7818608E-02  0.8209706E-01
         -2   -1    0    0    0  501 -0.00000000000E+00  0.00000000000E+00  0.21530788046E+04  0.21530788046E+04  0.00000000000E+00 0. -1.
          2   -1    0    0  501    0  0.00000000000E+00 -0.00000000000E+00 -0.11317925545E+04  0.11317925545E+04  0.00000000000E+00 0.  1.
         23    2    1    2    0    0  0.12943482299E+02 -0.14426545424E+04  0.33137597907E+03  0.14831459575E+04  0.92153291683E+02 0.  0.
        254    2    1    2    0    0 -0.12943482299E+02  0.14426545424E+04  0.68991027101E+03  0.18017254017E+04  0.82995094947E+03 0.  0.
        -24    2    4    4    0    0  0.21927268977E+03  0.13826041692E+04  0.51228018724E+03  0.14930064900E+04  0.83442123035E+02 0.  0.
         24    2    4    4    0    0 -0.23221617206E+03  0.60050373248E+02  0.17763008377E+03  0.30871891167E+03  0.78895639089E+02 0.  0.
         13    1    3    3    0    0  0.20540153309E+02 -0.21965670282E+03  0.79173513778E+02  0.23439157467E+03  0.00000000000E+00 0. -1.
        -13    1    3    3    0    0 -0.75966710100E+01 -0.12229978396E+04  0.25220246530E+03  0.12487543828E+04  0.00000000000E+00 0.  1.
          2    1    6    6  502    0 -0.18876946004E+02  0.25064884171E+02  0.45761149730E+02  0.55485766945E+02  0.00000000000E+00 0. -1.
          3    1    5    5  503    0  0.37785754034E-01  0.16049793566E+03  0.49633761967E+02  0.16799731875E+03  0.00000000000E+00 0. -1.
         -4    1    5    5    0  503  0.21923490401E+03  0.12221062335E+04  0.46264642528E+03  0.13250091713E+04  0.00000000000E+00 0.  1.
         -1    1    6    6    0  502 -0.21333922606E+03  0.34985489077E+02  0.13186893404E+03  0.25323314472E+03  0.00000000000E+00 0.  1.
<mgrwt>
<rscale>  0 0.31220753E+04</rscale>
<asrwt>0</asrwt>
<pdfrwt beam="1">  1        2 0.17412193E+00 0.31220753E+04</pdfrwt>
<pdfrwt beam="2">  1       -2 0.33124289E+00 0.31220753E+04</pdfrwt>
<totfact> 0.35986182E-01</totfact>
</mgrwt>
</event>
<event>
12    1  0.1494110E-007  0.1835283E+04  0.7818608E-02  0.8687758E-01
         -2   -1    0    0    0  501 -0.00000000000E+00  0.00000000000E+00  0.11679452390E+04  0.11679452390E+04  0.00000000000E+00 0.  1.
          2   -1    0    0  501    0  0.00000000000E+00 -0.00000000000E+00 -0.72098051543E+03  0.72098051543E+03  0.00000000000E+00 0. -1.
         23    2    1    2    0    0  0.50265965068E+03  0.39755567713E+02 -0.32111973000E+03  0.60513036737E+03  0.93902347903E+02 0.  0.
        254    2    1    2    0    0 -0.50265965068E+03 -0.39755567713E+02  0.76808445360E+03  0.12837953871E+04  0.89662123467E+03 0.  0.
        -24    2    4    4    0    0 -0.14336571405E+03 -0.44196849079E+03  0.45426027000E+03  0.65465994943E+03  0.79607673445E+02 0.  0.
         24    2    4    4    0    0 -0.35929393663E+03  0.40221292308E+03  0.31382418360E+03  0.62913543765E+03  0.80364247725E+02 0.  0.
         11    1    3    3    0    0  0.21360559798E+03 -0.26799032904E+02 -0.15380396149E+03  0.26457739553E+03  0.00000000000E+00 0.  1.
        -11    1    3    3    0    0  0.28905405269E+03  0.66554600617E+02 -0.16731576851E+03  0.34055297185E+03  0.00000000000E+00 0. -1.
          4    1    6    6  502    0 -0.24707904104E+03  0.21762443795E+03  0.18989155933E+03  0.38008848025E+03  0.00000000000E+00 0. -1.
          3    1    5    5  503    0 -0.49030041482E+02 -0.27246492167E+03  0.25098957073E+03  0.37368013478E+03  0.00000000000E+00 0. -1.
         -4    1    5    5    0  503 -0.94335672570E+02 -0.16950356912E+03  0.20327069927E+03  0.28097981466E+03  0.00000000000E+00 0.  1.
         -3    1    6    6    0  502 -0.11221489558E+03  0.18458848513E+03  0.12393262427E+03  0.24904695740E+03  0.00000000000E+00 0.  1.
<mgrwt>
<rscale>  0 0.18352828E+04</rscale>
<asrwt>0</asrwt>
<pdfrwt beam="1">  1        2 0.11092008E+00 0.18352828E+04</pdfrwt>
<pdfrwt beam="2">  1       -2 0.17968388E+00 0.18352828E+04</pdfrwt>
<totfact> 0.67652464E+00</totfact>
</mgrwt>
</event>
<event>
12    1  0.1494110E-007  0.2083828E+04  0.7818608E-02  0.8568401E-01
          1   -1    0    0  501    0  0.00000000000E+00  0.00000000000E+00  0.15070235025E+04  0.15070235025E+04  0.00000000000E+00 0. -1.
         -1   -1    0    0    0  501 -0.00000000000E+00 -0.00000000000E+00 -0.72035012689E+03  0.72035012689E+03  0.00000000000E+00 0.  1.
         23    2    1    2    0    0 -0.38009268527E+03 -0.41207170569E+03  0.91808625666E+03  0.10794412806E+04  0.89652459846E+02 0.  0.
        254    2    1    2    0    0  0.38009268527E+03  0.41207170569E+03 -0.13141288103E+03  0.11479323488E+04  0.99307894556E+03 0.  0.
        -24    2    4    4    0    0 -0.11106324099E+03  0.18493992482E+03  0.35021855344E+03  0.41900840702E+03  0.79857314594E+02 0.  0.
         24    2    4    4    0    0  0.49115592625E+03  0.22713178088E+03 -0.48163143447E+03  0.72892394179E+03  0.80859659044E+02 0.  0.
         13    1    3    3    0    0 -0.12578998472E+03 -0.14734948242E+03  0.24067640350E+03  0.30896621406E+03  0.00000000000E+00 0.  1.
        -13    1    3    3    0    0 -0.25430270054E+03 -0.26472222327E+03  0.67740985316E+03  0.77047506654E+03  0.00000000000E+00 0. -1.
          4    1    6    6  502    0  0.17214828897E+03  0.38691889470E+02 -0.16439229783E+03  0.24115746576E+03  0.00000000000E+00 0. -1.
          1    1    5    5  503    0 -0.11197835243E+03  0.18102422734E+03  0.35427065539E+03  0.41329967284E+03  0.00000000000E+00 0. -1.
         -2    1    5    5    0  503  0.91511144875E+00  0.39156974828E+01 -0.40521019547E+01  0.57087341847E+01  0.00000000000E+00 0.  1.
         -3    1    6    6    0  502  0.31900763729E+03  0.18843989141E+03 -0.31723913664E+03  0.48776647603E+03  0.00000000000E+00 0.  1.
<mgrwt>
<rscale>  0 0.20838278E+04</rscale>
<asrwt>0</asrwt>
<pdfrwt beam="1">  1        1 0.23184977E+00 0.20838278E+04</pdfrwt>
<pdfrwt beam="2">  1       -1 0.11082310E+00 0.20838278E+04</pdfrwt>
<totfact> 0.44668404E+00</totfact>
</mgrwt>
</event>
<event>
12    1  0.1494110E-007  0.3219826E+04  0.7818608E-02  0.8183601E-01
          1   -1    0    0  501    0  0.00000000000E+00  0.00000000000E+00  0.16666741388E+04  0.16666741388E+04  0.00000000000E+00 0. -1.
         -1   -1    0    0    0  501 -0.00000000000E+00 -0.00000000000E+00 -0.15550845381E+04  0.15550845381E+04  0.00000000000E+00 0.  1.
         23    2    1    2    0    0  0.12480303036E+04 -0.55421043933E+03  0.62977659726E+03  0.15065412593E+04  0.91209394589E+02 0.  0.
        254    2    1    2    0    0 -0.12480303036E+04  0.55421043933E+03 -0.51818699651E+03  0.17152174177E+04  0.89929092996E+03 0.  0.
        -24    2    4    4    0    0 -0.72034771447E+03 -0.15620743230E+03 -0.30428238107E+03  0.80148744529E+03  0.80577700878E+02 0.  0.
         24    2    4    4    0    0 -0.52768258913E+03  0.71041787164E+03 -0.21390461544E+03  0.91372997236E+03  0.77490713499E+02 0.  0.
         13    1    3    3    0    0  0.27684661584E+03 -0.85191569214E+02  0.11803369378E+03  0.31278363933E+03  0.00000000000E+00 0.  1.
        -13    1    3    3    0    0  0.97118368776E+03 -0.46901887012E+03  0.51174290348E+03  0.11937576199E+04  0.00000000000E+00 0. -1.
          2    1    6    6  502    0 -0.30639699703E+03  0.37683934436E+03 -0.84111679499E+02  0.49291153961E+03  0.00000000000E+00 0. -1.
          3    1    5    5  503    0 -0.56395482758E+03 -0.90385954328E+02 -0.24854353219E+03  0.62288727366E+03  0.00000000000E+00 0. -1.
         -4    1    5    5    0  503 -0.15639288689E+03 -0.65821477977E+02 -0.55738848877E+02  0.17860017163E+03  0.00000000000E+00 0.  1.
         -1    1    6    6    0  502 -0.22128559210E+03  0.33357852727E+03 -0.12979293594E+03  0.42081843276E+03  0.00000000000E+00 0.  1.
<mgrwt>
<rscale>  0 0.32198256E+04</rscale>
<asrwt>0</asrwt>
<pdfrwt beam="1">  1        1 0.25641141E+00 0.32198256E+04</pdfrwt>
<pdfrwt beam="2">  1       -1 0.23924378E+00 0.32198256E+04</pdfrwt>
<totfact> 0.34404299E-01</totfact>
</mgrwt>
</event>
<event>
12    1  0.1494110E-007  0.1706570E+04  0.7818608E-02  0.8757626E-01
          2   -1    0    0  501    0  0.00000000000E+00  0.00000000000E+00  0.60052767430E+03  0.60052767430E+03  0.00000000000E+00 0. -1.
         -2   -1    0    0    0  501 -0.00000000000E+00 -0.00000000000E+00 -0.12124264935E+04  0.12124264935E+04  0.00000000000E+00 0.  1.
         23    2    1    2    0    0  0.31154887179E+03 -0.40614723310E+03 -0.38856751618E+03  0.64917931608E+03  0.91819362486E+02 0.  0.
        254    2    1    2    0    0 -0.31154887179E+03  0.40614723310E+03 -0.22333130304E+03  0.11637748517E+04  0.10210175122E+04 0.  0.
        -24    2    4    4    0    0  0.15286010358E+03  0.12436444325E+03 -0.50350051263E+03  0.54655130056E+03  0.79830018850E+02 0.  0.
         24    2    4    4    0    0 -0.46440897537E+03  0.28178278985E+03  0.28016920959E+03  0.61722355119E+03  0.85981911415E+02 0.  0.
         11    1    3    3    0    0  0.25707336383E+03 -0.30815560240E+03 -0.25802055028E+03  0.47709662968E+03  0.00000000000E+00 0. -1.
        -11    1    3    3    0    0  0.54475507958E+02 -0.97991630700E+02 -0.13054696589E+03  0.17208268640E+03  0.00000000000E+00 0.  1.
          4    1    6    6  502    0 -0.32305018279E+02  0.13708960252E+02  0.44743488911E+02  0.56864132783E+02  0.00000000000E+00 0. -1.
          1    1    5    5  503    0  0.24189567423E+02  0.67931830559E+02 -0.17237962090E+03  0.18685449547E+03  0.00000000000E+00 0. -1.
         -2    1    5    5    0  503  0.12867053616E+03  0.56432612695E+02 -0.33112089173E+03  0.35969680509E+03  0.00000000000E+00 0.  1.
         -3    1    6    6    0  502 -0.43210395709E+03  0.26807382959E+03  0.23542572067E+03  0.56035941841E+03  0.00000000000E+00 0.  1.
<mgrwt>
<rscale>  0 0.17065704E+04</rscale>
<asrwt>0</asrwt>
<pdfrwt beam="1">  1        2 0.92388874E-01 0.17065704E+04</pdfrwt>
<pdfrwt beam="2">  1       -2 0.18652715E+00 0.17065704E+04</pdfrwt>
<totfact> 0.77014040E+00</totfact>
</mgrwt>
</event>
<event>
12    1  0.1494110E-007  0.1457945E+04  0.7818608E-02  0.8912911E-01
          2   -1    0    0  501    0  0.00000000000E+00  0.00000000000E+00  0.27673308158E+04  0.27673308158E+04  0.00000000000E+00 0. -1.
         -2   -1    0    0    0  501 -0.00000000000E+00 -0.00000000000E+00 -0.19202660187E+03  0.19202660187E+03  0.00000000000E+00 0.  1.
         23    2    1    2    0    0 -0.29554831343E+03  0.32713914395E+03  0.62110035940E+03  0.76712193069E+03  0.91332223369E+02 0.  0.
        254    2    1    2    0    0  0.29554831343E+03 -0.32713914395E+03  0.19542038545E+04  0.21922354870E+04  0.89028922280E+03 0.  0.
        -24    2    4    4    0    0  0.21870194546E+03  0.27801759775E+03  0.92028202037E+03  0.98910766974E+03  0.79313679281E+02 0.  0.
         24    2    4    4    0    0  0.76846367965E+02 -0.60515674170E+03  0.10339218341E+04  0.12031278172E+04  0.80013368637E+02 0.  0.
         11    1    3    3    0    0 -0.22952812161E+03  0.30246712012E+03  0.51935081143E+03  0.64334654946E+03  0.00000000000E+00 0.  1.
        -11    1    3    3    0    0 -0.66020191818E+02  0.24672023827E+02  0.10174954797E+03  0.12377538123E+03  0.00000000000E+00 0. -1.
          4    1    6    6  502    0  0.64368632645E+02 -0.52732792209E+03  0.94668456655E+03  0.10855550317E+04  0.00000000000E+00 0. -1.
          3    1    5    5  503    0  0.17409949574E+03  0.26286977757E+03  0.79217586841E+03  0.85261583428E+03  0.00000000000E+00 0. -1.
         -4    1    5    5    0  503  0.44602449725E+02  0.15147820177E+02  0.12810615196E+03  0.13649183546E+03  0.00000000000E+00 0.  1.
         -3    1    6    6    0  502  0.12477735320E+02 -0.77828819608E+02  0.87237267594E+02  0.11757278553E+03  0.00000000000E+00 0.  1.
<mgrwt>
<rscale>  0 0.14579453E+04</rscale>
<asrwt>0</asrwt>
<pdfrwt beam="1">  1        2 0.42574317E+00 0.14579453E+04</pdfrwt>
<pdfrwt beam="2">  1       -2 0.29542556E-01 0.14579453E+04</pdfrwt>
<totfact> 0.24886615E+01</totfact>
</mgrwt>
</event>
<event>
12    1  0.1494110E-007  0.1459433E+04  0.7818608E-02  0.8911887E-01
         -1   -1    0    0    0  501 -0.00000000000E+00  0.00000000000E+00  0.41719400732E+03  0.41719400732E+03  0.00000000000E+00 0.  1.
          1   -1    0    0  501    0  0.00000000000E+00 -0.00000000000E+00 -0.12763509867E+04  0.12763509867E+04  0.00000000000E+00 0. -1.
         23    2    1    2    0    0 -0.68250625253E+01  0.14804826939E+03  0.20854587497E+03  0.27266813605E+03  0.94295593224E+02 0.  0.
        254    2    1    2    0    0  0.68250625253E+01 -0.14804826939E+03 -0.10677028544E+04  0.14208768580E+04  0.92570880345E+03 0.  0.
        -24    2    4    4    0    0  0.34808569511E+03 -0.28459252575E+03 -0.24953399995E+03  0.52043098340E+03  0.80153817752E+02 0.  0.
         24    2    4    4    0    0 -0.34126063258E+03  0.13654425636E+03 -0.81816885444E+03  0.90044587460E+03  0.79368415744E+02 0.  0.
         13    1    3    3    0    0 -0.45638641104E+01 -0.13299389894E+02  0.13101092460E+02  0.19218253063E+02  0.00000000000E+00 0. -1.
        -13    1    3    3    0    0 -0.22611984150E+01  0.16134765928E+03  0.19544478251E+03  0.25344988299E+03  0.00000000000E+00 0.  1.
          4    1    6    6  502    0 -0.26073231343E+03  0.87054523644E+02 -0.52795867050E+03  0.59523120475E+03  0.00000000000E+00 0. -1.
          3    1    5    5  503    0  0.44867612958E+02 -0.76268939963E+02 -0.56360093363E+02  0.10491193459E+03  0.00000000000E+00 0. -1.
         -4    1    5    5    0  503  0.30321808215E+03 -0.20832358579E+03 -0.19317390659E+03  0.41551904881E+03  0.00000000000E+00 0.  1.
         -3    1    6    6    0  502 -0.80528319151E+02  0.49489732717E+02 -0.29021018394E+03  0.30521466985E+03  0.00000000000E+00 0.  1.
<mgrwt>
<rscale>  0 0.14594327E+04</rscale>
<asrwt>0</asrwt>
<pdfrwt beam="1">  1        1 0.19636169E+00 0.14594327E+04</pdfrwt>
<pdfrwt beam="2">  1       -1 0.64183694E-01 0.14594327E+04</pdfrwt>
<totfact> 0.22470873E+01</totfact>
</mgrwt>
</event>
<event>
12    1  0.1494110E-007  0.2076364E+04  0.7818608E-02  0.8571727E-01
         -2   -1    0    0    0  501 -0.00000000000E+00  0.00000000000E+00  0.60167987873E+03  0.60167987873E+03  0.00000000000E+00 0.  1.
          2   -1    0    0  501    0  0.00000000000E+00 -0.00000000000E+00 -0.17913548040E+04  0.17913548040E+04  0.00000000000E+00 0. -1.
         23    2    1    2    0    0  0.39458488119E+03  0.33207547841E+03  0.27805645938E+03  0.59301138026E+03  0.91519127478E+02 0.  0.
        254    2    1    2    0    0 -0.39458488119E+03 -0.33207547841E+03 -0.14677313846E+04  0.18000233024E+04  0.90547066220E+03 0.  0.
        -24    2    4    4    0    0  0.45533436620E+02 -0.48679691269E+03 -0.41724567061E+03  0.64790479738E+03  0.81499378995E+02 0.  0.
         24    2    4    4    0    0 -0.44011831781E+03  0.15472143428E+03 -0.10504857140E+04  0.11521185051E+04  0.78828665247E+02 0.  0.
         11    1    3    3    0    0  0.61165792343E+02  0.81122707959E+02  0.88216561025E+02  0.13455225579E+03  0.00000000000E+00 0. -1.
        -11    1    3    3    0    0  0.33341908884E+03  0.25095277045E+03  0.18983989836E+03  0.45845912447E+03  0.00000000000E+00 0.  1.
          2    1    6    6  502    0 -0.39054512379E+03  0.14615448683E+03 -0.98427157267E+03  0.10689607834E+04  0.00000000000E+00 0. -1.
          1    1    5    5  503    0  0.68353991045E+01 -0.24484009530E+03 -0.15959298119E+03  0.29234109289E+03  0.00000000000E+00 0. -1.
         -2    1    5    5    0  503  0.38698037516E+02 -0.24195681739E+03 -0.25765268941E+03  0.35556370449E+03  0.00000000000E+00 0.  1.
         -1    1    6    6    0  502 -0.49573194017E+02  0.85669474453E+01 -0.66214141337E+02  0.83157721630E+02  0.00000000000E+00 0.  1.
<mgrwt>
<rscale>  0 0.20763643E+04</rscale>
<asrwt>0</asrwt>
<pdfrwt beam="1">  1        2 0.27559305E+00 0.20763643E+04</pdfrwt>
<pdfrwt beam="2">  1       -2 0.92566135E-01 0.20763643E+04</pdfrwt>
<totfact> 0.79762764E+00</totfact>
</mgrwt>
</event>
<event>
12    1  0.1494110E-007  0.1202492E+04  0.7818608E-02  0.9110678E-01
          2   -1    0    0  501    0  0.00000000000E+00  0.00000000000E+00  0.26685228311E+04  0.26685228311E+04  0.00000000000E+00 0. -1.
         -2   -1    0    0    0  501 -0.00000000000E+00 -0.00000000000E+00 -0.13546698737E+03  0.13546698737E+03  0.00000000000E+00 0.  1.
         23    2    1    2    0    0 -0.42397820384E+01  0.10301751398E+02 -0.30212260328E+02  0.93559685445E+02  0.87843794504E+02 0.  0.
        254    2    1    2    0    0  0.42397820384E+01 -0.10301751398E+02  0.25632681041E+04  0.27104301330E+04  0.88088820569E+03 0.  0.
        -24    2    4    4    0    0 -0.29398294711E+03 -0.13967788580E+03  0.40116351647E+03  0.52258738437E+03  0.78927323373E+02 0.  0.
         24    2    4    4    0    0  0.29822272915E+03  0.12937613441E+03  0.21621045876E+04  0.21878427487E+04  0.79275878374E+02 0.  0.
         11    1    3    3    0    0  0.10624578183E+02  0.41070785371E+02 -0.39693845528E+02  0.58097267108E+02  0.00000000000E+00 0. -1.
        -11    1    3    3    0    0 -0.14864360222E+02 -0.30769033973E+02  0.94815852000E+01  0.35462418338E+02  0.00000000000E+00 0.  1.
          2    1    6    6  502    0  0.24613588117E+03  0.80629298579E+02  0.18236923989E+04  0.18419929212E+04  0.00000000000E+00 0. -1.
          1    1    5    5  503    0 -0.18442052964E+03 -0.63761330755E+02  0.28719230925E+03  0.34721155157E+03  0.00000000000E+00 0. -1.
         -4    1    5    5    0  503 -0.10956241747E+03 -0.75916555049E+02  0.11397120723E+03  0.17537583280E+03  0.00000000000E+00 0.  1.
         -1    1    6    6    0  502  0.52086847981E+02  0.48746835827E+02  0.33841218864E+03  0.34584982746E+03  0.00000000000E+00 0.  1.
<mgrwt>
<rscale>  0 0.12024920E+04</rscale>
<asrwt>0</asrwt>
<pdfrwt beam="1">  1        2 0.41054194E+00 0.12024920E+04</pdfrwt>
<pdfrwt beam="2">  1       -2 0.20841077E-01 0.12024920E+04</pdfrwt>
<totfact> 0.54846834E+01</totfact>
</mgrwt>
</event>
<event>
12    1  0.1494110E-007  0.3009156E+04  0.7818608E-02  0.8241121E-01
          2   -1    0    0  501    0  0.00000000000E+00  0.00000000000E+00  0.14302293890E+04  0.14302293890E+04  0.00000000000E+00 0.  1.
         -2   -1    0    0    0  501 -0.00000000000E+00 -0.00000000000E+00 -0.15827917058E+04  0.15827917058E+04  0.00000000000E+00 0. -1.
         23    2    1    2    0    0 -0.93307539573E+03  0.87179302704E+03  0.41726430624E+03  0.13464988785E+04  0.91087608135E+02 0.  0.
        254    2    1    2    0    0  0.93307539573E+03 -0.87179302704E+03 -0.56982662309E+03  0.16665222163E+04  0.90660969602E+03 0.  0.
        -24    2    4    4    0    0  0.62915556779E+03 -0.51630968959E+03  0.12293819199E+03  0.82688505134E+03  0.78820460734E+02 0.  0.
         24    2    4    4    0    0  0.30391982794E+03 -0.35548333745E+03 -0.69276481508E+03  0.83963716496E+03  0.79572701016E+02 0.  0.
         11    1    3    3    0    0 -0.41800864684E+03  0.38059810299E+03  0.23179857829E+03  0.61099650222E+03  0.00000000000E+00 0. -1.
        -11    1    3    3    0    0 -0.51506674889E+03  0.49119492405E+03  0.18546572795E+03  0.73550237625E+03  0.00000000000E+00 0.  1.
          2    1    6    6  502    0  0.22543117091E+03 -0.30694076451E+03 -0.58109167149E+03  0.69476569893E+03  0.00000000000E+00 0. -1.
          3    1    5    5  503    0  0.55706623221E+03 -0.44163104261E+03  0.83191774719E+02  0.71573852505E+03  0.00000000000E+00 0. -1.
         -4    1    5    5    0  503  0.72089335582E+02 -0.74678646979E+02  0.39746417272E+02  0.11114652628E+03  0.00000000000E+00 0.  1.
         -1    1    6    6    0  502  0.78488657028E+02 -0.48542572940E+02 -0.11167314360E+03  0.14487146603E+03  0.00000000000E+00 0.  1.
<mgrwt>
<rscale>  0 0.30091562E+04</rscale>
<asrwt>0</asrwt>
<pdfrwt beam="1">  1        2 0.22003529E+00 0.30091562E+04</pdfrwt>
<pdfrwt beam="2">  1       -2 0.24350642E+00 0.30091562E+04</pdfrwt>
<totfact> 0.83821931E-01</totfact>
</mgrwt>
</event>
<event>
12    1  0.1494110E-007  0.2064017E+04  0.7818608E-02  0.8577262E-01
          2   -1    0    0  501    0  0.00000000000E+00  0.00000000000E+00  0.17676954052E+04  0.17676954052E+04  0.00000000000E+00 0.  1.
         -2   -1    0    0    0  501 -0.00000000000E+00 -0.00000000000E+00 -0.60250268100E+03  0.60250268100E+03  0.00000000000E+00 0. -1.
         23    2    1    2    0    0 -0.79652835290E+03 -0.16191778318E+03  0.65211660814E+03  0.10460868313E+04  0.91470227008E+02 0.  0.
        254    2    1    2    0    0  0.79652835290E+03  0.16191778318E+03  0.51307611602E+03  0.13241112549E+04  0.91068585640E+03 0.  0.
        -24    2    4    4    0    0  0.23606912722E+02 -0.21330587280E+03 -0.11566807054E+03  0.25675057537E+03  0.80529955381E+02 0.  0.
         24    2    4    4    0    0  0.77292144018E+03  0.37522365598E+03  0.62874418655E+03  0.10673606795E+04  0.75757662289E+02 0.  0.
         13    1    3    3    0    0 -0.70794644314E+03 -0.15534533867E+03  0.54441155004E+03  0.90647905459E+03  0.00000000000E+00 0. -1.
        -13    1    3    3    0    0 -0.88581909763E+02 -0.65724445134E+01  0.10770505811E+03  0.13960777667E+03  0.00000000000E+00 0.  1.
          4    1    6    6  502    0  0.24225391791E+03  0.87485888868E+02  0.21520548636E+03  0.33563990057E+03  0.00000000000E+00 0. -1.
          1    1    5    5  503    0 -0.64966299349E+01 -0.60708385600E+01 -0.28619021728E+02  0.29968478207E+02  0.00000000000E+00 0. -1.
         -2    1    5    5    0  503  0.30103542657E+02 -0.20723503424E+03 -0.87049048807E+02  0.22678209716E+03  0.00000000000E+00 0.  1.
         -3    1    6    6    0  502  0.53066752227E+03  0.28773776711E+03  0.41353870020E+03  0.73172077897E+03  0.00000000000E+00 0.  1.
<mgrwt>
<rscale>  0 0.20640167E+04</rscale>
<asrwt>0</asrwt>
<pdfrwt beam="1">  1        2 0.27195314E+00 0.20640167E+04</pdfrwt>
<pdfrwt beam="2">  1       -2 0.92692721E-01 0.20640167E+04</pdfrwt>
<totfact> 0.82035113E+00</totfact>
</mgrwt>
</event>
<event>
12    1  0.1494110E-007  0.1845526E+04  0.7818608E-02  0.8682457E-01
         -1   -1    0    0    0  501 -0.00000000000E+00  0.00000000000E+00  0.12661723320E+04  0.12661723320E+04  0.00000000000E+00 0.  1.
          1   -1    0    0  501    0  0.00000000000E+00 -0.00000000000E+00 -0.67249230705E+03  0.67249230705E+03  0.00000000000E+00 0. -1.
         23    2    1    2    0    0 -0.45456291017E+03 -0.60721154190E+02 -0.32768331889E+03  0.57739965738E+03  0.12529768152E+03 0.  0.
        254    2    1    2    0    0  0.45456291017E+03  0.60721154190E+02  0.92136334388E+03  0.13612649817E+04  0.89096433212E+03 0.  0.
        -24    2    4    4    0    0  0.30066826154E+03  0.43112719673E+03  0.74648326669E+03  0.91630413408E+03  0.78127686647E+02 0.  0.
         24    2    4    4    0    0  0.15389464864E+03 -0.37040604254E+03  0.17488007719E+03  0.44496084763E+03  0.80764567122E+02 0.  0.
         11    1    3    3    0    0 -0.44734455505E+03 -0.46050563615E+02 -0.33368226440E+03  0.55998362379E+03  0.00000000000E+00 0. -1.
        -11    1    3    3    0    0 -0.72183551228E+01 -0.14670590576E+02  0.59989455146E+01  0.17416033584E+02  0.00000000000E+00 0.  1.
          4    1    6    6  502    0  0.66790100544E+02 -0.16333511695E+03  0.33748095004E+02  0.17966138115E+03  0.00000000000E+00 0. -1.
          1    1    5    5  503    0  0.15071055994E+03  0.15272397802E+03  0.32336263656E+03  0.38807432415E+03  0.00000000000E+00 0. -1.
         -2    1    5    5    0  503  0.14995770160E+03  0.27840321870E+03  0.42312063013E+03  0.52822980993E+03  0.00000000000E+00 0.  1.
         -3    1    6    6    0  502  0.87104548093E+02 -0.20707092559E+03  0.14113198219E+03  0.26529946649E+03  0.00000000000E+00 0.  1.
<mgrwt>
<rscale>  0 0.18455256E+04</rscale>
<asrwt>0</asrwt>
<pdfrwt beam="1">  1        1 0.10346036E+00 0.18455256E+04</pdfrwt>
<pdfrwt beam="2">  1       -1 0.19479574E+00 0.18455256E+04</pdfrwt>
<totfact> 0.44494743E+00</totfact>
</mgrwt>
</event>
<event>
12    1  0.1494110E-007  0.1188496E+04  0.7818608E-02  0.9122986E-01
         -2   -1    0    0    0  501 -0.00000000000E+00  0.00000000000E+00  0.32791367004E+03  0.32791367004E+03  0.00000000000E+00 0.  1.
          2   -1    0    0  501    0  0.00000000000E+00 -0.00000000000E+00 -0.10769012353E+04  0.10769012353E+04  0.00000000000E+00 0. -1.
         23    2    1    2    0    0  0.19066364871E+03 -0.10541583729E+02 -0.12006440435E+03  0.24271801358E+03  0.89626006254E+02 0.  0.
        254    2    1    2    0    0 -0.19066364871E+03  0.10541583729E+02 -0.62892316094E+03  0.11620968918E+04  0.95836375745E+03 0.  0.
        -24    2    4    4    0    0  0.33773230050E+03  0.87343455050E+02 -0.48555210521E+03  0.60346806242E+03  0.81980909650E+02 0.  0.
         24    2    4    4    0    0 -0.52839594921E+03 -0.76801871321E+02 -0.14337105573E+03  0.55862882936E+03  0.80063117553E+02 0.  0.
         11    1    3    3    0    0  0.18636034238E+03 -0.25402823236E+02 -0.89137369069E+02  0.20813685691E+03  0.00000000000E+00 0. -1.
        -11    1    3    3    0    0  0.43033063248E+01  0.14861239507E+02 -0.30927035277E+02  0.34581156662E+02  0.00000000000E+00 0.  1.
          4    1    6    6  502    0 -0.12621026847E+03 -0.95896287008E+00 -0.40075506191E+01  0.12627751953E+03  0.00000000000E+00 0. -1.
          1    1    5    5  503    0  0.46568584092E+02  0.28113671908E+02 -0.12457152504E+03  0.13593041022E+03  0.00000000000E+00 0. -1.
         -2    1    5    5    0  503  0.29116371641E+03  0.59229783142E+02 -0.36098058017E+03  0.46753765220E+03  0.00000000000E+00 0.  1.
         -3    1    6    6    0  502 -0.40218568074E+03 -0.75842908451E+02 -0.13936350511E+03  0.43235130982E+03  0.00000000000E+00 0.  1.
<mgrwt>
<rscale>  0 0.11884959E+04</rscale>
<asrwt>0</asrwt>
<pdfrwt beam="1">  1        2 0.16567711E+00 0.11884959E+04</pdfrwt>
<pdfrwt beam="2">  1       -2 0.50448257E-01 0.11884959E+04</pdfrwt>
<totfact> 0.82604332E+01</totfact>
</mgrwt>
</event>
<event>
12    1  0.1494110E-007  0.1637468E+04  0.7818608E-02  0.8797855E-01
          2   -1    0    0  501    0  0.00000000000E+00  0.00000000000E+00  0.21263732485E+04  0.21263732485E+04  0.00000000000E+00 0. -1.
         -2   -1    0    0    0  501 -0.00000000000E+00 -0.00000000000E+00 -0.31524369260E+03  0.31524369260E+03  0.00000000000E+00 0.  1.
         23    2    1    2    0    0  0.13721530241E+03  0.17197422187E+03  0.14097131010E+04  0.14296253372E+04  0.90190937710E+02 0.  0.
        254    2    1    2    0    0 -0.13721530241E+03 -0.17197422187E+03  0.40141645488E+03  0.10119916039E+04  0.90254565757E+03 0.  0.
        -24    2    4    4    0    0 -0.15562262659E+03 -0.40585786539E+03 -0.99346912270E+02  0.45281633334E+03  0.78954505607E+02 0.  0.
         24    2    4    4    0    0  0.18407324181E+02  0.23388364352E+03  0.50076336715E+03  0.55917527060E+03  0.82901417859E+02 0.  0.
         11    1    3    3    0    0  0.93431788859E+02  0.11255975395E+03  0.64607225076E+03  0.66242626048E+03  0.00000000000E+00 0. -1.
        -11    1    3    3    0    0  0.43783513548E+02  0.59414467925E+02  0.76364085027E+03  0.76719907668E+03  0.00000000000E+00 0.  1.
          2    1    6    6  502    0  0.27771558154E+01  0.54871344915E+02  0.21252718064E+03  0.21951396220E+03  0.00000000000E+00 0. -1.
          1    1    5    5  503    0 -0.39532848070E+02 -0.11428538926E+03 -0.64496341397E+02  0.13705391030E+03  0.00000000000E+00 0. -1.
         -2    1    5    5    0  503 -0.11608977852E+03 -0.29157247614E+03 -0.34850570873E+02  0.31576242305E+03  0.00000000000E+00 0.  1.
         -3    1    6    6    0  502  0.15630168365E+02  0.17901229861E+03  0.28823618651E+03  0.33966130841E+03  0.00000000000E+00 0.  1.
<mgrwt>
<rscale>  0 0.16374685E+04</rscale>
<asrwt>0</asrwt>
<pdfrwt beam="1">  1        2 0.32713434E+00 0.16374685E+04</pdfrwt>
<pdfrwt beam="2">  1       -2 0.48499031E-01 0.16374685E+04</pdfrwt>
<totfact> 0.21877495E+01</totfact>
</mgrwt>
</event>
<event>
12    1  0.1494110E-007  0.1121070E+04  0.7818608E-02  0.9184896E-01
         -1   -1    0    0    0  501 -0.00000000000E+00  0.00000000000E+00  0.65769822852E+03  0.65769822852E+03  0.00000000000E+00 0.  1.
          1   -1    0    0  501    0  0.00000000000E+00 -0.00000000000E+00 -0.47772563478E+03  0.47772563478E+03  0.00000000000E+00 0. -1.
         23    2    1    2    0    0  0.12301119926E+03 -0.92608920897E+02  0.12491753327E+03  0.21856764435E+03  0.91974222818E+02 0.  0.
        254    2    1    2    0    0 -0.12301119926E+03  0.92608920897E+02  0.55055060461E+02  0.91685621895E+03  0.90215636071E+03 0.  0.
        -24    2    4    4    0    0  0.60941747207E+02  0.13753664039E+03  0.44499317166E+03  0.47643966095E+03  0.79659297670E+02 0.  0.
         24    2    4    4    0    0 -0.18395294647E+03 -0.44927719489E+02 -0.38993811120E+03  0.44041655800E+03  0.77832046775E+02 0.  0.
         11    1    3    3    0    0  0.43343495747E+02 -0.16195035403E+02 -0.67355932988E+01  0.46757951327E+02  0.00000000000E+00 0. -1.
        -11    1    3    3    0    0  0.79667703517E+02 -0.76413885494E+02  0.13165312657E+03  0.17180969302E+03  0.00000000000E+00 0.  1.
          2    1    6    6  502    0 -0.11412828395E+03 -0.13838709828E+02 -0.30604822433E+03  0.32692857125E+03  0.00000000000E+00 0. -1.
          3    1    5    5  503    0  0.63297378669E+02  0.13123389888E+03  0.32392758368E+03  0.35518723771E+03  0.00000000000E+00 0. -1.
         -4    1    5    5    0  503 -0.23556314617E+01  0.63027415025E+01  0.12106558798E+03  0.12125242325E+03  0.00000000000E+00 0.  1.
         -1    1    6    6    0  502 -0.69824662517E+02 -0.31089009662E+02 -0.83889886870E+02  0.11348798675E+03  0.00000000000E+00 0.  1.
<mgrwt>
<rscale>  0 0.11210697E+04</rscale>
<asrwt>0</asrwt>
<pdfrwt beam="1">  1        1 0.73496252E-01 0.11210697E+04</pdfrwt>
<pdfrwt beam="2">  1       -1 0.10118434E+00 0.11210697E+04</pdfrwt>
<totfact> 0.43590154E+01</totfact>
</mgrwt>
</event>
<event>
12    1  0.1494110E-007  0.1370267E+04  0.7818608E-02  0.8975627E-01
         -2   -1    0    0    0  501 -0.00000000000E+00  0.00000000000E+00  0.65670497142E+03  0.65670497142E+03  0.00000000000E+00 0.  1.
          2   -1    0    0  501    0  0.00000000000E+00 -0.00000000000E+00 -0.71479250573E+03  0.71479250573E+03  0.00000000000E+00 0. -1.
         23    2    1    2    0    0 -0.24261276009E+02  0.11374780061E+03  0.35229917284E+03  0.38211293879E+03  0.91479063980E+02 0.  0.
        254    2    1    2    0    0  0.24261276009E+02 -0.11374780061E+03 -0.41038670715E+03  0.98938453837E+03  0.89271347234E+03 0.  0.
        -24    2    4    4    0    0  0.27860356489E+03  0.26783514912E+03 -0.46014008107E+02  0.39798405607E+03  0.83176958738E+02 0.  0.
         24    2    4    4    0    0 -0.25434228888E+03 -0.38158294974E+03 -0.36437269904E+03  0.59140048230E+03  0.81801706656E+02 0.  0.
         11    1    3    3    0    0 -0.34695793970E+02  0.97394578115E+02  0.34689639532E+03  0.36197598132E+03  0.00000000000E+00 0.  1.
        -11    1    3    3    0    0  0.10434517961E+02  0.16353222499E+02  0.54027775207E+01  0.20136957469E+02  0.00000000000E+00 0. -1.
          2    1    6    6  502    0 -0.22051268994E+03 -0.31078358405E+03 -0.33574450561E+03  0.50787464554E+03  0.00000000000E+00 0. -1.
          1    1    5    5  503    0  0.14156266721E+03  0.19239075005E+03 -0.29732060654E+02  0.24070352071E+03  0.00000000000E+00 0. -1.
         -2    1    5    5    0  503  0.13704089768E+03  0.75444399078E+02 -0.16281947453E+02  0.15728053536E+03  0.00000000000E+00 0.  1.
         -1    1    6    6    0  502 -0.33829598946E+02 -0.70799365690E+02 -0.28628193433E+02  0.83525836759E+02  0.00000000000E+00 0.  1.
<mgrwt>
<rscale>  0 0.13702668E+04</rscale>
<asrwt>0</asrwt>
<pdfrwt beam="1">  1        2 0.10996808E+00 0.13702668E+04</pdfrwt>
<pdfrwt beam="2">  1       -2 0.10103153E+00 0.13702668E+04</pdfrwt>
<totfact> 0.31374926E+01</totfact>
</mgrwt>
</event>
<event>
12    1  0.1494110E-007  0.1730170E+04  0.7818608E-02  0.8744342E-01
          2   -1    0    0  501    0  0.00000000000E+00  0.00000000000E+00  0.10431135746E+04  0.10431135746E+04  0.00000000000E+00 0.  1.
         -2   -1    0    0    0  501 -0.00000000000E+00 -0.00000000000E+00 -0.71744100364E+03  0.71744100364E+03  0.00000000000E+00 0. -1.
         23    2    1    2    0    0  0.17927969273E+03  0.24038435520E+03  0.67441269547E+03  0.74417933604E+03  0.95102859719E+02 0.  0.
        254    2    1    2    0    0 -0.17927969273E+03 -0.24038435520E+03 -0.34874012453E+03  0.10163752422E+04  0.90635153886E+03 0.  0.
        -24    2    4    4    0    0 -0.22186113714E+03  0.87158238485E+02  0.23298869869E+03  0.34259952533E+03  0.79194559992E+02 0.  0.
         24    2    4    4    0    0  0.42581444408E+02 -0.32754259368E+03 -0.58172882322E+03  0.67377571685E+03  0.80423645548E+02 0.  0.
         11    1    3    3    0    0  0.13322264037E+03  0.11641110089E+03  0.45236803463E+03  0.48573311095E+03  0.00000000000E+00 0.  1.
        -11    1    3    3    0    0  0.46057052358E+02  0.12397325431E+03  0.22204466084E+03  0.25844622509E+03  0.00000000000E+00 0. -1.
          4    1    6    6  502    0  0.33559708933E+02 -0.41762022543E+02 -0.10498679681E+03  0.11786665387E+03  0.00000000000E+00 0. -1.
          1    1    5    5  503    0  0.43837363056E+01 -0.44217437302E+01  0.19738995822E+01  0.65318635299E+01  0.00000000000E+00 0. -1.
         -2    1    5    5    0  503 -0.22624487345E+03  0.91579982215E+02  0.23101479910E+03  0.33606766180E+03  0.00000000000E+00 0.  1.
         -3    1    6    6    0  502  0.90217354746E+01 -0.28578057114E+03 -0.47674202641E+03  0.55590906297E+03  0.00000000000E+00 0.  1.
<mgrwt>
<rscale>  0 0.17301705E+04</rscale>
<asrwt>0</asrwt>
<pdfrwt beam="1">  1        2 0.16047901E+00 0.17301705E+04</pdfrwt>
<pdfrwt beam="2">  1       -2 0.11037554E+00 0.17301705E+04</pdfrwt>
<totfact> 0.14627511E+01</totfact>
</mgrwt>
</event>
<event>
12    1  0.1494110E-007  0.2688355E+04  0.7818608E-02  0.8338793E-01
         -1   -1    0    0    0  501 -0.00000000000E+00  0.00000000000E+00  0.69674046235E+03  0.69674046235E+03  0.00000000000E+00 0.  1.
          1   -1    0    0  501    0  0.00000000000E+00 -0.00000000000E+00 -0.25932377992E+04  0.25932377992E+04  0.00000000000E+00 0. -1.
         23    2    1    2    0    0  0.77290944972E+03 -0.46296382655E+02 -0.19511956444E+04  0.21012788546E+04  0.93145099347E+02 0.  0.
        254    2    1    2    0    0 -0.77290944972E+03  0.46296382655E+02  0.54698307527E+02  0.11886994070E+04  0.90026773952E+03 0.  0.
        -24    2    4    4    0    0  0.70828501936E+02  0.25662864758E+03  0.13989453203E+03  0.31135071147E+03  0.80584402927E+02 0.  0.
         24    2    4    4    0    0 -0.84373795165E+03 -0.21033226493E+03 -0.85196224504E+02  0.87734869551E+03  0.79680261811E+02 0.  0.
         13    1    3    3    0    0  0.45484219865E+02 -0.15580684016E+02 -0.78793039831E+02  0.92303386162E+02  0.00000000000E+00 0.  1.
        -13    1    3    3    0    0  0.72742522985E+03 -0.30715698640E+02 -0.18724026046E+04  0.20089754684E+04  0.00000000000E+00 0. -1.
          2    1    6    6  502    0 -0.56003656403E+03 -0.17564268033E+03 -0.70559170737E+02  0.59115979293E+03  0.00000000000E+00 0. -1.
          1    1    5    5  503    0  0.74320305532E+02  0.15786666298E+03  0.60810877371E+02  0.18477920311E+03  0.00000000000E+00 0. -1.
         -2    1    5    5    0  503 -0.34918035957E+01  0.98761984606E+02  0.79083654660E+02  0.12657150837E+03  0.00000000000E+00 0.  1.
         -1    1    6    6    0  502 -0.28370138762E+03 -0.34689584599E+02 -0.14637053767E+02  0.28618890258E+03  0.00000000000E+00 0.  1.
<mgrwt>
<rscale>  0 0.26883554E+04</rscale>
<asrwt>0</asrwt>
<pdfrwt beam="1">  1        1 0.39895965E+00 0.26883554E+04</pdfrwt>
<pdfrwt beam="2">  1       -1 0.10719084E+00 0.26883554E+04</pdfrwt>
<totfact> 0.82664607E-01</totfact>
</mgrwt>
</event>
<event>
12    1  0.1494110E-007  0.1980853E+04  0.7818608E-02  0.8615625E-01
         -1   -1    0    0    0  501 -0.00000000000E+00  0.00000000000E+00  0.96122312132E+03  0.96122312132E+03  0.00000000000E+00 0.  1.
          1   -1    0    0  501    0  0.00000000000E+00 -0.00000000000E+00 -0.10205166201E+04  0.10205166201E+04  0.00000000000E+00 0. -1.
         23    2    1    2    0    0 -0.86217112278E+02  0.69607204340E+03 -0.39435789075E+03  0.80963859828E+03  0.89704145842E+02 0.  0.
        254    2    1    2    0    0  0.86217112278E+02 -0.69607204340E+03  0.33506439193E+03  0.11721011432E+04  0.87727034775E+03 0.  0.
        -24    2    4    4    0    0  0.33459813263E+03 -0.36932196528E+03 -0.15341861900E+03  0.52896918055E+03  0.88974698232E+02 0.  0.
         24    2    4    4    0    0 -0.24838102035E+03 -0.32675007812E+03  0.48848301093E+03  0.64313196262E+03  0.80896999669E+02 0.  0.
         11    1    3    3    0    0 -0.15389564454E+02  0.11354240153E+03 -0.28361509808E+02  0.11803851438E+03  0.00000000000E+00 0.  1.
        -11    1    3    3    0    0 -0.70827547825E+02  0.58252964187E+03 -0.36599638094E+03  0.69160008390E+03  0.00000000000E+00 0. -1.
          4    1    6    6  502    0 -0.23921330790E+03 -0.32971649053E+03  0.46770839952E+03  0.62023150338E+03  0.00000000000E+00 0. -1.
          3    1    5    5  503    0  0.22861130340E+03 -0.20504286625E+03 -0.12437168914E+03  0.33132162939E+03  0.00000000000E+00 0. -1.
         -4    1    5    5    0  503  0.10598682923E+03 -0.16427909902E+03 -0.29046929855E+02  0.19764755116E+03  0.00000000000E+00 0.  1.
         -3    1    6    6    0  502 -0.91677124550E+01  0.29664124104E+01  0.20774611411E+02  0.22900459243E+02  0.00000000000E+00 0.  1.
<mgrwt>
<rscale>  0 0.19808525E+04</rscale>
<asrwt>0</asrwt>
<pdfrwt beam="1">  1        1 0.15700256E+00 0.19808525E+04</pdfrwt>
<pdfrwt beam="2">  1       -1 0.14788048E+00 0.19808525E+04</pdfrwt>
<totfact> 0.49129607E+00</totfact>
</mgrwt>
</event>
<event>
12    1  0.1494110E-007  0.2726956E+04  0.7818608E-02  0.8326311E-01
          1   -1    0    0  501    0  0.00000000000E+00  0.00000000000E+00  0.15686337319E+04  0.15686337319E+04  0.00000000000E+00 0. -1.
         -1   -1    0    0    0  501 -0.00000000000E+00 -0.00000000000E+00 -0.11851537227E+04  0.11851537227E+04  0.00000000000E+00 0.  1.
         23    2    1    2    0    0  0.55459028804E+03 -0.81880350406E+03 -0.54429974504E+03  0.11325644741E+04  0.91817807058E+02 0.  0.
        254    2    1    2    0    0 -0.55459028804E+03  0.81880350406E+03  0.92777975426E+03  0.16212229805E+04  0.88858264339E+03 0.  0.
        -24    2    4    4    0    0 -0.12211467542E+03  0.79061221505E+03  0.30904190075E+03  0.86118829872E+03  0.78477518380E+02 0.  0.
         24    2    4    4    0    0 -0.43247561262E+03  0.28191289010E+02  0.61873785351E+03  0.76003468175E+03  0.83583980569E+02 0.  0.
         13    1    3    3    0    0  0.36664040292E+03 -0.55044429067E+03 -0.31425442436E+03  0.73223626338E+03  0.00000000000E+00 0. -1.
        -13    1    3    3    0    0  0.18794988512E+03 -0.26835921340E+03 -0.23004532069E+03  0.40032821072E+03  0.00000000000E+00 0.  1.
          2    1    6    6  502    0 -0.31657198994E+03  0.15631748141E+02  0.38378420760E+03  0.49774742025E+03  0.00000000000E+00 0. -1.
          1    1    5    5  503    0 -0.20431325186E+02  0.32764394501E+03  0.15279328395E+03  0.36209637029E+03  0.00000000000E+00 0. -1.
         -2    1    5    5    0  503 -0.10168335024E+03  0.46296827004E+03  0.15624861679E+03  0.49909192844E+03  0.00000000000E+00 0.  1.
         -1    1    6    6    0  502 -0.11590362268E+03  0.12559540869E+02  0.23495364591E+03  0.26228726149E+03  0.00000000000E+00 0.  1.
<mgrwt>
<rscale>  0 0.27269559E+04</rscale>
<asrwt>0</asrwt>
<pdfrwt beam="1">  1        1 0.24132827E+00 0.27269559E+04</pdfrwt>
<pdfrwt beam="2">  1       -1 0.18233134E+00 0.27269559E+04</pdfrwt>
<totfact> 0.10231105E+00</totfact>
</mgrwt>
</event>
<event>
12    1  0.1494110E-007  0.1464214E+04  0.7818608E-02  0.8908605E-01
          2   -1    0    0  501    0  0.00000000000E+00  0.00000000000E+00  0.16344203036E+04  0.16344203036E+04  0.00000000000E+00 0. -1.
         -2   -1    0    0    0  501 -0.00000000000E+00 -0.00000000000E+00 -0.32793336923E+03  0.32793336923E+03  0.00000000000E+00 0.  1.
         23    2    1    2    0    0  0.11946049189E+03  0.13449125401E+02  0.95971979584E+03  0.97149347512E+03  0.91026356558E+02 0.  0.
        254    2    1    2    0    0 -0.11946049189E+03 -0.13449125401E+02  0.34676713858E+03  0.99086019776E+03  0.92038296105E+03 0.  0.
        -24    2    4    4    0    0 -0.14586388194E+03 -0.30154390374E+03 -0.17672636824E+03  0.38723001691E+03  0.80683820107E+02 0.  0.
         24    2    4    4    0    0  0.26403390051E+02  0.28809477834E+03  0.52349350682E+03  0.60363018085E+03  0.81413777899E+02 0.  0.
         11    1    3    3    0    0  0.33466568890E+02  0.25572875201E+02  0.11773850681E+03  0.12504534843E+03  0.00000000000E+00 0.  1.
        -11    1    3    3    0    0  0.85993923001E+02 -0.12123749800E+02  0.84198128903E+03  0.84644812669E+03  0.00000000000E+00 0. -1.
          4    1    6    6  502    0 -0.13246801346E+02  0.49275443760E+01  0.32655280413E+02  0.35582661204E+02  0.00000000000E+00 0. -1.
          1    1    5    5  503    0 -0.41916357291E+02 -0.35692993477E+02 -0.79729353481E+01  0.55628576199E+02  0.00000000000E+00 0. -1.
         -2    1    5    5    0  503 -0.10394752465E+03 -0.26585091027E+03 -0.16875343289E+03  0.33160144071E+03  0.00000000000E+00 0.  1.
         -3    1    6    6    0  502  0.39650191397E+02  0.28316723397E+03  0.49083822641E+03  0.56804751964E+03  0.00000000000E+00 0.  1.
<mgrwt>
<rscale>  0 0.14642144E+04</rscale>
<asrwt>0</asrwt>
<pdfrwt beam="1">  1        2 0.25144927E+00 0.14642144E+04</pdfrwt>
<pdfrwt beam="2">  1       -2 0.50451288E-01 0.14642144E+04</pdfrwt>
<totfact> 0.38392449E+01</totfact>
</mgrwt>
</event>
<event>
12    1  0.1494110E-007  0.1137766E+04  0.7818608E-02  0.9169144E-01
          2   -1    0    0  501    0  0.00000000000E+00  0.00000000000E+00  0.22086106195E+04  0.22086106195E+04  0.00000000000E+00 0. -1.
         -2   -1    0    0    0  501 -0.00000000000E+00 -0.00000000000E+00 -0.14653019338E+03  0.14653019338E+03  0.00000000000E+00 0.  1.
         23    2    1    2    0    0 -0.50770982292E+02 -0.92271256748E+02  0.67743870078E+03  0.69345707952E+03  0.10424898252E+03 0.  0.
        254    2    1    2    0    0  0.50770982292E+02  0.92271256748E+02  0.13846417254E+04  0.16616837334E+04  0.91261626367E+03 0.  0.
        -24    2    4    4    0    0 -0.29615506699E+02 -0.39628301505E+03  0.75388402475E+03  0.85585852498E+03  0.78964458777E+02 0.  0.
         24    2    4    4    0    0  0.80386488990E+02  0.48855427180E+03  0.63075770063E+03  0.80582520842E+03  0.79697713401E+02 0.  0.
         11    1    3    3    0    0 -0.70084520150E+02 -0.10399090588E+03  0.58615931196E+03  0.59942362939E+03  0.00000000000E+00 0. -1.
        -11    1    3    3    0    0  0.19313537858E+02  0.11719649133E+02  0.91279388824E+02  0.94033450136E+02  0.00000000000E+00 0.  1.
          2    1    6    6  502    0  0.95858404431E+02  0.43459837352E+03  0.56891298893E+03  0.72230642317E+03  0.00000000000E+00 0. -1.
          1    1    5    5  503    0  0.41834087904E+01 -0.31493178934E+03  0.55081820798E+03  0.63450786527E+03  0.00000000000E+00 0. -1.
         -4    1    5    5    0  503 -0.33798915489E+02 -0.81351225705E+02  0.20306581677E+03  0.22135065971E+03  0.00000000000E+00 0.  1.
         -1    1    6    6    0  502 -0.15471915440E+02  0.53955898272E+02  0.61844711698E+02  0.83518785256E+02  0.00000000000E+00 0.  1.
<mgrwt>
<rscale>  0 0.11377665E+04</rscale>
<asrwt>0</asrwt>
<pdfrwt beam="1">  1        2 0.33978622E+00 0.11377665E+04</pdfrwt>
<pdfrwt beam="2">  1       -2 0.22543108E-01 0.11377665E+04</pdfrwt>
<totfact> 0.87783367E+01</totfact>
</mgrwt>
</event>
<event>
12    1  0.1494110E-007  0.1984074E+04  0.7818608E-02  0.8614103E-01
         -2   -1    0    0    0  501 -0.00000000000E+00  0.00000000000E+00  0.52541850311E+03  0.52541850311E+03  0.00000000000E+00 0. -1.
          2   -1    0    0  501    0  0.00000000000E+00 -0.00000000000E+00 -0.18730540119E+04  0.18730540119E+04  0.00000000000E+00 0.  1.
         23    2    1    2    0    0  0.14752456983E+03 -0.52090375523E+03  0.13228334140E+03  0.56465102440E+03  0.90706537943E+02 0.  0.
        254    2    1    2    0    0 -0.14752456983E+03  0.52090375523E+03 -0.14799188502E+04  0.18338214906E+04  0.93788977783E+03 0.  0.
        -24    2    4    4    0    0 -0.35144869654E+03  0.17999087113E+03 -0.13477736559E+04  0.14066515504E+04  0.79131895772E+02 0.  0.
         24    2    4    4    0    0  0.20392412670E+03  0.34091288410E+03 -0.13214519433E+03  0.42716994017E+03  0.84883222139E+02 0.  0.
         13    1    3    3    0    0  0.37370251965E+02 -0.22135008796E+03  0.16330781539E+02  0.22507574635E+03  0.00000000000E+00 0.  1.
        -13    1    3    3    0    0  0.11015431787E+03 -0.29955366728E+03  0.11595255987E+03  0.33957527805E+03  0.00000000000E+00 0. -1.
          4    1    6    6  502    0  0.84272270460E+02  0.13702199209E+03 -0.97858394445E+02  0.18828995525E+03  0.00000000000E+00 0. -1.
          3    1    5    5  503    0 -0.58927149931E+02  0.43507717354E+02 -0.36323502542E+03  0.37054691223E+03  0.00000000000E+00 0. -1.
         -4    1    5    5    0  503 -0.29252154661E+03  0.13648315378E+03 -0.98453863045E+03  0.10361046382E+04  0.00000000000E+00 0.  1.
         -3    1    6    6    0  502  0.11965185624E+03  0.20389089202E+03 -0.34286799883E+02  0.23887998492E+03  0.00000000000E+00 0.  1.
<mgrwt>
<rscale>  0 0.19840738E+04</rscale>
<asrwt>0</asrwt>
<pdfrwt beam="1">  1        2 0.28816215E+00 0.19840738E+04</pdfrwt>
<pdfrwt beam="2">  1       -2 0.80833616E-01 0.19840738E+04</pdfrwt>
<totfact> 0.98723637E+00</totfact>
</mgrwt>
</event>
<event>
12    1  0.1494110E-007  0.2054553E+04  0.7818608E-02  0.8581531E-01
          2   -1    0    0  501    0  0.00000000000E+00  0.00000000000E+00  0.80148214741E+03  0.80148214741E+03  0.00000000000E+00 0. -1.
         -2   -1    0    0    0  501 -0.00000000000E+00 -0.00000000000E+00 -0.13166824782E+04  0.13166824782E+04  0.00000000000E+00 0.  1.
         23    2    1    2    0    0 -0.81808335679E+03 -0.21417735658E+02 -0.33003125461E+03  0.88699081467E+03  0.90072072369E+02 0.  0.
        254    2    1    2    0    0  0.81808335679E+03  0.21417735658E+02 -0.18516907616E+03  0.12311738109E+04  0.90098960477E+03 0.  0.
        -24    2    4    4    0    0  0.38105575891E+03 -0.50418285571E+02 -0.53312927897E+03  0.66215680994E+03  0.80494210570E+02 0.  0.
         24    2    4    4    0    0  0.43702759788E+03  0.71836021229E+02  0.34796020281E+03  0.56901700099E+03  0.80935217443E+02 0.  0.
         11    1    3    3    0    0 -0.48543943765E+03 -0.21700098446E+02 -0.24223804095E+03  0.54295636139E+03  0.00000000000E+00 0.  1.
        -11    1    3    3    0    0 -0.33264391915E+03  0.28236278772E+00 -0.87793213662E+02  0.34403445327E+03  0.00000000000E+00 0. -1.
          4    1    6    6  502    0  0.16397791851E+03  0.25498906166E+02  0.18131521084E+03  0.24579291621E+03  0.00000000000E+00 0. -1.
          3    1    5    5  503    0  0.32483065408E+03 -0.22105449784E+02 -0.47875754407E+03  0.57897529373E+03  0.00000000000E+00 0. -1.
         -4    1    5    5    0  503  0.56225104839E+02 -0.28312835786E+02 -0.54371734898E+02  0.83181516217E+02  0.00000000000E+00 0.  1.
         -3    1    6    6    0  502  0.27304967937E+03  0.46337115063E+02  0.16664499197E+03  0.32322408478E+03  0.00000000000E+00 0.  1.
<mgrwt>
<rscale>  0 0.20545535E+04</rscale>
<asrwt>0</asrwt>
<pdfrwt beam="1">  1        2 0.12330495E+00 0.20545535E+04</pdfrwt>
<pdfrwt beam="2">  1       -2 0.20256653E+00 0.20545535E+04</pdfrwt>
<totfact> 0.40645280E+00</totfact>
</mgrwt>
</event>
<event>
12    1  0.1494110E-007  0.1461556E+04  0.7818608E-02  0.8910428E-01
          1   -1    0    0  501    0  0.00000000000E+00  0.00000000000E+00  0.63197458458E+03  0.63197458458E+03  0.00000000000E+00 0. -1.
         -1   -1    0    0    0  501 -0.00000000000E+00 -0.00000000000E+00 -0.84502869383E+03  0.84502869383E+03  0.00000000000E+00 0.  1.
         23    2    1    2    0    0  0.16266884276E+03 -0.32635635645E+03  0.20095946844E+03  0.42647378858E+03  0.92333962258E+02 0.  0.
        254    2    1    2    0    0 -0.16266884276E+03  0.32635635645E+03 -0.41401357769E+03  0.10505294898E+04  0.89399963238E+03 0.  0.
        -24    2    4    4    0    0 -0.17093751695E+03  0.24637993104E+02 -0.63838346888E+03  0.66598120283E+03  0.78554718425E+02 0.  0.
         24    2    4    4    0    0  0.82686741936E+01  0.30171836335E+03  0.22436989119E+03  0.38454828700E+03  0.80207201727E+02 0.  0.
         11    1    3    3    0    0  0.12259188389E+02 -0.57387054563E+02  0.20317837769E+00  0.58682220585E+02  0.00000000000E+00 0. -1.
        -11    1    3    3    0    0  0.15040965437E+03 -0.26896930189E+03  0.20075629006E+03  0.36779156799E+03  0.00000000000E+00 0.  1.
          4    1    6    6  502    0  0.39148005325E+02  0.16294778767E+03  0.96765867304E+02  0.19351532472E+03  0.00000000000E+00 0. -1.
          1    1    5    5  503    0 -0.12641699312E+03 -0.80832905003E+01 -0.34684618186E+03  0.36925447812E+03  0.00000000000E+00 0. -1.
         -2    1    5    5    0  503 -0.44520523829E+02  0.32721283604E+02 -0.29153728701E+03  0.29672672471E+03  0.00000000000E+00 0.  1.
         -3    1    6    6    0  502 -0.30879331132E+02  0.13877057568E+03  0.12760402388E+03  0.19103296228E+03  0.00000000000E+00 0.  1.
<mgrwt>
<rscale>  0 0.14615562E+04</rscale>
<asrwt>0</asrwt>
<pdfrwt beam="1">  1        1 0.97226859E-01 0.14615562E+04</pdfrwt>
<pdfrwt beam="2">  1       -1 0.13000441E+00 0.14615562E+04</pdfrwt>
<totfact> 0.15626440E+01</totfact>
</mgrwt>
</event>
<event>
12    1  0.1494110E-007  0.3897277E+04  0.7818608E-02  0.8025596E-01
         -2   -1    0    0    0  501 -0.00000000000E+00  0.00000000000E+00  0.18789662417E+04  0.18789662417E+04  0.00000000000E+00 0.  1.
          2   -1    0    0  501    0  0.00000000000E+00 -0.00000000000E+00 -0.20208938713E+04  0.20208938713E+04  0.00000000000E+00 0. -1.
         23    2    1    2    0    0  0.11757817495E+04 -0.76538136150E+03 -0.12672041700E+04  0.18926464804E+04  0.89626671361E+02 0.  0.
        254    2    1    2    0    0 -0.11757817495E+04  0.76538136150E+03  0.11252765404E+04  0.20072136327E+04  0.89128442357E+03 0.  0.
        -24    2    4    4    0    0 -0.11185252717E+04  0.91788599840E+03  0.86047975509E+03  0.16854289449E+04  0.81436048286E+02 0.  0.
         24    2    4    4    0    0 -0.57256477841E+02 -0.15250463690E+03  0.26479678536E+03  0.32178468778E+03  0.83018547455E+02 0.  0.
         13    1    3    3    0    0  0.18755818050E+02 -0.24799118677E+02 -0.18445343418E+02  0.36152561344E+02  0.00000000000E+00 0.  1.
        -13    1    3    3    0    0  0.11570259314E+04 -0.74058224282E+03 -0.12487588266E+04  0.18564939191E+04  0.00000000000E+00 0. -1.
          4    1    6    6  502    0 -0.35926998434E+02 -0.10945104506E+03  0.10842196535E+03  0.15819482625E+03  0.00000000000E+00 0. -1.
          1    1    5    5  503    0 -0.73895635721E+03  0.57123573755E+03  0.58728512481E+03  0.11032998611E+04  0.00000000000E+00 0. -1.
         -2    1    5    5    0  503 -0.37956891444E+03  0.34665026085E+03  0.27319463028E+03  0.58212908377E+03  0.00000000000E+00 0.  1.
         -3    1    6    6    0  502 -0.21329479407E+02 -0.43053591833E+02  0.15637482001E+03  0.16358986153E+03  0.00000000000E+00 0.  1.
<mgrwt>
<rscale>  0 0.38972767E+04</rscale>
<asrwt>0</asrwt>
<pdfrwt beam="1">  1        2 0.31090675E+00 0.38972767E+04</pdfrwt>
<pdfrwt beam="2">  1       -2 0.28907173E+00 0.38972767E+04</pdfrwt>
<totfact> 0.19181668E-01</totfact>
</mgrwt>
</event>
<event>
12    1  0.1494110E-007  0.2510595E+04  0.7818608E-02  0.8399221E-01
          2   -1    0    0  501    0  0.00000000000E+00  0.00000000000E+00  0.32506616550E+04  0.32506616550E+04  0.00000000000E+00 0. -1.
         -2   -1    0    0    0  501 -0.00000000000E+00 -0.00000000000E+00 -0.48475424130E+03  0.48475424130E+03  0.00000000000E+00 0.  1.
         23    2    1    2    0    0  0.24067767982E+03  0.46533052260E+02  0.28055795447E+04  0.28177573141E+04  0.91589459187E+02 0.  0.
        254    2    1    2    0    0 -0.24067767982E+03 -0.46533052260E+02 -0.39672131080E+02  0.91765858213E+03  0.88342080848E+03 0.  0.
        -24    2    4    4    0    0 -0.45737031757E+02 -0.29627906570E+03  0.31099142186E+03  0.43865803874E+03  0.76367857336E+02 0.  0.
         24    2    4    4    0    0 -0.19494064806E+03  0.24974601344E+03 -0.35066355294E+03  0.47900054339E+03  0.78113159653E+02 0.  0.
         13    1    3    3    0    0  0.77849583787E+02 -0.25022283811E+02  0.72777596182E+03  0.73235546218E+03  0.00000000000E+00 0.  1.
        -13    1    3    3    0    0  0.16282809603E+03  0.71555336070E+02  0.20778035829E+04  0.20854018520E+04  0.00000000000E+00 0. -1.
          4    1    6    6  502    0 -0.11690726089E+02  0.13333384354E+00 -0.70516372556E+00  0.11712732827E+02  0.00000000000E+00 0. -1.
          1    1    5    5  503    0 -0.39040004471E+02 -0.93531154726E+02  0.67669696853E+02  0.12186626574E+03  0.00000000000E+00 0. -1.
         -2    1    5    5    0  503 -0.66970272863E+01 -0.20274791097E+03  0.24332172501E+03  0.31679177300E+03  0.00000000000E+00 0.  1.
         -3    1    6    6    0  502 -0.18324992197E+03  0.24961267959E+03 -0.34995838922E+03  0.46728781056E+03  0.00000000000E+00 0.  1.
<mgrwt>
<rscale>  0 0.25105952E+04</rscale>
<asrwt>0</asrwt>
<pdfrwt beam="1">  1        2 0.50010178E+00 0.25105952E+04</pdfrwt>
<pdfrwt beam="2">  1       -2 0.74577578E-01 0.25105952E+04</pdfrwt>
<totfact> 0.17316584E+00</totfact>
</mgrwt>
</event>
<event>
12    1  0.1494110E-007  0.2484326E+04  0.7818608E-02  0.8408591E-01
          1   -1    0    0  501    0  0.00000000000E+00  0.00000000000E+00  0.19784926360E+04  0.19784926360E+04  0.00000000000E+00 0. -1.
         -1   -1    0    0    0  501 -0.00000000000E+00 -0.00000000000E+00 -0.77987117845E+03  0.77987117845E+03  0.00000000000E+00 0.  1.
         23    2    1    2    0    0 -0.10217447925E+04 -0.28943922939E+03  0.29466524832E+03  0.11059765358E+04  0.92838573778E+02 0.  0.
        254    2    1    2    0    0  0.10217447925E+04  0.28943922939E+03  0.90395620921E+03  0.16523872786E+04  0.88628968280E+03 0.  0.
        -24    2    4    4    0    0  0.12253192354E+03  0.20299534040E+03 -0.12574717624E+03  0.28025302034E+03  0.80673555586E+02 0.  0.
         24    2    4    4    0    0  0.89921286895E+03  0.86443888991E+02  0.10297033855E+04  0.13721342583E+04  0.80043932038E+02 0.  0.
         11    1    3    3    0    0 -0.75304288988E+03 -0.25321534648E+03  0.20657452627E+03  0.82089258774E+03  0.00000000000E+00 0.  1.
        -11    1    3    3    0    0 -0.26870190260E+03 -0.36223882905E+02  0.88090722046E+02  0.28508394810E+03  0.00000000000E+00 0. -1.
          2    1    6    6  502    0  0.18225175861E+03  0.50112467185E+02  0.21536586783E+03  0.28654741302E+03  0.00000000000E+00 0. -1.
          1    1    5    5  503    0  0.16671641095E+02  0.51300882993E+01  0.78104294803E+01  0.19111887176E+02  0.00000000000E+00 0. -1.
         -2    1    5    5    0  503  0.10586028244E+03  0.19786525210E+03 -0.13355760572E+03  0.26114113317E+03  0.00000000000E+00 0.  1.
         -1    1    6    6    0  502  0.71696111033E+03  0.36331421806E+02  0.81433751763E+03  0.10855868452E+04  0.00000000000E+00 0.  1.
<mgrwt>
<rscale>  0 0.24843264E+04</rscale>
<asrwt>0</asrwt>
<pdfrwt beam="1">  1        1 0.30438348E+00 0.24843264E+04</pdfrwt>
<pdfrwt beam="2">  1       -1 0.11998018E+00 0.24843264E+04</pdfrwt>
<totfact> 0.16977287E+00</totfact>
</mgrwt>
</event>
<event>
12    1  0.1494110E-007  0.1693916E+04  0.7818608E-02  0.8764842E-01
         -2   -1    0    0    0  501 -0.00000000000E+00  0.00000000000E+00  0.29414057080E+03  0.29414057080E+03  0.00000000000E+00 0.  1.
          2   -1    0    0  501    0  0.00000000000E+00 -0.00000000000E+00 -0.24387592144E+04  0.24387592144E+04  0.00000000000E+00 0. -1.
         23    2    1    2    0    0  0.70930947780E+02  0.34167799451E+03  0.22109020930E+02  0.36287304513E+03  0.97020548275E+02 0.  0.
        254    2    1    2    0    0 -0.70930947780E+02 -0.34167799451E+03 -0.21667276646E+04  0.23700267401E+04  0.89473064390E+03 0.  0.
        -24    2    4    4    0    0  0.19883222418E+03  0.17995603517E+03 -0.12270363645E+04  0.12585032286E+04  0.79332897547E+02 0.  0.
         24    2    4    4    0    0 -0.26976317196E+03 -0.52163402969E+03 -0.93969130003E+03  0.11115235115E+04  0.87123747115E+02 0.  0.
         13    1    3    3    0    0  0.44230803408E+02  0.16543981732E+03 -0.36765500603E+02  0.17515250258E+03  0.00000000000E+00 0. -1.
        -13    1    3    3    0    0  0.26700144372E+02  0.17623817720E+03  0.58874521533E+02  0.18772054255E+03  0.00000000000E+00 0.  1.
          4    1    6    6  502    0 -0.18086576314E+03 -0.30327681867E+03 -0.63120501570E+03  0.72326276336E+03  0.00000000000E+00 0. -1.
          1    1    5    5  503    0  0.36173462096E+02  0.38103656407E+01 -0.10456025633E+03  0.11070630266E+03  0.00000000000E+00 0. -1.
         -2    1    5    5    0  503  0.16265876209E+03  0.17614566953E+03 -0.11224761082E+04  0.11477969260E+04  0.00000000000E+00 0.  1.
         -3    1    6    6    0  502 -0.88897408819E+02 -0.21835721102E+03 -0.30848628433E+03  0.38826074810E+03  0.00000000000E+00 0.  1.
<mgrwt>
<rscale>  0 0.16939162E+04</rscale>
<asrwt>0</asrwt>
<pdfrwt beam="1">  1        2 0.37519373E+00 0.16939162E+04</pdfrwt>
<pdfrwt beam="2">  1       -2 0.45252395E-01 0.16939162E+04</pdfrwt>
<totfact> 0.16673537E+01</totfact>
</mgrwt>
</event>
<event>
12    1  0.1494110E-007  0.1749529E+04  0.7818608E-02  0.8733610E-01
          2   -1    0    0  501    0  0.00000000000E+00  0.00000000000E+00  0.89040649363E+03  0.89040649363E+03  0.00000000000E+00 0. -1.
         -2   -1    0    0    0  501 -0.00000000000E+00 -0.00000000000E+00 -0.85939705933E+03  0.85939705933E+03  0.00000000000E+00 0.  1.
         23    2    1    2    0    0  0.35156247290E+03  0.26472984061E+03 -0.47624136110E+03  0.65463492312E+03  0.89794140639E+02 0.  0.
        254    2    1    2    0    0 -0.35156247290E+03 -0.26472984061E+03  0.50725079539E+03  0.10951686298E+04  0.86510860446E+03 0.  0.
        -24    2    4    4    0    0 -0.47314401898E+03 -0.10071668081E+03 -0.53294873516E+02  0.49315158841E+03  0.79680820252E+02 0.  0.
         24    2    4    4    0    0  0.12158154608E+03 -0.16401315980E+03  0.56054566891E+03  0.60201704143E+03  0.80812637050E+02 0.  0.
         11    1    3    3    0    0 -0.40027066853E+01  0.12542337460E+02 -0.16008066893E+02  0.20726555320E+02  0.00000000000E+00 0. -1.
        -11    1    3    3    0    0  0.35556517958E+03  0.25218750315E+03 -0.46023329420E+03  0.63390836780E+03  0.00000000000E+00 0.  1.
          2    1    6    6  502    0  0.12004257381E+03 -0.13591041238E+03  0.53145801131E+03  0.56154205319E+03  0.00000000000E+00 0. -1.
          3    1    5    5  503    0 -0.16650264874E+03 -0.65872903636E+02 -0.44050295579E+02  0.18439848159E+03  0.00000000000E+00 0. -1.
         -4    1    5    5    0  503 -0.30664137024E+03 -0.34843777173E+02 -0.92445779371E+01  0.30875310682E+03  0.00000000000E+00 0.  1.
         -1    1    6    6    0  502  0.15389722764E+01 -0.28102747424E+02  0.29087657600E+02  0.40474988240E+02  0.00000000000E+00 0.  1.
<mgrwt>
<rscale>  0 0.17495288E+04</rscale>
<asrwt>0</asrwt>
<pdfrwt beam="1">  1        2 0.13698561E+00 0.17495288E+04</pdfrwt>
<pdfrwt beam="2">  1       -2 0.13221493E+00 0.17495288E+04</pdfrwt>
<totfact> 0.11736990E+01</totfact>
</mgrwt>
</event>
<event>
12    1  0.1494110E-007  0.1918914E+04  0.7818608E-02  0.8645498E-01
          2   -1    0    0  501    0  0.00000000000E+00  0.00000000000E+00  0.10004261542E+04  0.10004261542E+04  0.00000000000E+00 0.  1.
         -2   -1    0    0    0  501 -0.00000000000E+00 -0.00000000000E+00 -0.92016584280E+03  0.92016584280E+03  0.00000000000E+00 0. -1.
         23    2    1    2    0    0 -0.44830095614E+03 -0.53527306834E+03  0.26666146126E+03  0.75291959095E+03  0.91041586900E+02 0.  0.
        254    2    1    2    0    0  0.44830095614E+03  0.53527306834E+03 -0.18640114989E+03  0.11676724060E+04  0.91718179996E+03 0.  0.
        -24    2    4    4    0    0  0.26523695155E+03 -0.21603012709E+03 -0.17003339517E+03  0.39019999651E+03  0.79530029047E+02 0.  0.
         24    2    4    4    0    0  0.18306400459E+03  0.75130319543E+03 -0.16367754713E+02  0.77747240953E+03  0.78908319840E+02 0.  0.
         11    1    3    3    0    0 -0.22099397050E+03 -0.23930805753E+03  0.78869967466E+02  0.33515243273E+03  0.00000000000E+00 0. -1.
        -11    1    3    3    0    0 -0.22730698564E+03 -0.29596501080E+03  0.18779149380E+03  0.41776715821E+03  0.00000000000E+00 0.  1.
          2    1    6    6  502    0  0.10953028956E+03  0.28733978919E+03 -0.10227744079E+02  0.30767782750E+03  0.00000000000E+00 0. -1.
          1    1    5    5  503    0  0.53841825456E+01 -0.25698031936E+02 -0.62239894455E+00  0.26263389871E+02  0.00000000000E+00 0. -1.
         -2    1    5    5    0  503  0.25985276901E+03 -0.19033209516E+03 -0.16941099623E+03  0.36393660664E+03  0.00000000000E+00 0.  1.
         -1    1    6    6    0  502  0.73533715029E+02  0.46396340624E+03 -0.61400106339E+01  0.46979458203E+03  0.00000000000E+00 0.  1.
<mgrwt>
<rscale>  0 0.19189143E+04</rscale>
<asrwt>0</asrwt>
<pdfrwt beam="1">  1        2 0.15391172E+00 0.19189143E+04</pdfrwt>
<pdfrwt beam="2">  1       -2 0.14156398E+00 0.19189143E+04</pdfrwt>
<totfact> 0.82129370E+00</totfact>
</mgrwt>
</event>
<event>
12    1  0.1494110E-007  0.1978825E+04  0.7818608E-02  0.8616585E-01
         -2   -1    0    0    0  501 -0.00000000000E+00  0.00000000000E+00  0.50946055559E+03  0.50946055559E+03  0.00000000000E+00 0. -1.
          2   -1    0    0  501    0  0.00000000000E+00 -0.00000000000E+00 -0.19215169387E+04  0.19215169387E+04  0.00000000000E+00 0.  1.
         23    2    1    2    0    0 -0.44303903111E+03 -0.27121187222E+03 -0.11971678020E+04  0.13079292775E+04  0.87342922642E+02 0.  0.
        254    2    1    2    0    0  0.44303903111E+03  0.27121187222E+03 -0.21488858112E+03  0.11230482168E+04  0.97222463054E+03 0.  0.
        -24    2    4    4    0    0 -0.15140909316E+03  0.36492512681E+03  0.13121638093E+03  0.42417341380E+03  0.81303657264E+02 0.  0.
         24    2    4    4    0    0  0.59444812428E+03 -0.93713254591E+02 -0.34610496205E+03  0.69887480299E+03  0.80539424827E+02 0.  0.
         13    1    3    3    0    0 -0.38171851053E+03 -0.26321054650E+03 -0.10250948039E+04  0.11250814060E+04  0.00000000000E+00 0.  1.
        -13    1    3    3    0    0 -0.61320520582E+02 -0.80013257192E+01 -0.17207299808E+03  0.18284787154E+03  0.00000000000E+00 0. -1.
          2    1    6    6  502    0  0.22634728947E+03 -0.32946968145E+02 -0.87355135072E+02  0.24484590620E+03  0.00000000000E+00 0. -1.
          3    1    5    5  503    0 -0.13162480981E+03  0.29829923289E+03  0.74461158177E+02  0.33444280076E+03  0.00000000000E+00 0. -1.
         -2    1    5    5    0  503 -0.19784283357E+02  0.66625893914E+02  0.56755222751E+02  0.89730613045E+02  0.00000000000E+00 0.  1.
         -1    1    6    6    0  502  0.36810083481E+03 -0.60766286446E+02 -0.25874982698E+03  0.45402889678E+03  0.00000000000E+00 0.  1.
<mgrwt>
<rscale>  0 0.19788250E+04</rscale>
<asrwt>0</asrwt>
<pdfrwt beam="1">  1        2 0.29561799E+00 0.19788250E+04</pdfrwt>
<pdfrwt beam="2">  1       -2 0.78378548E-01 0.19788250E+04</pdfrwt>
<totfact> 0.99497902E+00</totfact>
</mgrwt>
</event>
<event>
12    1  0.1494110E-007  0.1287835E+04  0.7818608E-02  0.9039268E-01
          1   -1    0    0  501    0  0.00000000000E+00  0.00000000000E+00  0.13128625994E+04  0.13128625994E+04  0.00000000000E+00 0. -1.
         -1   -1    0    0    0  501 -0.00000000000E+00 -0.00000000000E+00 -0.31582109405E+03  0.31582109405E+03  0.00000000000E+00 0.  1.
         23    2    1    2    0    0  0.31265724501E+03 -0.39525378425E+02  0.16816371082E+03  0.36772149898E+03  0.87311275204E+02 0.  0.
        254    2    1    2    0    0 -0.31265724501E+03  0.39525378425E+02  0.82887779454E+03  0.12609621945E+04  0.89647668637E+03 0.  0.
        -24    2    4    4    0    0 -0.38036180857E+03 -0.27564966120E+03  0.14078595362E+03  0.49691850887E+03  0.80308645725E+02 0.  0.
         24    2    4    4    0    0  0.67704563560E+02  0.31517503963E+03  0.68809184092E+03  0.76404368560E+03  0.79832063963E+02 0.  0.
         13    1    3    3    0    0  0.24341383257E+03 -0.50475289536E+02  0.94274588394E+02  0.26586791223E+03  0.00000000000E+00 0. -1.
        -13    1    3    3    0    0  0.69243412443E+02  0.10949911111E+02  0.73889122424E+02  0.10185358674E+03  0.00000000000E+00 0.  1.
          4    1    6    6  502    0  0.25208632930E+02  0.26248261191E+03  0.56693696068E+03  0.62526003720E+03  0.00000000000E+00 0. -1.
          1    1    5    5  503    0 -0.28819982799E+03 -0.20491619891E+03  0.68821265260E+02  0.36025845719E+03  0.00000000000E+00 0. -1.
         -2    1    5    5    0  503 -0.92161980585E+02 -0.70733462292E+02  0.71964688357E+02  0.13666005167E+03  0.00000000000E+00 0.  1.
         -3    1    6    6    0  502  0.42495930630E+02  0.52692427721E+02  0.12115488024E+03  0.13878364840E+03  0.00000000000E+00 0.  1.
<mgrwt>
<rscale>  0 0.12878349E+04</rscale>
<asrwt>0</asrwt>
<pdfrwt beam="1">  1        1 0.20197886E+00 0.12878349E+04</pdfrwt>
<pdfrwt beam="2">  1       -1 0.48587862E-01 0.12878349E+04</pdfrwt>
<totfact> 0.36906719E+01</totfact>
</mgrwt>
</event>
<event>
12    1  0.1494110E-007  0.1547041E+04  0.7818608E-02  0.8853760E-01
          1   -1    0    0  501    0  0.00000000000E+00  0.00000000000E+00  0.11415581263E+04  0.11415581263E+04  0.00000000000E+00 0. -1.
         -1   -1    0    0    0  501 -0.00000000000E+00 -0.00000000000E+00 -0.52413768295E+03  0.52413768295E+03  0.00000000000E+00 0.  1.
         23    2    1    2    0    0  0.24167363783E+03 -0.13936532440E+03  0.65516894316E+03  0.71782161137E+03  0.90513428773E+02 0.  0.
        254    2    1    2    0    0 -0.24167363783E+03  0.13936532440E+03 -0.37748499796E+02  0.94787419791E+03  0.90510314603E+03 0.  0.
        -24    2    4    4    0    0  0.24345015110E+03 -0.18601989320E+03 -0.14505716644E+03  0.34826104366E+03  0.79829795551E+02 0.  0.
         24    2    4    4    0    0 -0.48512378894E+03  0.32538521760E+03  0.10730866664E+03  0.59961315425E+03  0.82463048643E+02 0.  0.
         13    1    3    3    0    0  0.17696384647E+03 -0.78600343370E+02  0.53085840244E+03  0.56507066848E+03  0.00000000000E+00 0. -1.
        -13    1    3    3    0    0  0.64709791361E+02 -0.60764981026E+02  0.12431054073E+03  0.15275094289E+03  0.00000000000E+00 0.  1.
          2    1    6    6  502    0 -0.18826059119E+03  0.13975242844E+03  0.82716640919E+02  0.24862589192E+03  0.00000000000E+00 0. -1.
          3    1    5    5  503    0  0.12949443754E+03 -0.86072309704E+02 -0.30963377808E+02  0.15854331464E+03  0.00000000000E+00 0. -1.
         -4    1    5    5    0  503  0.11395571356E+03 -0.99947583497E+02 -0.11409378863E+03  0.18971772902E+03  0.00000000000E+00 0.  1.
         -1    1    6    6    0  502 -0.29686319775E+03  0.18563278915E+03  0.24592025725E+02  0.35098726233E+03  0.00000000000E+00 0.  1.
<mgrwt>
<rscale>  0 0.15470406E+04</rscale>
<asrwt>0</asrwt>
<pdfrwt beam="1">  1        1 0.17562433E+00 0.15470406E+04</pdfrwt>
<pdfrwt beam="2">  1       -1 0.80636567E-01 0.15470406E+04</pdfrwt>
<totfact> 0.17445211E+01</totfact>
</mgrwt>
</event>
<event>
12    1  0.1494110E-007  0.4189123E+04  0.7818608E-02  0.7967444E-01
         -2   -1    0    0    0  501 -0.00000000000E+00  0.00000000000E+00  0.20092136583E+04  0.20092136583E+04  0.00000000000E+00 0.  1.
          2   -1    0    0  501    0  0.00000000000E+00 -0.00000000000E+00 -0.21835351606E+04  0.21835351606E+04  0.00000000000E+00 0. -1.
         23    2    1    2    0    0  0.39021776767E+03 -0.15199952752E+04  0.11531851305E+04  0.19495947141E+04  0.91804473000E+02 0.  0.
        254    2    1    2    0    0 -0.39021776767E+03  0.15199952752E+04 -0.13275066329E+04  0.22431541048E+04  0.89822654982E+03 0.  0.
        -24    2    4    4    0    0 -0.27830819201E+03  0.46253992203E+02 -0.40045265784E+03  0.49640284531E+03  0.80365242075E+02 0.  0.
         24    2    4    4    0    0 -0.11190957566E+03  0.14737412830E+04 -0.92705397502E+03  0.17467512595E+04  0.85286385960E+02 0.  0.
         13    1    3    3    0    0  0.32521731001E+03 -0.12379238948E+04  0.98259621696E+03  0.16136037907E+04  0.00000000000E+00 0.  1.
        -13    1    3    3    0    0  0.65000457655E+02 -0.28207138041E+03  0.17058891353E+03  0.33599092333E+03  0.00000000000E+00 0. -1.
          4    1    6    6  502    0 -0.85169428967E+02  0.85839240515E+03 -0.58434578497E+03  0.10418979553E+04  0.00000000000E+00 0. -1.
          3    1    5    5  503    0 -0.24718498556E+03  0.12867463668E+02 -0.34433683160E+03  0.42406820478E+03  0.00000000000E+00 0. -1.
         -4    1    5    5    0  503 -0.31123206447E+02  0.33386528534E+02 -0.56115826239E+02  0.72334640537E+02  0.00000000000E+00 0.  1.
         -3    1    6    6    0  502 -0.26740146693E+02  0.61534887782E+03 -0.34270819005E+03  0.70485330417E+03  0.00000000000E+00 0.  1.
<mgrwt>
<rscale>  0 0.41891234E+04</rscale>
<asrwt>0</asrwt>
<pdfrwt beam="1">  1        2 0.33592849E+00 0.41891234E+04</pdfrwt>
<pdfrwt beam="2">  1       -2 0.30910979E+00 0.41891234E+04</pdfrwt>
<totfact> 0.11453525E-01</totfact>
</mgrwt>
</event>
<event>
12    1  0.1494110E-007  0.1590568E+04  0.7818608E-02  0.8826364E-01
          2   -1    0    0  501    0  0.00000000000E+00  0.00000000000E+00  0.31437378823E+04  0.31437378823E+04  0.00000000000E+00 0. -1.
         -2   -1    0    0    0  501 -0.00000000000E+00 -0.00000000000E+00 -0.20118613046E+03  0.20118613046E+03  0.00000000000E+00 0.  1.
         23    2    1    2    0    0  0.41102863335E+03 -0.33121868854E+03  0.11737397506E+04  0.12902993779E+04  0.92504732048E+02 0.  0.
        254    2    1    2    0    0 -0.41102863335E+03  0.33121868854E+03  0.17688120013E+04  0.20546246349E+04  0.90229492812E+03 0.  0.
        -24    2    4    4    0    0 -0.79361582340E+02  0.15697866895E+03  0.16385823227E+04  0.16499290940E+04  0.79833725639E+02 0.  0.
         24    2    4    4    0    0 -0.33166705101E+03  0.17424001959E+03  0.13022967857E+03  0.40469554085E+03  0.80349825459E+02 0.  0.
         11    1    3    3    0    0  0.14169272009E+03 -0.77763026808E+02  0.43719193804E+03  0.46611233190E+03  0.00000000000E+00 0. -1.
        -11    1    3    3    0    0  0.26933591326E+03 -0.25345566173E+03  0.73654781254E+03  0.82418704600E+03  0.00000000000E+00 0.  1.
          2    1    6    6  502    0 -0.79882371507E+02  0.41039061863E+02  0.69219851936E+02  0.11338776732E+03  0.00000000000E+00 0. -1.
          1    1    5    5  503    0  0.79425819344E+01  0.57171124194E+02  0.37633060300E+03  0.38073132889E+03  0.00000000000E+00 0. -1.
         -2    1    5    5    0  503 -0.87304164275E+02  0.99807544756E+02  0.12622517197E+04  0.12691977651E+04  0.00000000000E+00 0.  1.
         -3    1    6    6    0  502 -0.25178467951E+03  0.13320095773E+03  0.61009826629E+02  0.29130777353E+03  0.00000000000E+00 0.  1.
<mgrwt>
<rscale>  0 0.15905678E+04</rscale>
<asrwt>0</asrwt>
<pdfrwt beam="1">  1        2 0.48365194E+00 0.15905678E+04</pdfrwt>
<pdfrwt beam="2">  1       -2 0.30951715E-01 0.15905678E+04</pdfrwt>
<totfact> 0.13191508E+01</totfact>
</mgrwt>
</event>
<event>
12    1  0.1494110E-007  0.1487323E+04  0.7818608E-02  0.8892927E-01
          2   -1    0    0  501    0  0.00000000000E+00  0.00000000000E+00  0.34849271462E+03  0.34849271462E+03  0.00000000000E+00 0. -1.
         -2   -1    0    0    0  501 -0.00000000000E+00 -0.00000000000E+00 -0.15869274841E+04  0.15869274841E+04  0.00000000000E+00 0.  1.
         23    2    1    2    0    0  0.19412236189E+03 -0.33665841381E+03 -0.33196342036E+02  0.39970702588E+03  0.87414703805E+02 0.  0.
        254    2    1    2    0    0 -0.19412236189E+03  0.33665841381E+03 -0.12052384274E+04  0.15357131728E+04  0.86878818087E+03 0.  0.
        -24    2    4    4    0    0 -0.13793464456E+03 -0.25146620421E+03 -0.67674193707E+03  0.73929686688E+03  0.79492074829E+02 0.  0.
         24    2    4    4    0    0 -0.56187717322E+02  0.58812461802E+03 -0.52849649035E+03  0.79641630592E+03  0.76959509639E+02 0.  0.
         11    1    3    3    0    0  0.21734797204E+02 -0.49731506960E+02 -0.35708499291E+02  0.64967077167E+02  0.00000000000E+00 0.  1.
        -11    1    3    3    0    0  0.17238756468E+03 -0.28692690685E+03  0.25121572544E+01  0.33473994871E+03  0.00000000000E+00 0. -1.
          2    1    6    6  502    0  0.21861161541E+01 -0.18706902573E+01 -0.32353420827E+01  0.43296679169E+01  0.00000000000E+00 0. -1.
          3    1    5    5  503    0 -0.25062992609E+02 -0.11571103551E+03 -0.22429867081E+03  0.25362785940E+03  0.00000000000E+00 0. -1.
         -4    1    5    5    0  503 -0.11287165195E+03 -0.13575516871E+03 -0.45244326626E+03  0.48566900748E+03  0.00000000000E+00 0.  1.
         -3    1    6    6    0  502 -0.58373833476E+02  0.58999530828E+03 -0.52526114827E+03  0.79208663801E+03  0.00000000000E+00 0.  1.
<mgrwt>
<rscale>  0 0.14873233E+04</rscale>
<asrwt>0</asrwt>
<pdfrwt beam="1">  1        2 0.53614263E-01 0.14873233E+04</pdfrwt>
<pdfrwt beam="2">  1       -2 0.24414269E+00 0.14873233E+04</pdfrwt>
<totfact> 0.62735718E+00</totfact>
</mgrwt>
</event>
<event>
12    1  0.1494110E-007  0.1223437E+04  0.7818608E-02  0.9092586E-01
         -2   -1    0    0    0  501 -0.00000000000E+00  0.00000000000E+00  0.29382725254E+03  0.29382725254E+03  0.00000000000E+00 0.  1.
          2   -1    0    0  501    0  0.00000000000E+00 -0.00000000000E+00 -0.12735353717E+04  0.12735353717E+04  0.00000000000E+00 0. -1.
         23    2    1    2    0    0 -0.48500565823E+02  0.15623940904E+03 -0.54105224626E+03  0.57367024575E+03  0.97964074347E+02 0.  0.
        254    2    1    2    0    0  0.48500565823E+02 -0.15623940904E+03 -0.43865587294E+03  0.99369237853E+03  0.87649444406E+03 0.  0.
        -24    2    4    4    0    0  0.10586779155E+03 -0.11099291434E+03  0.24565350378E+03  0.30084175466E+03  0.81441396755E+02 0.  0.
         24    2    4    4    0    0 -0.57367225730E+02 -0.45246494695E+02 -0.68430937671E+03  0.69285062387E+03  0.80152480097E+02 0.  0.
         11    1    3    3    0    0 -0.19023107627E+02  0.15409985973E+03 -0.49644936249E+03  0.52016402692E+03  0.00000000000E+00 0. -1.
        -11    1    3    3    0    0 -0.29477458196E+02  0.21395493100E+01 -0.44602883770E+02  0.53506218831E+02  0.00000000000E+00 0.  1.
          4    1    6    6  502    0 -0.35589905678E+02 -0.66070878476E+02 -0.40263611114E+03  0.40957031187E+03  0.00000000000E+00 0. -1.
          1    1    5    5  503    0  0.50216482048E+02 -0.90116793045E+01  0.11616485220E+03  0.12687465594E+03  0.00000000000E+00 0. -1.
         -2    1    5    5    0  503  0.55651309506E+02 -0.10198123504E+03  0.12948865158E+03  0.17396709872E+03  0.00000000000E+00 0.  1.
         -3    1    6    6    0  502 -0.21777320052E+02  0.20824383781E+02 -0.28167326557E+03  0.28328031200E+03  0.00000000000E+00 0.  1.
<mgrwt>
<rscale>  0 0.12234368E+04</rscale>
<asrwt>0</asrwt>
<pdfrwt beam="1">  1        2 0.19592851E+00 0.12234368E+04</pdfrwt>
<pdfrwt beam="2">  1       -2 0.45204194E-01 0.12234368E+04</pdfrwt>
<totfact> 0.78298821E+01</totfact>
</mgrwt>
</event>
<event>
12    1  0.1494110E-007  0.1187146E+04  0.7818608E-02  0.9124182E-01
          1   -1    0    0  501    0  0.00000000000E+00  0.00000000000E+00  0.78272529692E+03  0.78272529692E+03  0.00000000000E+00 0. -1.
         -1   -1    0    0    0  501 -0.00000000000E+00 -0.00000000000E+00 -0.45013120589E+03  0.45013120589E+03  0.00000000000E+00 0.  1.
         23    2    1    2    0    0  0.35495779307E+02  0.67996479985E+02  0.30663056851E+03  0.32860154340E+03  0.89850971850E+02 0.  0.
        254    2    1    2    0    0 -0.35495779307E+02 -0.67996479985E+02  0.25963522518E+02  0.90425495941E+03  0.90062170498E+03 0.  0.
        -24    2    4    4    0    0 -0.84454983361E+02  0.33824423731E+02  0.44622491154E+03  0.46182808608E+03  0.76757889214E+02 0.  0.
         24    2    4    4    0    0  0.48959204054E+02 -0.10182090372E+03 -0.42026138902E+03  0.44242687334E+03  0.79733324642E+02 0.  0.
         11    1    3    3    0    0  0.33799969088E+02  0.85121260514E+02  0.29196065266E+03  0.30598870830E+03  0.00000000000E+00 0. -1.
        -11    1    3    3    0    0  0.16958102184E+01 -0.17124780529E+02  0.14669915844E+02  0.22612835102E+02  0.00000000000E+00 0.  1.
          2    1    6    6  502    0 -0.74777030935E+01  0.91717866227E+01 -0.19936525823E+02  0.23184106092E+02  0.00000000000E+00 0. -1.
          3    1    5    5  503    0 -0.60159545752E+02  0.49792666468E+02  0.21425110879E+03  0.22803951017E+03  0.00000000000E+00 0. -1.
         -4    1    5    5    0  503 -0.24295437608E+02 -0.15968242738E+02  0.23197380274E+03  0.23378857591E+03  0.00000000000E+00 0.  1.
         -1    1    6    6    0  502  0.56436907147E+02 -0.11099269034E+03 -0.40032486320E+03  0.41924276725E+03  0.00000000000E+00 0.  1.
<mgrwt>
<rscale>  0 0.11871463E+04</rscale>
<asrwt>0</asrwt>
<pdfrwt beam="1">  1        1 0.12041928E+00 0.11871463E+04</pdfrwt>
<pdfrwt beam="2">  1       -1 0.69250955E-01 0.11871463E+04</pdfrwt>
<totfact> 0.47857017E+01</totfact>
</mgrwt>
</event>
<event>
12    1  0.1494110E-007  0.1709805E+04  0.7818608E-02  0.8755792E-01
         -1   -1    0    0    0  501 -0.00000000000E+00  0.00000000000E+00  0.23181744586E+03  0.23181744586E+03  0.00000000000E+00 0.  1.
          1   -1    0    0  501    0  0.00000000000E+00 -0.00000000000E+00 -0.31527333178E+04  0.31527333178E+04  0.00000000000E+00 0. -1.
         23    2    1    2    0    0  0.81727056913E+02 -0.44114637315E+03 -0.23193256801E+03  0.51248720765E+03  0.86953939107E+02 0.  0.
        254    2    1    2    0    0 -0.81727056913E+02  0.44114637315E+03 -0.26889833039E+04  0.28720635560E+04  0.90378560876E+03 0.  0.
        -24    2    4    4    0    0 -0.38785661140E+03 -0.34113246170E+02 -0.15202879644E+04  0.15713266033E+04  0.78710450733E+02 0.  0.
         24    2    4    4    0    0  0.30612955449E+03  0.47525961932E+03 -0.11686953395E+04  0.13007369527E+04  0.80503500292E+02 0.  0.
         13    1    3    3    0    0 -0.80939748114E+01 -0.23952743595E+01 -0.85599567451E+01  0.12021756402E+02  0.00000000000E+00 0. -1.
        -13    1    3    3    0    0  0.89821031724E+02 -0.43875109879E+03 -0.22337261126E+03  0.50046545125E+03  0.00000000000E+00 0.  1.
          4    1    6    6  502    0  0.49955554319E+02  0.13951268776E+03 -0.32842547294E+03  0.36030908777E+03  0.00000000000E+00 0. -1.
          3    1    5    5  503    0 -0.44434478253E+02  0.20825333887E+02 -0.21136061141E+03  0.21698254640E+03  0.00000000000E+00 0. -1.
         -4    1    5    5    0  503 -0.34342213315E+03 -0.54938580058E+02 -0.13089273530E+04  0.13543440569E+04  0.00000000000E+00 0.  1.
         -3    1    6    6    0  502  0.25617400017E+03  0.33574693156E+03 -0.84026986657E+03  0.94042786491E+03  0.00000000000E+00 0.  1.
<mgrwt>
<rscale>  0 0.17098054E+04</rscale>
<asrwt>0</asrwt>
<pdfrwt beam="1">  1        1 0.48503587E+00 0.17098054E+04</pdfrwt>
<pdfrwt beam="2">  1       -1 0.35664224E-01 0.17098054E+04</pdfrwt>
<totfact> 0.33056365E+00</totfact>
</mgrwt>
</event>
<event>
12    1  0.1494110E-007  0.1700393E+04  0.7818608E-02  0.8761140E-01
          2   -1    0    0  501    0  0.00000000000E+00  0.00000000000E+00  0.19027590387E+04  0.19027590387E+04  0.00000000000E+00 0. -1.
         -2   -1    0    0    0  501 -0.00000000000E+00 -0.00000000000E+00 -0.37988716085E+03  0.37988716085E+03  0.00000000000E+00 0.  1.
         23    2    1    2    0    0 -0.57894002775E+03  0.94874822569E+02  0.57859259223E+03  0.82893028311E+03  0.90461255638E+02 0.  0.
        254    2    1    2    0    0  0.57894002775E+03 -0.94874822569E+02  0.94427928560E+03  0.14537159164E+04  0.93672504439E+03 0.  0.
        -24    2    4    4    0    0 -0.38390959532E+02  0.33440227111E+03  0.24666617109E+03  0.42501585424E+03  0.80594861478E+02 0.  0.
         24    2    4    4    0    0  0.61733098729E+03 -0.42927709368E+03  0.69761311451E+03  0.10287000622E+04  0.78634530650E+02 0.  0.
         11    1    3    3    0    0 -0.48791304842E+03  0.75759851780E+02  0.43613253933E+03  0.65879457331E+03  0.00000000000E+00 0. -1.
        -11    1    3    3    0    0 -0.91026979336E+02  0.19114970789E+02  0.14246005291E+03  0.17013570980E+03  0.00000000000E+00 0.  1.
          2    1    6    6  502    0  0.15329078934E+03 -0.81705316698E+02  0.12659041670E+03  0.21493942978E+03  0.00000000000E+00 0. -1.
          1    1    5    5  503    0 -0.27148170024E+02  0.68837867559E+02  0.22601190657E+02  0.77372404414E+02  0.00000000000E+00 0. -1.
         -2    1    5    5    0  503 -0.11242789509E+02  0.26556440355E+03  0.22406498044E+03  0.34764344982E+03  0.00000000000E+00 0.  1.
         -1    1    6    6    0  502  0.46404019794E+03 -0.34757177698E+03  0.57102269780E+03  0.81376063241E+03  0.00000000000E+00 0.  1.
<mgrwt>
<rscale>  0 0.17003926E+04</rscale>
<asrwt>0</asrwt>
<pdfrwt beam="1">  1        2 0.29273215E+00 0.17003926E+04</pdfrwt>
<pdfrwt beam="2">  1       -2 0.58444180E-01 0.17003926E+04</pdfrwt>
<totfact> 0.19710695E+01</totfact>
</mgrwt>
</event>
<event>
12    1  0.1494110E-007  0.1944623E+04  0.7818608E-02  0.8632958E-01
         -2   -1    0    0    0  501 -0.00000000000E+00  0.00000000000E+00  0.30190255832E+03  0.30190255832E+03  0.00000000000E+00 0.  1.
          2   -1    0    0  501    0  0.00000000000E+00 -0.00000000000E+00 -0.31314405396E+04  0.31314405396E+04  0.00000000000E+00 0. -1.
         23    2    1    2    0    0 -0.91145023025E+02 -0.14675860290E+03  0.18773433631E+03  0.27058197644E+03  0.90138350301E+02 0.  0.
        254    2    1    2    0    0  0.91145023025E+02  0.14675860290E+03 -0.30172723176E+04  0.31627611215E+04  0.93235195627E+03 0.  0.
        -24    2    4    4    0    0 -0.48984550188E+02 -0.49182833141E+02 -0.28645974435E+04  0.28668374530E+04  0.89554626230E+02 0.  0.
         24    2    4    4    0    0  0.14012957321E+03  0.19594143604E+03 -0.15267487403E+03  0.29592366848E+03  0.78942110181E+02 0.  0.
         13    1    3    3    0    0 -0.72601772519E+02 -0.15534518930E+03  0.18034471295E+03  0.24885208599E+03  0.00000000000E+00 0.  1.
        -13    1    3    3    0    0 -0.18543250506E+02  0.85865864003E+01  0.73896233518E+01  0.21729890442E+02  0.00000000000E+00 0. -1.
          4    1    6    6  502    0  0.23887093127E+02  0.87260253988E+02 -0.80841210059E+02  0.12132702250E+03  0.00000000000E+00 0. -1.
          3    1    5    5  503    0  0.40305844572E+01 -0.24910643991E+02 -0.19786527771E+03  0.19946792705E+03  0.00000000000E+00 0. -1.
         -4    1    5    5    0  503 -0.53015134645E+02 -0.24272189150E+02 -0.26667321658E+04  0.26673695259E+04  0.00000000000E+00 0.  1.
         -3    1    6    6    0  502  0.11624248009E+03  0.10868118206E+03 -0.71833663966E+02  0.17459664598E+03  0.00000000000E+00 0.  1.
<mgrwt>
<rscale>  0 0.19446233E+04</rscale>
<asrwt>0</asrwt>
<pdfrwt beam="1">  1        2 0.48176011E+00 0.19446233E+04</pdfrwt>
<pdfrwt beam="2">  1       -2 0.46446545E-01 0.19446233E+04</pdfrwt>
<totfact> 0.59125263E+00</totfact>
</mgrwt>
</event>
<event>
12    1  0.1494110E-007  0.2329007E+04  0.7818608E-02  0.8466571E-01
         -2   -1    0    0    0  501 -0.00000000000E+00  0.00000000000E+00  0.19021794389E+04  0.19021794389E+04  0.00000000000E+00 0.  1.
          2   -1    0    0  501    0  0.00000000000E+00 -0.00000000000E+00 -0.71290269326E+03  0.71290269326E+03  0.00000000000E+00 0. -1.
         23    2    1    2    0    0  0.31409909428E+03 -0.24893897696E+03 -0.50733856926E+03  0.65316015468E+03  0.92719515342E+02 0.  0.
        254    2    1    2    0    0 -0.31409909428E+03  0.24893897696E+03  0.16966153149E+04  0.19619219775E+04  0.90000303539E+03 0.  0.
        -24    2    4    4    0    0 -0.19910617922E+03  0.20412117950E+02  0.16796910093E+04  0.16935596981E+04  0.81991700901E+02 0.  0.
         24    2    4    4    0    0 -0.11499291507E+03  0.22852685901E+03  0.16924305602E+02  0.26836227942E+03  0.79271590709E+02 0.  0.
         13    1    3    3    0    0  0.31010847687E+03 -0.21690965375E+03 -0.47673006373E+03  0.60867776284E+03  0.00000000000E+00 0. -1.
        -13    1    3    3    0    0  0.39906174119E+01 -0.32029323214E+02 -0.30608505528E+02  0.44482391837E+02  0.00000000000E+00 0.  1.
          2    1    6    6  502    0 -0.50317891037E+02  0.41949408630E+02 -0.17748587609E+02  0.67872346393E+02  0.00000000000E+00 0. -1.
          3    1    5    5  503    0 -0.13464072823E+03  0.41615649452E+02  0.90557892869E+03  0.91647868719E+03  0.00000000000E+00 0. -1.
         -4    1    5    5    0  503 -0.64465450983E+02 -0.21203531502E+02  0.77411208063E+03  0.77708101090E+03  0.00000000000E+00 0.  1.
         -1    1    6    6    0  502 -0.64675024029E+02  0.18657745038E+03  0.34672893211E+02  0.20048993303E+03  0.00000000000E+00 0.  1.
<mgrwt>
<rscale>  0 0.23290074E+04</rscale>
<asrwt>0</asrwt>
<pdfrwt beam="1">  1        2 0.10967734E+00 0.23290074E+04</pdfrwt>
<pdfrwt beam="2">  1       -2 0.29264299E+00 0.23290074E+04</pdfrwt>
<totfact> 0.12767913E+00</totfact>
</mgrwt>
</event>
<event>
12    1  0.1494110E-007  0.2438787E+04  0.7818608E-02  0.8425123E-01
         -1   -1    0    0    0  501 -0.00000000000E+00  0.00000000000E+00  0.62810482195E+03  0.62810482195E+03  0.00000000000E+00 0.  1.
          1   -1    0    0  501    0  0.00000000000E+00 -0.00000000000E+00 -0.23673127861E+04  0.23673127861E+04  0.00000000000E+00 0. -1.
         23    2    1    2    0    0  0.33138845144E+03  0.54999364919E+02  0.47223379837E+03  0.58660430228E+03  0.90865897040E+02 0.  0.
        254    2    1    2    0    0 -0.33138845144E+03 -0.54999364919E+02 -0.22114417625E+04  0.24088133058E+04  0.89390359498E+03 0.  0.
        -24    2    4    4    0    0 -0.63837509860E+02  0.39737192705E+03 -0.11606659517E+04  0.12310285817E+04  0.79411847333E+02 0.  0.
         24    2    4    4    0    0 -0.26755094158E+03 -0.45237129197E+03 -0.10507758109E+04  0.11777847241E+04  0.82606049736E+02 0.  0.
         13    1    3    3    0    0  0.17197511040E+03  0.32044560524E+02  0.32151040079E+03  0.36602080579E+03  0.00000000000E+00 0. -1.
        -13    1    3    3    0    0  0.15941334104E+03  0.22954804395E+02  0.15072339758E+03  0.22058349649E+03  0.00000000000E+00 0.  1.
          4    1    6    6  502    0 -0.34392486457E+02 -0.11903031297E+03 -0.21146451296E+03  0.24508834891E+03  0.00000000000E+00 0. -1.
          1    1    5    5  503    0 -0.69781587794E+02  0.23600681444E+03 -0.76757050679E+03  0.80606027650E+03  0.00000000000E+00 0. -1.
         -2    1    5    5    0  503  0.59440779342E+01  0.16136511261E+03 -0.39309544489E+03  0.42496830520E+03  0.00000000000E+00 0.  1.
         -3    1    6    6    0  502 -0.23315845512E+03 -0.33334097901E+03 -0.83931129790E+03  0.93269637517E+03  0.00000000000E+00 0.  1.
<mgrwt>
<rscale>  0 0.24387871E+04</rscale>
<asrwt>0</asrwt>
<pdfrwt beam="1">  1        1 0.36420196E+00 0.24387871E+04</pdfrwt>
<pdfrwt beam="2">  1       -1 0.96631513E-01 0.24387871E+04</pdfrwt>
<totfact> 0.15394188E+00</totfact>
</mgrwt>
</event>
<event>
12    1  0.1494110E-007  0.3035940E+04  0.7818608E-02  0.8233542E-01
          2   -1    0    0  501    0  0.00000000000E+00  0.00000000000E+00  0.21305604768E+04  0.21305604768E+04  0.00000000000E+00 0.  1.
         -2   -1    0    0    0  501 -0.00000000000E+00 -0.00000000000E+00 -0.10815149356E+04  0.10815149356E+04  0.00000000000E+00 0. -1.
         23    2    1    2    0    0  0.91811888237E+03  0.21855804074E+02  0.15950697943E+04  0.18430235969E+04  0.95227998750E+02 0.  0.
        254    2    1    2    0    0 -0.91811888237E+03 -0.21855804074E+02 -0.54602425308E+03  0.13690518155E+04  0.85600258769E+03 0.  0.
        -24    2    4    4    0    0 -0.18678674956E+03 -0.29678580359E+03  0.75841590821E+02  0.36759163451E+03  0.80003498950E+02 0.  0.
         24    2    4    4    0    0 -0.73133213281E+03  0.27492999951E+03 -0.62186584390E+03  0.10014601810E+04  0.75974818902E+02 0.  0.
         11    1    3    3    0    0  0.66261721875E+02 -0.21987051724E+02  0.10529080145E+03  0.12633368157E+03  0.00000000000E+00 0. -1.
        -11    1    3    3    0    0  0.85185716050E+03  0.43842855798E+02  0.14897789928E+04  0.17166899153E+04  0.00000000000E+00 0.  1.
          4    1    6    6  502    0 -0.62928987899E+03  0.23082009194E+03 -0.56471221063E+03  0.87646080773E+03  0.00000000000E+00 0. -1.
          1    1    5    5  503    0 -0.14391912176E+03 -0.25941247089E+03  0.37543732946E+02  0.29902688098E+03  0.00000000000E+00 0. -1.
         -2    1    5    5    0  503 -0.42867627793E+02 -0.37373332692E+02  0.38297857875E+02  0.68564753532E+02  0.00000000000E+00 0.  1.
         -3    1    6    6    0  502 -0.10204225382E+03  0.44109907572E+02 -0.57153633268E+02  0.12499937323E+03  0.00000000000E+00 0.  1.
<mgrwt>
<rscale>  0 0.30359400E+04</rscale>
<asrwt>0</asrwt>
<pdfrwt beam="1">  1        2 0.32777854E+00 0.30359400E+04</pdfrwt>
<pdfrwt beam="2">  1       -2 0.16638691E+00 0.30359400E+04</pdfrwt>
<totfact> 0.10907581E+00</totfact>
</mgrwt>
</event>
<event>
12    1  0.1494110E-007  0.2582557E+04  0.7818608E-02  0.8374150E-01
         -2   -1    0    0    0  501 -0.00000000000E+00  0.00000000000E+00  0.81586243938E+03  0.81586243938E+03  0.00000000000E+00 0.  1.
          2   -1    0    0  501    0  0.00000000000E+00 -0.00000000000E+00 -0.20437275508E+04  0.20437275508E+04  0.00000000000E+00 0. -1.
         23    2    1    2    0    0 -0.51524645640E+02  0.11045535087E+04 -0.78723174897E+03  0.13603830671E+04  0.90636747618E+02 0.  0.
        254    2    1    2    0    0  0.51524645640E+02 -0.11045535087E+04 -0.44063336242E+03  0.14992069230E+04  0.91146606917E+03 0.  0.
        -24    2    4    4    0    0  0.15662750631E+03 -0.54084394866E+03 -0.66800037383E+03  0.87725216073E+03  0.79388295867E+02 0.  0.
         24    2    4    4    0    0 -0.10510286067E+03 -0.56370956004E+03  0.22736701142E+03  0.62195476229E+03  0.79478859144E+02 0.  0.
         13    1    3    3    0    0 -0.49134575307E+01  0.21938827921E+03 -0.11384561504E+03  0.24721687479E+03  0.00000000000E+00 0. -1.
        -13    1    3    3    0    0 -0.46611188110E+02  0.88516522949E+03 -0.67338613394E+03  0.11131661923E+04  0.00000000000E+00 0.  1.
          2    1    6    6  502    0 -0.10991078252E+03 -0.49225854557E+03  0.21893772929E+03  0.54984778358E+03  0.00000000000E+00 0. -1.
          1    1    5    5  503    0  0.46853317354E+02 -0.20565524076E+03 -0.30768659192E+03  0.37304202209E+03  0.00000000000E+00 0. -1.
         -2    1    5    5    0  503  0.10977418896E+03 -0.33518870790E+03 -0.36031378192E+03  0.50421013864E+03  0.00000000000E+00 0.  1.
         -1    1    6    6    0  502  0.48079218533E+01 -0.71451014471E+02  0.84292821310E+01  0.72106978710E+02  0.00000000000E+00 0.  1.
<mgrwt>
<rscale>  0 0.25825573E+04</rscale>
<asrwt>0</asrwt>
<pdfrwt beam="1">  1        2 0.31441962E+00 0.25825573E+04</pdfrwt>
<pdfrwt beam="2">  1       -2 0.12551730E+00 0.25825573E+04</pdfrwt>
<totfact> 0.26552797E+00</totfact>
</mgrwt>
</event>
<event>
12    1  0.1494110E-007  0.1862296E+04  0.7818608E-02  0.8673855E-01
         -2   -1    0    0    0  501 -0.00000000000E+00  0.00000000000E+00  0.10112144865E+04  0.10112144865E+04  0.00000000000E+00 0. -1.
          2   -1    0    0  501    0  0.00000000000E+00 -0.00000000000E+00 -0.85742066096E+03  0.85742066096E+03  0.00000000000E+00 0.  1.
         23    2    1    2    0    0 -0.13340710502E+03 -0.60429461771E+03 -0.28859365034E+03  0.68880913554E+03  0.90566492286E+02 0.  0.
        254    2    1    2    0    0  0.13340710502E+03  0.60429461771E+03  0.44238747588E+03  0.11798260119E+04  0.90183884310E+03 0.  0.
        -24    2    4    4    0    0  0.38123558863E+03  0.68649235891E+03  0.20101753150E+03  0.81520631714E+03  0.86838693354E+02 0.  0.
         24    2    4    4    0    0 -0.24782848361E+03 -0.82197741193E+02  0.24136994438E+03  0.36461969477E+03  0.80700965415E+02 0.  0.
         13    1    3    3    0    0 -0.11127709146E+03 -0.30141886849E+03 -0.13529330974E+03  0.34862616802E+03  0.00000000000E+00 0. -1.
        -13    1    3    3    0    0 -0.22130013560E+02 -0.30287574922E+03 -0.15330034059E+03  0.34018296752E+03  0.00000000000E+00 0.  1.
          4    1    6    6  502    0 -0.11521094168E+03  0.17472219264E+01  0.11858587966E+03  0.16534577322E+03  0.00000000000E+00 0. -1.
          1    1    5    5  503    0  0.16890897184E+03  0.32402118582E+03  0.13716594670E+03  0.39030048240E+03  0.00000000000E+00 0. -1.
         -2    1    5    5    0  503  0.21232661680E+03  0.36247117309E+03  0.63851584802E+02  0.42490583475E+03  0.00000000000E+00 0.  1.
         -3    1    6    6    0  502 -0.13261754193E+03 -0.83944963119E+02  0.12278406472E+03  0.19927392155E+03  0.00000000000E+00 0.  1.
<mgrwt>
<rscale>  0 0.18622956E+04</rscale>
<asrwt>0</asrwt>
<pdfrwt beam="1">  1        2 0.13191087E+00 0.18622956E+04</pdfrwt>
<pdfrwt beam="2">  1       -2 0.15557146E+00 0.18622956E+04</pdfrwt>
<totfact> 0.80055269E+00</totfact>
</mgrwt>
</event>
<event>
12    1  0.1917517E-007  0.1402159E+04  0.7818608E-02  0.8952257E-01
          2   -1    0    0  501    0  0.00000000000E+00  0.00000000000E+00  0.16238804176E+04  0.16238804176E+04  0.00000000000E+00 0.  1.
         -2   -1    0    0    0  501 -0.00000000000E+00 -0.00000000000E+00 -0.30267794992E+03  0.30267794992E+03  0.00000000000E+00 0. -1.
         23    2    1    2    0    0 -0.74556975070E+02 -0.32416546228E+03  0.70383852100E+03  0.78397536958E+03  0.92664594102E+02 0.  0.
        254    2    1    2    0    0  0.74556975070E+02  0.32416546228E+03  0.61736394664E+03  0.11425829979E+04  0.90206190198E+03 0.  0.
        -24    2    4    4    0    0  0.18052467053E+03  0.35348764908E+03 -0.96220702677E+02  0.41628742354E+03  0.80586107062E+02 0.  0.
         24    2    4    4    0    0 -0.10596769546E+03 -0.29322186799E+02  0.71358464932E+03  0.72629557435E+03  0.78824275847E+02 0.  0.
         13    1    3    3    0    0 -0.31571004110E+02 -0.18456794924E+03  0.49406499552E+03  0.52835809446E+03  0.00000000000E+00 0. -1.
        -13    1    3    3    0    0 -0.42985970960E+02 -0.13959751304E+03  0.20977352548E+03  0.25561727511E+03  0.00000000000E+00 0.  1.
          2    1    6    6  502    0 -0.94073248732E+01  0.12673949890E+02  0.24046399988E+02  0.28763798766E+02  0.00000000000E+00 0. -1.
          1    1    5    5  503    0 -0.32752277592E+01  0.17648366517E+02  0.77866939141E+01  0.19565902987E+02  0.00000000000E+00 0. -1.
         -2    1    5    5    0  503  0.18379989829E+03  0.33583928256E+03 -0.10400739659E+03  0.39672152055E+03  0.00000000000E+00 0.  1.
         -1    1    6    6    0  502 -0.96560370590E+02 -0.41996136689E+02  0.68953824933E+03  0.69753177559E+03  0.00000000000E+00 0.  1.
<mgrwt>
<rscale>  0 0.14021595E+04</rscale>
<asrwt>0</asrwt>
<pdfrwt beam="1">  1        2 0.24982775E+00 0.14021595E+04</pdfrwt>
<pdfrwt beam="2">  1       -2 0.46565839E-01 0.14021595E+04</pdfrwt>
<totfact> 0.46002245E+01</totfact>
</mgrwt>
</event>
<event>
12    1  0.1494110E-007  0.4981703E+04  0.7818608E-02  0.7831336E-01
         -1   -1    0    0    0  501 -0.00000000000E+00  0.00000000000E+00  0.22048711076E+04  0.22048711076E+04  0.00000000000E+00 0.  1.
          1   -1    0    0  501    0  0.00000000000E+00 -0.00000000000E+00 -0.28139247392E+04  0.28139247392E+04  0.00000000000E+00 0. -1.
         23    2    1    2    0    0  0.12703585912E+04 -0.18918403480E+04  0.49290515987E+03  0.23332255547E+04  0.90084070428E+02 0.  0.
        254    2    1    2    0    0 -0.12703585912E+04  0.18918403480E+04 -0.11019587914E+04  0.26855702921E+04  0.89727574543E+03 0.  0.
        -24    2    4    4    0    0 -0.25382118126E+03  0.27102173422E+03 -0.59291695707E+03  0.70416730637E+03  0.80144275541E+02 0.  0.
         24    2    4    4    0    0 -0.10165374099E+04  0.16208186138E+04 -0.50904183434E+03  0.19814029857E+04  0.80205474857E+02 0.  0.
         11    1    3    3    0    0  0.10906212270E+03 -0.16285332590E+03  0.16829694409E+02  0.19672059114E+03  0.00000000000E+00 0. -1.
        -11    1    3    3    0    0  0.11612964685E+04 -0.17289870221E+04  0.47607546546E+03  0.21365049635E+04  0.00000000000E+00 0.  1.
          2    1    6    6  502    0 -0.34510028717E+02  0.72634750116E+02 -0.35236628113E+02  0.87797317540E+02  0.00000000000E+00 0. -1.
          3    1    5    5  503    0 -0.99648267121E+02  0.16211352698E+03 -0.32076064244E+03  0.37295839246E+03  0.00000000000E+00 0. -1.
         -2    1    5    5    0  503 -0.15417291414E+03  0.10890820725E+03 -0.27215631463E+03  0.33120891391E+03  0.00000000000E+00 0.  1.
         -1    1    6    6    0  502 -0.98202738119E+03  0.15481838637E+04 -0.47380520622E+03  0.18936056682E+04  0.00000000000E+00 0.  1.
<mgrwt>
<rscale>  0 0.49817031E+04</rscale>
<asrwt>0</asrwt>
<pdfrwt beam="1">  1        1 0.43291150E+00 0.49817031E+04</pdfrwt>
<pdfrwt beam="2">  1       -1 0.33921094E+00 0.49817031E+04</pdfrwt>
<totfact> 0.10784760E-02</totfact>
</mgrwt>
</event>
<event>
12    1  0.1494110E-007  0.1330293E+04  0.7818608E-02  0.9005882E-01
         -2   -1    0    0    0  501 -0.00000000000E+00  0.00000000000E+00  0.36342444418E+03  0.36342444418E+03  0.00000000000E+00 0.  1.
          2   -1    0    0  501    0  0.00000000000E+00 -0.00000000000E+00 -0.12173635022E+04  0.12173635022E+04  0.00000000000E+00 0. -1.
         23    2    1    2    0    0  0.11614997610E+02  0.11152928492E+03 -0.63362562686E+03  0.64970196923E+03  0.89763713361E+02 0.  0.
        254    2    1    2    0    0 -0.11614997610E+02 -0.11152928492E+03 -0.22031343120E+03  0.93108597719E+03  0.89766886957E+03 0.  0.
        -24    2    4    4    0    0 -0.15203619819E+03 -0.47505951398E+03 -0.16085871569E+03  0.52992850854E+03  0.78435644754E+02 0.  0.
         24    2    4    4    0    0  0.14042120058E+03  0.36353022905E+03 -0.59454715519E+02  0.40115746865E+03  0.74297445785E+02 0.  0.
         11    1    3    3    0    0  0.11472430261E+02  0.84190375201E+02 -0.60170131180E+03  0.60767104963E+03  0.00000000000E+00 0. -1.
        -11    1    3    3    0    0  0.14256734876E+00  0.27338909723E+02 -0.31924315063E+02  0.42030919602E+02  0.00000000000E+00 0.  1.
          4    1    6    6  502    0  0.64345463163E+02  0.11444867258E+03  0.98137827020E+01  0.13166300777E+03  0.00000000000E+00 0. -1.
          1    1    5    5  503    0 -0.54698947159E+02 -0.78444074744E+02 -0.18234057804E+02  0.97354653442E+02  0.00000000000E+00 0. -1.
         -2    1    5    5    0  503 -0.97337251032E+02 -0.39661543923E+03 -0.14262465788E+03  0.43257385510E+03  0.00000000000E+00 0.  1.
         -3    1    6    6    0  502  0.76075737418E+02  0.24908155647E+03 -0.69268498221E+02  0.26949446088E+03  0.00000000000E+00 0.  1.
<mgrwt>
<rscale>  0 0.13302927E+04</rscale>
<asrwt>0</asrwt>
<pdfrwt beam="1">  1        2 0.18728669E+00 0.13302927E+04</pdfrwt>
<pdfrwt beam="2">  1       -2 0.55911453E-01 0.13302927E+04</pdfrwt>
<totfact> 0.54339598E+01</totfact>
</mgrwt>
</event>
<event>
12    1  0.1494110E-007  0.1565781E+04  0.7818608E-02  0.8841851E-01
          1   -1    0    0  501    0  0.00000000000E+00  0.00000000000E+00  0.17593283638E+04  0.17593283638E+04  0.00000000000E+00 0. -1.
         -1   -1    0    0    0  501 -0.00000000000E+00 -0.00000000000E+00 -0.34838134068E+03  0.34838134068E+03  0.00000000000E+00 0.  1.
         23    2    1    2    0    0 -0.25787910241E+03  0.17390647855E+03 -0.92607847124E+02  0.33676052889E+03  0.89924110923E+02 0.  0.
        254    2    1    2    0    0  0.25787910241E+03 -0.17390647855E+03  0.15035548702E+04  0.17709491756E+04  0.88251835107E+03 0.  0.
        -24    2    4    4    0    0 -0.16239207931E+03  0.15821463519E+03  0.90653204934E+02  0.25750373538E+03  0.81774763582E+02 0.  0.
         24    2    4    4    0    0  0.42027118172E+03 -0.33212111374E+03  0.14129016653E+04  0.15134454402E+04  0.85403069760E+02 0.  0.
         13    1    3    3    0    0 -0.10497974478E+03  0.93514998345E+02 -0.84058435862E+02  0.16380360915E+03  0.00000000000E+00 0. -1.
        -13    1    3    3    0    0 -0.15289935763E+03  0.80391480200E+02 -0.85494112617E+01  0.17295691974E+03  0.00000000000E+00 0.  1.
          4    1    6    6  502    0  0.41636095818E+03 -0.31065801467E+03  0.13726377761E+04  0.14676509510E+04  0.00000000000E+00 0. -1.
          1    1    5    5  503    0 -0.15868093083E+03  0.13010127396E+03  0.99156403537E+02  0.22789903830E+03  0.00000000000E+00 0. -1.
         -2    1    5    5    0  503 -0.37111484779E+01  0.28113361232E+02 -0.85031986030E+01  0.29604697081E+02  0.00000000000E+00 0.  1.
         -3    1    6    6    0  502  0.39102235415E+01 -0.21463099062E+02  0.40263889206E+02  0.45794489226E+02  0.00000000000E+00 0.  1.
<mgrwt>
<rscale>  0 0.15657805E+04</rscale>
<asrwt>0</asrwt>
<pdfrwt beam="1">  1        1 0.27066590E+00 0.15657805E+04</pdfrwt>
<pdfrwt beam="2">  1       -1 0.53597130E-01 0.15657805E+04</pdfrwt>
<totfact> 0.14677427E+01</totfact>
</mgrwt>
</event>
<event>
12    1  0.1494110E-007  0.1920221E+04  0.7818608E-02  0.8644856E-01
         -2   -1    0    0    0  501 -0.00000000000E+00  0.00000000000E+00  0.57959871442E+03  0.57959871442E+03  0.00000000000E+00 0.  1.
          2   -1    0    0  501    0  0.00000000000E+00 -0.00000000000E+00 -0.15904316227E+04  0.15904316227E+04  0.00000000000E+00 0. -1.
         23    2    1    2    0    0 -0.36145870782E+03  0.12739640612E+03 -0.11901545529E+04  0.12537422025E+04  0.92300643237E+02 0.  0.
        254    2    1    2    0    0  0.36145870782E+03 -0.12739640612E+03  0.17932164456E+03  0.91628813470E+03  0.81273947353E+03 0.  0.
        -24    2    4    4    0    0  0.37735961713E+03 -0.43380498323E+03  0.10770815398E+03  0.59095973350E+03  0.83936381124E+02 0.  0.
         24    2    4    4    0    0 -0.15900909313E+02  0.30640857711E+03  0.71613490579E+02  0.32532840120E+03  0.81061837816E+02 0.  0.
         11    1    3    3    0    0 -0.36108373299E+03  0.12226103150E+03 -0.11141813166E+04  0.11775946791E+04  0.00000000000E+00 0. -1.
        -11    1    3    3    0    0 -0.37497482959E+00  0.51353746211E+01 -0.75973236306E+02  0.76147523357E+02  0.00000000000E+00 0.  1.
          2    1    6    6  502    0  0.28864187693E+02  0.74326330753E+02  0.56389320187E+01  0.79933361800E+02  0.00000000000E+00 0. -1.
          1    1    5    5  503    0  0.15160897105E+01  0.26357583945E+01  0.50793808562E+01  0.59199544092E+01  0.00000000000E+00 0. -1.
         -2    1    5    5    0  503  0.37584352742E+03 -0.43644074162E+03  0.10262877312E+03  0.58503977910E+03  0.00000000000E+00 0.  1.
         -1    1    6    6    0  502 -0.44765097007E+02  0.23208224635E+03  0.65974558560E+02  0.24539503940E+03  0.00000000000E+00 0.  1.
<mgrwt>
<rscale>  0 0.19202209E+04</rscale>
<asrwt>0</asrwt>
<pdfrwt beam="1">  1        2 0.24468179E+00 0.19202209E+04</pdfrwt>
<pdfrwt beam="2">  1       -2 0.89169034E-01 0.19202209E+04</pdfrwt>
<totfact> 0.11398353E+01</totfact>
</mgrwt>
</event>
<event>
12    1  0.1494110E-007  0.2289451E+04  0.7818608E-02  0.8482092E-01
          2   -1    0    0  501    0  0.00000000000E+00  0.00000000000E+00  0.16972608844E+04  0.16972608844E+04  0.00000000000E+00 0. -1.
         -2   -1    0    0    0  501 -0.00000000000E+00 -0.00000000000E+00 -0.77206531843E+03  0.77206531843E+03  0.00000000000E+00 0.  1.
         23    2    1    2    0    0  0.25654746670E+03  0.42512217078E+03 -0.50192767301E+03  0.71191814499E+03  0.91381581731E+02 0.  0.
        254    2    1    2    0    0 -0.25654746670E+03 -0.42512217078E+03  0.14271232390E+04  0.17574080578E+04  0.89736106431E+03 0.  0.
        -24    2    4    4    0    0  0.31787842091E+03 -0.22141432206E+03  0.70404798618E+03  0.80768468909E+03  0.81240369609E+02 0.  0.
         24    2    4    4    0    0 -0.57442588761E+03 -0.20370784872E+03  0.72307525278E+03  0.94972336873E+03  0.87605182147E+02 0.  0.
         11    1    3    3    0    0  0.12246324990E+03  0.26724403283E+03 -0.25102003698E+03  0.38655876607E+03  0.00000000000E+00 0.  1.
        -11    1    3    3    0    0  0.13408421680E+03  0.15787813796E+03 -0.25090763602E+03  0.32535937892E+03  0.00000000000E+00 0. -1.
          4    1    6    6  502    0 -0.24840746186E+02 -0.67316814151E+01  0.65515718899E+02  0.70389542040E+02  0.00000000000E+00 0. -1.
          1    1    5    5  503    0  0.48012600115E+02 -0.73868430409E+02  0.16614057743E+03  0.18805437047E+03  0.00000000000E+00 0. -1.
         -2    1    5    5    0  503  0.26986582080E+03 -0.14754589165E+03  0.53790740874E+03  0.61963031863E+03  0.00000000000E+00 0.  1.
         -3    1    6    6    0  502 -0.54958514142E+03 -0.19697616731E+03  0.65755953388E+03  0.87933382669E+03  0.00000000000E+00 0.  1.
<mgrwt>
<rscale>  0 0.22894508E+04</rscale>
<asrwt>0</asrwt>
<pdfrwt beam="1">  1        2 0.26111706E+00 0.22894508E+04</pdfrwt>
<pdfrwt beam="2">  1       -2 0.11877928E+00 0.22894508E+04</pdfrwt>
<totfact> 0.48644306E+00</totfact>
</mgrwt>
</event>
<event>
12    1  0.1494110E-007  0.2189570E+04  0.7818608E-02  0.8522782E-01
          2   -1    0    0  501    0  0.00000000000E+00  0.00000000000E+00  0.17381892225E+04  0.17381892225E+04  0.00000000000E+00 0.  1.
         -2   -1    0    0    0  501 -0.00000000000E+00 -0.00000000000E+00 -0.68954156502E+03  0.68954156502E+03  0.00000000000E+00 0. -1.
         23    2    1    2    0    0 -0.14010018515E+03 -0.66530356903E+03 -0.22976479697E+03  0.72398288165E+03  0.95406761548E+02 0.  0.
        254    2    1    2    0    0  0.14010018515E+03  0.66530356903E+03  0.12784124545E+04  0.17037479059E+04  0.89786503566E+03 0.  0.
        -24    2    4    4    0    0  0.30988028471E+02  0.49798612600E+03  0.13772728328E+04  0.14671827519E+04  0.82427737861E+02 0.  0.
         24    2    4    4    0    0  0.10911215668E+03  0.16731744302E+03 -0.98860378289E+02  0.23656515401E+03  0.79303897896E+02 0.  0.
         13    1    3    3    0    0 -0.47770345928E+02 -0.29421214001E+03 -0.14862290896E+03  0.33306389529E+03  0.00000000000E+00 0. -1.
        -13    1    3    3    0    0 -0.92329839223E+02 -0.37109142902E+03 -0.81141888006E+02  0.39091898636E+03  0.00000000000E+00 0.  1.
          2    1    6    6  502    0 -0.51733675192E+01  0.27034542032E+02  0.49367568706E+01  0.27964294427E+02  0.00000000000E+00 0. -1.
          1    1    5    5  503    0  0.48684899401E+02  0.24642930753E+03  0.61679259991E+03  0.66598103152E+03  0.00000000000E+00 0. -1.
         -2    1    5    5    0  503 -0.17696870930E+02  0.25155681847E+03  0.76048023286E+03  0.80120172038E+03  0.00000000000E+00 0.  1.
         -1    1    6    6    0  502  0.11428552420E+03  0.14028290099E+03 -0.10379713516E+03  0.20860085958E+03  0.00000000000E+00 0.  1.
<mgrwt>
<rscale>  0 0.21895696E+04</rscale>
<asrwt>0</asrwt>
<pdfrwt beam="1">  1        2 0.26741372E+00 0.21895696E+04</pdfrwt>
<pdfrwt beam="2">  1       -2 0.10608332E+00 0.21895696E+04</pdfrwt>
<totfact> 0.61271991E+00</totfact>
</mgrwt>
</event>
<event>
12    1  0.1494110E-007  0.2062069E+04  0.7818608E-02  0.8578139E-01
          1   -1    0    0  501    0  0.00000000000E+00  0.00000000000E+00  0.22565886537E+04  0.22565886537E+04  0.00000000000E+00 0. -1.
         -1   -1    0    0    0  501 -0.00000000000E+00 -0.00000000000E+00 -0.47107907286E+03  0.47107907286E+03  0.00000000000E+00 0.  1.
         23    2    1    2    0    0 -0.58764885071E+03 -0.18675320874E+03  0.14732779912E+04  0.15997165088E+04  0.91306825615E+02 0.  0.
        254    2    1    2    0    0  0.58764885071E+03  0.18675320874E+03  0.31223158965E+03  0.11279512178E+04  0.89139074003E+03 0.  0.
        -24    2    4    4    0    0  0.13511430192E+03  0.31630785020E+03 -0.21739757119E+03  0.41510230125E+03  0.82107769823E+02 0.  0.
         24    2    4    4    0    0  0.45253454879E+03 -0.12955464146E+03  0.52962916084E+03  0.71284891654E+03  0.77939764074E+02 0.  0.
         11    1    3    3    0    0 -0.38084315511E+03 -0.10817690165E+03  0.10489956900E+04  0.11212206333E+04  0.00000000000E+00 0.  1.
        -11    1    3    3    0    0 -0.20680569560E+03 -0.78576307090E+02  0.42428230126E+03  0.47849587556E+03  0.00000000000E+00 0. -1.
          2    1    6    6  502    0  0.24072595629E+03 -0.28517180122E+02  0.27377546656E+03  0.36567091993E+03  0.00000000000E+00 0. -1.
          3    1    5    5  503    0  0.10095570839E+03  0.19004362456E+03 -0.17570736117E+03  0.27781596617E+03  0.00000000000E+00 0. -1.
         -4    1    5    5    0  503  0.34158593536E+02  0.12626422563E+03 -0.41690210021E+02  0.13728633508E+03  0.00000000000E+00 0.  1.
         -1    1    6    6    0  502  0.21180859250E+03 -0.10103746133E+03  0.25585369428E+03  0.34717799660E+03  0.00000000000E+00 0.  1.
<mgrwt>
<rscale>  0 0.20620686E+04</rscale>
<asrwt>0</asrwt>
<pdfrwt beam="1">  1        1 0.34716748E+00 0.20620686E+04</pdfrwt>
<pdfrwt beam="2">  1       -1 0.72473705E-01 0.20620686E+04</pdfrwt>
<totfact> 0.35315137E+00</totfact>
</mgrwt>
</event>
<event>
12    1  0.1494110E-007  0.1841119E+04  0.7818608E-02  0.8684733E-01
          2   -1    0    0  501    0  0.00000000000E+00  0.00000000000E+00  0.72655710515E+03  0.72655710515E+03  0.00000000000E+00 0. -1.
         -2   -1    0    0    0  501 -0.00000000000E+00 -0.00000000000E+00 -0.11663636849E+04  0.11663636849E+04  0.00000000000E+00 0.  1.
         23    2    1    2    0    0  0.18745745753E+03 -0.63881045040E+03  0.86876082320E+02  0.67763355819E+03  0.91764348094E+02 0.  0.
        254    2    1    2    0    0 -0.18745745753E+03  0.63881045040E+03 -0.52668266204E+03  0.12152872318E+04  0.86966047366E+03 0.  0.
        -24    2    4    4    0    0 -0.40298567091E+03  0.53075435890E+03 -0.47578874890E+02  0.67301140875E+03  0.81135482482E+02 0.  0.
         24    2    4    4    0    0  0.21552821338E+03  0.10805609150E+03 -0.47910378715E+03  0.54227582308E+03  0.79963115039E+02 0.  0.
         11    1    3    3    0    0  0.17774750707E+03 -0.48328625843E+03  0.48953083900E+02  0.51725833805E+03  0.00000000000E+00 0. -1.
        -11    1    3    3    0    0  0.97099504567E+01 -0.15552419197E+03  0.37922998420E+02  0.16037522014E+03  0.00000000000E+00 0.  1.
          4    1    6    6  502    0  0.20709131075E+03  0.11751250184E+03 -0.46931394332E+03  0.52626188962E+03  0.00000000000E+00 0. -1.
          3    1    5    5  503    0 -0.32928564079E+03  0.39606047101E+03 -0.11037213977E+02  0.51518419038E+03  0.00000000000E+00 0. -1.
         -4    1    5    5    0  503 -0.73700030124E+02  0.13469388790E+03 -0.36541660913E+02  0.15782721837E+03  0.00000000000E+00 0.  1.
         -3    1    6    6    0  502  0.84369026355E+01 -0.94564103435E+01 -0.97898438301E+01  0.16013933461E+02  0.00000000000E+00 0.  1.
<mgrwt>
<rscale>  0 0.18411190E+04</rscale>
<asrwt>0</asrwt>
<pdfrwt beam="1">  1        2 0.11177802E+00 0.18411190E+04</pdfrwt>
<pdfrwt beam="2">  1       -2 0.17944057E+00 0.18411190E+04</pdfrwt>
<totfact> 0.67216642E+00</totfact>
</mgrwt>
</event>
<event>
12    1  0.1494110E-007  0.1561410E+04  0.7818608E-02  0.8844612E-01
          2   -1    0    0  501    0  0.00000000000E+00  0.00000000000E+00  0.14036718558E+04  0.14036718558E+04  0.00000000000E+00 0.  1.
         -2   -1    0    0    0  501 -0.00000000000E+00 -0.00000000000E+00 -0.43421867095E+03  0.43421867095E+03  0.00000000000E+00 0. -1.
         23    2    1    2    0    0  0.44328693170E+02 -0.36139500968E+03 -0.10228787012E+03  0.39131417977E+03  0.10046189753E+03 0.  0.
        254    2    1    2    0    0 -0.44328693170E+02  0.36139500968E+03  0.10717410550E+04  0.14465763470E+04  0.90076792387E+03 0.  0.
        -24    2    4    4    0    0  0.90044586844E+02 -0.16007476632E+03  0.82477352606E+03  0.84887802286E+03  0.81305411761E+02 0.  0.
         24    2    4    4    0    0 -0.13437328001E+03  0.52146977600E+03  0.24696752890E+03  0.59769832411E+03  0.79141775621E+02 0.  0.
         13    1    3    3    0    0 -0.32398778864E+02 -0.12707385274E+03 -0.34428287274E+02  0.13558300737E+03  0.00000000000E+00 0. -1.
        -13    1    3    3    0    0  0.76727472034E+02 -0.23432115694E+03 -0.67859582843E+02  0.25573117240E+03  0.00000000000E+00 0.  1.
          2    1    6    6  502    0 -0.79239841282E+02  0.21590651007E+03  0.14022539951E+03  0.26936543246E+03  0.00000000000E+00 0. -1.
          1    1    5    5  503    0 -0.28062899795E+01 -0.67540234453E+02  0.22442946380E+03  0.23438887080E+03  0.00000000000E+00 0. -1.
         -2    1    5    5    0  503  0.92850876824E+02 -0.92534531868E+02  0.60034406225E+03  0.61448915206E+03  0.00000000000E+00 0.  1.
         -1    1    6    6    0  502 -0.55133438733E+02  0.30556326593E+03  0.10674212940E+03  0.32833289165E+03  0.00000000000E+00 0.  1.
<mgrwt>
<rscale>  0 0.15614103E+04</rscale>
<asrwt>0</asrwt>
<pdfrwt beam="1">  1        2 0.21594951E+00 0.15614103E+04</pdfrwt>
<pdfrwt beam="2">  1       -2 0.66802873E-01 0.15614103E+04</pdfrwt>
<totfact> 0.28500737E+01</totfact>
</mgrwt>
</event>
<event>
12    1  0.1494110E-007  0.1632918E+04  0.7818608E-02  0.8800576E-01
          2   -1    0    0  501    0  0.00000000000E+00  0.00000000000E+00  0.16389389954E+04  0.16389389954E+04  0.00000000000E+00 0. -1.
         -2   -1    0    0    0  501 -0.00000000000E+00 -0.00000000000E+00 -0.40672985376E+03  0.40672985376E+03  0.00000000000E+00 0.  1.
         23    2    1    2    0    0  0.15925294579E+03 -0.17241797034E+03 -0.21156997998E+03  0.32917705103E+03  0.92229156211E+02 0.  0.
        254    2    1    2    0    0 -0.15925294579E+03  0.17241797034E+03  0.14437791217E+04  0.17164917982E+04  0.89819623900E+03 0.  0.
        -24    2    4    4    0    0 -0.78893258297E+02  0.62053557748E+01  0.15027998560E+04  0.15070490238E+04  0.80787996263E+02 0.  0.
         24    2    4    4    0    0 -0.80359687493E+02  0.16621261457E+03 -0.59020734297E+02  0.20944277439E+03  0.79363190780E+02 0.  0.
         11    1    3    3    0    0  0.12752354473E+03 -0.13043883413E+03 -0.10539269248E+03  0.21067549345E+03  0.00000000000E+00 0. -1.
        -11    1    3    3    0    0  0.31729401058E+02 -0.41979136209E+02 -0.10617728750E+03  0.11850155758E+03  0.00000000000E+00 0.  1.
          4    1    6    6  502    0 -0.62207796161E+02  0.74289275195E+02  0.32320329730E+01  0.96949225626E+02  0.00000000000E+00 0. -1.
          1    1    5    5  503    0 -0.61290510835E+02  0.17725802867E+02  0.14258055371E+04  0.14272323429E+04  0.00000000000E+00 0. -1.
         -2    1    5    5    0  503 -0.17602747462E+02 -0.11520447092E+02  0.76994318820E+02  0.79816680901E+02  0.00000000000E+00 0.  1.
         -3    1    6    6    0  502 -0.18151891332E+02  0.91923339370E+02 -0.62252767270E+02  0.11249354876E+03  0.00000000000E+00 0.  1.
<mgrwt>
<rscale>  0 0.16329181E+04</rscale>
<asrwt>0</asrwt>
<pdfrwt beam="1">  1        2 0.25214446E+00 0.16329181E+04</pdfrwt>
<pdfrwt beam="2">  1       -2 0.62573825E-01 0.16329181E+04</pdfrwt>
<totfact> 0.24028062E+01</totfact>
</mgrwt>
</event>
<event>
12    1  0.1519569E-007  0.2380647E+04  0.7818608E-02  0.8446785E-01
         -2   -1    0    0    0  501 -0.00000000000E+00  0.00000000000E+00  0.11570170711E+04  0.11570170711E+04  0.00000000000E+00 0.  1.
          2   -1    0    0  501    0  0.00000000000E+00 -0.00000000000E+00 -0.12245886610E+04  0.12245886610E+04  0.00000000000E+00 0. -1.
         23    2    1    2    0    0 -0.91761262610E+03  0.74944841339E+02  0.40384611987E+03  0.10095156208E+04  0.91653910681E+02 0.  0.
        254    2    1    2    0    0  0.91761262610E+03 -0.74944841339E+02 -0.47141770975E+03  0.13720901113E+04  0.90153588698E+03 0.  0.
        -24    2    4    4    0    0  0.10670408375E+04 -0.21589200065E+02 -0.51541279089E+03  0.11879168861E+04  0.80336422560E+02 0.  0.
         24    2    4    4    0    0 -0.14942821144E+03 -0.53355641273E+02  0.43995081140E+02  0.18417322512E+03  0.82514210031E+02 0.  0.
         13    1    3    3    0    0 -0.76718183045E+03  0.33465718328E+02  0.35505226332E+03  0.84602010908E+03  0.00000000000E+00 0.  1.
        -13    1    3    3    0    0 -0.15043079565E+03  0.41479123011E+02  0.48793856545E+02  0.16349551175E+03  0.00000000000E+00 0. -1.
          2    1    6    6  502    0 -0.22901185567E+02 -0.18276847402E+01  0.41615066584E+02  0.47535444657E+02  0.00000000000E+00 0. -1.
          3    1    5    5  503    0  0.65031151042E+02 -0.13185256725E+02 -0.49882528729E+02  0.83013060859E+02  0.00000000000E+00 0. -1.
         -4    1    5    5    0  503  0.10020096865E+04 -0.84039433403E+01 -0.46553026217E+03  0.11049038253E+04  0.00000000000E+00 0.  1.
         -1    1    6    6    0  502 -0.12652702588E+03 -0.51527956533E+02  0.23800145560E+01  0.13663778047E+03  0.00000000000E+00 0.  1.
<mgrwt>
<rscale>  0 0.23806470E+04</rscale>
<asrwt>0</asrwt>
<pdfrwt beam="1">  1        2 0.18839825E+00 0.23806470E+04</pdfrwt>
<pdfrwt beam="2">  1       -2 0.17800263E+00 0.23806470E+04</pdfrwt>
<totfact> 0.30875982E+00</totfact>
</mgrwt>
</event>
<event>
12    1  0.1494110E-007  0.1464571E+04  0.7818608E-02  0.8908360E-01
          2   -1    0    0  501    0  0.00000000000E+00  0.00000000000E+00  0.37770755134E+03  0.37770755134E+03  0.00000000000E+00 0. -1.
         -2   -1    0    0    0  501 -0.00000000000E+00 -0.00000000000E+00 -0.14197288363E+04  0.14197288363E+04  0.00000000000E+00 0.  1.
         23    2    1    2    0    0  0.14883101029E+03 -0.37527624159E+03 -0.58144400364E+03  0.71370751757E+03  0.91205066497E+02 0.  0.
        254    2    1    2    0    0 -0.14883101029E+03  0.37527624159E+03 -0.46057728136E+03  0.10837288701E+04  0.89406593978E+03 0.  0.
        -24    2    4    4    0    0  0.27403849163E+03 -0.13282809211E+03 -0.13096840191E+03  0.34069199262E+03  0.78599711127E+02 0.  0.
         24    2    4    4    0    0 -0.42286950192E+03  0.50810433370E+03 -0.32960887945E+03  0.74303687748E+03  0.80455940202E+02 0.  0.
         11    1    3    3    0    0  0.62360436209E+02 -0.15284223481E+03 -0.31764360606E+03  0.35797630259E+03  0.00000000000E+00 0.  1.
        -11    1    3    3    0    0  0.86470574076E+02 -0.22243400678E+03 -0.26380039758E+03  0.35573121498E+03  0.00000000000E+00 0. -1.
          2    1    6    6  502    0 -0.41130602000E+03  0.50847158049E+03 -0.32049156582E+03  0.72830682684E+03  0.00000000000E+00 0. -1.
          3    1    5    5  503    0  0.27615745389E+03 -0.12685595787E+03 -0.11753168080E+03  0.32583595470E+03  0.00000000000E+00 0. -1.
         -4    1    5    5    0  503 -0.21189622589E+01 -0.59721342453E+01 -0.13436721111E+02  0.14856037921E+02  0.00000000000E+00 0.  1.
         -1    1    6    6    0  502 -0.11563481919E+02 -0.36724679102E+00 -0.91173136294E+01  0.14730050649E+02  0.00000000000E+00 0.  1.
<mgrwt>
<rscale>  0 0.14645713E+04</rscale>
<asrwt>0</asrwt>
<pdfrwt beam="1">  1        2 0.58108854E-01 0.14645713E+04</pdfrwt>
<pdfrwt beam="2">  1       -2 0.21841982E+00 0.14645713E+04</pdfrwt>
<totfact> 0.83070711E+00</totfact>
</mgrwt>
</event>
<event>
12    1  0.2432419E-007  0.1531247E+04  0.7818608E-02  0.8863936E-01
         -1   -1    0    0    0  501 -0.00000000000E+00  0.00000000000E+00  0.10491204429E+04  0.10491204429E+04  0.00000000000E+00 0.  1.
          1   -1    0    0  501    0  0.00000000000E+00 -0.00000000000E+00 -0.55873386874E+03  0.55873386874E+03  0.00000000000E+00 0. -1.
         23    2    1    2    0    0 -0.18925223527E+03  0.17589797593E+03 -0.27734430131E+03  0.39717817160E+03  0.11863444711E+03 0.  0.
        254    2    1    2    0    0  0.18925223527E+03 -0.17589797593E+03  0.76773087547E+03  0.12106761400E+04  0.89976080845E+03 0.  0.
        -24    2    4    4    0    0 -0.24305706062E+03  0.63940067568E+02 -0.33250903292E+02  0.26595224848E+03  0.80373558748E+02 0.  0.
         24    2    4    4    0    0  0.43230929589E+03 -0.23983804350E+03  0.80098177876E+03  0.94472389156E+03  0.80732936015E+02 0.  0.
         11    1    3    3    0    0 -0.16388575979E+03  0.19242396813E+03 -0.23499725295E+03  0.34512205764E+03  0.00000000000E+00 0. -1.
        -11    1    3    3    0    0 -0.25366475477E+02 -0.16525992207E+02 -0.42347048359E+02  0.52056113966E+02  0.00000000000E+00 0.  1.
          2    1    6    6  502    0  0.41600851227E+03 -0.22960499242E+03  0.79172055352E+03  0.92336502516E+03  0.00000000000E+00 0. -1.
          3    1    5    5  503    0 -0.22784937008E+03  0.76103670500E+02 -0.43212156957E+02  0.24407866482E+03  0.00000000000E+00 0. -1.
         -4    1    5    5    0  503 -0.15207690534E+02 -0.12163602932E+02  0.99612536644E+01  0.21873583662E+02  0.00000000000E+00 0.  1.
         -1    1    6    6    0  502  0.16300783621E+02 -0.10233051071E+02  0.92612252418E+01  0.21358866399E+02  0.00000000000E+00 0.  1.
<mgrwt>
<rscale>  0 0.15312467E+04</rscale>
<asrwt>0</asrwt>
<pdfrwt beam="1">  1        1 0.85959057E-01 0.15312467E+04</pdfrwt>
<pdfrwt beam="2">  1       -1 0.16140314E+00 0.15312467E+04</pdfrwt>
<totfact> 0.10438139E+01</totfact>
</mgrwt>
</event>
<event>
12    1  0.1494110E-007  0.1562634E+04  0.7818608E-02  0.8843838E-01
          2   -1    0    0  501    0  0.00000000000E+00  0.00000000000E+00  0.23073145838E+04  0.23073145838E+04  0.00000000000E+00 0. -1.
         -2   -1    0    0    0  501 -0.00000000000E+00 -0.00000000000E+00 -0.26457423048E+03  0.26457423048E+03  0.00000000000E+00 0.  1.
         23    2    1    2    0    0  0.15642790372E+03 -0.69527499929E+02 -0.11471396252E+03  0.22773623866E+03  0.96957407640E+02 0.  0.
        254    2    1    2    0    0 -0.15642790372E+03  0.69527499929E+02  0.21574543159E+04  0.23441525756E+04  0.90063222824E+03 0.  0.
        -24    2    4    4    0    0  0.35901056261E+03  0.12026851896E+03  0.10540395834E+04  0.11228724109E+04  0.80559959628E+02 0.  0.
         24    2    4    4    0    0 -0.51543846633E+03 -0.50741019028E+02  0.11034147324E+04  0.12212801647E+04  0.75826811585E+02 0.  0.
         13    1    3    3    0    0  0.97939364932E+02  0.57630990738E+01 -0.37426620203E+02  0.10500516375E+03  0.00000000000E+00 0. -1.
        -13    1    3    3    0    0  0.58488538786E+02 -0.75290599003E+02 -0.77287342316E+02  0.12273107492E+03  0.00000000000E+00 0.  1.
          2    1    6    6  502    0 -0.46455490016E+03 -0.25854999834E+02  0.95193641149E+03  0.10595577699E+04  0.00000000000E+00 0. -1.
          1    1    5    5  503    0  0.24824355803E+03  0.77956473002E+02  0.60789944408E+03  0.66124413790E+03  0.00000000000E+00 0. -1.
         -2    1    5    5    0  503  0.11076700458E+03  0.42312045955E+02  0.44614013935E+03  0.46162827305E+03  0.00000000000E+00 0.  1.
         -1    1    6    6    0  502 -0.50883566174E+02 -0.24886019195E+02  0.15147832095E+03  0.16172239479E+03  0.00000000000E+00 0.  1.
<mgrwt>
<rscale>  0 0.15626336E+04</rscale>
<asrwt>0</asrwt>
<pdfrwt beam="1">  1        2 0.35497146E+00 0.15626336E+04</pdfrwt>
<pdfrwt beam="2">  1       -2 0.40703729E-01 0.15626336E+04</pdfrwt>
<totfact> 0.24712319E+01</totfact>
</mgrwt>
</event>
<event>
12    1  0.1494110E-007  0.2554476E+04  0.7818608E-02  0.8383831E-01
         -2   -1    0    0    0  501 -0.00000000000E+00  0.00000000000E+00  0.11298232107E+04  0.11298232107E+04  0.00000000000E+00 0.  1.
          2   -1    0    0  501    0  0.00000000000E+00 -0.00000000000E+00 -0.14438871999E+04  0.14438871999E+04  0.00000000000E+00 0. -1.
         23    2    1    2    0    0 -0.10294728998E+04  0.29122019181E+03  0.16458406981E+03  0.10863538915E+04  0.91941339981E+02 0.  0.
        254    2    1    2    0    0  0.10294728998E+04 -0.29122019181E+03 -0.47864805907E+03  0.14873565191E+04  0.91569743856E+03 0.  0.
        -24    2    4    4    0    0  0.44569810273E+03  0.23363326685E+03 -0.47747100372E+03  0.69822240716E+03  0.79401941519E+02 0.  0.
         24    2    4    4    0    0  0.58377479705E+03 -0.52485345866E+03 -0.11770553546E+01  0.78913411195E+03  0.80418246957E+02 0.  0.
         13    1    3    3    0    0 -0.75905018400E+03  0.25579235871E+03  0.12887508701E+03  0.81129261100E+03  0.00000000000E+00 0.  1.
        -13    1    3    3    0    0 -0.27042271578E+03  0.35427833096E+02  0.35708982794E+02  0.27506128048E+03  0.00000000000E+00 0. -1.
          2    1    6    6  502    0  0.14662933967E+03 -0.11815488599E+03  0.32565383969E+02  0.19110532323E+03  0.00000000000E+00 0. -1.
          1    1    5    5  503    0  0.47012840458E+02 -0.42187909056E+00 -0.39765489934E+02  0.61576613577E+02  0.00000000000E+00 0. -1.
         -2    1    5    5    0  503  0.39868526227E+03  0.23405514594E+03 -0.43770551379E+03  0.63664579358E+03  0.00000000000E+00 0.  1.
         -1    1    6    6    0  502  0.43714545738E+03 -0.40669857267E+03 -0.33742439324E+02  0.59802878872E+03  0.00000000000E+00 0.  1.
<mgrwt>
<rscale>  0 0.25544763E+04</rscale>
<asrwt>0</asrwt>
<pdfrwt beam="1">  1        2 0.22213649E+00 0.25544763E+04</pdfrwt>
<pdfrwt beam="2">  1       -2 0.17381896E+00 0.25544763E+04</pdfrwt>
<totfact> 0.24292251E+00</totfact>
</mgrwt>
</event>
<event>
12    1  0.1494110E-007  0.1098939E+04  0.7818608E-02  0.9206227E-01
         -1   -1    0    0    0  501 -0.00000000000E+00  0.00000000000E+00  0.12722190260E+03  0.12722190260E+03  0.00000000000E+00 0.  1.
          1   -1    0    0  501    0  0.00000000000E+00 -0.00000000000E+00 -0.23731486281E+04  0.23731486281E+04  0.00000000000E+00 0. -1.
         23    2    1    2    0    0  0.47928639701E+02  0.35368329831E+02 -0.35106617954E+02  0.11267812381E+03  0.88970847491E+02 0.  0.
        254    2    1    2    0    0 -0.47928639701E+02 -0.35368329831E+02 -0.22108201075E+04  0.23876924069E+04  0.89988966473E+03 0.  0.
        -24    2    4    4    0    0  0.26017173033E+03  0.10485658793E+02 -0.17062140048E+03  0.32257905572E+03  0.84535830184E+02 0.  0.
         24    2    4    4    0    0 -0.30810037003E+03 -0.45853988624E+02 -0.20401987070E+04  0.20651133511E+04  0.72484222769E+02 0.  0.
         13    1    3    3    0    0  0.62895270969E+02 -0.52854367157E+01 -0.26783406172E+02  0.68564581218E+02  0.00000000000E+00 0.  1.
        -13    1    3    3    0    0 -0.14966631267E+02  0.40653766547E+02 -0.83232117828E+01  0.44113542595E+02  0.00000000000E+00 0. -1.
          4    1    6    6  502    0 -0.60737416129E+02 -0.13576617788E+02 -0.62552419086E+03  0.62861265627E+03  0.00000000000E+00 0. -1.
          1    1    5    5  503    0  0.77750921717E+02  0.10203043955E+02 -0.91316364277E+01  0.78947417423E+02  0.00000000000E+00 0. -1.
         -2    1    5    5    0  503  0.18242080861E+03  0.28261483800E+00 -0.16148976406E+03  0.24363163830E+03  0.00000000000E+00 0.  1.
         -3    1    6    6    0  502 -0.24736295390E+03 -0.32277370835E+02 -0.14146745162E+04  0.14365006949E+04  0.00000000000E+00 0.  1.
<mgrwt>
<rscale>  0 0.10989385E+04</rscale>
<asrwt>0</asrwt>
<pdfrwt beam="1">  1        1 0.36509973E+00 0.10989385E+04</pdfrwt>
<pdfrwt beam="2">  1       -1 0.19572604E-01 0.10989385E+04</pdfrwt>
<totfact> 0.35289774E+01</totfact>
</mgrwt>
</event>
<event>
12    1  0.1494110E-007  0.2202063E+04  0.7818608E-02  0.8517570E-01
         -2   -1    0    0    0  501 -0.00000000000E+00  0.00000000000E+00  0.99228895410E+03  0.99228895410E+03  0.00000000000E+00 0.  1.
          2   -1    0    0  501    0  0.00000000000E+00 -0.00000000000E+00 -0.12216911105E+04  0.12216911105E+04  0.00000000000E+00 0. -1.
         23    2    1    2    0    0  0.34665864060E+03  0.46962420174E+03 -0.80679438169E+03  0.99996169300E+03  0.91033560707E+02 0.  0.
        254    2    1    2    0    0 -0.34665864060E+03 -0.46962420174E+03  0.57739222532E+03  0.12140183716E+04  0.89428167862E+03 0.  0.
        -24    2    4    4    0    0  0.24551837795E+03  0.64003101082E+02  0.16244222432E+03  0.31173228679E+03  0.80086650092E+02 0.  0.
         24    2    4    4    0    0 -0.59217701855E+03 -0.53362730282E+03  0.41495000100E+03  0.90228608479E+03  0.80653306691E+02 0.  0.
         13    1    3    3    0    0  0.30899922930E+03  0.36111505160E+03 -0.66761124494E+03  0.81950556958E+03  0.00000000000E+00 0. -1.
        -13    1    3    3    0    0  0.37659411292E+02  0.10850915014E+03 -0.13918313675E+03  0.18045612342E+03  0.00000000000E+00 0.  1.
          2    1    6    6  502    0 -0.43551630655E+02 -0.59109119210E+02  0.59535650954E+02  0.94525796696E+02  0.00000000000E+00 0. -1.
          1    1    5    5  503    0  0.70238313554E+02  0.12304494330E+02  0.90781810374E+02  0.11543898114E+03  0.00000000000E+00 0. -1.
         -2    1    5    5    0  503  0.17528006440E+03  0.51698606752E+02  0.71660413950E+02  0.19629330565E+03  0.00000000000E+00 0.  1.
         -1    1    6    6    0  502 -0.54862538789E+03 -0.47451818361E+03  0.35541435004E+03  0.80776028810E+03  0.00000000000E+00 0.  1.
<mgrwt>
<rscale>  0 0.22020632E+04</rscale>
<asrwt>0</asrwt>
<pdfrwt beam="1">  1        2 0.18795248E+00 0.22020632E+04</pdfrwt>
<pdfrwt beam="2">  1       -2 0.15265984E+00 0.22020632E+04</pdfrwt>
<totfact> 0.48044102E+00</totfact>
</mgrwt>
</event>
<event>
12    1  0.1494110E-007  0.2445048E+04  0.7818608E-02  0.8422828E-01
          1   -1    0    0  501    0  0.00000000000E+00  0.00000000000E+00  0.66483697134E+03  0.66483697134E+03  0.00000000000E+00 0. -1.
         -1   -1    0    0    0  501 -0.00000000000E+00 -0.00000000000E+00 -0.22480177051E+04  0.22480177051E+04  0.00000000000E+00 0.  1.
         23    2    1    2    0    0 -0.55719191138E+01 -0.33616412608E+03 -0.18877416832E+04  0.19202427843E+04  0.10356796036E+03 0.  0.
        254    2    1    2    0    0  0.55719191138E+01  0.33616412608E+03  0.30456094943E+03  0.99261189210E+03  0.88288370155E+03 0.  0.
        -24    2    4    4    0    0  0.21077056691E+03  0.57404059599E+03  0.15885509297E+03  0.63702666315E+03  0.81370702856E+02 0.  0.
         24    2    4    4    0    0 -0.20519864779E+03 -0.23787646990E+03  0.14570585646E+03  0.35558522895E+03  0.80740067195E+02 0.  0.
         11    1    3    3    0    0  0.81689022577E+01 -0.39847240382E+02 -0.47251085987E+03  0.47425841713E+03  0.00000000000E+00 0. -1.
        -11    1    3    3    0    0 -0.13740821372E+02 -0.29631688570E+03 -0.14152308233E+04  0.14459843672E+04  0.00000000000E+00 0.  1.
          2    1    6    6  502    0 -0.75972318795E+02 -0.57249819279E+02  0.79103906623E+02  0.12372050385E+03  0.00000000000E+00 0. -1.
          3    1    5    5  503    0  0.85035473031E+02  0.12958483327E+03  0.41410598979E+02  0.16043097704E+03  0.00000000000E+00 0. -1.
         -4    1    5    5    0  503  0.12573509387E+03  0.44445576272E+03  0.11744449399E+03  0.47659568611E+03  0.00000000000E+00 0.  1.
         -1    1    6    6    0  502 -0.12922632900E+03 -0.18062665062E+03  0.66601949837E+02  0.23186472510E+03  0.00000000000E+00 0.  1.
<mgrwt>
<rscale>  0 0.24450483E+04</rscale>
<asrwt>0</asrwt>
<pdfrwt beam="1">  1        1 0.10228261E+00 0.24450483E+04</pdfrwt>
<pdfrwt beam="2">  1       -1 0.34584887E+00 0.24450483E+04</pdfrwt>
<totfact> 0.43530091E-01</totfact>
</mgrwt>
</event>
<event>
12    1  0.1494110E-007  0.1599767E+04  0.7818608E-02  0.8820691E-01
          2   -1    0    0  501    0  0.00000000000E+00  0.00000000000E+00  0.10644873064E+04  0.10644873064E+04  0.00000000000E+00 0. -1.
         -2   -1    0    0    0  501 -0.00000000000E+00 -0.00000000000E+00 -0.60105298273E+03  0.60105298273E+03  0.00000000000E+00 0.  1.
         23    2    1    2    0    0 -0.32419614218E+01 -0.26765426988E+02  0.71869893135E+03  0.72487855718E+03  0.90519999731E+02 0.  0.
        254    2    1    2    0    0  0.32419614218E+01  0.26765426988E+02 -0.25526460765E+03  0.94066173197E+03  0.90496274823E+03 0.  0.
        -24    2    4    4    0    0  0.31003564514E+03 -0.13367549828E+03  0.17036664107E+03  0.38637573704E+03  0.79184453556E+02 0.  0.
         24    2    4    4    0    0 -0.30679368372E+03  0.16044092527E+03 -0.42563124872E+03  0.55428599493E+03  0.78786733809E+02 0.  0.
         13    1    3    3    0    0 -0.18830486710E+02 -0.22841167294E+02  0.70274610050E+02  0.76255012758E+02  0.00000000000E+00 0.  1.
        -13    1    3    3    0    0  0.15588525288E+02 -0.39242596937E+01  0.64842432130E+03  0.64862354443E+03  0.00000000000E+00 0. -1.
          4    1    6    6  502    0 -0.24174631945E+03  0.10622732255E+03 -0.27344693394E+03  0.38012991556E+03  0.00000000000E+00 0. -1.
          1    1    5    5  503    0  0.29739401149E+03 -0.10764630582E+03  0.14515051618E+03  0.34799367462E+03  0.00000000000E+00 0. -1.
         -2    1    5    5    0  503  0.12641633648E+02 -0.26029192454E+02  0.25216124881E+02  0.38382062413E+02  0.00000000000E+00 0.  1.
         -3    1    6    6    0  502 -0.65047364269E+02  0.54213602718E+02 -0.15218431478E+03  0.17415607937E+03  0.00000000000E+00 0.  1.
<mgrwt>
<rscale>  0 0.15997666E+04</rscale>
<asrwt>0</asrwt>
<pdfrwt beam="1">  1        2 0.16376728E+00 0.15997666E+04</pdfrwt>
<pdfrwt beam="2">  1       -2 0.92469690E-01 0.15997666E+04</pdfrwt>
<totfact> 0.21822948E+01</totfact>
</mgrwt>
</event>
<event>
12    1  0.1494110E-007  0.3021996E+04  0.7818608E-02  0.8237478E-01
          1   -1    0    0  501    0  0.00000000000E+00  0.00000000000E+00  0.38129520433E+04  0.38129520433E+04  0.00000000000E+00 0. -1.
         -1   -1    0    0    0  501 -0.00000000000E+00 -0.00000000000E+00 -0.59877890536E+03  0.59877890536E+03  0.00000000000E+00 0.  1.
         23    2    1    2    0    0  0.10812131969E+04 -0.17711293453E+03  0.25980080310E+03  0.11295589138E+04  0.89531634380E+02 0.  0.
        254    2    1    2    0    0 -0.10812131969E+04  0.17711293453E+03  0.29543723349E+04  0.32821720349E+04  0.91866555669E+03 0.  0.
        -24    2    4    4    0    0 -0.51956097339E+03  0.67223598367E+02  0.24770877774E+04  0.25330976001E+04  0.78466409122E+02 0.  0.
         24    2    4    4    0    0 -0.56165222355E+03  0.10988933616E+03  0.47728455749E+03  0.74907443487E+03  0.76046523498E+02 0.  0.
         13    1    3    3    0    0  0.10777030679E+04 -0.18208438155E+03  0.25997625794E+03  0.11234706401E+04  0.00000000000E+00 0.  1.
        -13    1    3    3    0    0  0.35101290381E+01  0.49714470168E+01 -0.17545483276E+00  0.60882736226E+01  0.00000000000E+00 0. -1.
          4    1    6    6  502    0 -0.14651044321E+03  0.51262908289E+02  0.16309853412E+03  0.22515400856E+03  0.00000000000E+00 0. -1.
          3    1    5    5  503    0 -0.12931131107E+02  0.14013386169E+02  0.61879965029E+02  0.64751210148E+02  0.00000000000E+00 0. -1.
         -2    1    5    5    0  503 -0.50662984228E+03  0.53210212198E+02  0.24152078124E+04  0.24683463899E+04  0.00000000000E+00 0.  1.
         -3    1    6    6    0  502 -0.41514178034E+03  0.58626427874E+02  0.31418602336E+03  0.52392042631E+03  0.00000000000E+00 0.  1.
<mgrwt>
<rscale>  0 0.30219962E+04</rscale>
<asrwt>0</asrwt>
<pdfrwt beam="1">  1        1 0.58660799E+00 0.30219962E+04</pdfrwt>
<pdfrwt beam="2">  1       -1 0.92119834E-01 0.30219962E+04</pdfrwt>
<totfact> 0.13532603E-01</totfact>
</mgrwt>
</event>
<event>
12    1  0.1494110E-007  0.2183979E+04  0.7818608E-02  0.8525126E-01
         -1   -1    0    0    0  501 -0.00000000000E+00  0.00000000000E+00  0.10601263349E+04  0.10601263349E+04  0.00000000000E+00 0.  1.
          1   -1    0    0  501    0  0.00000000000E+00 -0.00000000000E+00 -0.11248105566E+04  0.11248105566E+04  0.00000000000E+00 0. -1.
         23    2    1    2    0    0  0.71020689192E+03 -0.35904728615E+02  0.53571250924E+03  0.89681719971E+03  0.10775072280E+03 0.  0.
        254    2    1    2    0    0 -0.71020689192E+03  0.35904728615E+02 -0.60039673102E+03  0.12881196918E+04  0.89055776167E+03 0.  0.
        -24    2    4    4    0    0 -0.63786058090E+01  0.46562344081E+02  0.19974012051E+03  0.21961044963E+03  0.78255321537E+02 0.  0.
         24    2    4    4    0    0 -0.70382828611E+03 -0.10657615466E+02 -0.80013685153E+03  0.10685092422E+04  0.77493085467E+02 0.  0.
         11    1    3    3    0    0  0.43393658896E+03 -0.71011110544E+02  0.35119628611E+03  0.56274538864E+03  0.00000000000E+00 0. -1.
        -11    1    3    3    0    0  0.27627030296E+03  0.35106381930E+02  0.18451622313E+03  0.33407181107E+03  0.00000000000E+00 0.  1.
          2    1    6    6  502    0 -0.42452624441E+03  0.84562402812E+01 -0.42873707531E+03  0.60341488210E+03  0.00000000000E+00 0. -1.
          3    1    5    5  503    0  0.33794197764E+02  0.23300674174E+02  0.62885550931E+02  0.75097015489E+02  0.00000000000E+00 0. -1.
         -4    1    5    5    0  503 -0.40172803573E+02  0.23261669906E+02  0.13685456958E+03  0.14451343414E+03  0.00000000000E+00 0.  1.
         -1    1    6    6    0  502 -0.27930204171E+03 -0.19113855747E+02 -0.37139977622E+03  0.46509436006E+03  0.00000000000E+00 0.  1.
<mgrwt>
<rscale>  0 0.21839792E+04</rscale>
<asrwt>0</asrwt>
<pdfrwt beam="1">  1        1 0.17304778E+00 0.21839792E+04</pdfrwt>
<pdfrwt beam="2">  1       -1 0.16309636E+00 0.21839792E+04</pdfrwt>
<totfact> 0.30712008E+00</totfact>
</mgrwt>
</event>
<event>
12    1  0.1494110E-007  0.1228665E+04  0.7818608E-02  0.9088130E-01
         -2   -1    0    0    0  501 -0.00000000000E+00  0.00000000000E+00  0.79088687869E+03  0.79088687869E+03  0.00000000000E+00 0.  1.
          2   -1    0    0  501    0  0.00000000000E+00 -0.00000000000E+00 -0.47719140467E+03  0.47719140467E+03  0.00000000000E+00 0. -1.
         23    2    1    2    0    0  0.20953526785E+03  0.98616586530E+01 -0.99602496974E+02  0.24997653675E+03  0.92549072064E+02 0.  0.
        254    2    1    2    0    0 -0.20953526785E+03 -0.98616586530E+01  0.41329797099E+03  0.10181017466E+04  0.90648423750E+03 0.  0.
        -24    2    4    4    0    0  0.13249143955E+03  0.25176076462E+02  0.59963403127E+03  0.61900223204E+03  0.73586516647E+02 0.  0.
         24    2    4    4    0    0 -0.34202670740E+03 -0.35037735115E+02 -0.18633606028E+03  0.39909951457E+03  0.79683020226E+02 0.  0.
         13    1    3    3    0    0  0.15208396455E+03 -0.30215592790E+02 -0.45889154754E+02  0.16170444905E+03  0.00000000000E+00 0.  1.
        -13    1    3    3    0    0  0.57451303303E+02  0.40077251443E+02 -0.53713342221E+02  0.88272087700E+02  0.00000000000E+00 0. -1.
          2    1    6    6  502    0 -0.29152916203E+03 -0.56704203736E+02 -0.14602825830E+03  0.33095146360E+03  0.00000000000E+00 0. -1.
          3    1    5    5  503    0  0.88005435681E+02  0.15056302495E+02  0.51661296455E+03  0.52427149845E+03  0.00000000000E+00 0. -1.
         -4    1    5    5    0  503  0.44486003871E+02  0.10119773967E+02  0.83021066719E+02  0.94730733580E+02  0.00000000000E+00 0.  1.
         -1    1    6    6    0  502 -0.50497545373E+02  0.21666468621E+02 -0.40307801980E+02  0.68148050975E+02  0.00000000000E+00 0.  1.
<mgrwt>
<rscale>  0 0.12286650E+04</rscale>
<asrwt>0</asrwt>
<pdfrwt beam="1">  1        2 0.73414062E-01 0.12286650E+04</pdfrwt>
<pdfrwt beam="2">  1       -2 0.12167490E+00 0.12286650E+04</pdfrwt>
<totfact> 0.32831750E+01</totfact>
</mgrwt>
</event>
<event>
12    1  0.1494110E-007  0.2178398E+04  0.7818608E-02  0.8527473E-01
          2   -1    0    0  501    0  0.00000000000E+00  0.00000000000E+00  0.30822911804E+04  0.30822911804E+04  0.00000000000E+00 0. -1.
         -2   -1    0    0    0  501 -0.00000000000E+00 -0.00000000000E+00 -0.38489373377E+03  0.38489373377E+03  0.00000000000E+00 0.  1.
         23    2    1    2    0    0  0.31643530952E+03  0.52100413149E+03  0.21736730762E+04  0.22593630885E+04  0.91051158056E+02 0.  0.
        254    2    1    2    0    0 -0.31643530952E+03 -0.52100413149E+03  0.52372437042E+03  0.12078218256E+04  0.90164834397E+03 0.  0.
        -24    2    4    4    0    0 -0.57970714314E+03 -0.44599521736E+03  0.17297381363E+03  0.75603931177E+03  0.81874263508E+02 0.  0.
         24    2    4    4    0    0  0.26327183362E+03 -0.75008914127E+02  0.35075055679E+03  0.45178251387E+03  0.78377874281E+02 0.  0.
         13    1    3    3    0    0  0.66636438666E+01  0.54508003382E+02  0.15405600245E+03  0.16355053798E+03  0.00000000000E+00 0.  1.
        -13    1    3    3    0    0  0.30977166565E+03  0.46649612811E+03  0.20196170738E+04  0.20958125505E+04  0.00000000000E+00 0. -1.
          2    1    6    6  502    0  0.63179482689E+02 -0.91841987665E+01  0.13971934550E+03  0.15361475205E+03  0.00000000000E+00 0. -1.
          3    1    5    5  503    0 -0.58463323127E+02 -0.37514799641E+02  0.41391142960E+02  0.80861282816E+02  0.00000000000E+00 0. -1.
         -4    1    5    5    0  503 -0.52124382001E+03 -0.40848041772E+03  0.13158267067E+03  0.67517802895E+03  0.00000000000E+00 0.  1.
         -1    1    6    6    0  502  0.20009235093E+03 -0.65824715360E+02  0.21103121129E+03  0.29816776182E+03  0.00000000000E+00 0.  1.
<mgrwt>
<rscale>  0 0.21783981E+04</rscale>
<asrwt>0</asrwt>
<pdfrwt beam="1">  1        2 0.47419863E+00 0.21783981E+04</pdfrwt>
<pdfrwt beam="2">  1       -2 0.59214422E-01 0.21783981E+04</pdfrwt>
<totfact> 0.37726626E+00</totfact>
</mgrwt>
</event>
<event>
12    1  0.1494110E-007  0.1295189E+04  0.7818608E-02  0.9033389E-01
          2   -1    0    0  501    0  0.00000000000E+00  0.00000000000E+00  0.58585230221E+03  0.58585230221E+03  0.00000000000E+00 0. -1.
         -2   -1    0    0    0  501 -0.00000000000E+00 -0.00000000000E+00 -0.71584386515E+03  0.71584386515E+03  0.00000000000E+00 0.  1.
         23    2    1    2    0    0 -0.55691124194E+02 -0.46530882560E+02  0.28349909788E+03  0.30697290921E+03  0.92703851853E+02 0.  0.
        254    2    1    2    0    0  0.55691124194E+02  0.46530882560E+02 -0.41349066082E+03  0.99472325814E+03  0.90179443853E+03 0.  0.
        -24    2    4    4    0    0  0.47215771768E+03  0.12159210508E+02 -0.20905401045E+03  0.52267676814E+03  0.80041663529E+02 0.  0.
         24    2    4    4    0    0 -0.41646659349E+03  0.34371672052E+02 -0.20443665037E+03  0.47204649000E+03  0.80048169112E+02 0.  0.
         11    1    3    3    0    0  0.16812710172E+02 -0.60327088333E+01  0.86411726543E+01  0.19842647607E+02  0.00000000000E+00 0.  1.
        -11    1    3    3    0    0 -0.72503834366E+02 -0.40498173726E+02  0.27485792522E+03  0.28713026161E+03  0.00000000000E+00 0. -1.
          4    1    6    6  502    0 -0.13868909933E+03  0.93071680669E+01 -0.11107376506E+03  0.17792883671E+03  0.00000000000E+00 0. -1.
          1    1    5    5  503    0  0.14229379692E+01 -0.72625766026E+01 -0.41831058195E+00  0.74124729420E+01  0.00000000000E+00 0. -1.
         -2    1    5    5    0  503  0.47073477971E+03  0.19421787111E+02 -0.20863569987E+03  0.51526429520E+03  0.00000000000E+00 0.  1.
         -3    1    6    6    0  502 -0.27777749416E+03  0.25064503985E+02 -0.93362885310E+02  0.29411765329E+03  0.00000000000E+00 0.  1.
<mgrwt>
<rscale>  0 0.12951892E+04</rscale>
<asrwt>0</asrwt>
<pdfrwt beam="1">  1        2 0.90131123E-01 0.12951892E+04</pdfrwt>
<pdfrwt beam="2">  1       -2 0.11012983E+00 0.12951892E+04</pdfrwt>
<totfact> 0.32791781E+01</totfact>
</mgrwt>
</event>
<event>
12    1  0.1494110E-007  0.2231083E+04  0.7818608E-02  0.8505601E-01
         -2   -1    0    0    0  501 -0.00000000000E+00  0.00000000000E+00  0.79272909278E+03  0.79272909278E+03  0.00000000000E+00 0.  1.
          2   -1    0    0  501    0  0.00000000000E+00 -0.00000000000E+00 -0.15698081975E+04  0.15698081975E+04  0.00000000000E+00 0. -1.
         23    2    1    2    0    0 -0.54825513242E+02  0.86750764200E+03 -0.67301589960E+03  0.11036337646E+04  0.97374223881E+02 0.  0.
        254    2    1    2    0    0  0.54825513242E+02 -0.86750764200E+03 -0.10406320514E+03  0.12589035257E+04  0.90467319540E+03 0.  0.
        -24    2    4    4    0    0  0.31844820878E+03 -0.37905759956E+03  0.28491700835E+03  0.57672982465E+03  0.79659673177E+02 0.  0.
         24    2    4    4    0    0 -0.26362269554E+03 -0.48845004243E+03 -0.38898021349E+03  0.68217370103E+03  0.77298009878E+02 0.  0.
         11    1    3    3    0    0 -0.56433602151E+01  0.59252212947E+03 -0.49764654935E+03  0.77379998030E+03  0.00000000000E+00 0. -1.
        -11    1    3    3    0    0 -0.49182153027E+02  0.27498551253E+03 -0.17536935024E+03  0.32983378432E+03  0.00000000000E+00 0.  1.
          2    1    6    6  502    0 -0.18748469750E+02 -0.36033718610E+02 -0.65105058119E+01  0.41137825426E+02  0.00000000000E+00 0. -1.
          1    1    5    5  503    0 -0.34306464299E+01 -0.14459675312E+02  0.11509040886E+02  0.18796530722E+02  0.00000000000E+00 0. -1.
         -2    1    5    5    0  503  0.32187885521E+03 -0.36459792425E+03  0.27340796746E+03  0.55793329393E+03  0.00000000000E+00 0.  1.
         -1    1    6    6    0  502 -0.24487422579E+03 -0.45241632382E+03 -0.38246970768E+03  0.64103587561E+03  0.00000000000E+00 0.  1.
<mgrwt>
<rscale>  0 0.22310828E+04</rscale>
<asrwt>0</asrwt>
<pdfrwt beam="1">  1        2 0.24150895E+00 0.22310828E+04</pdfrwt>
<pdfrwt beam="2">  1       -2 0.12195832E+00 0.22310828E+04</pdfrwt>
<totfact> 0.53923007E+00</totfact>
</mgrwt>
</event>
<event>
12    1  0.1494110E-007  0.1486817E+04  0.7818608E-02  0.8893267E-01
         -1   -1    0    0    0  501 -0.00000000000E+00  0.00000000000E+00  0.14160158727E+03  0.14160158727E+03  0.00000000000E+00 0.  1.
          1   -1    0    0  501    0  0.00000000000E+00 -0.00000000000E+00 -0.39028972824E+04  0.39028972824E+04  0.00000000000E+00 0. -1.
         23    2    1    2    0    0 -0.25857338194E+03 -0.38830171254E+03 -0.12216095376E+04  0.13108498552E+04  0.91427932498E+02 0.  0.
        254    2    1    2    0    0  0.25857338194E+03  0.38830171254E+03 -0.25396861576E+04  0.27336490145E+04  0.89732532649E+03 0.  0.
        -24    2    4    4    0    0  0.55522391143E+03  0.93635365408E+02 -0.12021532660E+04  0.13300342683E+04  0.82325611310E+02 0.  0.
         24    2    4    4    0    0 -0.29665052949E+03  0.29466634713E+03 -0.13375328915E+04  0.14036147462E+04  0.79437566727E+02 0.  0.
         11    1    3    3    0    0 -0.25221627182E+03 -0.36704562532E+03 -0.11995938843E+04  0.12795940864E+04  0.00000000000E+00 0. -1.
        -11    1    3    3    0    0 -0.63571101207E+01 -0.21256087219E+02 -0.22015653316E+02  0.31255768810E+02  0.00000000000E+00 0.  1.
          2    1    6    6  502    0 -0.12425026170E+03  0.17008025164E+03 -0.73789942233E+03  0.76737277577E+03  0.00000000000E+00 0. -1.
          1    1    5    5  503    0  0.33081879964E+03  0.69431755918E+02 -0.80752662736E+03  0.87542052798E+03  0.00000000000E+00 0. -1.
         -2    1    5    5    0  503  0.22440511180E+03  0.24203609489E+02 -0.39462663868E+03  0.45461374030E+03  0.00000000000E+00 0.  1.
         -1    1    6    6    0  502 -0.17240026779E+03  0.12458609549E+03 -0.59963346921E+03  0.63624197042E+03  0.00000000000E+00 0.  1.
<mgrwt>
<rscale>  0 0.14868173E+04</rscale>
<asrwt>0</asrwt>
<pdfrwt beam="1">  1        1 0.60044580E+00 0.14868173E+04</pdfrwt>
<pdfrwt beam="2">  1       -1 0.21784857E-01 0.14868173E+04</pdfrwt>
<totfact> 0.20359326E+00</totfact>
</mgrwt>
</event>
<event>
12    1  0.1494110E-007  0.1555195E+04  0.7818608E-02  0.8848556E-01
          2   -1    0    0  501    0  0.00000000000E+00  0.00000000000E+00  0.85152710292E+03  0.85152710292E+03  0.00000000000E+00 0. -1.
         -2   -1    0    0    0  501 -0.00000000000E+00 -0.00000000000E+00 -0.71008685730E+03  0.71008685730E+03  0.00000000000E+00 0.  1.
         23    2    1    2    0    0  0.26799498904E+03 -0.20753311996E+03 -0.28055471970E+03  0.45035160800E+03  0.95991197777E+02 0.  0.
        254    2    1    2    0    0 -0.26799498904E+03  0.20753311996E+03  0.42199496532E+03  0.11112623522E+04  0.97053230481E+03 0.  0.
        -24    2    4    4    0    0 -0.10921870660E+03  0.21630149617E+03 -0.28457958632E+03  0.38264079749E+03  0.81935192869E+02 0.  0.
         24    2    4    4    0    0 -0.15877628244E+03 -0.87683762146E+01  0.70657455164E+03  0.72862155474E+03  0.79718132886E+02 0.  0.
         13    1    3    3    0    0  0.18077201155E+02 -0.58593923215E+02 -0.46464348402E+02  0.76934834190E+02  0.00000000000E+00 0. -1.
        -13    1    3    3    0    0  0.24991778788E+03 -0.14893919675E+03 -0.23409037130E+03  0.37341677381E+03  0.00000000000E+00 0.  1.
          4    1    6    6  502    0 -0.16572385678E+03  0.11106888767E+01  0.66369507641E+03  0.68407366913E+03  0.00000000000E+00 0. -1.
          1    1    5    5  503    0 -0.37579864904E+02  0.55357700040E+02 -0.13839234188E+03  0.15371779822E+03  0.00000000000E+00 0. -1.
         -2    1    5    5    0  503 -0.71638841696E+02  0.16094379613E+03 -0.14618724445E+03  0.22892299927E+03  0.00000000000E+00 0.  1.
         -3    1    6    6    0  502  0.69475743452E+01 -0.98790650912E+01  0.42879475229E+02  0.44547885610E+02  0.00000000000E+00 0.  1.
<mgrwt>
<rscale>  0 0.15551954E+04</rscale>
<asrwt>0</asrwt>
<pdfrwt beam="1">  1        2 0.13100417E+00 0.15551954E+04</pdfrwt>
<pdfrwt beam="2">  1       -2 0.10924413E+00 0.15551954E+04</pdfrwt>
<totfact> 0.20354843E+01</totfact>
</mgrwt>
</event>
<event>
12    1  0.1494110E-007  0.1916408E+04  0.7818608E-02  0.8646732E-01
          2   -1    0    0  501    0  0.00000000000E+00  0.00000000000E+00  0.20618503119E+04  0.20618503119E+04  0.00000000000E+00 0. -1.
         -2   -1    0    0    0  501 -0.00000000000E+00 -0.00000000000E+00 -0.44530617937E+03  0.44530617937E+03  0.00000000000E+00 0.  1.
         23    2    1    2    0    0 -0.21384573795E+03 -0.67762788417E+03  0.90995044061E+03  0.11581790935E+04  0.91975318476E+02 0.  0.
        254    2    1    2    0    0  0.21384573795E+03  0.67762788417E+03  0.70659369193E+03  0.13489773978E+04  0.90308129490E+03 0.  0.
        -24    2    4    4    0    0 -0.32086806192E+03  0.44187248030E+03  0.26201224186E+03  0.61074998068E+03  0.78469879616E+02 0.  0.
         24    2    4    4    0    0  0.53471379988E+03  0.23575540387E+03  0.44458145007E+03  0.73822741710E+03  0.76338688584E+02 0.  0.
         13    1    3    3    0    0 -0.48227373968E+02 -0.24242678301E+03  0.26120001296E+03  0.35961378100E+03  0.00000000000E+00 0.  1.
        -13    1    3    3    0    0 -0.16561836399E+03 -0.43520110116E+03  0.64875042765E+03  0.79856531250E+03  0.00000000000E+00 0. -1.
          2    1    6    6  502    0  0.48229775998E+03  0.22179764511E+03  0.42678716875E+03  0.68114066982E+03  0.00000000000E+00 0. -1.
          3    1    5    5  503    0 -0.28532538794E+03  0.41239890609E+03  0.21750578577E+03  0.54661888148E+03  0.00000000000E+00 0. -1.
         -4    1    5    5    0  503 -0.35542673987E+02  0.29473574203E+02  0.44506456090E+02  0.64131099197E+02  0.00000000000E+00 0.  1.
         -1    1    6    6    0  502  0.52416039893E+02  0.13957758759E+02  0.17794281313E+02  0.57086747281E+02  0.00000000000E+00 0.  1.
<mgrwt>
<rscale>  0 0.19164078E+04</rscale>
<asrwt>0</asrwt>
<pdfrwt beam="1">  1        2 0.31720773E+00 0.19164078E+04</pdfrwt>
<pdfrwt beam="2">  1       -2 0.68508644E-01 0.19164078E+04</pdfrwt>
<totfact> 0.11246121E+01</totfact>
</mgrwt>
</event>
<event>
12    1  0.1494110E-007  0.1666565E+04  0.7818608E-02  0.8780667E-01
          2   -1    0    0  501    0  0.00000000000E+00  0.00000000000E+00  0.46891424238E+03  0.46891424238E+03  0.00000000000E+00 0. -1.
         -2   -1    0    0    0  501 -0.00000000000E+00 -0.00000000000E+00 -0.14807823484E+04  0.14807823484E+04  0.00000000000E+00 0.  1.
         23    2    1    2    0    0  0.39367474140E+03 -0.28990216080E+03 -0.73605538288E+03  0.89284407192E+03  0.12794508682E+03 0.  0.
        254    2    1    2    0    0 -0.39367474140E+03  0.28990216080E+03 -0.27581272312E+03  0.10568525189E+04  0.89545604220E+03 0.  0.
        -24    2    4    4    0    0  0.22134697758E+03 -0.13104308999E+03 -0.77352711449E+02  0.28116761505E+03  0.83096389011E+02 0.  0.
         24    2    4    4    0    0 -0.61502171898E+03  0.42094525079E+03 -0.19846001167E+03  0.77568490380E+03  0.82789339699E+02 0.  0.
         11    1    3    3    0    0  0.94861973619E+02 -0.58812735360E+02 -0.85605063086E+02  0.14066257038E+03  0.00000000000E+00 0. -1.
        -11    1    3    3    0    0  0.29881276778E+03 -0.23108942544E+03 -0.65045031980E+03  0.75218150154E+03  0.00000000000E+00 0.  1.
          2    1    6    6  502    0 -0.59588865420E+03  0.41385511070E+03 -0.20558535630E+03  0.75407206524E+03  0.00000000000E+00 0. -1.
          3    1    5    5  503    0  0.20553126601E+03 -0.13685301913E+03 -0.54657656858E+02  0.25290177857E+03  0.00000000000E+00 0. -1.
         -4    1    5    5    0  503  0.15815711570E+02  0.58099291338E+01 -0.22695054591E+02  0.28265836480E+02  0.00000000000E+00 0.  1.
         -1    1    6    6    0  502 -0.19133064783E+02  0.70901400950E+01  0.71253446262E+01  0.21612838560E+02  0.00000000000E+00 0.  1.
<mgrwt>
<rscale>  0 0.16665652E+04</rscale>
<asrwt>0</asrwt>
<pdfrwt beam="1">  1        2 0.72140654E-01 0.16665652E+04</pdfrwt>
<pdfrwt beam="2">  1       -2 0.22781267E+00 0.16665652E+04</pdfrwt>
<totfact> 0.55813291E+00</totfact>
</mgrwt>
</event>
<event>
12    1  0.1494110E-007  0.1194038E+04  0.7818608E-02  0.9118091E-01
          2   -1    0    0  501    0  0.00000000000E+00  0.00000000000E+00  0.80869338758E+03  0.80869338758E+03  0.00000000000E+00 0.  1.
         -2   -1    0    0    0  501 -0.00000000000E+00 -0.00000000000E+00 -0.44075016974E+03  0.44075016974E+03  0.00000000000E+00 0. -1.
         23    2    1    2    0    0 -0.17324303427E+03  0.27077275689E+02 -0.10846062383E+03  0.22580243283E+03  0.92069017428E+02 0.  0.
        254    2    1    2    0    0  0.17324303427E+03 -0.27077275689E+02  0.47640384168E+03  0.10236411245E+04  0.88889493395E+03 0.  0.
        -24    2    4    4    0    0  0.25931205469E+03 -0.20018939075E+03 -0.14491780773E+03  0.36796722647E+03  0.84143775065E+02 0.  0.
         24    2    4    4    0    0 -0.86069020420E+02  0.17311211506E+03  0.62132164941E+03  0.65567389802E+03  0.80572873019E+02 0.  0.
         13    1    3    3    0    0 -0.28002373904E+02 -0.72171872309E+01  0.14580702887E+02  0.32385454026E+02  0.00000000000E+00 0.  1.
        -13    1    3    3    0    0 -0.14524066036E+03  0.34294462919E+02 -0.12304132672E+03  0.19341697881E+03  0.00000000000E+00 0. -1.
          4    1    6    6  502    0 -0.83288481179E+02  0.17473863882E+03  0.52913409019E+03  0.56343007409E+03  0.00000000000E+00 0. -1.
          1    1    5    5  503    0  0.32115157310E+02 -0.15014894479E+02 -0.47148868893E+02  0.58990221420E+02  0.00000000000E+00 0. -1.
         -2    1    5    5    0  503  0.22719689738E+03 -0.18517449627E+03 -0.97768938835E+02  0.30897700505E+03  0.00000000000E+00 0.  1.
         -3    1    6    6    0  502 -0.27805392409E+01 -0.16265237571E+01  0.92187559223E+02  0.92243823932E+02  0.00000000000E+00 0.  1.
<mgrwt>
<rscale>  0 0.11940381E+04</rscale>
<asrwt>0</asrwt>
<pdfrwt beam="1">  1        2 0.12441437E+00 0.11940381E+04</pdfrwt>
<pdfrwt beam="2">  1       -2 0.67807718E-01 0.11940381E+04</pdfrwt>
<totfact> 0.66803194E+01</totfact>
</mgrwt>
</event>
<event>
12    1  0.2481727E-007  0.1386801E+04  0.7818608E-02  0.8963429E-01
         -2   -1    0    0    0  501 -0.00000000000E+00  0.00000000000E+00  0.24206674617E+03  0.24206674617E+03  0.00000000000E+00 0.  1.
          2   -1    0    0  501    0  0.00000000000E+00 -0.00000000000E+00 -0.19862460539E+04  0.19862460539E+04  0.00000000000E+00 0. -1.
         23    2    1    2    0    0 -0.31210952230E+03 -0.25296334565E+02 -0.89400392325E+03  0.95189233396E+03  0.93828259191E+02 0.  0.
        254    2    1    2    0    0  0.31210952230E+03  0.25296334565E+02 -0.85017538452E+03  0.12764204661E+04  0.89910998409E+03 0.  0.
        -24    2    4    4    0    0  0.52821180090E+03  0.17148165574E+03 -0.83153306138E+03  0.10032064413E+04  0.81007819008E+02 0.  0.
         24    2    4    4    0    0 -0.21610227860E+03 -0.14618532118E+03 -0.18642323133E+02  0.27321402488E+03  0.78917832168E+02 0.  0.
         11    1    3    3    0    0 -0.30406980077E+03 -0.72809776974E+01 -0.86409490252E+03  0.91606302018E+03  0.00000000000E+00 0.  1.
        -11    1    3    3    0    0 -0.80397215215E+01 -0.18015356868E+02 -0.29909020726E+02  0.35829313780E+02  0.00000000000E+00 0. -1.
          2    1    6    6  502    0 -0.17289207952E+03 -0.12236667537E+03  0.16776158745E+02  0.21247756095E+03  0.00000000000E+00 0. -1.
          3    1    5    5  503    0  0.52310314423E+03  0.17763800192E+03 -0.81209548563E+03  0.98218696642E+03  0.00000000000E+00 0. -1.
         -4    1    5    5    0  503  0.51086566733E+01 -0.61563461755E+01 -0.19437575758E+02  0.21019474841E+02  0.00000000000E+00 0.  1.
         -1    1    6    6    0  502 -0.43210199080E+02 -0.23818645804E+02 -0.35418481879E+02  0.60736463933E+02  0.00000000000E+00 0.  1.
<mgrwt>
<rscale>  0 0.13868008E+04</rscale>
<asrwt>0</asrwt>
<pdfrwt beam="1">  1        2 0.30557631E+00 0.13868008E+04</pdfrwt>
<pdfrwt beam="2">  1       -2 0.37241038E-01 0.13868008E+04</pdfrwt>
<totfact> 0.45060341E+01</totfact>
</mgrwt>
</event>
<event>
12    1  0.1494110E-007  0.2006375E+04  0.7818608E-02  0.8603646E-01
         -2   -1    0    0    0  501 -0.00000000000E+00  0.00000000000E+00  0.62317870535E+03  0.62317870535E+03  0.00000000000E+00 0.  1.
          2   -1    0    0  501    0  0.00000000000E+00 -0.00000000000E+00 -0.16149225715E+04  0.16149225715E+04  0.00000000000E+00 0. -1.
         23    2    1    2    0    0  0.30344844989E+02 -0.25209862665E+03 -0.12450161686E+04  0.12738426682E+04  0.90196209027E+02 0.  0.
        254    2    1    2    0    0 -0.30344844989E+02  0.25209862665E+03  0.25327230243E+03  0.96425860865E+03  0.89508283304E+03 0.  0.
        -24    2    4    4    0    0 -0.15654301746E+03  0.49854650076E+03 -0.66817476497E+02  0.53278530942E+03  0.79632160794E+02 0.  0.
         24    2    4    4    0    0  0.12619817247E+03 -0.24644787411E+03  0.32008977893E+03  0.43147329924E+03  0.83959561656E+02 0.  0.
         13    1    3    3    0    0 -0.20216124940E+01  0.40856007469E+01 -0.34723551260E+01  0.57302967340E+01  0.00000000000E+00 0.  1.
        -13    1    3    3    0    0  0.32366457483E+02 -0.25618422739E+03 -0.12415438134E+04  0.12681123714E+04  0.00000000000E+00 0. -1.
          2    1    6    6  502    0  0.40105439664E+02 -0.89576843384E+02  0.17686266360E+03  0.20226927334E+03  0.00000000000E+00 0. -1.
          3    1    5    5  503    0 -0.15481807253E+03  0.45096045831E+03 -0.79806023014E+02  0.48342835235E+03  0.00000000000E+00 0. -1.
         -4    1    5    5    0  503 -0.17249449267E+01  0.47586042445E+02  0.12988546517E+02  0.49356957070E+02  0.00000000000E+00 0.  1.
         -1    1    6    6    0  502  0.86092732805E+02 -0.15687103073E+03  0.14322711532E+03  0.22920402590E+03  0.00000000000E+00 0.  1.
<mgrwt>
<rscale>  0 0.20063752E+04</rscale>
<asrwt>0</asrwt>
<pdfrwt beam="1">  1        2 0.24844963E+00 0.20063752E+04</pdfrwt>
<pdfrwt beam="2">  1       -2 0.95873647E-01 0.20063752E+04</pdfrwt>
<totfact> 0.92672316E+00</totfact>
</mgrwt>
</event>
<event>
12    1  0.1494110E-007  0.1637175E+04  0.7818608E-02  0.8798030E-01
          1   -1    0    0  501    0  0.00000000000E+00  0.00000000000E+00  0.54831256842E+03  0.54831256842E+03  0.00000000000E+00 0. -1.
         -1   -1    0    0    0  501 -0.00000000000E+00 -0.00000000000E+00 -0.12220871871E+04  0.12220871871E+04  0.00000000000E+00 0.  1.
         23    2    1    2    0    0  0.28020685722E+03 -0.28092535665E+03  0.20928479707E+03  0.45753803589E+03  0.90033266939E+02 0.  0.
        254    2    1    2    0    0 -0.28020685722E+03  0.28092535665E+03 -0.88305941578E+03  0.13128617197E+04  0.88677901662E+03 0.  0.
        -24    2    4    4    0    0 -0.31975955582E+03  0.24743383434E+02  0.55852314102E+02  0.33522529421E+03  0.79988176161E+02 0.  0.
         24    2    4    4    0    0  0.39552698598E+02  0.25618197322E+03 -0.93891172988E+03  0.97763642546E+03  0.83810050109E+02 0.  0.
         13    1    3    3    0    0  0.13278271853E+03 -0.72267395146E+02  0.70750796629E+02  0.16691165917E+03  0.00000000000E+00 0. -1.
        -13    1    3    3    0    0  0.14742413869E+03 -0.20865796151E+03  0.13853400044E+03  0.29062637672E+03  0.00000000000E+00 0.  1.
          4    1    6    6  502    0  0.64569892328E+02  0.20642325508E+03 -0.72307150320E+03  0.75472659286E+03  0.00000000000E+00 0. -1.
          1    1    5    5  503    0 -0.26511233504E+03  0.50830478161E+02  0.43500383099E+02  0.27342379382E+03  0.00000000000E+00 0. -1.
         -2    1    5    5    0  503 -0.54647220786E+02 -0.26087094727E+02  0.12351931003E+02  0.61801500389E+02  0.00000000000E+00 0.  1.
         -3    1    6    6    0  502 -0.25017193730E+02  0.49758718141E+02 -0.21584022668E+03  0.22290983259E+03  0.00000000000E+00 0.  1.
<mgrwt>
<rscale>  0 0.16371753E+04</rscale>
<asrwt>0</asrwt>
<pdfrwt beam="1">  1        1 0.84355781E-01 0.16371753E+04</pdfrwt>
<pdfrwt beam="2">  1       -1 0.18801341E+00 0.16371753E+04</pdfrwt>
<totfact> 0.67998138E+00</totfact>
</mgrwt>
</event>
<event>
12    1  0.1494110E-007  0.2206249E+04  0.7818608E-02  0.8515832E-01
         -2   -1    0    0    0  501 -0.00000000000E+00  0.00000000000E+00  0.14981967180E+04  0.14981967180E+04  0.00000000000E+00 0.  1.
          2   -1    0    0  501    0  0.00000000000E+00 -0.00000000000E+00 -0.81223194869E+03  0.81223194869E+03  0.00000000000E+00 0. -1.
         23    2    1    2    0    0  0.15500408548E+03 -0.79719362480E+03  0.66970389131E+03  0.10570654518E+04  0.96644324752E+02 0.  0.
        254    2    1    2    0    0 -0.15500408548E+03  0.79719362480E+03  0.16260878033E+02  0.12533632149E+04  0.95452134094E+03 0.  0.
        -24    2    4    4    0    0 -0.19124669705E+03  0.90480877666E+03  0.26733735386E+03  0.96604779031E+03  0.80776549462E+02 0.  0.
         24    2    4    4    0    0  0.36242611571E+02 -0.10761515186E+03 -0.25107647583E+03  0.28731542456E+03  0.81340080356E+02 0.  0.
         13    1    3    3    0    0  0.10803159935E+03 -0.56268337666E+03  0.41356846677E+03  0.70662740220E+03  0.00000000000E+00 0. -1.
        -13    1    3    3    0    0  0.46972486124E+02 -0.23451024814E+03  0.25613542454E+03  0.35043804965E+03  0.00000000000E+00 0.  1.
          4    1    6    6  502    0  0.61140785989E+02 -0.73807208490E+02 -0.19481199203E+03  0.21711151967E+03  0.00000000000E+00 0. -1.
          3    1    5    5  503    0 -0.14828422427E+03  0.63973226231E+03  0.15359057442E+03  0.67441503776E+03  0.00000000000E+00 0. -1.
         -4    1    5    5    0  503 -0.42962472783E+02  0.26507651436E+03  0.11374677944E+03  0.29163275256E+03  0.00000000000E+00 0.  1.
         -3    1    6    6    0  502 -0.24898174418E+02 -0.33807943367E+02 -0.56264483805E+02  0.70203904891E+02  0.00000000000E+00 0.  1.
<mgrwt>
<rscale>  0 0.22062486E+04</rscale>
<asrwt>0</asrwt>
<pdfrwt beam="1">  1        2 0.12495876E+00 0.22062486E+04</pdfrwt>
<pdfrwt beam="2">  1       -2 0.23049180E+00 0.22062486E+04</pdfrwt>
<totfact> 0.26170186E+00</totfact>
</mgrwt>
</event>
<event>
12    1  0.1494110E-007  0.1759520E+04  0.7818608E-02  0.8728128E-01
         -1   -1    0    0    0  501 -0.00000000000E+00  0.00000000000E+00  0.18790820452E+03  0.18790820452E+03  0.00000000000E+00 0.  1.
          1   -1    0    0  501    0  0.00000000000E+00 -0.00000000000E+00 -0.41189115343E+04  0.41189115343E+04  0.00000000000E+00 0. -1.
         23    2    1    2    0    0 -0.26236610308E+03  0.33672290182E+03 -0.26561302571E+04  0.26917799682E+04  0.91832291719E+02 0.  0.
        254    2    1    2    0    0  0.26236610308E+03 -0.33672290182E+03 -0.12748730726E+04  0.16150397706E+04  0.89489319174E+03 0.  0.
        -24    2    4    4    0    0  0.35922691936E+02  0.89488061381E+02  0.97436655941E+02  0.15826132265E+03  0.79083445799E+02 0.  0.
         24    2    4    4    0    0  0.22644341114E+03 -0.42621096320E+03 -0.13723097286E+04  0.14567784480E+04  0.77698466272E+02 0.  0.
         13    1    3    3    0    0 -0.51669488156E+02  0.13031382383E+03 -0.75473811037E+03  0.76764643159E+03  0.00000000000E+00 0.  1.
        -13    1    3    3    0    0 -0.21069661492E+03  0.20640907799E+03 -0.19013921468E+04  0.19241335366E+04  0.00000000000E+00 0. -1.
          4    1    6    6  502    0  0.20223000404E+03 -0.31008670855E+03 -0.10448557031E+04  0.11085008713E+04  0.00000000000E+00 0. -1.
          3    1    5    5  503    0  0.12996930924E+02  0.21606408743E+02  0.80887655652E+02  0.84726441853E+02  0.00000000000E+00 0. -1.
         -4    1    5    5    0  503  0.22925761012E+02  0.67881652638E+02  0.16549000289E+02  0.73534880794E+02  0.00000000000E+00 0.  1.
         -3    1    6    6    0  502  0.24213407103E+02 -0.11612425465E+03 -0.32745402549E+03  0.34827757667E+03  0.00000000000E+00 0.  1.
<mgrwt>
<rscale>  0 0.17595196E+04</rscale>
<asrwt>0</asrwt>
<pdfrwt beam="1">  1        1 0.63367872E+00 0.17595196E+04</pdfrwt>
<pdfrwt beam="2">  1       -1 0.28908953E-01 0.17595196E+04</pdfrwt>
<totfact> 0.78527635E-01</totfact>
</mgrwt>
</event>
<event>
12    1  0.1494110E-007  0.1802481E+04  0.7818608E-02  0.8704981E-01
         -2   -1    0    0    0  501 -0.00000000000E+00  0.00000000000E+00  0.67419542222E+03  0.67419542222E+03  0.00000000000E+00 0.  1.
          2   -1    0    0  501    0  0.00000000000E+00 -0.00000000000E+00 -0.12047460259E+04  0.12047460259E+04  0.00000000000E+00 0. -1.
         23    2    1    2    0    0  0.25686884829E+03  0.50226442288E+03  0.12242585691E+03  0.58446189914E+03  0.91413704631E+02 0.  0.
        254    2    1    2    0    0 -0.25686884829E+03 -0.50226442288E+03 -0.65297646059E+03  0.12944795490E+04  0.96490822825E+03 0.  0.
        -24    2    4    4    0    0  0.23363790402E+03  0.15402680311E+03 -0.12508317200E+03  0.31659135164E+03  0.79204531091E+02 0.  0.
         24    2    4    4    0    0 -0.49050675230E+03 -0.65629122599E+03 -0.52789328858E+03  0.97788819734E+03  0.79239857418E+02 0.  0.
         11    1    3    3    0    0  0.11785761749E+01 -0.36202685515E+00  0.92007382953E+01  0.92829785318E+01  0.00000000000E+00 0. -1.
        -11    1    3    3    0    0  0.25569027211E+03  0.50262644974E+03  0.11322511861E+03  0.57517892061E+03  0.00000000000E+00 0.  1.
          2    1    6    6  502    0 -0.41043614120E+03 -0.58895975214E+03 -0.44719196435E+03  0.84576123617E+03  0.00000000000E+00 0. -1.
          1    1    5    5  503    0  0.19980133562E+03  0.93116706155E+02 -0.10441241771E+03  0.24391237700E+03  0.00000000000E+00 0. -1.
         -2    1    5    5    0  503  0.33836568395E+02  0.60910096957E+02 -0.20670754297E+02  0.72678974644E+02  0.00000000000E+00 0.  1.
         -1    1    6    6    0  502 -0.80070611109E+02 -0.67331473856E+02 -0.80701324237E+02  0.13212696117E+03  0.00000000000E+00 0.  1.
<mgrwt>
<rscale>  0 0.18024808E+04</rscale>
<asrwt>0</asrwt>
<pdfrwt beam="1">  1        2 0.18534554E+00 0.18024808E+04</pdfrwt>
<pdfrwt beam="2">  1       -2 0.10372237E+00 0.18024808E+04</pdfrwt>
<totfact> 0.13447773E+01</totfact>
</mgrwt>
</event>
<event>
12    1  0.1494110E-007  0.1869687E+04  0.7818608E-02  0.8670094E-01
          1   -1    0    0  501    0  0.00000000000E+00  0.00000000000E+00  0.80412027374E+03  0.80412027374E+03  0.00000000000E+00 0. -1.
         -1   -1    0    0    0  501 -0.00000000000E+00 -0.00000000000E+00 -0.10868183926E+04  0.10868183926E+04  0.00000000000E+00 0.  1.
         23    2    1    2    0    0  0.41998057339E+03 -0.34162016018E+03 -0.57904539912E+03  0.79816950142E+03  0.93236059985E+02 0.  0.
        254    2    1    2    0    0 -0.41998057339E+03  0.34162016018E+03  0.29634728031E+03  0.10927691649E+04  0.90179527682E+03 0.  0.
        -24    2    4    4    0    0  0.52336198234E+02 -0.15360189352E+03 -0.18014278559E+03  0.25520652296E+03  0.79663836361E+02 0.  0.
         24    2    4    4    0    0 -0.47231677163E+03  0.49522205370E+03  0.47649006589E+03  0.83756264192E+03  0.78360583247E+02 0.  0.
         13    1    3    3    0    0  0.14741445053E+03 -0.86560100173E+02 -0.13341595541E+03  0.21684899891E+03  0.00000000000E+00 0. -1.
        -13    1    3    3    0    0  0.27256612286E+03 -0.25506006001E+03 -0.44562944370E+03  0.58132050251E+03  0.00000000000E+00 0.  1.
          2    1    6    6  502    0 -0.28638015560E+03  0.33119642824E+03  0.26591678779E+03  0.51226595205E+03  0.00000000000E+00 0. -1.
          3    1    5    5  503    0  0.22311257838E+02 -0.99585886506E+02 -0.55705034049E+02  0.11626775923E+03  0.00000000000E+00 0. -1.
         -4    1    5    5    0  503  0.30024940396E+02 -0.54016007013E+02 -0.12443775154E+03  0.13893876373E+03  0.00000000000E+00 0.  1.
         -1    1    6    6    0  502 -0.18593661603E+03  0.16402562546E+03  0.21057327810E+03  0.32529668987E+03  0.00000000000E+00 0.  1.
<mgrwt>
<rscale>  0 0.18696874E+04</rscale>
<asrwt>0</asrwt>
<pdfrwt beam="1">  1        1 0.12371081E+00 0.18696874E+04</pdfrwt>
<pdfrwt beam="2">  1       -1 0.16720283E+00 0.18696874E+04</pdfrwt>
<totfact> 0.53077936E+00</totfact>
</mgrwt>
</event>
<event>
12    1  0.1494110E-007  0.1301111E+04  0.7818608E-02  0.9028685E-01
          2   -1    0    0  501    0  0.00000000000E+00  0.00000000000E+00  0.11597337389E+04  0.11597337389E+04  0.00000000000E+00 0. -1.
         -2   -1    0    0    0  501 -0.00000000000E+00 -0.00000000000E+00 -0.36493052523E+03  0.36493052523E+03  0.00000000000E+00 0.  1.
         23    2    1    2    0    0 -0.80124034680E+02  0.25692870761E+03 -0.35640680894E+02  0.28713402325E+03  0.93506510176E+02 0.  0.
        254    2    1    2    0    0  0.80124034680E+02 -0.25692870761E+03  0.83044389457E+03  0.12375302409E+04  0.87716122427E+03 0.  0.
        -24    2    4    4    0    0  0.44849202799E+03 -0.27809395043E+03  0.55751696150E+03  0.77171516869E+03  0.78979711268E+02 0.  0.
         24    2    4    4    0    0 -0.36836799331E+03  0.21165242820E+02  0.27292693307E+03  0.46581507220E+03  0.79697080853E+02 0.  0.
         13    1    3    3    0    0 -0.74878298207E+02  0.24502105931E+03 -0.56674699923E+02  0.26240064912E+03  0.00000000000E+00 0.  1.
        -13    1    3    3    0    0 -0.52457364733E+01  0.11907648297E+02  0.21034019030E+02  0.24733374126E+02  0.00000000000E+00 0. -1.
          2    1    6    6  502    0 -0.32043259297E+03  0.31144646972E+01  0.20374537396E+03  0.37973533407E+03  0.00000000000E+00 0. -1.
          3    1    5    5  503    0  0.44828019411E+03 -0.26758973265E+03  0.55225848990E+03  0.75996633946E+03  0.00000000000E+00 0. -1.
         -4    1    5    5    0  503  0.21183387937E+00 -0.10504217773E+02  0.52584716040E+01  0.11748829228E+02  0.00000000000E+00 0.  1.
         -1    1    6    6    0  502 -0.47935400335E+02  0.18050778123E+02  0.69181559108E+02  0.86079738131E+02  0.00000000000E+00 0.  1.
<mgrwt>
<rscale>  0 0.13011107E+04</rscale>
<asrwt>0</asrwt>
<pdfrwt beam="1">  1        2 0.17842057E+00 0.13011107E+04</pdfrwt>
<pdfrwt beam="2">  1       -2 0.56143158E-01 0.13011107E+04</pdfrwt>
<totfact> 0.58460843E+01</totfact>
</mgrwt>
</event>
<event>
12    1  0.1494110E-007  0.2140808E+04  0.7818608E-02  0.8543477E-01
         -2   -1    0    0    0  501 -0.00000000000E+00  0.00000000000E+00  0.33773799555E+03  0.33773799555E+03  0.00000000000E+00 0. -1.
          2   -1    0    0  501    0  0.00000000000E+00 -0.00000000000E+00 -0.33924653780E+04  0.33924653780E+04  0.00000000000E+00 0.  1.
         23    2    1    2    0    0 -0.53348635673E+03 -0.33797643539E+02 -0.24522456396E+04  0.25115633549E+04  0.93230013284E+02 0.  0.
        254    2    1    2    0    0  0.53348635673E+03  0.33797643539E+02 -0.60248174291E+03  0.12186400187E+04  0.91452133438E+03 0.  0.
        -24    2    4    4    0    0  0.43935564987E+03  0.39136871436E+03 -0.12190323273E+03  0.60696430567E+03  0.85687878665E+02 0.  0.
         24    2    4    4    0    0  0.94130706861E+02 -0.35757107083E+03 -0.48057851018E+03  0.61167571300E+03  0.80460007230E+02 0.  0.
         11    1    3    3    0    0  0.23636157256E+01 -0.53734624815E+01 -0.33378903984E+02  0.33891178933E+02  0.00000000000E+00 0. -1.
        -11    1    3    3    0    0 -0.53584997245E+03 -0.28424181058E+02 -0.24188667356E+04  0.24776721760E+04  0.00000000000E+00 0.  1.
          4    1    6    6  502    0  0.63918358398E+02 -0.33396282858E+03 -0.43450766546E+03  0.55173692894E+03  0.00000000000E+00 0. -1.
          1    1    5    5  503    0  0.22368195409E+03  0.24693592425E+03 -0.44770272186E+02  0.33617754914E+03  0.00000000000E+00 0. -1.
         -2    1    5    5    0  503  0.21567369578E+03  0.14443279011E+03 -0.77132960540E+02  0.27078675653E+03  0.00000000000E+00 0.  1.
         -3    1    6    6    0  502  0.30212348463E+02 -0.23608242249E+02 -0.46070844724E+02  0.59938784066E+02  0.00000000000E+00 0.  1.
<mgrwt>
<rscale>  0 0.21408078E+04</rscale>
<asrwt>0</asrwt>
<pdfrwt beam="1">  1        2 0.52191773E+00 0.21408078E+04</pdfrwt>
<pdfrwt beam="2">  1       -2 0.51959694E-01 0.21408078E+04</pdfrwt>
<totfact> 0.31097792E+00</totfact>
</mgrwt>
</event>
<event>
12    1  0.1494110E-007  0.2799973E+04  0.7818608E-02  0.8303277E-01
          1   -1    0    0  501    0  0.00000000000E+00  0.00000000000E+00  0.23317697380E+04  0.23317697380E+04  0.00000000000E+00 0. -1.
         -1   -1    0    0    0  501 -0.00000000000E+00 -0.00000000000E+00 -0.84054687310E+03  0.84054687310E+03  0.00000000000E+00 0.  1.
         23    2    1    2    0    0  0.52265176852E+03  0.45023534680E+02 -0.62061101108E+03  0.81774120351E+03  0.91381940352E+02 0.  0.
        254    2    1    2    0    0 -0.52265176852E+03 -0.45023534680E+02  0.21118338760E+04  0.23545754076E+04  0.89943929228E+03 0.  0.
        -24    2    4    4    0    0  0.23117946916E+02  0.34919020073E+03  0.84374073446E+03  0.91656819346E+03  0.75700663920E+02 0.  0.
         24    2    4    4    0    0 -0.54576971544E+03 -0.39421373541E+03  0.12680931415E+04  0.14380072142E+04  0.80842320995E+02 0.  0.
         13    1    3    3    0    0  0.29248551837E+03 -0.15833897216E+02 -0.31169225625E+03  0.42772719503E+03  0.00000000000E+00 0. -1.
        -13    1    3    3    0    0  0.23016625015E+03  0.60857431896E+02 -0.30891875483E+03  0.39001400848E+03  0.00000000000E+00 0.  1.
          4    1    6    6  502    0 -0.33779982504E+03 -0.26567231967E+03  0.73275267375E+03  0.84948042009E+03  0.00000000000E+00 0. -1.
          3    1    5    5  503    0  0.14756182782E+02  0.34832844142E+03  0.83230096459E+03  0.90237206500E+03  0.00000000000E+00 0. -1.
         -4    1    5    5    0  503  0.83617641344E+01  0.86175930562E+00  0.11439769872E+02  0.14196128460E+02  0.00000000000E+00 0.  1.
         -3    1    6    6    0  502 -0.20796989040E+03 -0.12854141574E+03  0.53534046779E+03  0.58852679406E+03  0.00000000000E+00 0.  1.
<mgrwt>
<rscale>  0 0.27999727E+04</rscale>
<asrwt>0</asrwt>
<pdfrwt beam="1">  1        1 0.35873380E+00 0.27999727E+04</pdfrwt>
<pdfrwt beam="2">  1       -1 0.12931490E+00 0.27999727E+04</pdfrwt>
<totfact> 0.78733031E-01</totfact>
</mgrwt>
</event>
<event>
12    1  0.1494110E-007  0.2513275E+04  0.7818608E-02  0.8398272E-01
          1   -1    0    0  501    0  0.00000000000E+00  0.00000000000E+00  0.26009239671E+04  0.26009239671E+04  0.00000000000E+00 0. -1.
         -1   -1    0    0    0  501 -0.00000000000E+00 -0.00000000000E+00 -0.60714475256E+03  0.60714475256E+03  0.00000000000E+00 0.  1.
         23    2    1    2    0    0 -0.19586619594E+03 -0.10839924762E+04  0.91631633983E+03  0.14352484135E+04  0.83060932917E+02 0.  0.
        254    2    1    2    0    0  0.19586619594E+03  0.10839924762E+04  0.10774628747E+04  0.17728203062E+04  0.87667687117E+03 0.  0.
        -24    2    4    4    0    0  0.69584205351E+02  0.10829405622E+04  0.11694166942E+04  0.15973721791E+04  0.80375686463E+02 0.  0.
         24    2    4    4    0    0  0.12628199059E+03  0.10519140543E+01 -0.91953819456E+02  0.17544812714E+03  0.79864214349E+02 0.  0.
         11    1    3    3    0    0 -0.13311089124E+02 -0.41552925185E+02  0.58328239412E+02  0.72842392863E+02  0.00000000000E+00 0.  1.
        -11    1    3    3    0    0 -0.18255510682E+03 -0.10424395510E+04  0.85798810042E+03  0.13624060206E+04  0.00000000000E+00 0. -1.
          4    1    6    6  502    0  0.13631328024E+03  0.71130185886E+01 -0.90170849872E+02  0.16359305478E+03  0.00000000000E+00 0. -1.
          1    1    5    5  503    0  0.63776094298E+02  0.10362281746E+04  0.10918737129E+04  0.15066600230E+04  0.00000000000E+00 0. -1.
         -2    1    5    5    0  503  0.58081110529E+01  0.46712387561E+02  0.77542981319E+02  0.90712156062E+02  0.00000000000E+00 0.  1.
         -3    1    6    6    0  502 -0.10031289651E+02 -0.60611045343E+01 -0.17829695841E+01  0.11855072365E+02  0.00000000000E+00 0.  1.
<mgrwt>
<rscale>  0 0.25132746E+04</rscale>
<asrwt>0</asrwt>
<pdfrwt beam="1">  1        1 0.40014214E+00 0.25132746E+04</pdfrwt>
<pdfrwt beam="2">  1       -1 0.93406887E-01 0.25132746E+04</pdfrwt>
<totfact> 0.11366917E+00</totfact>
</mgrwt>
</event>
<event>
12    1  0.1494110E-007  0.1694306E+04  0.7818608E-02  0.8764618E-01
         -2   -1    0    0    0  501 -0.00000000000E+00  0.00000000000E+00  0.70638492910E+03  0.70638492910E+03  0.00000000000E+00 0. -1.
          2   -1    0    0  501    0  0.00000000000E+00 -0.00000000000E+00 -0.10159736102E+04  0.10159736102E+04  0.00000000000E+00 0.  1.
         23    2    1    2    0    0  0.26112323126E+03 -0.21895923904E+02 -0.71167810547E+03  0.76393389777E+03  0.91893965882E+02 0.  0.
        254    2    1    2    0    0 -0.26112323126E+03  0.21895923904E+02  0.40208942433E+03  0.95842464158E+03  0.82960057560E+03 0.  0.
        -24    2    4    4    0    0 -0.23200878068E+03  0.37849434017E+03  0.56594200385E+02  0.45474954993E+03  0.80673476406E+02 0.  0.
         24    2    4    4    0    0 -0.29114450582E+02 -0.35659841626E+03  0.34549522395E+03  0.50367509164E+03  0.79445367768E+02 0.  0.
         11    1    3    3    0    0  0.21720552623E+02 -0.17191001144E+02 -0.27367676675E+02  0.38939731036E+02  0.00000000000E+00 0. -1.
        -11    1    3    3    0    0  0.23940267864E+03 -0.47049227599E+01 -0.68431042879E+03  0.72499416673E+03  0.00000000000E+00 0.  1.
          2    1    6    6  502    0 -0.11383944422E+02 -0.34362447489E+03  0.31662400476E+03  0.46739505167E+03  0.00000000000E+00 0. -1.
          1    1    5    5  503    0 -0.21694716490E+03  0.34408338623E+03  0.73843616427E+02  0.41341544325E+03  0.00000000000E+00 0. -1.
         -2    1    5    5    0  503 -0.15061615783E+02  0.34410953940E+02 -0.17249416042E+02  0.41334106678E+02  0.00000000000E+00 0.  1.
         -3    1    6    6    0  502 -0.17730506159E+02 -0.12973941374E+02  0.28871219184E+02  0.36280039975E+02  0.00000000000E+00 0.  1.
<mgrwt>
<rscale>  0 0.16943063E+04</rscale>
<asrwt>0</asrwt>
<pdfrwt beam="1">  1        2 0.15630363E+00 0.16943063E+04</pdfrwt>
<pdfrwt beam="2">  1       -2 0.10867460E+00 0.16943063E+04</pdfrwt>
<totfact> 0.15847827E+01</totfact>
</mgrwt>
</event>
<event>
12    1  0.1494110E-007  0.1639418E+04  0.7818608E-02  0.8796691E-01
         -2   -1    0    0    0  501 -0.00000000000E+00  0.00000000000E+00  0.29059249553E+03  0.29059249553E+03  0.00000000000E+00 0. -1.
          2   -1    0    0  501    0  0.00000000000E+00 -0.00000000000E+00 -0.23122520513E+04  0.23122520513E+04  0.00000000000E+00 0.  1.
         23    2    1    2    0    0 -0.94145344017E+02  0.52083783828E+03 -0.10477497257E+04  0.11769609623E+04  0.85569968042E+02 0.  0.
        254    2    1    2    0    0  0.94145344017E+02 -0.52083783828E+03 -0.97390983009E+03  0.14258835846E+04  0.89694383325E+03 0.  0.
        -24    2    4    4    0    0  0.41400941129E+03 -0.90303588836E+02 -0.18659429814E+03  0.46994347181E+03  0.80441928158E+02 0.  0.
         24    2    4    4    0    0 -0.31986406727E+03 -0.43053424944E+03 -0.78731553195E+03  0.95594011276E+03  0.79265319375E+02 0.  0.
         13    1    3    3    0    0 -0.13571071469E+01  0.91010206451E+02 -0.12329083139E+03  0.15324923661E+03  0.00000000000E+00 0. -1.
        -13    1    3    3    0    0 -0.92788236870E+02  0.42982763183E+03 -0.92445889434E+03  0.10237117257E+04  0.00000000000E+00 0.  1.
          2    1    6    6  502    0 -0.29655822321E+03 -0.36563991732E+03 -0.71450388719E+03  0.85566064167E+03  0.00000000000E+00 0. -1.
          3    1    5    5  503    0  0.39362025922E+03 -0.10302952178E+03 -0.18066972903E+03  0.44518933255E+03  0.00000000000E+00 0. -1.
         -4    1    5    5    0  503  0.20389152070E+02  0.12725932946E+02 -0.59245691113E+01  0.24754139263E+02  0.00000000000E+00 0.  1.
         -1    1    6    6    0  502 -0.23305844060E+02 -0.64894332125E+02 -0.72811644755E+02  0.10027947109E+03  0.00000000000E+00 0.  1.
<mgrwt>
<rscale>  0 0.16394183E+04</rscale>
<asrwt>0</asrwt>
<pdfrwt beam="1">  1        2 0.35573109E+00 0.16394183E+04</pdfrwt>
<pdfrwt beam="2">  1       -2 0.44706537E-01 0.16394183E+04</pdfrwt>
<totfact> 0.20260474E+01</totfact>
</mgrwt>
</event>
<event>
12    1  0.1494110E-007  0.1135552E+04  0.7818608E-02  0.9171217E-01
         -1   -1    0    0    0  501 -0.00000000000E+00  0.00000000000E+00  0.20987480114E+03  0.20987480114E+03  0.00000000000E+00 0.  1.
          1   -1    0    0  501    0  0.00000000000E+00 -0.00000000000E+00 -0.15360090810E+04  0.15360090810E+04  0.00000000000E+00 0. -1.
         23    2    1    2    0    0 -0.10455842997E+03 -0.16706220696E+03 -0.32788322782E+03  0.39356611210E+03  0.92437152925E+02 0.  0.
        254    2    1    2    0    0  0.10455842997E+03  0.16706220696E+03 -0.99825105203E+03  0.13523177700E+04  0.89073898644E+03 0.  0.
        -24    2    4    4    0    0  0.16631811649E+03  0.15330571104E+03 -0.11468179914E+04  0.11714745069E+04  0.77438092056E+02 0.  0.
         24    2    4    4    0    0 -0.61759686526E+02  0.13756495924E+02  0.14856693934E+03  0.18084326312E+03  0.81416523456E+02 0.  0.
         13    1    3    3    0    0 -0.47575368692E+02 -0.11582041508E+02 -0.49306769731E+02  0.69488969865E+02  0.00000000000E+00 0.  1.
        -13    1    3    3    0    0 -0.56983061277E+02 -0.15548016545E+03 -0.27857645809E+03  0.32407714224E+03  0.00000000000E+00 0. -1.
          4    1    6    6  502    0  0.17184299667E+02 -0.10849022033E+02  0.32570509238E+02  0.38390617423E+02  0.00000000000E+00 0. -1.
          1    1    5    5  503    0  0.19110122823E+02  0.31455194814E+02 -0.35591044077E+03  0.35780842350E+03  0.00000000000E+00 0. -1.
         -2    1    5    5    0  503  0.14720799367E+03  0.12185051622E+03 -0.79090755059E+03  0.81366608341E+03  0.00000000000E+00 0.  1.
         -3    1    6    6    0  502 -0.78943986193E+02  0.24605517957E+02  0.11599643010E+03  0.14245264569E+03  0.00000000000E+00 0.  1.
<mgrwt>
<rscale>  0 0.11355520E+04</rscale>
<asrwt>0</asrwt>
<pdfrwt beam="1">  1        1 0.23630910E+00 0.11355520E+04</pdfrwt>
<pdfrwt beam="2">  1       -1 0.32288430E-01 0.11355520E+04</pdfrwt>
<totfact> 0.55017621E+01</totfact>
</mgrwt>
</event>
<event>
12    1  0.1494110E-007  0.1530293E+04  0.7818608E-02  0.8864555E-01
         -1   -1    0    0    0  501 -0.00000000000E+00  0.00000000000E+00  0.48434206497E+03  0.48434206497E+03  0.00000000000E+00 0.  1.
          1   -1    0    0  501    0  0.00000000000E+00 -0.00000000000E+00 -0.12087511674E+04  0.12087511674E+04  0.00000000000E+00 0. -1.
         23    2    1    2    0    0 -0.48088887348E+03  0.90179131525E+02 -0.16644379108E+03  0.52479628241E+03  0.91220710646E+02 0.  0.
        254    2    1    2    0    0  0.48088887348E+03 -0.90179131525E+02 -0.55796531133E+03  0.11682969499E+04  0.90233369116E+03 0.  0.
        -24    2    4    4    0    0 -0.15681044388E+03 -0.29916779971E+03 -0.22813856164E+03  0.41540316546E+03  0.80135503198E+02 0.  0.
         24    2    4    4    0    0  0.63769931736E+03  0.20898866819E+03 -0.32982674969E+03  0.75289378448E+03  0.87901553523E+02 0.  0.
         11    1    3    3    0    0 -0.21679505317E+03  0.52988457717E+02 -0.29886873333E+02  0.22516904079E+03  0.00000000000E+00 0. -1.
        -11    1    3    3    0    0 -0.26409382030E+03  0.37190673807E+02 -0.13655691774E+03  0.29962724163E+03  0.00000000000E+00 0.  1.
          2    1    6    6  502    0  0.58565248111E+03  0.20631911314E+03 -0.32420823506E+03  0.70047654119E+03  0.00000000000E+00 0. -1.
          1    1    5    5  503    0 -0.97313855319E+02 -0.19824452263E+03 -0.10202437630E+03  0.24326909082E+03  0.00000000000E+00 0. -1.
         -2    1    5    5    0  503 -0.59496588562E+02 -0.10092327708E+03 -0.12611418534E+03  0.17213407464E+03  0.00000000000E+00 0.  1.
         -1    1    6    6    0  502  0.52046836245E+02  0.26695550420E+01 -0.56185146290E+01  0.52417243288E+02  0.00000000000E+00 0.  1.
<mgrwt>
<rscale>  0 0.15302928E+04</rscale>
<asrwt>0</asrwt>
<pdfrwt beam="1">  1        1 0.18596172E+00 0.15302928E+04</pdfrwt>
<pdfrwt beam="2">  1       -1 0.74514165E-01 0.15302928E+04</pdfrwt>
<totfact> 0.18416198E+01</totfact>
</mgrwt>
</event>
<event>
12    1  0.1494110E-007  0.1513904E+04  0.7818608E-02  0.8875259E-01
         -1   -1    0    0    0  501 -0.00000000000E+00  0.00000000000E+00  0.15025613126E+04  0.15025613126E+04  0.00000000000E+00 0.  1.
          1   -1    0    0  501    0  0.00000000000E+00 -0.00000000000E+00 -0.38133291905E+03  0.38133291905E+03  0.00000000000E+00 0. -1.
         23    2    1    2    0    0 -0.21181028767E+03 -0.28367363258E+02  0.94123074802E+03  0.96940859067E+03  0.90384674530E+02 0.  0.
        254    2    1    2    0    0  0.21181028767E+03  0.28367363258E+02  0.17999764549E+03  0.91448564093E+03  0.87075629761E+03 0.  0.
        -24    2    4    4    0    0 -0.17593573118E+03  0.30236236854E+03  0.23603662891E+03  0.42914352100E+03  0.77939001913E+02 0.  0.
         24    2    4    4    0    0  0.38774601885E+03 -0.27399500528E+03 -0.56038983417E+02  0.48534211992E+03  0.83644292442E+02 0.  0.
         13    1    3    3    0    0 -0.57943386719E+02 -0.51488736266E+01  0.11752948948E+03  0.13113782010E+03  0.00000000000E+00 0. -1.
        -13    1    3    3    0    0 -0.15386690095E+03 -0.23218489632E+02  0.82370125854E+03  0.83827077057E+03  0.00000000000E+00 0.  1.
          4    1    6    6  502    0  0.30135207314E+03 -0.23160486145E+03 -0.14003745162E+02  0.38032879028E+03  0.00000000000E+00 0. -1.
          3    1    5    5  503    0 -0.15152203878E+03  0.29271059635E+03  0.20360752708E+03  0.38742024539E+03  0.00000000000E+00 0. -1.
         -4    1    5    5    0  503 -0.24413692399E+02  0.96517721901E+01  0.32429101825E+02  0.41723275616E+02  0.00000000000E+00 0.  1.
         -3    1    6    6    0  502  0.86393945703E+02 -0.42390143835E+02 -0.42035238255E+02  0.10501332965E+03  0.00000000000E+00 0.  1.
<mgrwt>
<rscale>  0 0.15139037E+04</rscale>
<asrwt>0</asrwt>
<pdfrwt beam="1">  1        1 0.58666604E-01 0.15139037E+04</pdfrwt>
<pdfrwt beam="2">  1       -1 0.23116328E+00 0.15139037E+04</pdfrwt>
<totfact> 0.57299082E+00</totfact>
</mgrwt>
</event>
<event>
12    1  0.1494110E-007  0.1560243E+04  0.7818608E-02  0.8845352E-01
         -1   -1    0    0    0  501 -0.00000000000E+00  0.00000000000E+00  0.68985441821E+03  0.68985441821E+03  0.00000000000E+00 0.  1.
          1   -1    0    0  501    0  0.00000000000E+00 -0.00000000000E+00 -0.88219964813E+03  0.88219964813E+03  0.00000000000E+00 0. -1.
         23    2    1    2    0    0  0.50289997721E+03  0.72983975080E+01 -0.21280022529E+03  0.55383090926E+03  0.92103672472E+02 0.  0.
        254    2    1    2    0    0 -0.50289997721E+03 -0.72983975080E+01  0.20454995364E+02  0.10182231571E+04  0.88509792515E+03 0.  0.
        -24    2    4    4    0    0 -0.42962864181E+03  0.95408741515E+02  0.40633581024E+03  0.60430473799E+03  0.79948907790E+02 0.  0.
         24    2    4    4    0    0 -0.73271335403E+02 -0.10270713902E+03 -0.38588081487E+03  0.41391841909E+03  0.80666036088E+02 0.  0.
         13    1    3    3    0    0  0.30881852767E+03  0.61122071775E+01 -0.81322003011E+02  0.31940493153E+03  0.00000000000E+00 0. -1.
        -13    1    3    3    0    0  0.19408144954E+03  0.11861903305E+01 -0.13147822227E+03  0.23442597773E+03  0.00000000000E+00 0.  1.
          2    1    6    6  502    0 -0.83694079228E+02 -0.10911198400E+03 -0.35406242017E+03  0.37982933184E+03  0.00000000000E+00 0. -1.
          1    1    5    5  503    0 -0.32538482492E+03  0.72688842863E+02  0.35103749724E+03  0.48413456459E+03  0.00000000000E+00 0. -1.
         -2    1    5    5    0  503 -0.10424381689E+03  0.22719898652E+02  0.55298313003E+02  0.12017017340E+03  0.00000000000E+00 0.  1.
         -1    1    6    6    0  502  0.10422743824E+02  0.64048449798E+01 -0.31818394704E+02  0.34089087250E+02  0.00000000000E+00 0.  1.
<mgrwt>
<rscale>  0 0.15602427E+04</rscale>
<asrwt>0</asrwt>
<pdfrwt beam="1">  1        1 0.13572302E+00 0.15602427E+04</pdfrwt>
<pdfrwt beam="2">  1       -1 0.10613145E+00 0.15602427E+04</pdfrwt>
<totfact> 0.15049296E+01</totfact>
</mgrwt>
</event>
<event>
12    1  0.1494110E-007  0.2405598E+04  0.7818608E-02  0.8437411E-01
         -1   -1    0    0    0  501 -0.00000000000E+00  0.00000000000E+00  0.18925046084E+04  0.18925046084E+04  0.00000000000E+00 0.  1.
          1   -1    0    0  501    0  0.00000000000E+00 -0.00000000000E+00 -0.76444988116E+03  0.76444988116E+03  0.00000000000E+00 0. -1.
         23    2    1    2    0    0 -0.11625782320E+03 -0.38145672456E+03 -0.56880786291E+03  0.70074543180E+03  0.92068784676E+02 0.  0.
        254    2    1    2    0    0  0.11625782320E+03  0.38145672456E+03  0.16968625901E+04  0.19562090577E+04  0.88791109556E+03 0.  0.
        -24    2    4    4    0    0  0.36446798522E+03  0.53292376776E+03  0.95661276962E+03  0.11568101373E+04  0.79101506844E+02 0.  0.
         24    2    4    4    0    0 -0.24821016202E+03 -0.15146704320E+03  0.74024982048E+03  0.79939892036E+03  0.80735911736E+02 0.  0.
         11    1    3    3    0    0 -0.86845355106E+02 -0.14178524715E+03 -0.26211319763E+03  0.31040054830E+03  0.00000000000E+00 0. -1.
        -11    1    3    3    0    0 -0.29412468094E+02 -0.23967147741E+03 -0.30669466528E+03  0.39034488350E+03  0.00000000000E+00 0.  1.
          2    1    6    6  502    0 -0.17174385229E+02 -0.16348052079E+01  0.11378040529E+03  0.11508089644E+03  0.00000000000E+00 0. -1.
          3    1    5    5  503    0  0.67755628705E+02  0.67843401380E+02  0.18365187353E+03  0.20717519876E+03  0.00000000000E+00 0. -1.
         -4    1    5    5    0  503  0.29671235651E+03  0.46508036638E+03  0.77296089609E+03  0.94963493859E+03  0.00000000000E+00 0.  1.
         -1    1    6    6    0  502 -0.23103577679E+03 -0.14983223799E+03  0.62646941519E+03  0.68431802392E+03  0.00000000000E+00 0.  1.
<mgrwt>
<rscale>  0 0.24055976E+04</rscale>
<asrwt>0</asrwt>
<pdfrwt beam="1">  1        1 0.11760767E+00 0.24055976E+04</pdfrwt>
<pdfrwt beam="2">  1       -1 0.29115455E+00 0.24055976E+04</pdfrwt>
<totfact> 0.80242839E-01</totfact>
</mgrwt>
</event>
<event>
12    1  0.1494110E-007  0.2144039E+04  0.7818608E-02  0.8542088E-01
         -2   -1    0    0    0  501 -0.00000000000E+00  0.00000000000E+00  0.96275328673E+03  0.96275328673E+03  0.00000000000E+00 0.  1.
          2   -1    0    0  501    0  0.00000000000E+00 -0.00000000000E+00 -0.11936870469E+04  0.11936870469E+04  0.00000000000E+00 0. -1.
         23    2    1    2    0    0  0.18040113523E+03  0.82556466404E+03  0.15626051536E+03  0.86462553789E+03  0.95175564108E+02 0.  0.
        254    2    1    2    0    0 -0.18040113523E+03 -0.82556466404E+03 -0.38719427550E+03  0.12918147957E+04  0.89708665987E+03 0.  0.
        -24    2    4    4    0    0  0.32483384949E+03 -0.26742848147E+03 -0.31329921259E+03  0.53059156316E+03  0.79598918406E+02 0.  0.
         24    2    4    4    0    0 -0.50523498472E+03 -0.55813618258E+03 -0.73895062909E+02  0.76122323255E+03  0.84982006124E+02 0.  0.
         11    1    3    3    0    0  0.35816678724E+02  0.50390959888E+02  0.97183481967E+01  0.62582182807E+02  0.00000000000E+00 0. -1.
        -11    1    3    3    0    0  0.14458445651E+03  0.77517370416E+03  0.14654216716E+03  0.80204335508E+03  0.00000000000E+00 0.  1.
          4    1    6    6  502    0 -0.71814667598E+02 -0.12779007667E+03 -0.64007177213E+01  0.14672634176E+03  0.00000000000E+00 0. -1.
          1    1    5    5  503    0  0.99271472758E+02 -0.46434821048E+02 -0.10847975497E+03  0.15420400497E+03  0.00000000000E+00 0. -1.
         -2    1    5    5    0  503  0.22556237673E+03 -0.22099366042E+03 -0.20481945762E+03  0.37638755819E+03  0.00000000000E+00 0.  1.
         -3    1    6    6    0  502 -0.43342031712E+03 -0.43034610590E+03 -0.67494345188E+02  0.61449689079E+03  0.00000000000E+00 0.  1.
<mgrwt>
<rscale>  0 0.21440393E+04</rscale>
<asrwt>0</asrwt>
<pdfrwt beam="1">  1        2 0.18364416E+00 0.21440393E+04</pdfrwt>
<pdfrwt beam="2">  1       -2 0.14811589E+00 0.21440393E+04</pdfrwt>
<totfact> 0.54360524E+00</totfact>
</mgrwt>
</event>
<event>
12    1  0.1494110E-007  0.1067647E+04  0.7818608E-02  0.9237312E-01
         -1   -1    0    0    0  501 -0.00000000000E+00  0.00000000000E+00  0.56058462127E+03  0.56058462127E+03  0.00000000000E+00 0.  1.
          1   -1    0    0  501    0  0.00000000000E+00 -0.00000000000E+00 -0.50833982197E+03  0.50833982197E+03  0.00000000000E+00 0. -1.
         23    2    1    2    0    0  0.60446092625E+02 -0.11210422919E+03  0.40653324598E+02  0.16210938250E+03  0.91682445307E+02 0.  0.
        254    2    1    2    0    0 -0.60446092625E+02  0.11210422919E+03  0.11591474696E+02  0.90681506074E+03  0.89775169383E+03 0.  0.
        -24    2    4    4    0    0  0.53232319309E+02 -0.26547675938E+03  0.30011257995E+03  0.41181652742E+03  0.78827038674E+02 0.  0.
         24    2    4    4    0    0 -0.11367841193E+03  0.37758098857E+03 -0.28852110525E+03  0.49499853332E+03  0.79302809202E+02 0.  0.
         13    1    3    3    0    0  0.75731787800E+02 -0.78588021425E+02  0.55442411542E+02  0.12241422218E+03  0.00000000000E+00 0.  1.
        -13    1    3    3    0    0 -0.15285695175E+02 -0.33516207767E+02 -0.14789086944E+02  0.39695160318E+02  0.00000000000E+00 0. -1.
          2    1    6    6  502    0 -0.11005495523E+03  0.23400805267E+03 -0.18643783224E+03  0.31879605891E+03  0.00000000000E+00 0. -1.
          1    1    5    5  503    0  0.69284895488E+02 -0.16505064161E+03  0.20997907065E+03  0.27592267241E+03  0.00000000000E+00 0. -1.
         -2    1    5    5    0  503 -0.16052576179E+02 -0.10042611777E+03  0.90133509301E+02  0.13589385501E+03  0.00000000000E+00 0.  1.
         -1    1    6    6    0  502 -0.36234567053E+01  0.14357293590E+03 -0.10208327301E+03  0.17620247441E+03  0.00000000000E+00 0.  1.
<mgrwt>
<rscale>  0 0.10676469E+04</rscale>
<asrwt>0</asrwt>
<pdfrwt beam="1">  1        1 0.78206126E-01 0.10676469E+04</pdfrwt>
<pdfrwt beam="2">  1       -1 0.86243788E-01 0.10676469E+04</pdfrwt>
<totfact> 0.57411057E+01</totfact>
</mgrwt>
</event>
<event>
12    1  0.1494110E-007  0.1231490E+04  0.7818608E-02  0.9085731E-01
         -2   -1    0    0    0  501 -0.00000000000E+00  0.00000000000E+00  0.10200209101E+04  0.10200209101E+04  0.00000000000E+00 0.  1.
          2   -1    0    0  501    0  0.00000000000E+00 -0.00000000000E+00 -0.37170035639E+03  0.37170035639E+03  0.00000000000E+00 0. -1.
         23    2    1    2    0    0  0.12069861506E+03 -0.19232846763E+03 -0.20301040764E+02  0.24533010302E+03  0.90643985189E+02 0.  0.
        254    2    1    2    0    0 -0.12069861506E+03  0.19232846763E+03  0.66862159446E+03  0.11463911635E+04  0.90310545782E+03 0.  0.
        -24    2    4    4    0    0  0.23823382977E+03 -0.18185535042E+03  0.17413799158E+02  0.31079766885E+03  0.80406619365E+02 0.  0.
         24    2    4    4    0    0 -0.35893244483E+03  0.37418381805E+03  0.65120779530E+03  0.83559349462E+03  0.72793309700E+02 0.  0.
         13    1    3    3    0    0  0.10403652130E+03 -0.11700695681E+03  0.20759784095E+02  0.15794047721E+03  0.00000000000E+00 0.  1.
        -13    1    3    3    0    0  0.16662093768E+02 -0.75321510816E+02 -0.41060824858E+02  0.87389625805E+02  0.00000000000E+00 0. -1.
          2    1    6    6  502    0 -0.18778333927E+03  0.15586729722E+03  0.34259119488E+03  0.42062563363E+03  0.00000000000E+00 0. -1.
          3    1    5    5  503    0  0.20667781248E+03 -0.16393572688E+03 -0.12017620986E+02  0.26407397436E+03  0.00000000000E+00 0. -1.
         -4    1    5    5    0  503  0.31556017289E+02 -0.17919623534E+02  0.29431420144E+02  0.46723694486E+02  0.00000000000E+00 0.  1.
         -1    1    6    6    0  502 -0.17114910557E+03  0.21831652083E+03  0.30861660042E+03  0.41496786099E+03  0.00000000000E+00 0.  1.
<mgrwt>
<rscale>  0 0.12314904E+04</rscale>
<asrwt>0</asrwt>
<pdfrwt beam="1">  1        2 0.57184671E-01 0.12314904E+04</pdfrwt>
<pdfrwt beam="2">  1       -2 0.15692629E+00 0.12314904E+04</pdfrwt>
<totfact> 0.22557219E+01</totfact>
</mgrwt>
</event>
<event>
12    1  0.1494110E-007  0.1142642E+04  0.7818608E-02  0.9164599E-01
          2   -1    0    0  501    0  0.00000000000E+00  0.00000000000E+00  0.75497079740E+03  0.75497079740E+03  0.00000000000E+00 0. -1.
         -2   -1    0    0    0  501 -0.00000000000E+00 -0.00000000000E+00 -0.43234454819E+03  0.43234454819E+03  0.00000000000E+00 0.  1.
         23    2    1    2    0    0 -0.19087483241E+03 -0.32508060182E+02  0.10710326883E+02  0.21952257883E+03  0.10288574192E+03 0.  0.
        254    2    1    2    0    0  0.19087483241E+03  0.32508060182E+02  0.31191592232E+03  0.96779276676E+03  0.89545592922E+03 0.  0.
        -24    2    4    4    0    0  0.21226799324E+03 -0.40478892834E+03  0.98770216753E+02  0.47425785223E+03  0.79077033498E+02 0.  0.
         24    2    4    4    0    0 -0.21393160836E+02  0.43729698852E+03  0.21314570557E+03  0.49353491453E+03  0.80369749008E+02 0.  0.
         11    1    3    3    0    0 -0.74567392892E+02  0.14899145347E+02 -0.37754750920E+02  0.84898185091E+02  0.00000000000E+00 0.  1.
        -11    1    3    3    0    0 -0.11630743952E+03 -0.47407205530E+02  0.48465077803E+02  0.13462439374E+03  0.00000000000E+00 0. -1.
          4    1    6    6  502    0 -0.47169423056E+02  0.20982651105E+03  0.85573701542E+02  0.23146269160E+03  0.00000000000E+00 0. -1.
          1    1    5    5  503    0  0.21384693700E+03 -0.36430828762E+03  0.81529005048E+02  0.43023019368E+03  0.00000000000E+00 0. -1.
         -2    1    5    5    0  503 -0.15789437564E+01 -0.40480640719E+02  0.17241211704E+02  0.44027658551E+02  0.00000000000E+00 0.  1.
         -1    1    6    6    0  502  0.25776262220E+02  0.22747047748E+03  0.12757200402E+03  0.26207222292E+03  0.00000000000E+00 0.  1.
<mgrwt>
<rscale>  0 0.11426417E+04</rscale>
<asrwt>0</asrwt>
<pdfrwt beam="1">  1        2 0.11614935E+00 0.11426417E+04</pdfrwt>
<pdfrwt beam="2">  1       -2 0.66514546E-01 0.11426417E+04</pdfrwt>
<totfact> 0.76521103E+01</totfact>
</mgrwt>
</event>
<event>
12    1  0.1494110E-007  0.1991945E+04  0.7818608E-02  0.8610396E-01
         -2   -1    0    0    0  501 -0.00000000000E+00  0.00000000000E+00  0.54720360184E+03  0.54720360184E+03  0.00000000000E+00 0.  1.
          2   -1    0    0  501    0  0.00000000000E+00 -0.00000000000E+00 -0.18127826040E+04  0.18127826040E+04  0.00000000000E+00 0. -1.
         23    2    1    2    0    0 -0.39484525963E+03 -0.33186563107E+03  0.17194099177E+03  0.55152346320E+03  0.92611282670E+02 0.  0.
        254    2    1    2    0    0  0.39484525963E+03  0.33186563107E+03 -0.14375199939E+04  0.18084627426E+04  0.96852268035E+03 0.  0.
        -24    2    4    4    0    0  0.93786743072E+02 -0.18451462719E+03  0.28377985498E+02  0.22346492791E+03  0.79307396397E+02 0.  0.
         24    2    4    4    0    0  0.30105851656E+03  0.51638025826E+03 -0.14658979794E+04  0.15849978147E+04  0.77951170873E+02 0.  0.
         13    1    3    3    0    0 -0.61876786095E+02 -0.87897011682E+02  0.63056455265E+02  0.12462238110E+03  0.00000000000E+00 0. -1.
        -13    1    3    3    0    0 -0.33296847354E+03 -0.24396861939E+03  0.10888453650E+03  0.42690108211E+03  0.00000000000E+00 0.  1.
          4    1    6    6  502    0  0.19823321378E+02  0.27362663238E+02 -0.45468571521E+02  0.56648657584E+02  0.00000000000E+00 0. -1.
          3    1    5    5  503    0 -0.59684602611E+01 -0.37309761874E+02  0.25567232493E+02  0.45621532486E+02  0.00000000000E+00 0. -1.
         -4    1    5    5    0  503  0.99755203333E+02 -0.14720486532E+03  0.28107530047E+01  0.17784339543E+03  0.00000000000E+00 0.  1.
         -1    1    6    6    0  502  0.28123519518E+03  0.48901759502E+03 -0.14204294079E+04  0.15283491571E+04  0.00000000000E+00 0.  1.
<mgrwt>
<rscale>  0 0.19919449E+04</rscale>
<asrwt>0</asrwt>
<pdfrwt beam="1">  1        2 0.27888963E+00 0.19919449E+04</pdfrwt>
<pdfrwt beam="2">  1       -2 0.84185170E-01 0.19919449E+04</pdfrwt>
<totfact> 0.97192590E+00</totfact>
</mgrwt>
</event>
<event>
12    1  0.1494110E-007  0.1857933E+04  0.7818608E-02  0.8676084E-01
         -1   -1    0    0    0  501 -0.00000000000E+00  0.00000000000E+00  0.46055948032E+03  0.46055948032E+03  0.00000000000E+00 0.  1.
          1   -1    0    0  501    0  0.00000000000E+00 -0.00000000000E+00 -0.18737610506E+04  0.18737610506E+04  0.00000000000E+00 0. -1.
         23    2    1    2    0    0  0.31732023408E+02 -0.67845964328E+02 -0.14095785782E+04  0.14151674674E+04  0.10088209150E+03 0.  0.
        254    2    1    2    0    0 -0.31732023408E+02  0.67845964328E+02 -0.36229920815E+01  0.91915306355E+03  0.91608909609E+03 0.  0.
        -24    2    4    4    0    0 -0.28942575121E+03  0.54736361896E+02 -0.36004964588E+03  0.47202473491E+03  0.80051658920E+02 0.  0.
         24    2    4    4    0    0  0.25769372780E+03  0.13109602432E+02  0.35642665380E+03  0.44712832864E+03  0.79409468625E+02 0.  0.
         11    1    3    3    0    0  0.44286820466E+02 -0.85280889013E+02 -0.12971439736E+04  0.13006985203E+04  0.00000000000E+00 0. -1.
        -11    1    3    3    0    0 -0.12554797059E+02  0.17434924685E+02 -0.11243460462E+03  0.11446894707E+03  0.00000000000E+00 0.  1.
          2    1    6    6  502    0  0.22901406365E+03 -0.12927877864E+02  0.28466971727E+03  0.36558366936E+03  0.00000000000E+00 0. -1.
          1    1    5    5  503    0 -0.20272428168E+03  0.57906227487E+02 -0.20339754803E+03  0.29295192116E+03  0.00000000000E+00 0. -1.
         -2    1    5    5    0  503 -0.86701469525E+02 -0.31698655914E+01 -0.15665209784E+03  0.17907281375E+03  0.00000000000E+00 0.  1.
         -1    1    6    6    0  502  0.28679664154E+02  0.26037480296E+02  0.71756936526E+02  0.81544659271E+02  0.00000000000E+00 0.  1.
<mgrwt>
<rscale>  0 0.18579326E+04</rscale>
<asrwt>0</asrwt>
<pdfrwt beam="1">  1        1 0.28827093E+00 0.18579326E+04</pdfrwt>
<pdfrwt beam="2">  1       -1 0.70855305E-01 0.18579326E+04</pdfrwt>
<totfact> 0.68582615E+00</totfact>
</mgrwt>
</event>
<event>
12    1  0.1494110E-007  0.1574911E+04  0.7818608E-02  0.8836111E-01
          1   -1    0    0  501    0  0.00000000000E+00  0.00000000000E+00  0.83092994185E+03  0.83092994185E+03  0.00000000000E+00 0. -1.
         -1   -1    0    0    0  501 -0.00000000000E+00 -0.00000000000E+00 -0.74625534293E+03  0.74625534293E+03  0.00000000000E+00 0.  1.
         23    2    1    2    0    0 -0.26890709034E+03 -0.59847514050E+02  0.48109119609E+03  0.56194193598E+03  0.91854516960E+02 0.  0.
        254    2    1    2    0    0  0.26890709034E+03  0.59847514050E+02 -0.39641659717E+03  0.10152433488E+04  0.89312943664E+03 0.  0.
        -24    2    4    4    0    0  0.13789823961E+03 -0.40163359419E+03 -0.27916119764E+03  0.51462600761E+03  0.81138677413E+02 0.  0.
         24    2    4    4    0    0  0.13100885073E+03  0.46148110824E+03 -0.11725539954E+03  0.50061734119E+03  0.82102139734E+02 0.  0.
         11    1    3    3    0    0 -0.26942818424E+03 -0.68319561659E+02  0.44349433438E+03  0.52339882842E+03  0.00000000000E+00 0. -1.
        -11    1    3    3    0    0  0.52109390494E+00  0.84720476084E+01  0.37596861713E+02  0.38543107558E+02  0.00000000000E+00 0.  1.
          2    1    6    6  502    0  0.11637372089E+03  0.35356846274E+03 -0.58247715361E+02  0.37675761055E+03  0.00000000000E+00 0. -1.
          1    1    5    5  503    0  0.91043909246E+02 -0.34205376813E+03 -0.25030224470E+03  0.43352161123E+03  0.00000000000E+00 0. -1.
         -2    1    5    5    0  503  0.46854330363E+02 -0.59579826056E+02 -0.28858952935E+02  0.81104396374E+02  0.00000000000E+00 0.  1.
         -1    1    6    6    0  502  0.14635129840E+02  0.10791264549E+03 -0.59007684174E+02  0.12385973064E+03  0.00000000000E+00 0.  1.
<mgrwt>
<rscale>  0 0.15749107E+04</rscale>
<asrwt>0</asrwt>
<pdfrwt beam="1">  1        1 0.12783538E+00 0.15749107E+04</pdfrwt>
<pdfrwt beam="2">  1       -1 0.11480851E+00 0.15749107E+04</pdfrwt>
<totfact> 0.13779715E+01</totfact>
</mgrwt>
</event>
<event>
12    1  0.1494110E-007  0.2821516E+04  0.7818608E-02  0.8296619E-01
          1   -1    0    0  501    0  0.00000000000E+00  0.00000000000E+00  0.19173650523E+04  0.19173650523E+04  0.00000000000E+00 0.  1.
         -1   -1    0    0    0  501 -0.00000000000E+00 -0.00000000000E+00 -0.10380068953E+04  0.10380068953E+04  0.00000000000E+00 0. -1.
         23    2    1    2    0    0 -0.69790063094E+03 -0.10143094886E+04  0.78835252175E+02  0.12370672536E+04  0.90726862505E+02 0.  0.
        254    2    1    2    0    0  0.69790063094E+03  0.10143094886E+04  0.80052290482E+03  0.17183046940E+04  0.89210149132E+03 0.  0.
        -24    2    4    4    0    0 -0.55847478706E+02 -0.56845828745E+02  0.28748207203E+03  0.30949246964E+03  0.82396953238E+02 0.  0.
         24    2    4    4    0    0  0.75374810965E+03  0.10711553174E+04  0.51304083279E+03  0.14088122243E+04  0.77659903397E+02 0.  0.
         11    1    3    3    0    0 -0.77910535589E+02 -0.11152710064E+03 -0.19726704978E+02  0.13746813675E+03  0.00000000000E+00 0.  1.
        -11    1    3    3    0    0 -0.61999009535E+03 -0.90278238798E+03  0.98561957153E+02  0.10995991169E+04  0.00000000000E+00 0. -1.
          4    1    6    6  502    0  0.22587936012E+02  0.14031877048E+02  0.75363818377E+01  0.27638840026E+02  0.00000000000E+00 0. -1.
          1    1    5    5  503    0 -0.15632853635E+02 -0.63858899128E+01  0.20040001233E+03  0.20111024500E+03  0.00000000000E+00 0. -1.
         -2    1    5    5    0  503 -0.40214625071E+02 -0.50459938833E+02  0.87082059705E+02  0.10838222465E+03  0.00000000000E+00 0.  1.
         -3    1    6    6    0  502  0.73116017364E+03  0.10571234403E+04  0.50550445095E+03  0.13811733843E+04  0.00000000000E+00 0.  1.
<mgrwt>
<rscale>  0 0.28215160E+04</rscale>
<asrwt>0</asrwt>
<pdfrwt beam="1">  1        1 0.29497924E+00 0.28215160E+04</pdfrwt>
<pdfrwt beam="2">  1       -1 0.15969337E+00 0.28215160E+04</pdfrwt>
<totfact> 0.86086434E-01</totfact>
</mgrwt>
</event>
<event>
12    1  0.1494110E-007  0.2988240E+04  0.7818608E-02  0.8247097E-01
          1   -1    0    0  501    0  0.00000000000E+00  0.00000000000E+00  0.10803560722E+04  0.10803560722E+04  0.00000000000E+00 0. -1.
         -1   -1    0    0    0  501 -0.00000000000E+00 -0.00000000000E+00 -0.20663504309E+04  0.20663504309E+04  0.00000000000E+00 0.  1.
         23    2    1    2    0    0 -0.86907199374E+03  0.10409195766E+04 -0.39830542707E+03  0.14162550192E+04  0.91276343607E+02 0.  0.
        254    2    1    2    0    0  0.86907199374E+03 -0.10409195766E+04 -0.58768893159E+03  0.17304514839E+04  0.90015796541E+03 0.  0.
        -24    2    4    4    0    0  0.10265090050E+04 -0.70720067837E+03 -0.46672905317E+03  0.13337203196E+04  0.84382136811E+02 0.  0.
         24    2    4    4    0    0 -0.15743701123E+03 -0.33371889819E+03 -0.12095987842E+03  0.39673116434E+03  0.81299502187E+02 0.  0.
         13    1    3    3    0    0 -0.58978711127E+03  0.66145224097E+03 -0.29378918269E+03  0.93363803884E+03  0.00000000000E+00 0. -1.
        -13    1    3    3    0    0 -0.27928488248E+03  0.37946733560E+03 -0.10451624438E+03  0.48261698033E+03  0.00000000000E+00 0.  1.
          4    1    6    6  502    0 -0.71038617175E+02 -0.19330609444E+03 -0.29070101284E+02  0.20798750460E+03  0.00000000000E+00 0. -1.
          3    1    5    5  503    0  0.64995287837E+03 -0.41484563833E+03 -0.32109858526E+03  0.83524843561E+03  0.00000000000E+00 0. -1.
         -4    1    5    5    0  503  0.37655612660E+03 -0.29235504005E+03 -0.14563046790E+03  0.49847188397E+03  0.00000000000E+00 0.  1.
         -3    1    6    6    0  502 -0.86398394050E+02 -0.14041280375E+03 -0.91889777138E+02  0.18874365974E+03  0.00000000000E+00 0.  1.
<mgrwt>
<rscale>  0 0.29882398E+04</rscale>
<asrwt>0</asrwt>
<pdfrwt beam="1">  1        1 0.16620863E+00 0.29882398E+04</pdfrwt>
<pdfrwt beam="2">  1       -1 0.31790006E+00 0.29882398E+04</pdfrwt>
<totfact> 0.28228875E-01</totfact>
</mgrwt>
</event>
<event>
12    1  0.1494110E-007  0.1329303E+04  0.7818608E-02  0.9006645E-01
          2   -1    0    0  501    0  0.00000000000E+00  0.00000000000E+00  0.23945640233E+04  0.23945640233E+04  0.00000000000E+00 0. -1.
         -2   -1    0    0    0  501 -0.00000000000E+00 -0.00000000000E+00 -0.18448509007E+03  0.18448509007E+03  0.00000000000E+00 0.  1.
         23    2    1    2    0    0 -0.60202893794E+02 -0.25016875208E+03  0.99355782838E+03  0.10306122035E+04  0.93784662014E+02 0.  0.
        254    2    1    2    0    0  0.60202893794E+02  0.25016875208E+03  0.12165211049E+04  0.15484369098E+04  0.92278083652E+03 0.  0.
        -24    2    4    4    0    0 -0.26107859902E+03  0.43670936906E+03  0.96129976744E+03  0.10904383744E+04  0.77983957156E+02 0.  0.
         24    2    4    4    0    0  0.32128149281E+03 -0.18654061698E+03  0.25522133742E+03  0.45799853544E+03  0.81274399324E+02 0.  0.
         13    1    3    3    0    0 -0.68393624993E+02 -0.25158322795E+03  0.90907609882E+03  0.94572256078E+03  0.00000000000E+00 0. -1.
        -13    1    3    3    0    0  0.81907311991E+01  0.14144758716E+01  0.84481729555E+02  0.84889642762E+02  0.00000000000E+00 0.  1.
          2    1    6    6  502    0  0.60005420661E+02 -0.16639226479E+01  0.35013633332E+02  0.69493695156E+02  0.00000000000E+00 0. -1.
          3    1    5    5  503    0 -0.88540782104E+01  0.13411557176E+02  0.95375704203E+01  0.18687691574E+02  0.00000000000E+00 0. -1.
         -4    1    5    5    0  503 -0.25222452081E+03  0.42329781189E+03  0.95176219702E+03  0.10717506828E+04  0.00000000000E+00 0.  1.
         -1    1    6    6    0  502  0.26127607215E+03 -0.18487669433E+03  0.22020770409E+03  0.38850484029E+03  0.00000000000E+00 0.  1.
<mgrwt>
<rscale>  0 0.13293026E+04</rscale>
<asrwt>0</asrwt>
<pdfrwt beam="1">  1        2 0.36839444E+00 0.13293026E+04</pdfrwt>
<pdfrwt beam="2">  1       -2 0.28382323E-01 0.13293026E+04</pdfrwt>
<totfact> 0.44680470E+01</totfact>
</mgrwt>
</event>
<event>
12    1  0.1494110E-007  0.2685105E+04  0.7818608E-02  0.8339854E-01
         -2   -1    0    0    0  501 -0.00000000000E+00  0.00000000000E+00  0.70528861214E+03  0.70528861214E+03  0.00000000000E+00 0.  1.
          2   -1    0    0  501    0  0.00000000000E+00 -0.00000000000E+00 -0.25556158906E+04  0.25556158906E+04  0.00000000000E+00 0. -1.
         23    2    1    2    0    0 -0.10328203356E+04 -0.53659493135E+03 -0.52782076335E+03  0.12813953473E+04  0.93420082728E+02 0.  0.
        254    2    1    2    0    0  0.10328203356E+04  0.53659493135E+03 -0.13225065151E+04  0.19795091554E+04  0.90265222976E+03 0.  0.
        -24    2    4    4    0    0  0.48815947621E+03  0.16448162838E+03 -0.24946333864E+02  0.52171456121E+03  0.78802814148E+02 0.  0.
         24    2    4    4    0    0  0.54466085941E+03  0.37211330297E+03 -0.12975601812E+04  0.14577945942E+04  0.79867972117E+02 0.  0.
         11    1    3    3    0    0 -0.90547251465E+03 -0.43717411765E+03 -0.46865039553E+03  0.11093398384E+04  0.00000000000E+00 0. -1.
        -11    1    3    3    0    0 -0.12734782097E+03 -0.99420813693E+02 -0.59170367821E+02  0.17205550886E+03  0.00000000000E+00 0.  1.
          4    1    6    6  502    0  0.32583644427E+03  0.25068814951E+03 -0.87320810750E+03  0.96514575880E+03  0.00000000000E+00 0. -1.
          3    1    5    5  503    0  0.43623119396E+03  0.16691742075E+03 -0.36369692696E+02  0.46848888405E+03  0.00000000000E+00 0. -1.
         -4    1    5    5    0  503  0.51928282251E+02 -0.24357923714E+01  0.11423358832E+02  0.53225677159E+02  0.00000000000E+00 0.  1.
         -3    1    6    6    0  502  0.21882441514E+03  0.12142515346E+03 -0.42435207372E+03  0.49264883540E+03  0.00000000000E+00 0.  1.
<mgrwt>
<rscale>  0 0.26851047E+04</rscale>
<asrwt>0</asrwt>
<pdfrwt beam="1">  1        2 0.39317168E+00 0.26851047E+04</pdfrwt>
<pdfrwt beam="2">  1       -2 0.10850594E+00 0.26851047E+04</pdfrwt>
<totfact> 0.19268893E+00</totfact>
</mgrwt>
</event>
<event>
12    1  0.1494110E-007  0.1799293E+04  0.7818608E-02  0.8706675E-01
          2   -1    0    0  501    0  0.00000000000E+00  0.00000000000E+00  0.76950578007E+03  0.76950578007E+03  0.00000000000E+00 0. -1.
         -2   -1    0    0    0  501 -0.00000000000E+00 -0.00000000000E+00 -0.10517971800E+04  0.10517971800E+04  0.00000000000E+00 0.  1.
         23    2    1    2    0    0  0.36833714721E+03  0.51479387190E+03  0.11389879250E+03  0.64958144917E+03  0.91094125020E+02 0.  0.
        254    2    1    2    0    0 -0.36833714721E+03 -0.51479387190E+03 -0.39619019238E+03  0.11717215109E+04  0.90292837253E+03 0.  0.
        -24    2    4    4    0    0 -0.94200612344E+02 -0.40192909319E+03 -0.64986215053E+03  0.77389950127E+03  0.78605801601E+02 0.  0.
         24    2    4    4    0    0 -0.27413653486E+03 -0.11286477871E+03  0.25367195815E+03  0.39782200959E+03  0.77611796427E+02 0.  0.
         13    1    3    3    0    0  0.24425585205E+03  0.37538648899E+03  0.42914882898E+02  0.44990846241E+03  0.00000000000E+00 0. -1.
        -13    1    3    3    0    0  0.12408129516E+03  0.13940738291E+03  0.70983909601E+02  0.19967298676E+03  0.00000000000E+00 0.  1.
          2    1    6    6  502    0 -0.25831845980E+03 -0.11240281851E+03  0.25736153002E+03  0.38157276818E+03  0.00000000000E+00 0. -1.
          3    1    5    5  503    0 -0.56863563276E+02 -0.20700566952E+03 -0.40801036607E+03  0.46103933765E+03  0.00000000000E+00 0. -1.
         -4    1    5    5    0  503 -0.37337049068E+02 -0.19492342367E+03 -0.24185178446E+03  0.31286016361E+03  0.00000000000E+00 0.  1.
         -1    1    6    6    0  502 -0.15818075063E+02 -0.46196020139E+00 -0.36895718693E+01  0.16249241413E+02  0.00000000000E+00 0.  1.
<mgrwt>
<rscale>  0 0.17992932E+04</rscale>
<asrwt>0</asrwt>
<pdfrwt beam="1">  1        2 0.11838551E+00 0.17992932E+04</pdfrwt>
<pdfrwt beam="2">  1       -2 0.16181495E+00 0.17992932E+04</pdfrwt>
<totfact> 0.83580562E+00</totfact>
</mgrwt>
</event>
<event>
12    1  0.1494110E-007  0.2107256E+04  0.7818608E-02  0.8558054E-01
         -2   -1    0    0    0  501 -0.00000000000E+00  0.00000000000E+00  0.75558098516E+03  0.75558098516E+03  0.00000000000E+00 0.  1.
          2   -1    0    0  501    0  0.00000000000E+00 -0.00000000000E+00 -0.14692431183E+04  0.14692431183E+04  0.00000000000E+00 0. -1.
         23    2    1    2    0    0  0.38462477409E+03  0.48680203923E+03 -0.91717538720E+03  0.11126506346E+04  0.10894173437E+03 0.  0.
        254    2    1    2    0    0 -0.38462477409E+03 -0.48680203923E+03  0.20351325407E+03  0.11121734689E+04  0.90033312615E+03 0.  0.
        -24    2    4    4    0    0 -0.11949745693E+03  0.17865830957E+03  0.30775037054E+03  0.38418308866E+03  0.81779711727E+02 0.  0.
         24    2    4    4    0    0 -0.26512731715E+03 -0.66546034880E+03 -0.10423711647E+03  0.72799038022E+03  0.77295841519E+02 0.  0.
         13    1    3    3    0    0  0.30827827465E+03  0.42711317939E+03 -0.71127156228E+03  0.88508101208E+03  0.00000000000E+00 0. -1.
        -13    1    3    3    0    0  0.76346499438E+02  0.59688859833E+02 -0.20590382492E+03  0.22756962249E+03  0.00000000000E+00 0.  1.
          2    1    6    6  502    0 -0.17648978339E+03 -0.40108628498E+03 -0.98299713457E+02  0.44908984102E+03  0.00000000000E+00 0. -1.
          3    1    5    5  503    0 -0.47334001571E+02  0.65334081351E+02  0.18652604930E+03  0.20322651638E+03  0.00000000000E+00 0. -1.
         -4    1    5    5    0  503 -0.72163455363E+02  0.11332422822E+03  0.12122432124E+03  0.18095657228E+03  0.00000000000E+00 0.  1.
         -1    1    6    6    0  502 -0.88637533766E+02 -0.26437406381E+03 -0.59374030126E+01  0.27890053920E+03  0.00000000000E+00 0.  1.
<mgrwt>
<rscale>  0 0.21072562E+04</rscale>
<asrwt>0</asrwt>
<pdfrwt beam="1">  1        2 0.22603740E+00 0.21072562E+04</pdfrwt>
<pdfrwt beam="2">  1       -2 0.11624323E+00 0.21072562E+04</pdfrwt>
<totfact> 0.69905687E+00</totfact>
</mgrwt>
</event>
<event>
12    1  0.1494110E-007  0.2889002E+04  0.7818608E-02  0.8276157E-01
          2   -1    0    0  501    0  0.00000000000E+00  0.00000000000E+00  0.12962277869E+04  0.12962277869E+04  0.00000000000E+00 0. -1.
         -2   -1    0    0    0  501 -0.00000000000E+00 -0.00000000000E+00 -0.16097345759E+04  0.16097345759E+04  0.00000000000E+00 0.  1.
         23    2    1    2    0    0  0.12839280521E+04  0.19098225018E+03 -0.65849843967E+02  0.13029040841E+04  0.90980148500E+02 0.  0.
        254    2    1    2    0    0 -0.12839280521E+04 -0.19098225018E+03 -0.24765694502E+03  0.16030582788E+04  0.90747805477E+03 0.  0.
        -24    2    4    4    0    0 -0.52066164149E+03  0.32327172624E+03 -0.27708201479E+03  0.67823708561E+03  0.87395351529E+02 0.  0.
         24    2    4    4    0    0 -0.76326641062E+03 -0.51425397642E+03  0.29425069763E+02  0.92482119318E+03  0.85997899827E+02 0.  0.
         13    1    3    3    0    0  0.12623861346E+04  0.17549397510E+03 -0.61422416839E+02  0.12760053297E+04  0.00000000000E+00 0. -1.
        -13    1    3    3    0    0  0.21541917516E+02  0.15488275087E+02 -0.44274271284E+01  0.26898754365E+02  0.00000000000E+00 0.  1.
          2    1    6    6  502    0 -0.21205134157E+03 -0.97911436338E+02  0.58927095562E+01  0.23363891982E+03  0.00000000000E+00 0. -1.
          3    1    5    5  503    0 -0.98250792233E+02  0.93414569912E+02 -0.35886354078E+02  0.14024025975E+03  0.00000000000E+00 0. -1.
         -4    1    5    5    0  503 -0.42241084925E+03  0.22985715633E+03 -0.24119566071E+03  0.53799682585E+03  0.00000000000E+00 0.  1.
         -1    1    6    6    0  502 -0.55121506905E+03 -0.41634254008E+03  0.23532360207E+02  0.69118227336E+03  0.00000000000E+00 0.  1.
<mgrwt>
<rscale>  0 0.28890017E+04</rscale>
<asrwt>0</asrwt>
<pdfrwt beam="1">  1        2 0.19941966E+00 0.28890017E+04</pdfrwt>
<pdfrwt beam="2">  1       -2 0.24765147E+00 0.28890017E+04</pdfrwt>
<totfact> 0.95360803E-01</totfact>
</mgrwt>
</event>
<event>
12    1  0.1494110E-007  0.1925826E+04  0.7818608E-02  0.8642107E-01
          2   -1    0    0  501    0  0.00000000000E+00  0.00000000000E+00  0.69193082128E+03  0.69193082128E+03  0.00000000000E+00 0. -1.
         -2   -1    0    0    0  501 -0.00000000000E+00 -0.00000000000E+00 -0.13400208021E+04  0.13400208021E+04  0.00000000000E+00 0.  1.
         23    2    1    2    0    0 -0.53278904312E+03 -0.20671484177E+03 -0.78222497102E+03  0.97319664154E+03  0.92954868298E+02 0.  0.
        254    2    1    2    0    0  0.53278904312E+03  0.20671484177E+03  0.13413499023E+03  0.10587549818E+04  0.88112128882E+03 0.  0.
        -24    2    4    4    0    0  0.41184735738E+03  0.12574530695E+03 -0.34144174275E+03  0.55542521526E+03  0.80526877807E+02 0.  0.
         24    2    4    4    0    0  0.12094168574E+03  0.80969534821E+02  0.47557673299E+03  0.50332976655E+03  0.77360636089E+02 0.  0.
         13    1    3    3    0    0 -0.45189878640E+03 -0.20789208072E+03 -0.68842598466E+03  0.84933030485E+03  0.00000000000E+00 0.  1.
        -13    1    3    3    0    0 -0.80890256714E+02  0.11772389502E+01 -0.93798986361E+02  0.12386633669E+03  0.00000000000E+00 0. -1.
          2    1    6    6  502    0 -0.38726862097E+01  0.29497755698E+02  0.91395356727E+02  0.96115693417E+02  0.00000000000E+00 0. -1.
          1    1    5    5  503    0  0.51547562259E+02 -0.51480707946E+01 -0.63373611857E+02  0.81852724375E+02  0.00000000000E+00 0. -1.
         -2    1    5    5    0  503  0.36029979512E+03  0.13089337774E+03 -0.27806813090E+03  0.47357249088E+03  0.00000000000E+00 0.  1.
         -3    1    6    6    0  502  0.12481437195E+03  0.51471779123E+02  0.38418137626E+03  0.40721407313E+03  0.00000000000E+00 0.  1.
<mgrwt>
<rscale>  0 0.19258263E+04</rscale>
<asrwt>0</asrwt>
<pdfrwt beam="1">  1        2 0.10645090E+00 0.19258263E+04</pdfrwt>
<pdfrwt beam="2">  1       -2 0.20615705E+00 0.19258263E+04</pdfrwt>
<totfact> 0.47085756E+00</totfact>
</mgrwt>
</event>
<event>
12    1  0.1494110E-007  0.1628883E+04  0.7818608E-02  0.8802998E-01
         -2   -1    0    0    0  501 -0.00000000000E+00  0.00000000000E+00  0.20703895185E+03  0.20703895185E+03  0.00000000000E+00 0.  1.
          2   -1    0    0  501    0  0.00000000000E+00 -0.00000000000E+00 -0.32038160182E+04  0.32038160182E+04  0.00000000000E+00 0. -1.
         23    2    1    2    0    0  0.24842815428E+03 -0.11784813471E+03 -0.17376819474E+02  0.28942350286E+03  0.88652577267E+02 0.  0.
        254    2    1    2    0    0 -0.24842815428E+03  0.11784813471E+03 -0.29794002468E+04  0.31214314672E+04  0.88932774759E+03 0.  0.
        -24    2    4    4    0    0  0.20176460321E+03  0.33507969613E+03 -0.96307131687E+03  0.10425479012E+04  0.80077505866E+02 0.  0.
         24    2    4    4    0    0 -0.45019275749E+03 -0.21723156142E+03 -0.20163289300E+04  0.20788835660E+04  0.79444679137E+02 0.  0.
         13    1    3    3    0    0 -0.22460288676E+01 -0.13417976678E+02 -0.11482315715E+02  0.17802536841E+02  0.00000000000E+00 0. -1.
        -13    1    3    3    0    0  0.25067418315E+03 -0.10443015803E+03 -0.58945037589E+01  0.27162096602E+03  0.00000000000E+00 0.  1.
          2    1    6    6  502    0 -0.21333908342E+03 -0.71425173995E+02 -0.79009334902E+03  0.82150022530E+03  0.00000000000E+00 0. -1.
          3    1    5    5  503    0  0.23336913991E+02  0.36706150577E+02 -0.54464293557E+02  0.69701594799E+02  0.00000000000E+00 0. -1.
         -4    1    5    5    0  503  0.17842768922E+03  0.29837354555E+03 -0.90860702332E+03  0.97284630635E+03  0.00000000000E+00 0.  1.
         -1    1    6    6    0  502 -0.23685367407E+03 -0.14580638742E+03 -0.12262355809E+04  0.12573833407E+04  0.00000000000E+00 0.  1.
<mgrwt>
<rscale>  0 0.16288827E+04</rscale>
<asrwt>0</asrwt>
<pdfrwt beam="1">  1        2 0.49289476E+00 0.16288827E+04</pdfrwt>
<pdfrwt beam="2">  1       -2 0.31852147E-01 0.16288827E+04</pdfrwt>
<totfact> 0.11392131E+01</totfact>
</mgrwt>
</event>
<event>
12    1  0.1494110E-007  0.2647784E+04  0.7818608E-02  0.8352149E-01
         -2   -1    0    0    0  501 -0.00000000000E+00  0.00000000000E+00  0.45444238806E+03  0.45444238806E+03  0.00000000000E+00 0.  1.
          2   -1    0    0  501    0  0.00000000000E+00 -0.00000000000E+00 -0.38567928291E+04  0.38567928291E+04  0.00000000000E+00 0. -1.
         23    2    1    2    0    0 -0.42958745911E+03 -0.34240053172E+03  0.17326554823E+03  0.58365915366E+03  0.94093295725E+02 0.  0.
        254    2    1    2    0    0  0.42958745911E+03  0.34240053172E+03 -0.35756159893E+04  0.37275760635E+04  0.89889381874E+03 0.  0.
        -24    2    4    4    0    0  0.50571052227E+03 -0.15979392080E+03 -0.19677102251E+04  0.20394486285E+04  0.78676227058E+02 0.  0.
         24    2    4    4    0    0 -0.76123063162E+02  0.50219445251E+03 -0.16079057642E+04  0.16881274351E+04  0.80120544363E+02 0.  0.
         13    1    3    3    0    0 -0.31116095670E+03 -0.28961902736E+03  0.15622981186E+03  0.45288859126E+03  0.00000000000E+00 0.  1.
        -13    1    3    3    0    0 -0.11842650241E+03 -0.52781504357E+02  0.17035736375E+02  0.13077056240E+03  0.00000000000E+00 0. -1.
          2    1    6    6  502    0  0.94197503892E+01  0.17782549279E+02 -0.10035197791E+03  0.10234974464E+03  0.00000000000E+00 0. -1.
          3    1    5    5  503    0  0.11889084551E+03 -0.73557441259E+02 -0.50255379700E+03  0.52163785253E+03  0.00000000000E+00 0. -1.
         -4    1    5    5    0  503  0.38681967676E+03 -0.86236479537E+02 -0.14651564281E+04  0.15178107759E+04  0.00000000000E+00 0.  1.
         -1    1    6    6    0  502 -0.85542813552E+02  0.48441190323E+03 -0.15075537863E+04  0.15857776904E+04  0.00000000000E+00 0.  1.
<mgrwt>
<rscale>  0 0.26477841E+04</rscale>
<asrwt>0</asrwt>
<pdfrwt beam="1">  1        2 0.59335276E+00 0.26477841E+04</pdfrwt>
<pdfrwt beam="2">  1       -2 0.69914212E-01 0.26477841E+04</pdfrwt>
<totfact> 0.73055739E-01</totfact>
</mgrwt>
</event>
<event>
12    1  0.1494110E-007  0.1401619E+04  0.7818608E-02  0.8952648E-01
          1   -1    0    0  501    0  0.00000000000E+00  0.00000000000E+00  0.10691988936E+04  0.10691988936E+04  0.00000000000E+00 0. -1.
         -1   -1    0    0    0  501 -0.00000000000E+00 -0.00000000000E+00 -0.45934729513E+03  0.45934729513E+03  0.00000000000E+00 0.  1.
         23    2    1    2    0    0 -0.24461442742E+02 -0.24204077230E+03  0.54374387006E+03  0.60269221835E+03  0.91642873170E+02 0.  0.
        254    2    1    2    0    0  0.24461442742E+02  0.24204077230E+03  0.66107728377E+02  0.92585397033E+03  0.89087218219E+03 0.  0.
        -24    2    4    4    0    0 -0.19144884294E+03 -0.28010796947E+03 -0.20141227515E+02  0.34897743374E+03  0.79160888023E+02 0.  0.
         24    2    4    4    0    0  0.21591028568E+03  0.52214874176E+03  0.86248955891E+02  0.57687653659E+03  0.78045474497E+02 0.  0.
         11    1    3    3    0    0  0.64993769422E+01 -0.78330361552E+01  0.95150602047E+02  0.95693445052E+02  0.00000000000E+00 0.  1.
        -11    1    3    3    0    0 -0.30960819684E+02 -0.23420773614E+03  0.44859326801E+03  0.50699877330E+03  0.00000000000E+00 0. -1.
          4    1    6    6  502    0  0.19874795375E+03  0.47427592138E+03  0.54956195488E+02  0.51716397993E+03  0.00000000000E+00 0. -1.
          1    1    5    5  503    0 -0.14273890559E+03 -0.18729113949E+03  0.20896731273E+02  0.23640862818E+03  0.00000000000E+00 0. -1.
         -2    1    5    5    0  503 -0.48709937347E+02 -0.92816829981E+02 -0.41037958788E+02  0.11256880556E+03  0.00000000000E+00 0.  1.
         -3    1    6    6    0  502  0.17162331933E+02  0.47872820389E+02  0.31292760403E+02  0.59712556661E+02  0.00000000000E+00 0.  1.
<mgrwt>
<rscale>  0 0.14016185E+04</rscale>
<asrwt>0</asrwt>
<pdfrwt beam="1">  1        1 0.16449214E+00 0.14016185E+04</pdfrwt>
<pdfrwt beam="2">  1       -1 0.70668815E-01 0.14016185E+04</pdfrwt>
<totfact> 0.26393745E+01</totfact>
</mgrwt>
</event>
<event>
12    1  0.1494110E-007  0.1251690E+04  0.7818608E-02  0.9068778E-01
          2   -1    0    0  501    0  0.00000000000E+00  0.00000000000E+00  0.47100183649E+03  0.47100183649E+03  0.00000000000E+00 0. -1.
         -2   -1    0    0    0  501 -0.00000000000E+00 -0.00000000000E+00 -0.83159342783E+03  0.83159342783E+03  0.00000000000E+00 0.  1.
         23    2    1    2    0    0 -0.27837045866E+03 -0.49526846048E+02 -0.30296679184E+02  0.29867273892E+03  0.91348210011E+02 0.  0.
        254    2    1    2    0    0  0.27837045866E+03  0.49526846048E+02 -0.33029491216E+03  0.10039225254E+04  0.90488821810E+03 0.  0.
        -24    2    4    4    0    0  0.64342235982E+01  0.28700719026E+03 -0.51177948846E+03  0.59243287046E+03  0.81510334889E+02 0.  0.
         24    2    4    4    0    0  0.27193623506E+03 -0.23748034421E+03  0.18148457630E+03  0.41148965494E+03  0.77722936523E+02 0.  0.
         11    1    3    3    0    0 -0.46994602617E+02  0.17180843348E+02  0.17814552549E+02  0.53113391304E+02  0.00000000000E+00 0.  1.
        -11    1    3    3    0    0 -0.23137585604E+03 -0.66707689396E+02 -0.48111231734E+02  0.24555934762E+03  0.00000000000E+00 0. -1.
          2    1    6    6  502    0  0.20564780980E+03 -0.17053551597E+03  0.94837509073E+02  0.28349168772E+03  0.00000000000E+00 0. -1.
          1    1    5    5  503    0 -0.23375737185E+02  0.23935748169E+03 -0.38798909731E+03  0.45647997630E+03  0.00000000000E+00 0. -1.
         -4    1    5    5    0  503  0.29809960783E+02  0.47649708569E+02 -0.12379039115E+03  0.13595289416E+03  0.00000000000E+00 0.  1.
         -1    1    6    6    0  502  0.66288425265E+02 -0.66944828243E+02  0.86647067230E+02  0.12799796722E+03  0.00000000000E+00 0.  1.
<mgrwt>
<rscale>  0 0.12516901E+04</rscale>
<asrwt>0</asrwt>
<pdfrwt beam="1">  1        2 0.72461822E-01 0.12516901E+04</pdfrwt>
<pdfrwt beam="2">  1       -2 0.12793745E+00 0.12516901E+04</pdfrwt>
<totfact> 0.29334475E+01</totfact>
</mgrwt>
</event>
<event>
12    1  0.1646035E-007  0.1990627E+04  0.7818608E-02  0.8611015E-01
          2   -1    0    0  501    0  0.00000000000E+00  0.00000000000E+00  0.66897122408E+03  0.66897122408E+03  0.00000000000E+00 0. -1.
         -2   -1    0    0    0  501 -0.00000000000E+00 -0.00000000000E+00 -0.14808547869E+04  0.14808547869E+04  0.00000000000E+00 0.  1.
         23    2    1    2    0    0  0.44206571352E+03  0.83737979235E+02  0.37389991473E+03  0.59222324022E+03  0.92157885065E+02 0.  0.
        254    2    1    2    0    0 -0.44206571352E+03 -0.83737979235E+02 -0.11857834775E+04  0.15576027708E+04  0.90421777887E+03 0.  0.
        -24    2    4    4    0    0 -0.48171576712E+03  0.16828113628E+03 -0.11814904983E+04  0.12898510999E+04  0.86182604141E+02 0.  0.
         24    2    4    4    0    0  0.39650053598E+02 -0.25201911552E+03 -0.42929791947E+01  0.26775167080E+03  0.81158894845E+02 0.  0.
         11    1    3    3    0    0  0.61586571972E+01 -0.87545767532E+01  0.28152490406E+00  0.10707517400E+02  0.00000000000E+00 0.  1.
        -11    1    3    3    0    0  0.43590705633E+03  0.92492555988E+02  0.37361838982E+03  0.58151572282E+03  0.00000000000E+00 0. -1.
          4    1    6    6  502    0  0.15462968811E+02 -0.66196155934E+01 -0.12610981117E+02  0.21022834248E+02  0.00000000000E+00 0. -1.
          1    1    5    5  503    0 -0.95607697640E+02 -0.13141135524E-01 -0.24546133542E+03  0.26342380152E+03  0.00000000000E+00 0. -1.
         -2    1    5    5    0  503 -0.38610806948E+03  0.16829427742E+03 -0.93602916292E+03  0.10264272984E+04  0.00000000000E+00 0.  1.
         -3    1    6    6    0  502  0.24187084787E+02 -0.24539949992E+03  0.83180019224E+01  0.24672883656E+03  0.00000000000E+00 0.  1.
<mgrwt>
<rscale>  0 0.19906273E+04</rscale>
<asrwt>0</asrwt>
<pdfrwt beam="1">  1        2 0.10291865E+00 0.19906273E+04</pdfrwt>
<pdfrwt beam="2">  1       -2 0.22782381E+00 0.19906273E+04</pdfrwt>
<totfact> 0.35567821E+00</totfact>
</mgrwt>
</event>
<event>
12    1  0.1494110E-007  0.2165293E+04  0.7818608E-02  0.8533014E-01
          2   -1    0    0  501    0  0.00000000000E+00  0.00000000000E+00  0.34839468660E+04  0.34839468660E+04  0.00000000000E+00 0. -1.
         -2   -1    0    0    0  501 -0.00000000000E+00 -0.00000000000E+00 -0.33643547792E+03  0.33643547792E+03  0.00000000000E+00 0.  1.
         23    2    1    2    0    0  0.49174829339E+02 -0.21219751549E+03 -0.22328277171E+03  0.32490323292E+03  0.90889851995E+02 0.  0.
        254    2    1    2    0    0 -0.49174829339E+02  0.21219751549E+03  0.33707941598E+04  0.34954791110E+04  0.89926358671E+03 0.  0.
        -24    2    4    4    0    0  0.29755291363E-01  0.40087140481E+03  0.31945064516E+04  0.32205054652E+04  0.78013447990E+02 0.  0.
         24    2    4    4    0    0 -0.49204584630E+02 -0.18867388932E+03  0.17628770814E+03  0.27497364574E+03  0.80710731344E+02 0.  0.
         13    1    3    3    0    0  0.67161975764E+02 -0.17760406815E+03 -0.15032685511E+03  0.24218195510E+03  0.00000000000E+00 0.  1.
        -13    1    3    3    0    0 -0.17987146425E+02 -0.34593447345E+02 -0.72955916605E+02  0.82721277816E+02  0.00000000000E+00 0. -1.
          2    1    6    6  502    0  0.98821960825E+01 -0.73451997811E+02  0.30943005076E+02  0.80313905054E+02  0.00000000000E+00 0. -1.
          1    1    5    5  503    0  0.24794036237E+02  0.44077614511E+02  0.36635461348E+03  0.36982872137E+03  0.00000000000E+00 0. -1.
         -2    1    5    5    0  503 -0.24764280946E+02  0.35679379030E+03  0.28281518381E+04  0.28506767439E+04  0.00000000000E+00 0.  1.
         -1    1    6    6    0  502 -0.59086780713E+02 -0.11522189151E+03  0.14534470306E+03  0.19465974069E+03  0.00000000000E+00 0.  1.
<mgrwt>
<rscale>  0 0.21652929E+04</rscale>
<asrwt>0</asrwt>
<pdfrwt beam="1">  1        2 0.53599180E+00 0.21652929E+04</pdfrwt>
<pdfrwt beam="2">  1       -2 0.51759307E-01 0.21652929E+04</pdfrwt>
<totfact> 0.27060244E+00</totfact>
</mgrwt>
</event>
<event>
12    1  0.1494110E-007  0.2623050E+04  0.7818608E-02  0.8360414E-01
         -1   -1    0    0    0  501 -0.00000000000E+00  0.00000000000E+00  0.75299099387E+03  0.75299099387E+03  0.00000000000E+00 0.  1.
          1   -1    0    0  501    0  0.00000000000E+00 -0.00000000000E+00 -0.22843531826E+04  0.22843531826E+04  0.00000000000E+00 0. -1.
         23    2    1    2    0    0 -0.11167564760E+04 -0.23526709864E+03 -0.46944764959E+03  0.12374200739E+04  0.91278196890E+02 0.  0.
        254    2    1    2    0    0  0.11167564760E+04  0.23526709864E+03 -0.10619145391E+04  0.17999241026E+04  0.89976033048E+03 0.  0.
        -24    2    4    4    0    0 -0.14654245322E+03  0.28585793692E+02 -0.12830438357E+03  0.21373740033E+03  0.83245560002E+02 0.  0.
         24    2    4    4    0    0  0.12632989292E+04  0.20668130495E+03 -0.93361015556E+03  0.15861867022E+04  0.75623974496E+02 0.  0.
         13    1    3    3    0    0 -0.14321154362E+03 -0.19176719132E+02 -0.91159079522E+02  0.17084282414E+03  0.00000000000E+00 0.  1.
        -13    1    3    3    0    0 -0.97354493234E+03 -0.21609037951E+03 -0.37828857007E+03  0.10665772497E+04  0.00000000000E+00 0. -1.
          4    1    6    6  502    0  0.58570026659E+03  0.61247313226E+02 -0.40911814723E+03  0.71705905897E+03  0.00000000000E+00 0. -1.
          1    1    5    5  503    0 -0.97876170288E+01  0.15916029836E+02  0.79220850769E+01  0.20294750178E+02  0.00000000000E+00 0. -1.
         -2    1    5    5    0  503 -0.13675483619E+03  0.12669763856E+02 -0.13622646865E+03  0.19344265015E+03  0.00000000000E+00 0.  1.
         -3    1    6    6    0  502  0.67759866260E+03  0.14543399172E+03 -0.52449200833E+03  0.86912764327E+03  0.00000000000E+00 0.  1.
<mgrwt>
<rscale>  0 0.26230497E+04</rscale>
<asrwt>0</asrwt>
<pdfrwt beam="1">  1        1 0.35143895E+00 0.26230497E+04</pdfrwt>
<pdfrwt beam="2">  1       -1 0.11584477E+00 0.26230497E+04</pdfrwt>
<totfact> 0.11305222E+00</totfact>
</mgrwt>
</event>
<event>
12    1  0.1494110E-007  0.2343189E+04  0.7818608E-02  0.8461084E-01
         -2   -1    0    0    0  501 -0.00000000000E+00  0.00000000000E+00  0.21488562404E+04  0.21488562404E+04  0.00000000000E+00 0.  1.
          2   -1    0    0  501    0  0.00000000000E+00 -0.00000000000E+00 -0.63877409882E+03  0.63877409882E+03  0.00000000000E+00 0. -1.
         23    2    1    2    0    0  0.37251399360E+03 -0.38606443127E+03  0.16433907612E+04  0.17311623968E+04  0.91529391169E+02 0.  0.
        254    2    1    2    0    0 -0.37251399360E+03  0.38606443127E+03 -0.13330861967E+03  0.10564679424E+04  0.90030045248E+03 0.  0.
        -24    2    4    4    0    0 -0.53669271884E+03 -0.64155775967E+02  0.21832560111E+02  0.54661705115E+03  0.78476123018E+02 0.  0.
         24    2    4    4    0    0  0.16417872524E+03  0.45022020724E+03 -0.15514117978E+03  0.50985089126E+03  0.78906633628E+02 0.  0.
         11    1    3    3    0    0  0.23614056659E+03 -0.18024766928E+03  0.92428175313E+03  0.97084929244E+03  0.00000000000E+00 0. -1.
        -11    1    3    3    0    0  0.13637342701E+03 -0.20581676199E+03  0.71910900810E+03  0.76031310435E+03  0.00000000000E+00 0.  1.
          4    1    6    6  502    0  0.42990547830E+02  0.14282611547E+03 -0.86341627120E+02  0.17234373513E+03  0.00000000000E+00 0. -1.
          1    1    5    5  503    0 -0.76081578714E+02 -0.35103594047E+02  0.14484207136E+02  0.85032118585E+02  0.00000000000E+00 0. -1.
         -2    1    5    5    0  503 -0.46061114012E+03 -0.29052181920E+02  0.73483529747E+01  0.46158493257E+03  0.00000000000E+00 0.  1.
         -3    1    6    6    0  502  0.12118817741E+03  0.30739409177E+03 -0.68799552658E+02  0.33750715614E+03  0.00000000000E+00 0.  1.
<mgrwt>
<rscale>  0 0.23431890E+04</rscale>
<asrwt>0</asrwt>
<pdfrwt beam="1">  1        2 0.98272939E-01 0.23431890E+04</pdfrwt>
<pdfrwt beam="2">  1       -2 0.33059327E+00 0.23431890E+04</pdfrwt>
<totfact> 0.85490784E-01</totfact>
</mgrwt>
</event>
<event>
12    1  0.1494110E-007  0.2265538E+04  0.7818608E-02  0.8491634E-01
         -2   -1    0    0    0  501 -0.00000000000E+00  0.00000000000E+00  0.33814417134E+03  0.33814417134E+03  0.00000000000E+00 0.  1.
          2   -1    0    0  501    0  0.00000000000E+00 -0.00000000000E+00 -0.37947281045E+04  0.37947281045E+04  0.00000000000E+00 0. -1.
         23    2    1    2    0    0  0.31572993716E+03  0.43975585770E+03 -0.28894779269E+04  0.29411983345E+04  0.92164771950E+02 0.  0.
        254    2    1    2    0    0 -0.31572993716E+03 -0.43975585770E+03 -0.56710600627E+03  0.11916739414E+04  0.89744467939E+03 0.  0.
        -24    2    4    4    0    0  0.36824084399E+02 -0.63044641593E+03 -0.30228635238E+03  0.70508408065E+03  0.83353616640E+02 0.  0.
         24    2    4    4    0    0 -0.35255402156E+03  0.19069055822E+03 -0.26481965389E+03  0.48658986070E+03  0.77349960168E+02 0.  0.
         11    1    3    3    0    0  0.21216032349E+03  0.26026245774E+03 -0.19923271204E+04  0.20204246842E+04  0.00000000000E+00 0.  1.
        -11    1    3    3    0    0  0.10356961368E+03  0.17949339996E+03 -0.89715080651E+03  0.92077365033E+03  0.00000000000E+00 0. -1.
          4    1    6    6  502    0 -0.28916250253E+03  0.18647812364E+03 -0.23291132724E+03  0.41549576390E+03  0.00000000000E+00 0. -1.
          1    1    5    5  503    0  0.35119567349E+02 -0.62763758307E+03 -0.28985707987E+03  0.69222788621E+03  0.00000000000E+00 0. -1.
         -2    1    5    5    0  503  0.17045170501E+01 -0.28088328535E+01 -0.12429272511E+02  0.12856194442E+02  0.00000000000E+00 0.  1.
         -3    1    6    6    0  502 -0.63391519033E+02  0.42124345889E+01 -0.31908326647E+02  0.71094096801E+02  0.00000000000E+00 0.  1.
<mgrwt>
<rscale>  0 0.22655376E+04</rscale>
<asrwt>0</asrwt>
<pdfrwt beam="1">  1        2 0.58380430E+00 0.22655376E+04</pdfrwt>
<pdfrwt beam="2">  1       -2 0.52022182E-01 0.22655376E+04</pdfrwt>
<totfact> 0.15796608E+00</totfact>
</mgrwt>
</event>
<event>
12    1  0.1494110E-007  0.1425943E+04  0.7818608E-02  0.8935251E-01
         -1   -1    0    0    0  501 -0.00000000000E+00  0.00000000000E+00  0.42951310587E+03  0.42951310587E+03  0.00000000000E+00 0.  1.
          1   -1    0    0  501    0  0.00000000000E+00 -0.00000000000E+00 -0.11834982382E+04  0.11834982382E+04  0.00000000000E+00 0. -1.
         23    2    1    2    0    0 -0.67193814768E+02 -0.33754223921E+02 -0.71900838849E+03  0.72852920354E+03  0.90151990078E+02 0.  0.
        254    2    1    2    0    0  0.67193814768E+02  0.33754223921E+02 -0.34976743848E+02  0.88448214054E+03  0.88058555970E+03 0.  0.
        -24    2    4    4    0    0  0.61220082664E+00 -0.34951604156E+03  0.21207981256E+03  0.41697949609E+03  0.82050077204E+02 0.  0.
         24    2    4    4    0    0  0.66581613941E+02  0.38327026548E+03 -0.24705655641E+03  0.46750264445E+03  0.78692901771E+02 0.  0.
         11    1    3    3    0    0 -0.81931789830E+02 -0.19798916081E+02 -0.39537954947E+03  0.40426452157E+03  0.00000000000E+00 0.  1.
        -11    1    3    3    0    0  0.14737975062E+02 -0.13955307839E+02 -0.32362883902E+03  0.32426468197E+03  0.00000000000E+00 0. -1.
          4    1    6    6  502    0  0.26431580483E+02  0.56359731646E+02 -0.13406021462E+02  0.63677069731E+02  0.00000000000E+00 0. -1.
          1    1    5    5  503    0 -0.96290049059E+01 -0.11806921742E+02 -0.42195327962E+01  0.15809035187E+02  0.00000000000E+00 0. -1.
         -2    1    5    5    0  503  0.10241205733E+02 -0.33770911981E+03  0.21629934535E+03  0.40117046090E+03  0.00000000000E+00 0.  1.
         -1    1    6    6    0  502  0.40150033458E+02  0.32691053383E+03 -0.23365053494E+03  0.40382557472E+03  0.00000000000E+00 0.  1.
<mgrwt>
<rscale>  0 0.14259425E+04</rscale>
<asrwt>0</asrwt>
<pdfrwt beam="1">  1        1 0.18207665E+00 0.14259425E+04</pdfrwt>
<pdfrwt beam="2">  1       -1 0.66078939E-01 0.14259425E+04</pdfrwt>
<totfact> 0.24817515E+01</totfact>
</mgrwt>
</event>
<event>
12    1  0.1494110E-007  0.1433049E+04  0.7818608E-02  0.8930238E-01
         -2   -1    0    0    0  501 -0.00000000000E+00  0.00000000000E+00  0.46591667144E+03  0.46591667144E+03  0.00000000000E+00 0.  1.
          2   -1    0    0  501    0  0.00000000000E+00 -0.00000000000E+00 -0.11019289408E+04  0.11019289408E+04  0.00000000000E+00 0. -1.
         23    2    1    2    0    0  0.11558490261E+03  0.41306096265E+03 -0.15446805130E+03  0.46548741771E+03  0.94015576340E+02 0.  0.
        254    2    1    2    0    0 -0.11558490261E+03 -0.41306096265E+03 -0.48154421808E+03  0.11023581945E+04  0.89405230638E+03 0.  0.
        -24    2    4    4    0    0  0.16563431243E+03 -0.49769842316E+03 -0.57700249253E+03  0.78466519826E+03  0.87345011862E+02 0.  0.
         24    2    4    4    0    0 -0.28121921503E+03  0.84637460510E+02  0.95458274448E+02  0.31769299629E+03  0.74624467207E+02 0.  0.
         13    1    3    3    0    0 -0.40344309558E+00 -0.24113885689E+01 -0.10434168530E+02  0.10716782823E+02  0.00000000000E+00 0.  1.
        -13    1    3    3    0    0  0.11598834570E+03  0.41547235122E+03 -0.14403388277E+03  0.45477063489E+03  0.00000000000E+00 0. -1.
          2    1    6    6  502    0 -0.21254735406E+03  0.72185657194E+02  0.38802192115E+02  0.22779981768E+03  0.00000000000E+00 0. -1.
          3    1    5    5  503    0  0.12299547336E+03 -0.24783759756E+03 -0.33150208324E+03  0.43179276560E+03  0.00000000000E+00 0. -1.
         -4    1    5    5    0  503  0.42638839071E+02 -0.24986082561E+03 -0.24550040929E+03  0.35287243266E+03  0.00000000000E+00 0.  1.
         -1    1    6    6    0  502 -0.68671860978E+02  0.12451803316E+02  0.56656082333E+02  0.89893178614E+02  0.00000000000E+00 0.  1.
<mgrwt>
<rscale>  0 0.14330486E+04</rscale>
<asrwt>0</asrwt>
<pdfrwt beam="1">  1        2 0.16952753E+00 0.14330486E+04</pdfrwt>
<pdfrwt beam="2">  1       -2 0.71679489E-01 0.14330486E+04</pdfrwt>
<totfact> 0.37235691E+01</totfact>
</mgrwt>
</event>
<event>
12    1  0.1494110E-007  0.1879581E+04  0.7818608E-02  0.8665087E-01
          2   -1    0    0  501    0  0.00000000000E+00  0.00000000000E+00  0.10851799066E+04  0.10851799066E+04  0.00000000000E+00 0. -1.
         -2   -1    0    0    0  501 -0.00000000000E+00 -0.00000000000E+00 -0.81388027636E+03  0.81388027636E+03  0.00000000000E+00 0.  1.
         23    2    1    2    0    0 -0.64423259962E+03 -0.31468221845E+03  0.12255386253E+03  0.73309833476E+03  0.91395722993E+02 0.  0.
        254    2    1    2    0    0  0.64423259962E+03  0.31468221845E+03  0.14874576768E+03  0.11659618482E+04  0.90734843747E+03 0.  0.
        -24    2    4    4    0    0  0.38407003976E+03 -0.17972282499E+03 -0.22758550390E+03  0.48774613461E+03  0.79316082726E+02 0.  0.
         24    2    4    4    0    0  0.26016255987E+03  0.49440504344E+03  0.37633127158E+03  0.67821571357E+03  0.78933032581E+02 0.  0.
         11    1    3    3    0    0 -0.44481371813E+02 -0.43420899176E+02  0.27709531255E+02  0.68057218912E+02  0.00000000000E+00 0. -1.
        -11    1    3    3    0    0 -0.59975122781E+03 -0.27126131928E+03  0.94844331274E+02  0.66504111585E+03  0.00000000000E+00 0.  1.
          4    1    6    6  502    0 -0.37839032968E+01  0.10760039359E+02  0.16805794927E+02  0.20310861978E+02  0.00000000000E+00 0. -1.
          1    1    5    5  503    0  0.10206847849E+03 -0.15311500475E+02 -0.73955449829E+02  0.12697174846E+03  0.00000000000E+00 0. -1.
         -2    1    5    5    0  503  0.28200156127E+03 -0.16441132451E+03 -0.15363005407E+03  0.36077438615E+03  0.00000000000E+00 0.  1.
         -3    1    6    6    0  502  0.26394646316E+03  0.48364500408E+03  0.35952547665E+03  0.65790485159E+03  0.00000000000E+00 0.  1.
<mgrwt>
<rscale>  0 0.18795814E+04</rscale>
<asrwt>0</asrwt>
<pdfrwt beam="1">  1        2 0.16695075E+00 0.18795814E+04</pdfrwt>
<pdfrwt beam="2">  1       -2 0.12521235E+00 0.18795814E+04</pdfrwt>
<totfact> 0.99671405E+00</totfact>
</mgrwt>
</event>
<event>
12    1  0.1494110E-007  0.1185649E+04  0.7818608E-02  0.9125512E-01
          2   -1    0    0  501    0  0.00000000000E+00  0.00000000000E+00  0.17008028927E+04  0.17008028927E+04  0.00000000000E+00 0. -1.
         -2   -1    0    0    0  501 -0.00000000000E+00 -0.00000000000E+00 -0.20663223069E+03  0.20663223069E+03  0.00000000000E+00 0.  1.
         23    2    1    2    0    0  0.17421864367E+03  0.15151769997E+03  0.35871627003E+03  0.43652253542E+03  0.92546271316E+02 0.  0.
        254    2    1    2    0    0 -0.17421864367E+03 -0.15151769997E+03  0.11354543919E+04  0.14709125879E+04  0.90610011366E+03 0.  0.
        -24    2    4    4    0    0  0.71814766350E+02 -0.48880341185E+03  0.71747556998E+03  0.87484524012E+03  0.80603129826E+02 0.  0.
         24    2    4    4    0    0 -0.24603341002E+03  0.33728571188E+03  0.41797882195E+03  0.59606734781E+03  0.79346690203E+02 0.  0.
         13    1    3    3    0    0  0.10198948926E+03  0.65130762050E+02  0.25996752983E+03  0.28675248674E+03  0.00000000000E+00 0. -1.
        -13    1    3    3    0    0  0.72229154407E+02  0.86386937915E+02  0.98748740201E+02  0.14977004867E+03  0.00000000000E+00 0.  1.
          2    1    6    6  502    0 -0.80443578236E+02  0.10716241297E+03  0.84725454201E+02  0.15853502648E+03  0.00000000000E+00 0. -1.
          1    1    5    5  503    0 -0.15043923597E+02 -0.44542891594E+02  0.83875435945E+02  0.96153406511E+02  0.00000000000E+00 0. -1.
         -2    1    5    5    0  503  0.86858689947E+02 -0.44426052025E+03  0.63360013403E+03  0.77869183360E+03  0.00000000000E+00 0.  1.
         -1    1    6    6    0  502 -0.16558983178E+03  0.23012329891E+03  0.33325336774E+03  0.43753232133E+03  0.00000000000E+00 0.  1.
<mgrwt>
<rscale>  0 0.11856487E+04</rscale>
<asrwt>0</asrwt>
<pdfrwt beam="1">  1        2 0.26166197E+00 0.11856487E+04</pdfrwt>
<pdfrwt beam="2">  1       -2 0.31789575E-01 0.11856487E+04</pdfrwt>
<totfact> 0.88984353E+01</totfact>
</mgrwt>
</event>
<event>
12    1  0.1494110E-007  0.2443833E+04  0.7818608E-02  0.8423273E-01
         -2   -1    0    0    0  501 -0.00000000000E+00  0.00000000000E+00  0.65493430796E+03  0.65493430796E+03  0.00000000000E+00 0.  1.
          2   -1    0    0  501    0  0.00000000000E+00 -0.00000000000E+00 -0.22797395299E+04  0.22797395299E+04  0.00000000000E+00 0. -1.
         23    2    1    2    0    0 -0.36461064978E+03 -0.98333872683E+03 -0.57017966793E+03  0.11967308013E+04  0.84639113356E+02 0.  0.
        254    2    1    2    0    0  0.36461064978E+03  0.98333872683E+03 -0.10546255540E+04  0.17379430365E+04  0.89906338009E+03 0.  0.
        -24    2    4    4    0    0  0.63833006352E+03  0.56509349469E+03 -0.52066723928E+03  0.10021464927E+04  0.80045556549E+02 0.  0.
         24    2    4    4    0    0 -0.27371941374E+03  0.41824523215E+03 -0.53395831469E+03  0.73579654376E+03  0.80210225766E+02 0.  0.
         13    1    3    3    0    0 -0.22909708282E+03 -0.69824624960E+03 -0.36787958852E+03  0.82180818327E+03  0.00000000000E+00 0.  1.
        -13    1    3    3    0    0 -0.13551356696E+03 -0.28509247723E+03 -0.20230007941E+03  0.37492261806E+03  0.00000000000E+00 0. -1.
          4    1    6    6  502    0 -0.44164242151E+02  0.51365238838E+02 -0.11488178900E+03  0.13336676306E+03  0.00000000000E+00 0. -1.
          1    1    5    5  503    0  0.72053825169E+01  0.82796844898E+01 -0.20090422737E+02  0.22893138671E+02  0.00000000000E+00 0. -1.
         -2    1    5    5    0  503  0.63112468100E+03  0.55681381020E+03 -0.50057681655E+03  0.97925335407E+03  0.00000000000E+00 0.  1.
         -3    1    6    6    0  502 -0.22955517159E+03  0.36687999331E+03 -0.41907652569E+03  0.60242978070E+03  0.00000000000E+00 0.  1.
<mgrwt>
<rscale>  0 0.24438328E+04</rscale>
<asrwt>0</asrwt>
<pdfrwt beam="1">  1        2 0.35072916E+00 0.24438328E+04</pdfrwt>
<pdfrwt beam="2">  1       -2 0.10075912E+00 0.24438328E+04</pdfrwt>
<totfact> 0.33834245E+00</totfact>
</mgrwt>
</event>
<event>
12    1  0.1494110E-007  0.1456657E+04  0.7818608E-02  0.8913798E-01
          2   -1    0    0  501    0  0.00000000000E+00  0.00000000000E+00  0.68778526821E+03  0.68778526821E+03  0.00000000000E+00 0. -1.
         -2   -1    0    0    0  501 -0.00000000000E+00 -0.00000000000E+00 -0.77126196927E+03  0.77126196927E+03  0.00000000000E+00 0.  1.
         23    2    1    2    0    0  0.25638217258E+03  0.13773451077E+03 -0.36053976968E+03  0.47223496567E+03  0.91182911782E+02 0.  0.
        254    2    1    2    0    0 -0.25638217258E+03 -0.13773451077E+03  0.27706306862E+03  0.98681227181E+03  0.90129457000E+03 0.  0.
        -24    2    4    4    0    0 -0.17937057329E+02  0.36923154609E+03  0.75168405501E+02  0.38567429610E+03  0.80253977047E+02 0.  0.
         24    2    4    4    0    0 -0.23844511525E+03 -0.50696605686E+03  0.20189466312E+03  0.60113797571E+03  0.82065553381E+02 0.  0.
         11    1    3    3    0    0  0.68092351586E+02  0.73584919292E+02 -0.79652342330E+02  0.12804610236E+03  0.00000000000E+00 0. -1.
        -11    1    3    3    0    0  0.18828982100E+03  0.64149591474E+02 -0.28088742735E+03  0.34418886331E+03  0.00000000000E+00 0.  1.
          2    1    6    6  502    0 -0.12527038633E+03 -0.35687938259E+03  0.13256983003E+03  0.40078712959E+03  0.00000000000E+00 0. -1.
          3    1    5    5  503    0 -0.24283883539E+02  0.34788766133E+03  0.88410913379E+02  0.35976662089E+03  0.00000000000E+00 0. -1.
         -4    1    5    5    0  503  0.63468262100E+01  0.21343884760E+02 -0.13242507878E+02  0.25907675204E+02  0.00000000000E+00 0.  1.
         -1    1    6    6    0  502 -0.11317472892E+03 -0.15008667427E+03  0.69324833088E+02  0.20035084612E+03  0.00000000000E+00 0.  1.
<mgrwt>
<rscale>  0 0.14566573E+04</rscale>
<asrwt>0</asrwt>
<pdfrwt beam="1">  1        2 0.10581312E+00 0.14566573E+04</pdfrwt>
<pdfrwt beam="2">  1       -2 0.11865569E+00 0.14566573E+04</pdfrwt>
<totfact> 0.22173257E+01</totfact>
</mgrwt>
</event>
<event>
12    1  0.1579303E-007  0.2008251E+04  0.7818608E-02  0.8602773E-01
          1   -1    0    0  501    0  0.00000000000E+00  0.00000000000E+00  0.12095358059E+04  0.12095358059E+04  0.00000000000E+00 0. -1.
         -1   -1    0    0    0  501 -0.00000000000E+00 -0.00000000000E+00 -0.83359946532E+03  0.83359946532E+03  0.00000000000E+00 0.  1.
         23    2    1    2    0    0 -0.15821265524E+03 -0.77585637667E+03  0.24817874500E+03  0.83436903196E+03  0.87147177359E+02 0.  0.
        254    2    1    2    0    0  0.15821265524E+03  0.77585637667E+03  0.12775759553E+03  0.12087662392E+04  0.90432817957E+03 0.  0.
        -24    2    4    4    0    0  0.52069658512E+03  0.38262569934E+03  0.14794764044E+03  0.66761505311E+03  0.79334704089E+02 0.  0.
         24    2    4    4    0    0 -0.36248392989E+03  0.39323067734E+03 -0.20190044912E+02  0.54115118611E+03  0.80074985410E+02 0.  0.
         11    1    3    3    0    0  0.36744564127E+01 -0.79030221357E+01  0.11885332244E+02  0.14738402605E+02  0.00000000000E+00 0. -1.
        -11    1    3    3    0    0 -0.16188711165E+03 -0.76795335454E+03  0.23629341276E+03  0.81963062936E+03  0.00000000000E+00 0.  1.
          2    1    6    6  502    0 -0.33667685261E+03  0.33347074178E+03 -0.32176906714E+02  0.47496251645E+03  0.00000000000E+00 0. -1.
          3    1    5    5  503    0  0.51931507695E+03  0.38386996362E+03  0.14177569613E+03  0.66116915092E+03  0.00000000000E+00 0. -1.
         -4    1    5    5    0  503  0.13815081766E+01 -0.12442642819E+01  0.61719443133E+01  0.64459021907E+01  0.00000000000E+00 0.  1.
         -1    1    6    6    0  502 -0.25807077277E+02  0.59759935557E+02  0.11986861802E+02  0.66188669658E+02  0.00000000000E+00 0.  1.
<mgrwt>
<rscale>  0 0.20082514E+04</rscale>
<asrwt>0</asrwt>
<pdfrwt beam="1">  1        1 0.18608243E+00 0.20082514E+04</pdfrwt>
<pdfrwt beam="2">  1       -1 0.12824607E+00 0.20082514E+04</pdfrwt>
<totfact> 0.51163191E+00</totfact>
</mgrwt>
</event>
<event>
12    1  0.1494110E-007  0.1056620E+04  0.7818608E-02  0.9248536E-01
         -2   -1    0    0    0  501 -0.00000000000E+00  0.00000000000E+00  0.29997351475E+03  0.29997351475E+03  0.00000000000E+00 0.  1.
          2   -1    0    0  501    0  0.00000000000E+00 -0.00000000000E+00 -0.93045320318E+03  0.93045320318E+03  0.00000000000E+00 0. -1.
         23    2    1    2    0    0 -0.10913818339E+03  0.42757700568E+02 -0.18378701977E+03  0.23632329553E+03  0.91277967472E+02 0.  0.
        254    2    1    2    0    0  0.10913818339E+03 -0.42757700568E+02 -0.44669266866E+03  0.99410342239E+03  0.88032261708E+03 0.  0.
        -24    2    4    4    0    0 -0.13110789899E+02  0.16014081253E+03  0.21845418443E+03  0.28236841629E+03  0.78693831861E+02 0.  0.
         24    2    4    4    0    0  0.12224897329E+03 -0.20289851309E+03 -0.66514685310E+03  0.71173500610E+03  0.89631270462E+02 0.  0.
         11    1    3    3    0    0 -0.63307713839E+02  0.66407819254E+02 -0.14581815149E+03  0.17228116088E+03  0.00000000000E+00 0. -1.
        -11    1    3    3    0    0 -0.45830469548E+02 -0.23650118686E+02 -0.37968868276E+02  0.64042134654E+02  0.00000000000E+00 0.  1.
          2    1    6    6  502    0  0.89219977726E+02 -0.62465523532E+02 -0.29572188632E+03  0.31514057197E+03  0.00000000000E+00 0. -1.
          3    1    5    5  503    0  0.23634207391E+02  0.76796225531E+02  0.62632658675E+02  0.10187779909E+03  0.00000000000E+00 0. -1.
         -2    1    5    5    0  503 -0.36744997290E+02  0.83344586996E+02  0.15582152576E+03  0.18049061720E+03  0.00000000000E+00 0.  1.
         -3    1    6    6    0  502  0.33028995561E+02 -0.14043298956E+03 -0.36942496678E+03  0.39659443413E+03  0.00000000000E+00 0.  1.
<mgrwt>
<rscale>  0 0.10566197E+04</rscale>
<asrwt>0</asrwt>
<pdfrwt beam="1">  1        2 0.14314664E+00 0.10566197E+04</pdfrwt>
<pdfrwt beam="2">  1       -2 0.46149772E-01 0.10566197E+04</pdfrwt>
<totfact> 0.12390377E+02</totfact>
</mgrwt>
</event>
<event>
12    1  0.1556589E-007  0.1588963E+04  0.7818608E-02  0.8827357E-01
         -2   -1    0    0    0  501 -0.00000000000E+00  0.00000000000E+00  0.34521333296E+03  0.34521333296E+03  0.00000000000E+00 0.  1.
          2   -1    0    0  501    0  0.00000000000E+00 -0.00000000000E+00 -0.18284372658E+04  0.18284372658E+04  0.00000000000E+00 0. -1.
         23    2    1    2    0    0  0.13876603158E+03  0.30097450679E+03  0.73212960433E+02  0.35089855767E+03  0.89039288779E+02 0.  0.
        254    2    1    2    0    0 -0.13876603158E+03 -0.30097450679E+03 -0.15564368933E+04  0.18227520411E+04  0.88886868282E+03 0.  0.
        -24    2    4    4    0    0 -0.40182123241E+00 -0.35238249397E+03 -0.12532192349E+03  0.38191517074E+03  0.77330651187E+02 0.  0.
         24    2    4    4    0    0 -0.13836421035E+03  0.51407987186E+02 -0.14311149698E+04  0.14408368704E+04  0.78315990591E+02 0.  0.
         13    1    3    3    0    0  0.14743713759E+03  0.29196830599E+03  0.79928264790E+02  0.33670718548E+03  0.00000000000E+00 0.  1.
        -13    1    3    3    0    0 -0.86711060048E+01  0.90062007990E+01 -0.67153043571E+01  0.14191372195E+02  0.00000000000E+00 0. -1.
          2    1    6    6  502    0 -0.35382218751E+02 -0.11190268103E+02 -0.17145372063E+03  0.17542377781E+03  0.00000000000E+00 0. -1.
          1    1    5    5  503    0 -0.24985551303E+01 -0.34642934384E+02 -0.39873585574E+02  0.52879849726E+02  0.00000000000E+00 0. -1.
         -2    1    5    5    0  503  0.20967338979E+01 -0.31773955959E+03 -0.85448337917E+02  0.32903532101E+03  0.00000000000E+00 0.  1.
         -1    1    6    6    0  502 -0.10298199160E+03  0.62598255289E+02 -0.12596612492E+04  0.12654130925E+04  0.00000000000E+00 0.  1.
<mgrwt>
<rscale>  0 0.15889631E+04</rscale>
<asrwt>0</asrwt>
<pdfrwt beam="1">  1        2 0.28129804E+00 0.15889631E+04</pdfrwt>
<pdfrwt beam="2">  1       -2 0.53109744E-01 0.15889631E+04</pdfrwt>
<totfact> 0.26694951E+01</totfact>
</mgrwt>
</event>
<event>
12    1  0.1494110E-007  0.1363000E+04  0.7818608E-02  0.8981045E-01
          2   -1    0    0  501    0  0.00000000000E+00  0.00000000000E+00  0.34974840839E+04  0.34974840839E+04  0.00000000000E+00 0. -1.
         -2   -1    0    0    0  501 -0.00000000000E+00 -0.00000000000E+00 -0.13279320014E+03  0.13279320014E+03  0.00000000000E+00 0.  1.
         23    2    1    2    0    0 -0.23826221704E+03 -0.23307232607E+03  0.14631415311E+04  0.15031328541E+04  0.86796566458E+02 0.  0.
        254    2    1    2    0    0  0.23826221704E+03  0.23307232607E+03  0.19015493527E+04  0.21271444299E+04  0.89317517418E+03 0.  0.
        -24    2    4    4    0    0  0.15950359148E+03  0.42922195763E+02  0.18977163555E+04  0.19063161017E+04  0.73688553540E+02 0.  0.
         24    2    4    4    0    0  0.78758625559E+02  0.19015013031E+03  0.38329971831E+01  0.22082832825E+03  0.79940387396E+02 0.  0.
         11    1    3    3    0    0 -0.15705633052E+03 -0.11871778070E+03  0.10009987967E+04  0.10201760601E+04  0.00000000000E+00 0. -1.
        -11    1    3    3    0    0 -0.81205886516E+02 -0.11435454537E+03  0.46214273435E+03  0.48295679409E+03  0.00000000000E+00 0.  1.
          2    1    6    6  502    0  0.67609310013E+02  0.10889148875E+03  0.35354446964E+02  0.13295981364E+03  0.00000000000E+00 0. -1.
          3    1    5    5  503    0  0.62324794841E+02 -0.99726544381E+01  0.96466469882E+03  0.96672737369E+03  0.00000000000E+00 0. -1.
         -4    1    5    5    0  503  0.97178796641E+02  0.52894850202E+02  0.93305165670E+03  0.93958872799E+03  0.00000000000E+00 0.  1.
         -1    1    6    6    0  502  0.11149315546E+02  0.81258641552E+02 -0.31521449781E+02  0.87868514613E+02  0.00000000000E+00 0.  1.
<mgrwt>
<rscale>  0 0.13629998E+04</rscale>
<asrwt>0</asrwt>
<pdfrwt beam="1">  1        2 0.53807440E+00 0.13629998E+04</pdfrwt>
<pdfrwt beam="2">  1       -2 0.20429726E-01 0.13629998E+04</pdfrwt>
<totfact> 0.16706782E+01</totfact>
</mgrwt>
</event>
<event>
12    1  0.1494110E-007  0.1755604E+04  0.7818608E-02  0.8730272E-01
         -2   -1    0    0    0  501 -0.00000000000E+00  0.00000000000E+00  0.28930359608E+03  0.28930359608E+03  0.00000000000E+00 0.  1.
          2   -1    0    0  501    0  0.00000000000E+00 -0.00000000000E+00 -0.26634170254E+04  0.26634170254E+04  0.00000000000E+00 0. -1.
         23    2    1    2    0    0 -0.91405303334E+02  0.48522525828E+03 -0.18573140719E+03  0.53563132947E+03  0.92770063841E+02 0.  0.
        254    2    1    2    0    0  0.91405303334E+02 -0.48522525828E+03 -0.21883820221E+04  0.24170892920E+04  0.89972567486E+03 0.  0.
        -24    2    4    4    0    0 -0.22619111296E+03 -0.43852674952E+03 -0.19393321812E+04  0.20026859317E+04  0.79205445313E+02 0.  0.
         24    2    4    4    0    0  0.31759641630E+03 -0.46698508765E+02 -0.24904984098E+03  0.41440336030E+03  0.81584847686E+02 0.  0.
         13    1    3    3    0    0 -0.51697074809E+02  0.16931456751E+03 -0.10976199777E+03  0.20829715905E+03  0.00000000000E+00 0. -1.
        -13    1    3    3    0    0 -0.39708228525E+02  0.31591069078E+03 -0.75969409412E+02  0.32733417042E+03  0.00000000000E+00 0.  1.
          2    1    6    6  502    0  0.19809314680E+02 -0.18522737980E+02 -0.44226046554E+02  0.51879128406E+02  0.00000000000E+00 0. -1.
          3    1    5    5  503    0 -0.79769839715E+02 -0.13335879926E+03 -0.76097342860E+03  0.77667776826E+03  0.00000000000E+00 0. -1.
         -4    1    5    5    0  503 -0.14642127325E+03 -0.30516795026E+03 -0.11783587526E+04  0.12260081635E+04  0.00000000000E+00 0.  1.
         -1    1    6    6    0  502  0.29778710162E+03 -0.28175770786E+02 -0.20482379442E+03  0.36252423189E+03  0.00000000000E+00 0.  1.
<mgrwt>
<rscale>  0 0.17556037E+04</rscale>
<asrwt>0</asrwt>
<pdfrwt beam="1">  1        2 0.40975647E+00 0.17556037E+04</pdfrwt>
<pdfrwt beam="2">  1       -2 0.44508245E-01 0.17556037E+04</pdfrwt>
<totfact> 0.12689781E+01</totfact>
</mgrwt>
</event>
<event>
12    1  0.1494110E-007  0.1543766E+04  0.7818608E-02  0.8855860E-01
          2   -1    0    0  501    0  0.00000000000E+00  0.00000000000E+00  0.11803308411E+04  0.11803308411E+04  0.00000000000E+00 0. -1.
         -2   -1    0    0    0  501 -0.00000000000E+00 -0.00000000000E+00 -0.50477648214E+03  0.50477648214E+03  0.00000000000E+00 0.  1.
         23    2    1    2    0    0 -0.46401876190E+03 -0.10350499635E+03  0.54609732205E+02  0.48752751453E+03  0.93135164705E+02 0.  0.
        254    2    1    2    0    0  0.46401876190E+03  0.10350499635E+03  0.62094462675E+03  0.11975798087E+04  0.90697214570E+03 0.  0.
        -24    2    4    4    0    0  0.43596885619E+03  0.21998413535E+03 -0.62914127434E+02  0.49862401522E+03  0.78777266705E+02 0.  0.
         24    2    4    4    0    0  0.28049905713E+02 -0.11647913900E+03  0.68385875418E+03  0.69895579349E+03  0.80760253534E+02 0.  0.
         13    1    3    3    0    0 -0.96931649111E+02 -0.55038697211E+02 -0.90016665951E+01  0.11183037508E+03  0.00000000000E+00 0. -1.
        -13    1    3    3    0    0 -0.36708711279E+03 -0.48466299141E+02  0.63611398800E+02  0.37569713944E+03  0.00000000000E+00 0.  1.
          4    1    6    6  502    0 -0.18716058819E+02 -0.84934663584E+02  0.45584941976E+03  0.46407206491E+03  0.00000000000E+00 0. -1.
          1    1    5    5  503    0  0.31110254058E+03  0.13970358130E+03 -0.10489857668E+02  0.34119190860E+03  0.00000000000E+00 0. -1.
         -4    1    5    5    0  503  0.12486631561E+03  0.80280554053E+02 -0.52424269766E+02  0.15743210661E+03  0.00000000000E+00 0.  1.
         -3    1    6    6    0  502  0.46765964532E+02 -0.31544475416E+02  0.22800933443E+03  0.23488372858E+03  0.00000000000E+00 0.  1.
<mgrwt>
<rscale>  0 0.15437658E+04</rscale>
<asrwt>0</asrwt>
<pdfrwt beam="1">  1        2 0.18158936E+00 0.15437658E+04</pdfrwt>
<pdfrwt beam="2">  1       -2 0.77657921E-01 0.15437658E+04</pdfrwt>
<totfact> 0.27698638E+01</totfact>
</mgrwt>
</event>
<event>
12    1  0.1494110E-007  0.1942106E+04  0.7818608E-02  0.8634177E-01
         -1   -1    0    0    0  501 -0.00000000000E+00  0.00000000000E+00  0.11960969197E+04  0.11960969197E+04  0.00000000000E+00 0.  1.
          1   -1    0    0  501    0  0.00000000000E+00 -0.00000000000E+00 -0.78835114005E+03  0.78835114005E+03  0.00000000000E+00 0. -1.
         23    2    1    2    0    0  0.48161027497E+03 -0.37942889644E+03 -0.29808006233E+03  0.68760780161E+03  0.89655010277E+02 0.  0.
        254    2    1    2    0    0 -0.48161027497E+03  0.37942889644E+03  0.70582584200E+03  0.12968402581E+04  0.89871563439E+03 0.  0.
        -24    2    4    4    0    0 -0.61522196351E+03  0.22894888624E+03  0.81898176365E+03  0.10526409712E+04  0.80038916283E+02 0.  0.
         24    2    4    4    0    0  0.13361168854E+03  0.15048001019E+03 -0.11315592165E+03  0.24419928697E+03  0.79578341086E+02 0.  0.
         11    1    3    3    0    0  0.37081648964E+03 -0.33093704983E+03 -0.21912560541E+03  0.54317605883E+03  0.00000000000E+00 0. -1.
        -11    1    3    3    0    0  0.11079378533E+03 -0.48491846609E+02 -0.78954456924E+02  0.14443174278E+03  0.00000000000E+00 0.  1.
          4    1    6    6  502    0 -0.44737047407E+01  0.25326449168E+02 -0.31678911292E+02  0.40804368421E+02  0.00000000000E+00 0. -1.
          1    1    5    5  503    0 -0.30641646923E+03  0.84516365052E+02  0.44125251608E+03  0.54381784774E+03  0.00000000000E+00 0. -1.
         -2    1    5    5    0  503 -0.30880549428E+03  0.14443252119E+03  0.37772924757E+03  0.50882312344E+03  0.00000000000E+00 0.  1.
         -1    1    6    6    0  502  0.13808539328E+03  0.12515356103E+03 -0.81477010354E+02  0.20339491855E+03  0.00000000000E+00 0.  1.
<mgrwt>
<rscale>  0 0.19421065E+04</rscale>
<asrwt>0</asrwt>
<pdfrwt beam="1">  1        1 0.12128479E+00 0.19421065E+04</pdfrwt>
<pdfrwt beam="2">  1       -1 0.18401491E+00 0.19421065E+04</pdfrwt>
<totfact> 0.41102244E+00</totfact>
</mgrwt>
</event>
<event>
12    1  0.1494110E-007  0.1408102E+04  0.7818608E-02  0.8947975E-01
          2   -1    0    0  501    0  0.00000000000E+00  0.00000000000E+00  0.29801164957E+04  0.29801164957E+04  0.00000000000E+00 0. -1.
         -2   -1    0    0    0  501 -0.00000000000E+00 -0.00000000000E+00 -0.16633162886E+03  0.16633162886E+03  0.00000000000E+00 0.  1.
         23    2    1    2    0    0 -0.75457496638E+01  0.38619738429E+03  0.49439342404E+03  0.63348493966E+03  0.87595394090E+02 0.  0.
        254    2    1    2    0    0  0.75457496638E+01 -0.38619738429E+03  0.23193914428E+04  0.25129631849E+04  0.88668029512E+03 0.  0.
        -24    2    4    4    0    0  0.11337367355E+03 -0.43160032167E+03  0.23289111905E+04  0.23727198454E+04  0.82702504258E+02 0.  0.
         24    2    4    4    0    0 -0.10582792389E+03  0.45402937380E+02 -0.95197476746E+01  0.14024333948E+03  0.79476993364E+02 0.  0.
         11    1    3    3    0    0 -0.20072612249E+02  0.32265005925E+03  0.35716708720E+03  0.48174090409E+03  0.00000000000E+00 0. -1.
        -11    1    3    3    0    0  0.12526862585E+02  0.63547325036E+02  0.13722633685E+03  0.15174403556E+03  0.00000000000E+00 0.  1.
          4    1    6    6  502    0 -0.97174711195E+02  0.19720554328E+02 -0.32879005552E+02  0.10446460532E+03  0.00000000000E+00 0. -1.
          3    1    5    5  503    0  0.11179282578E+03 -0.27069670807E+03  0.15210756767E+04  0.15490143827E+04  0.00000000000E+00 0. -1.
         -2    1    5    5    0  503  0.15808477688E+01 -0.16090361360E+03  0.80783551383E+03  0.82370546274E+03  0.00000000000E+00 0.  1.
         -3    1    6    6    0  502 -0.86532126947E+01  0.25682383052E+02  0.23359257877E+02  0.35778734155E+02  0.00000000000E+00 0.  1.
<mgrwt>
<rscale>  0 0.14081017E+04</rscale>
<asrwt>0</asrwt>
<pdfrwt beam="1">  1        2 0.45847942E+00 0.14081017E+04</pdfrwt>
<pdfrwt beam="2">  1       -2 0.25589484E-01 0.14081017E+04</pdfrwt>
<totfact> 0.24176879E+01</totfact>
</mgrwt>
</event>
<event>
12    1  0.1494110E-007  0.2340884E+04  0.7818608E-02  0.8461973E-01
         -2   -1    0    0    0  501 -0.00000000000E+00  0.00000000000E+00  0.40079524223E+03  0.40079524223E+03  0.00000000000E+00 0.  1.
          2   -1    0    0  501    0  0.00000000000E+00 -0.00000000000E+00 -0.34180400516E+04  0.34180400516E+04  0.00000000000E+00 0. -1.
         23    2    1    2    0    0 -0.41848003984E+03  0.90164802377E+03 -0.13863013750E+04  0.17100180418E+04  0.11931260767E+03 0.  0.
        254    2    1    2    0    0  0.41848003984E+03 -0.90164802377E+03 -0.16309434343E+04  0.21088172520E+04  0.89388982203E+03 0.  0.
        -24    2    4    4    0    0  0.66285058701E+03 -0.77576147344E+03 -0.10783472028E+04  0.14866807857E+04  0.78805485284E+02 0.  0.
         24    2    4    4    0    0 -0.24437054717E+03 -0.12588655032E+03 -0.55259623154E+03  0.62213646629E+03  0.78273876221E+02 0.  0.
         13    1    3    3    0    0 -0.39927895170E+03  0.87890302491E+03 -0.13703945875E+04  0.16762683359E+04  0.00000000000E+00 0.  1.
        -13    1    3    3    0    0 -0.19201088140E+02  0.22744998854E+02 -0.15906787518E+02  0.33749705891E+02  0.00000000000E+00 0. -1.
          2    1    6    6  502    0 -0.12348357710E+02  0.19278569066E+01 -0.43237871663E+01  0.13224738404E+02  0.00000000000E+00 0. -1.
          3    1    5    5  503    0  0.48369724359E+02 -0.58277175553E+02 -0.52552334777E+02  0.92182467505E+02  0.00000000000E+00 0. -1.
         -4    1    5    5    0  503  0.61448086265E+03 -0.71748429789E+03 -0.10257948680E+04  0.13944983182E+04  0.00000000000E+00 0.  1.
         -3    1    6    6    0  502 -0.23202218946E+03 -0.12781440723E+03 -0.54827244437E+03  0.60891172789E+03  0.00000000000E+00 0.  1.
<mgrwt>
<rscale>  0 0.23408838E+04</rscale>
<asrwt>0</asrwt>
<pdfrwt beam="1">  1        2 0.52585232E+00 0.23408838E+04</pdfrwt>
<pdfrwt beam="2">  1       -2 0.61660806E-01 0.23408838E+04</pdfrwt>
<totfact> 0.20506182E+00</totfact>
</mgrwt>
</event>
<event>
12    1  0.1494110E-007  0.1594130E+04  0.7818608E-02  0.8824163E-01
          1   -1    0    0  501    0  0.00000000000E+00  0.00000000000E+00  0.14246521182E+04  0.14246521182E+04  0.00000000000E+00 0. -1.
         -1   -1    0    0    0  501 -0.00000000000E+00 -0.00000000000E+00 -0.44594206480E+03  0.44594206480E+03  0.00000000000E+00 0.  1.
         23    2    1    2    0    0 -0.29176380830E+01 -0.60053247588E+02 -0.29137416583E+03  0.31140531082E+03  0.91975311547E+02 0.  0.
        254    2    1    2    0    0  0.29176380830E+01  0.60053247588E+02  0.12700842193E+04  0.15591888722E+04  0.90240850508E+03 0.  0.
        -24    2    4    4    0    0 -0.26094983932E+03  0.73778465174E+02  0.12510098047E+04  0.12825554654E+04  0.79905630368E+02 0.  0.
         24    2    4    4    0    0  0.26386747740E+03 -0.13725217586E+02  0.19074414548E+02  0.27663340681E+03  0.79672964346E+02 0.  0.
         11    1    3    3    0    0 -0.13580323061E+02 -0.56697437002E+02 -0.76220193218E+02  0.95961150427E+02  0.00000000000E+00 0. -1.
        -11    1    3    3    0    0  0.10662684978E+02 -0.33558105857E+01 -0.21515397261E+03  0.21544416039E+03  0.00000000000E+00 0.  1.
          2    1    6    6  502    0  0.17550280205E+02 -0.21493729856E+02  0.11613021731E+02  0.30080808369E+02  0.00000000000E+00 0. -1.
          3    1    5    5  503    0 -0.11438047491E+03  0.71006845872E+02  0.53364068024E+03  0.55036100953E+03  0.00000000000E+00 0. -1.
         -4    1    5    5    0  503 -0.14656936441E+03  0.27716193014E+01  0.71736912446E+03  0.73219445586E+03  0.00000000000E+00 0.  1.
         -3    1    6    6    0  502  0.24631719719E+03  0.77685122706E+01  0.74613928169E+01  0.24655259844E+03  0.00000000000E+00 0.  1.
<mgrwt>
<rscale>  0 0.15941296E+04</rscale>
<asrwt>0</asrwt>
<pdfrwt beam="1">  1        1 0.21917725E+00 0.15941296E+04</pdfrwt>
<pdfrwt beam="2">  1       -1 0.68606472E-01 0.15941296E+04</pdfrwt>
<totfact> 0.15238487E+01</totfact>
</mgrwt>
</event>
<event>
12    1  0.1494110E-007  0.1494065E+04  0.7818608E-02  0.8888409E-01
         -2   -1    0    0    0  501 -0.00000000000E+00  0.00000000000E+00  0.21668143596E+03  0.21668143596E+03  0.00000000000E+00 0.  1.
          2   -1    0    0  501    0  0.00000000000E+00 -0.00000000000E+00 -0.25754760876E+04  0.25754760876E+04  0.00000000000E+00 0. -1.
         23    2    1    2    0    0 -0.40869643057E+03  0.19534787948E+03 -0.50253779805E+03  0.68240073325E+03  0.89067142617E+02 0.  0.
        254    2    1    2    0    0  0.40869643057E+03 -0.19534787948E+03 -0.18562568536E+04  0.21097567903E+04  0.89453375641E+03 0.  0.
        -24    2    4    4    0    0  0.60557361835E+03 -0.27543558859E+03 -0.86944521610E+03  0.10977114497E+04  0.80319812177E+02 0.  0.
         24    2    4    4    0    0 -0.19687718777E+03  0.80087709114E+02 -0.98681163751E+03  0.10120453407E+04  0.72552707758E+02 0.  0.
         13    1    3    3    0    0 -0.34209199838E+03  0.19730049554E+03 -0.43519709536E+03  0.58766566405E+03  0.00000000000E+00 0.  1.
        -13    1    3    3    0    0 -0.66604432191E+02 -0.19526160663E+01 -0.67340702688E+02  0.94735069196E+02  0.00000000000E+00 0. -1.
          2    1    6    6  502    0 -0.14893910185E+03  0.24805434073E+02 -0.69314621682E+03  0.70940104561E+03  0.00000000000E+00 0. -1.
          3    1    5    5  503    0  0.50534918097E+03 -0.26019970665E+03 -0.74976529277E+03  0.94086644976E+03  0.00000000000E+00 0. -1.
         -4    1    5    5    0  503  0.10022443738E+03 -0.15235881940E+02 -0.11967992333E+03  0.15684499990E+03  0.00000000000E+00 0.  1.
         -3    1    6    6    0  502 -0.47938085921E+02  0.55282275041E+02 -0.29366542069E+03  0.30264429504E+03  0.00000000000E+00 0.  1.
<mgrwt>
<rscale>  0 0.14940654E+04</rscale>
<asrwt>0</asrwt>
<pdfrwt beam="1">  1        2 0.39622709E+00 0.14940654E+04</pdfrwt>
<pdfrwt beam="2">  1       -2 0.33335606E-01 0.14940654E+04</pdfrwt>
<totfact> 0.25650872E+01</totfact>
</mgrwt>
</event>
<event>
12    1  0.1494110E-007  0.2899030E+04  0.7818608E-02  0.8273166E-01
         -1   -1    0    0    0  501 -0.00000000000E+00  0.00000000000E+00  0.62731812506E+03  0.62731812506E+03  0.00000000000E+00 0.  1.
          1   -1    0    0  501    0  0.00000000000E+00 -0.00000000000E+00 -0.33493270090E+04  0.33493270090E+04  0.00000000000E+00 0. -1.
         23    2    1    2    0    0 -0.10349903284E+02 -0.30471792389E+03  0.52060409881E+03  0.61014620745E+03  0.91047422419E+02 0.  0.
        254    2    1    2    0    0  0.10349903284E+02  0.30471792389E+03 -0.32426129827E+04  0.33664989266E+04  0.85194831607E+03 0.  0.
        -24    2    4    4    0    0 -0.19821513501E+03  0.53544925403E+03 -0.22360225256E+04  0.23091896404E+04  0.81024174192E+02 0.  0.
         24    2    4    4    0    0  0.20856503829E+03 -0.23073133014E+03 -0.10065904571E+04  0.10573092862E+04  0.89119338085E+02 0.  0.
         11    1    3    3    0    0 -0.34275815628E+02 -0.11289137874E+03  0.26142466862E+03  0.28681379377E+03  0.00000000000E+00 0.  1.
        -11    1    3    3    0    0  0.23925912344E+02 -0.19182654515E+03  0.25917943019E+03  0.32333241368E+03  0.00000000000E+00 0. -1.
          2    1    6    6  502    0  0.84712568163E+02 -0.86090273951E+02 -0.25787730685E+03  0.28476035514E+03  0.00000000000E+00 0. -1.
          3    1    5    5  503    0 -0.95564011123E+02  0.18756809385E+03 -0.94653226170E+03  0.96965849271E+03  0.00000000000E+00 0. -1.
         -4    1    5    5    0  503 -0.10265112388E+03  0.34788116018E+03 -0.12894902639E+04  0.13395311476E+04  0.00000000000E+00 0.  1.
         -1    1    6    6    0  502  0.12385247013E+03 -0.14464105619E+03 -0.74871315029E+03  0.77254893108E+03  0.00000000000E+00 0.  1.
<mgrwt>
<rscale>  0 0.28990299E+04</rscale>
<asrwt>0</asrwt>
<pdfrwt beam="1">  1        1 0.51528109E+00 0.28990299E+04</pdfrwt>
<pdfrwt beam="2">  1       -1 0.96510479E-01 0.28990299E+04</pdfrwt>
<totfact> 0.29021515E-01</totfact>
</mgrwt>
</event>
<event>
12    1  0.1494110E-007  0.2052344E+04  0.7818608E-02  0.8582532E-01
          2   -1    0    0  501    0  0.00000000000E+00  0.00000000000E+00  0.25794268249E+04  0.25794268249E+04  0.00000000000E+00 0. -1.
         -2   -1    0    0    0  501 -0.00000000000E+00 -0.00000000000E+00 -0.40824159394E+03  0.40824159394E+03  0.00000000000E+00 0.  1.
         23    2    1    2    0    0  0.78489275327E+03  0.22609892194E+03  0.54686876924E+03  0.98730718980E+03  0.92372504689E+02 0.  0.
        254    2    1    2    0    0 -0.78489275327E+03 -0.22609892194E+03  0.16243164618E+04  0.20003612291E+04  0.83418446532E+03 0.  0.
        -24    2    4    4    0    0 -0.46035180043E+02 -0.15626544816E+03 -0.32437523307E+02  0.18331903619E+03  0.77559964031E+02 0.  0.
         24    2    4    4    0    0 -0.73885757323E+03 -0.69833473786E+02  0.16567539851E+04  0.18170421929E+04  0.77597268695E+02 0.  0.
         11    1    3    3    0    0  0.12229209160E+03  0.43810264123E+02  0.49611482193E+02  0.13905392506E+03  0.00000000000E+00 0. -1.
        -11    1    3    3    0    0  0.66260066168E+03  0.18228865782E+03  0.49725728704E+03  0.84825326474E+03  0.00000000000E+00 0.  1.
          4    1    6    6  502    0 -0.68728014685E+03 -0.65442216219E+02  0.14846410013E+04  0.16373135273E+04  0.00000000000E+00 0. -1.
          1    1    5    5  503    0  0.10353272711E+02 -0.70326567513E+02 -0.37573517605E+02  0.80403890324E+02  0.00000000000E+00 0. -1.
         -2    1    5    5    0  503 -0.56388452754E+02 -0.85938880643E+02  0.51359942987E+01  0.10291514586E+03  0.00000000000E+00 0.  1.
         -3    1    6    6    0  502 -0.51577426382E+02 -0.43912575671E+01  0.17211298372E+03  0.17972866555E+03  0.00000000000E+00 0.  1.
<mgrwt>
<rscale>  0 0.20523443E+04</rscale>
<asrwt>0</asrwt>
<pdfrwt beam="1">  1        2 0.39683489E+00 0.20523443E+04</pdfrwt>
<pdfrwt beam="2">  1       -2 0.62806400E-01 0.20523443E+04</pdfrwt>
<totfact> 0.68066557E+00</totfact>
</mgrwt>
</event>
<event>
12    1  0.1494110E-007  0.1988182E+04  0.7818608E-02  0.8612166E-01
         -2   -1    0    0    0  501 -0.00000000000E+00  0.00000000000E+00  0.62256306038E+03  0.62256306038E+03  0.00000000000E+00 0.  1.
          2   -1    0    0  501    0  0.00000000000E+00 -0.00000000000E+00 -0.15873368707E+04  0.15873368707E+04  0.00000000000E+00 0. -1.
         23    2    1    2    0    0 -0.23547653890E+03  0.11679397050E+03  0.44962441013E+03  0.52882043848E+03  0.91645589391E+02 0.  0.
        254    2    1    2    0    0  0.23547653890E+03 -0.11679397050E+03 -0.14143982204E+04  0.16810794926E+04  0.86972173857E+03 0.  0.
        -24    2    4    4    0    0 -0.15519218244E+03 -0.28064396396E+03 -0.10972795749E+04  0.11459962227E+04  0.80244805973E+02 0.  0.
         24    2    4    4    0    0  0.39066872134E+03  0.16384999346E+03 -0.31711864554E+03  0.53508326993E+03  0.79252761562E+02 0.  0.
         13    1    3    3    0    0 -0.21102887598E+03  0.13231340589E+03  0.39446311639E+03  0.46652028259E+03  0.00000000000E+00 0.  1.
        -13    1    3    3    0    0 -0.24447662922E+02 -0.15519435392E+02  0.55161293741E+02  0.62300155894E+02  0.00000000000E+00 0. -1.
          4    1    6    6  502    0  0.34416369667E+03  0.16804469870E+03 -0.26895244458E+03  0.46799902597E+03  0.00000000000E+00 0. -1.
          1    1    5    5  503    0 -0.59762786557E+02 -0.18916934311E+03 -0.65486881174E+03  0.68425857073E+03  0.00000000000E+00 0. -1.
         -2    1    5    5    0  503 -0.95429395887E+02 -0.91474620847E+02 -0.44241076315E+03  0.46173765193E+03  0.00000000000E+00 0.  1.
         -3    1    6    6    0  502  0.46505024670E+02 -0.41947052405E+01 -0.48166200965E+02  0.67084243955E+02  0.00000000000E+00 0.  1.
<mgrwt>
<rscale>  0 0.19881824E+04</rscale>
<asrwt>0</asrwt>
<pdfrwt beam="1">  1        2 0.24420567E+00 0.19881824E+04</pdfrwt>
<pdfrwt beam="2">  1       -2 0.95778932E-01 0.19881824E+04</pdfrwt>
<totfact> 0.96392688E+00</totfact>
</mgrwt>
</event>
<event>
12    1  0.1494110E-007  0.1861877E+04  0.7818608E-02  0.8674069E-01
          2   -1    0    0  501    0  0.00000000000E+00  0.00000000000E+00  0.41229076619E+03  0.41229076619E+03  0.00000000000E+00 0. -1.
         -2   -1    0    0    0  501 -0.00000000000E+00 -0.00000000000E+00 -0.21020268130E+04  0.21020268130E+04  0.00000000000E+00 0.  1.
         23    2    1    2    0    0  0.42292918435E+03  0.15174542407E+03  0.93707938239E+02  0.46811537789E+03  0.91951403584E+02 0.  0.
        254    2    1    2    0    0 -0.42292918435E+03 -0.15174542407E+03 -0.17834439850E+04  0.20462022013E+04  0.89686968514E+03 0.  0.
        -24    2    4    4    0    0 -0.51510896925E+03  0.25358348768E+03 -0.10494334858E+04  0.11988356890E+04  0.79085603300E+02 0.  0.
         24    2    4    4    0    0  0.92179784894E+02 -0.40532891175E+03 -0.73401049920E+03  0.84736651227E+03  0.80436022690E+02 0.  0.
         13    1    3    3    0    0  0.40735045672E+02  0.23087532946E+02  0.39424614461E+02  0.61210116393E+02  0.00000000000E+00 0.  1.
        -13    1    3    3    0    0  0.38219413868E+03  0.12865789112E+03  0.54283323778E+02  0.40690526149E+03  0.00000000000E+00 0. -1.
          2    1    6    6  502    0  0.80725647597E+02 -0.17712884745E+03 -0.32332303333E+03  0.37739772477E+03  0.00000000000E+00 0. -1.
          3    1    5    5  503    0 -0.48069984951E+03  0.24565942049E+03 -0.10143789084E+04  0.11490802696E+04  0.00000000000E+00 0. -1.
         -4    1    5    5    0  503 -0.34409119734E+02  0.79240671890E+01 -0.35054577447E+02  0.49755419420E+02  0.00000000000E+00 0.  1.
         -1    1    6    6    0  502  0.11454137298E+02 -0.22820006430E+03 -0.41068746587E+03  0.46996878750E+03  0.00000000000E+00 0.  1.
<mgrwt>
<rscale>  0 0.18618767E+04</rscale>
<asrwt>0</asrwt>
<pdfrwt beam="1">  1        2 0.63429350E-01 0.18618767E+04</pdfrwt>
<pdfrwt beam="2">  1       -2 0.32338874E+00 0.18618767E+04</pdfrwt>
<totfact> 0.16507951E+00</totfact>
</mgrwt>
</event>
<event>
12    1  0.1494110E-007  0.1312757E+04  0.7818608E-02  0.9019509E-01
         -1   -1    0    0    0  501 -0.00000000000E+00  0.00000000000E+00  0.14657705165E+03  0.14657705165E+03  0.00000000000E+00 0.  1.
          1   -1    0    0  501    0  0.00000000000E+00 -0.00000000000E+00 -0.29392925379E+04  0.29392925379E+04  0.00000000000E+00 0. -1.
         23    2    1    2    0    0  0.32751060686E+03 -0.33728748480E+02 -0.91080049487E+03  0.97234952999E+03  0.86632793687E+02 0.  0.
        254    2    1    2    0    0 -0.32751060686E+03  0.33728748480E+02 -0.18819149914E+04  0.21135200595E+04  0.90385960263E+03 0.  0.
        -24    2    4    4    0    0  0.15215775070E+02  0.23813622296E+03 -0.73753382522E+02  0.26014930162E+03  0.72785418881E+02 0.  0.
         24    2    4    4    0    0 -0.34272638193E+03 -0.20440747448E+03 -0.18081616088E+04  0.18533707579E+04  0.79315661359E+02 0.  0.
         13    1    3    3    0    0  0.35179269437E+02 -0.62344633654E+01 -0.20206577954E+03  0.20519997269E+03  0.00000000000E+00 0. -1.
        -13    1    3    3    0    0  0.29233133742E+03 -0.27494285114E+02 -0.70873471533E+03  0.76714955731E+03  0.00000000000E+00 0.  1.
          2    1    6    6  502    0 -0.25357760648E+03 -0.18849158215E+03 -0.14361186643E+04  0.14704650615E+04  0.00000000000E+00 0. -1.
          1    1    5    5  503    0  0.35464561227E+02  0.20621663866E+03 -0.48811987744E+02  0.21486192616E+03  0.00000000000E+00 0. -1.
         -2    1    5    5    0  503 -0.20248786157E+02  0.31919584297E+02 -0.24941394778E+02  0.45287375459E+02  0.00000000000E+00 0.  1.
         -1    1    6    6    0  502 -0.89148775455E+02 -0.15915892333E+02 -0.37204294451E+03  0.38290569643E+03  0.00000000000E+00 0.  1.
<mgrwt>
<rscale>  0 0.13127572E+04</rscale>
<asrwt>0</asrwt>
<pdfrwt beam="1">  1        1 0.45219883E+00 0.13127572E+04</pdfrwt>
<pdfrwt beam="2">  1       -1 0.22550317E-01 0.13127572E+04</pdfrwt>
<totfact> 0.10949334E+01</totfact>
</mgrwt>
</event>
<event>
12    1  0.1494110E-007  0.2155447E+04  0.7818608E-02  0.8537204E-01
         -2   -1    0    0    0  501 -0.00000000000E+00  0.00000000000E+00  0.46065323475E+03  0.46065323475E+03  0.00000000000E+00 0.  1.
          2   -1    0    0  501    0  0.00000000000E+00 -0.00000000000E+00 -0.25213940297E+04  0.25213940297E+04  0.00000000000E+00 0. -1.
         23    2    1    2    0    0 -0.15430396893E+03 -0.83305127576E+03 -0.12082714915E+04  0.14784818932E+04  0.90579072278E+02 0.  0.
        254    2    1    2    0    0  0.15430396893E+03  0.83305127576E+03 -0.85246930344E+03  0.15035653713E+04  0.90344937300E+03 0.  0.
        -24    2    4    4    0    0  0.28077508556E+03  0.93219800890E+03 -0.88801493418E+03  0.13201067834E+04  0.79269286846E+02 0.  0.
         24    2    4    4    0    0 -0.12647111664E+03 -0.99146733139E+02  0.35545630735E+02  0.18345858788E+03  0.81046551838E+02 0.  0.
         13    1    3    3    0    0 -0.10129248123E+01 -0.11989494582E+02 -0.35648453190E+01  0.12549187988E+02  0.00000000000E+00 0.  1.
        -13    1    3    3    0    0 -0.15329104411E+03 -0.82106178118E+03 -0.12047066462E+04  0.14659327052E+04  0.00000000000E+00 0. -1.
          4    1    6    6  502    0 -0.52479375405E+02  0.44572518369E+01  0.10132408605E+02  0.53634108932E+02  0.00000000000E+00 0. -1.
          1    1    5    5  503    0  0.34020332838E+02  0.15672693376E+03 -0.18374709586E+03  0.24389282492E+03  0.00000000000E+00 0. -1.
         -2    1    5    5    0  503  0.24675475273E+03  0.77547107514E+03 -0.70426783832E+03  0.10762139585E+04  0.00000000000E+00 0.  1.
         -3    1    6    6    0  502 -0.73991741234E+02 -0.10360398498E+03  0.25413222130E+02  0.12982447894E+03  0.00000000000E+00 0.  1.
<mgrwt>
<rscale>  0 0.21554473E+04</rscale>
<asrwt>0</asrwt>
<pdfrwt beam="1">  1        2 0.38790677E+00 0.21554473E+04</pdfrwt>
<pdfrwt beam="2">  1       -2 0.70869729E-01 0.21554473E+04</pdfrwt>
<totfact> 0.56163919E+00</totfact>
</mgrwt>
</event>
<event>
12    1  0.1494110E-007  0.1078868E+04  0.7818608E-02  0.9226037E-01
          2   -1    0    0  501    0  0.00000000000E+00  0.00000000000E+00  0.21421482395E+04  0.21421482395E+04  0.00000000000E+00 0.  1.
         -2   -1    0    0    0  501 -0.00000000000E+00 -0.00000000000E+00 -0.13583973112E+03  0.13583973112E+03  0.00000000000E+00 0. -1.
         23    2    1    2    0    0  0.89104404148E+02 -0.13721540107E+02  0.62152829966E+02  0.14287264608E+03  0.91770056245E+02 0.  0.
        254    2    1    2    0    0 -0.89104404148E+02  0.13721540107E+02  0.19441556784E+04  0.21351153245E+04  0.87797965332E+03 0.  0.
        -24    2    4    4    0    0 -0.29783251210E+03  0.35463730396E+03  0.11306126714E+04  0.12244389591E+04  0.80584918856E+02 0.  0.
         24    2    4    4    0    0  0.20872810795E+03 -0.34091576386E+03  0.81354300696E+03  0.91067636541E+03  0.87682593717E+02 0.  0.
         13    1    3    3    0    0  0.23404311999E+02 -0.43225676859E+02  0.49479022414E+02  0.69745212159E+02  0.00000000000E+00 0.  1.
        -13    1    3    3    0    0  0.65700092149E+02  0.29504136751E+02  0.12673807552E+02  0.73127433920E+02  0.00000000000E+00 0. -1.
          2    1    6    6  502    0  0.77961527186E+02 -0.18433064654E+03  0.47460558839E+03  0.51507887891E+03  0.00000000000E+00 0. -1.
          3    1    5    5  503    0 -0.29470822682E+03  0.32040252243E+03  0.10597005474E+04  0.11456334342E+04  0.00000000000E+00 0. -1.
         -4    1    5    5    0  503 -0.31242852830E+01  0.34234781531E+02  0.70912123976E+02  0.78805524881E+02  0.00000000000E+00 0.  1.
         -1    1    6    6    0  502  0.13076658077E+03 -0.15658511731E+03  0.33893741857E+03  0.39559748649E+03  0.00000000000E+00 0.  1.
<mgrwt>
<rscale>  0 0.10788676E+04</rscale>
<asrwt>0</asrwt>
<pdfrwt beam="1">  1        2 0.32956124E+00 0.10788676E+04</pdfrwt>
<pdfrwt beam="2">  1       -2 0.20898422E-01 0.10788676E+04</pdfrwt>
<totfact> 0.10987120E+02</totfact>
</mgrwt>
</event>
<event>
12    1  0.1494110E-007  0.1468773E+04  0.7818608E-02  0.8905488E-01
         -2   -1    0    0    0  501 -0.00000000000E+00  0.00000000000E+00  0.43181525457E+03  0.43181525457E+03  0.00000000000E+00 0.  1.
          2   -1    0    0  501    0  0.00000000000E+00 -0.00000000000E+00 -0.12489685879E+04  0.12489685879E+04  0.00000000000E+00 0. -1.
         23    2    1    2    0    0  0.33441174530E+03  0.31771702891E+03 -0.17492268270E+03  0.50247767047E+03  0.95449141125E+02 0.  0.
        254    2    1    2    0    0 -0.33441174530E+03 -0.31771702891E+03 -0.64223065063E+03  0.11783061720E+04  0.87359595953E+03 0.  0.
        -24    2    4    4    0    0 -0.21130635030E+03  0.28564471692E+03 -0.27058905838E+03  0.45449550945E+03  0.84287909057E+02 0.  0.
         24    2    4    4    0    0 -0.12310539500E+03 -0.60336174583E+03 -0.37164159224E+03  0.72381066255E+03  0.81142267158E+02 0.  0.
         11    1    3    3    0    0  0.41022663854E+02  0.88499327477E+02 -0.51059960854E+02  0.11010045193E+03  0.00000000000E+00 0. -1.
        -11    1    3    3    0    0  0.29338908144E+03  0.22921770144E+03 -0.12386272185E+03  0.39237721853E+03  0.00000000000E+00 0.  1.
          2    1    6    6  502    0  0.67213431581E+01 -0.37655708240E+02 -0.85849276515E+01  0.39202420839E+02  0.00000000000E+00 0. -1.
          3    1    5    5  503    0 -0.14394093800E+03  0.15220087295E+03 -0.19827586662E+03  0.28843962738E+03  0.00000000000E+00 0. -1.
         -4    1    5    5    0  503 -0.67365412299E+02  0.13344384397E+03 -0.72313191762E+02  0.16605588207E+03  0.00000000000E+00 0.  1.
         -1    1    6    6    0  502 -0.12982673816E+03 -0.56570603759E+03 -0.36305666459E+03  0.68460824171E+03  0.00000000000E+00 0.  1.
<mgrwt>
<rscale>  0 0.14687732E+04</rscale>
<asrwt>0</asrwt>
<pdfrwt beam="1">  1        2 0.19214901E+00 0.14687732E+04</pdfrwt>
<pdfrwt beam="2">  1       -2 0.66433116E-01 0.14687732E+04</pdfrwt>
<totfact> 0.35728490E+01</totfact>
</mgrwt>
</event>
<event>
12    1  0.1494110E-007  0.4830922E+04  0.7818608E-02  0.7855132E-01
          2   -1    0    0  501    0  0.00000000000E+00  0.00000000000E+00  0.22077420519E+04  0.22077420519E+04  0.00000000000E+00 0. -1.
         -2   -1    0    0    0  501 -0.00000000000E+00 -0.00000000000E+00 -0.26427237994E+04  0.26427237994E+04  0.00000000000E+00 0.  1.
         23    2    1    2    0    0 -0.19744598066E+04 -0.96260457399E+03  0.56999823496E+03  0.22711551561E+04  0.90269936088E+02 0.  0.
        254    2    1    2    0    0  0.19744598066E+04  0.96260457399E+03 -0.10049799825E+04  0.25793106953E+04  0.90430072637E+03 0.  0.
        -24    2    4    4    0    0  0.11205289623E+03 -0.61062919557E+02 -0.30500160055E+03  0.34032831931E+03  0.80702273135E+02 0.  0.
         24    2    4    4    0    0  0.18624069104E+04  0.10236674935E+04 -0.69997838196E+03  0.22389823759E+04  0.81349293085E+02 0.  0.
         11    1    3    3    0    0 -0.18715300069E+04 -0.92520983884E+03  0.52481902044E+03  0.21526896703E+04  0.00000000000E+00 0. -1.
        -11    1    3    3    0    0 -0.10292979970E+03 -0.37394735148E+02  0.45179214525E+02  0.11846548572E+03  0.00000000000E+00 0.  1.
          4    1    6    6  502    0  0.10101805881E+04  0.51285696572E+03 -0.39013450421E+03  0.11982036635E+04  0.00000000000E+00 0. -1.
          1    1    5    5  503    0  0.11454400751E+03 -0.48519709986E+02 -0.20704979030E+03  0.24154524954E+03  0.00000000000E+00 0. -1.
         -2    1    5    5    0  503 -0.24911112798E+01 -0.12543209572E+02 -0.97951810248E+02  0.98783069767E+02  0.00000000000E+00 0.  1.
         -3    1    6    6    0  502  0.85222632226E+03  0.51081052783E+03 -0.30984387775E+03  0.10407787124E+04  0.00000000000E+00 0.  1.
<mgrwt>
<rscale>  0 0.48309223E+04</rscale>
<asrwt>0</asrwt>
<pdfrwt beam="1">  1        2 0.33965262E+00 0.48309223E+04</pdfrwt>
<pdfrwt beam="2">  1       -2 0.40657289E+00 0.48309223E+04</pdfrwt>
<totfact> 0.25370618E-02</totfact>
</mgrwt>
</event>
<event>
12    1  0.1494110E-007  0.1262431E+04  0.7818608E-02  0.9059900E-01
          1   -1    0    0  501    0  0.00000000000E+00  0.00000000000E+00  0.16098510800E+04  0.16098510800E+04  0.00000000000E+00 0. -1.
         -1   -1    0    0    0  501 -0.00000000000E+00 -0.00000000000E+00 -0.24749692879E+03  0.24749692879E+03  0.00000000000E+00 0.  1.
         23    2    1    2    0    0  0.11528252259E+03 -0.22089752700E+03  0.58183102698E+03  0.63978287371E+03  0.93322045018E+02 0.  0.
        254    2    1    2    0    0 -0.11528252259E+03  0.22089752700E+03  0.78052312428E+03  0.12175651351E+04  0.90064573129E+03 0.  0.
        -24    2    4    4    0    0  0.45703184846E+02  0.52898140305E+03  0.63724279588E+03  0.83336298393E+03  0.80655912403E+02 0.  0.
         24    2    4    4    0    0 -0.16098570744E+03 -0.30808387605E+03  0.14328032840E+03  0.38420215120E+03  0.79056737828E+02 0.  0.
         13    1    3    3    0    0  0.11261646774E+03 -0.18445797239E+03  0.40335265955E+03  0.45760308167E+03  0.00000000000E+00 0. -1.
        -13    1    3    3    0    0  0.26660548512E+01 -0.36439554610E+02  0.17847836743E+03  0.18217979204E+03  0.00000000000E+00 0.  1.
          2    1    6    6  502    0 -0.13422567124E+03 -0.26962456487E+03  0.92415546455E+02  0.31504693306E+03  0.00000000000E+00 0. -1.
          3    1    5    5  503    0  0.52089962852E+02  0.47331496874E+03  0.53087766780E+03  0.71314200692E+03  0.00000000000E+00 0. -1.
         -4    1    5    5    0  503 -0.63867780051E+01  0.55666434311E+02  0.10636512808E+03  0.12022097701E+03  0.00000000000E+00 0.  1.
         -1    1    6    6    0  502 -0.26760036198E+02 -0.38459311180E+02  0.50864781945E+02  0.69155218141E+02  0.00000000000E+00 0.  1.
<mgrwt>
<rscale>  0 0.12624313E+04</rscale>
<asrwt>0</asrwt>
<pdfrwt beam="1">  1        1 0.24766939E+00 0.12624313E+04</pdfrwt>
<pdfrwt beam="2">  1       -1 0.38076452E-01 0.12624313E+04</pdfrwt>
<totfact> 0.36072610E+01</totfact>
</mgrwt>
</event>
<event>
12    1  0.1494110E-007  0.1623840E+04  0.7818608E-02  0.8806034E-01
         -1   -1    0    0    0  501 -0.00000000000E+00  0.00000000000E+00  0.68194429854E+03  0.68194429854E+03  0.00000000000E+00 0.  1.
          1   -1    0    0  501    0  0.00000000000E+00 -0.00000000000E+00 -0.96666891923E+03  0.96666891923E+03  0.00000000000E+00 0. -1.
         23    2    1    2    0    0  0.35884122971E+03  0.14185424418E+03  0.30814043855E+03  0.50217783265E+03  0.91336690321E+02 0.  0.
        254    2    1    2    0    0 -0.35884122971E+03 -0.14185424418E+03 -0.59286505924E+03  0.11464353851E+04  0.90218371691E+03 0.  0.
        -24    2    4    4    0    0 -0.58281727948E+03  0.53330447807E+02 -0.59737651440E+03  0.84012185069E+03  0.80161749727E+02 0.  0.
         24    2    4    4    0    0  0.22397604978E+03 -0.19518469199E+03  0.45114551602E+01  0.30631353443E+03  0.74466726028E+02 0.  0.
         11    1    3    3    0    0  0.26088684922E+03  0.57764903167E+02  0.19982058014E+03  0.33365700409E+03  0.00000000000E+00 0.  1.
        -11    1    3    3    0    0  0.97954380488E+02  0.84089341016E+02  0.10831985841E+03  0.16852082855E+03  0.00000000000E+00 0. -1.
          4    1    6    6  502    0  0.39197358877E+02 -0.64786635787E+02  0.23701516404E+02  0.79344205833E+02  0.00000000000E+00 0. -1.
          3    1    5    5  503    0 -0.23048509482E+03  0.60245878993E+02 -0.23386504892E+03  0.33383499813E+03  0.00000000000E+00 0. -1.
         -4    1    5    5    0  503 -0.35233218467E+03 -0.69154311866E+01 -0.36351146548E+03  0.50628685256E+03  0.00000000000E+00 0.  1.
         -3    1    6    6    0  502  0.18477869090E+03 -0.13039805620E+03 -0.19190061244E+02  0.22696932859E+03  0.00000000000E+00 0.  1.
<mgrwt>
<rscale>  0 0.16238403E+04</rscale>
<asrwt>0</asrwt>
<pdfrwt beam="1">  1        1 0.14871829E+00 0.16238403E+04</pdfrwt>
<pdfrwt beam="2">  1       -1 0.10491451E+00 0.16238403E+04</pdfrwt>
<totfact> 0.13134264E+01</totfact>
</mgrwt>
</event>
<event>
12    1  0.1494110E-007  0.1387098E+04  0.7818608E-02  0.8963211E-01
          1   -1    0    0  501    0  0.00000000000E+00  0.00000000000E+00  0.44050930320E+03  0.44050930320E+03  0.00000000000E+00 0. -1.
         -1   -1    0    0    0  501 -0.00000000000E+00 -0.00000000000E+00 -0.10919404979E+04  0.10919404979E+04  0.00000000000E+00 0.  1.
         23    2    1    2    0    0 -0.92250074636E+02  0.24861172943E+03  0.12175875399E+03  0.30455067459E+03  0.87224141954E+02 0.  0.
        254    2    1    2    0    0  0.92250074636E+02 -0.24861172943E+03 -0.77318994870E+03  0.12278991265E+04  0.91629454863E+03 0.  0.
        -24    2    4    4    0    0  0.42046307333E+01 -0.56655248786E+03 -0.65067199201E+03  0.86643171822E+03  0.79564318184E+02 0.  0.
         24    2    4    4    0    0  0.88045443903E+02  0.31794075843E+03 -0.12251795669E+03  0.36146740829E+03  0.82520976039E+02 0.  0.
         11    1    3    3    0    0 -0.10368223710E+03  0.22655847663E+03  0.12623560467E+03  0.27931018154E+03  0.00000000000E+00 0. -1.
        -11    1    3    3    0    0  0.11432162464E+02  0.22053252794E+02 -0.44768506788E+01  0.25240493050E+02  0.00000000000E+00 0.  1.
          4    1    6    6  502    0  0.64010837978E+02  0.24462707856E+03 -0.54625812111E+02  0.25869629741E+03  0.00000000000E+00 0. -1.
          3    1    5    5  503    0 -0.30527302213E+02 -0.38600517901E+03 -0.41612605223E+03  0.56841253131E+03  0.00000000000E+00 0. -1.
         -4    1    5    5    0  503  0.34731932947E+02 -0.18054730885E+03 -0.23454593979E+03  0.29801918691E+03  0.00000000000E+00 0.  1.
         -3    1    6    6    0  502  0.24034605924E+02  0.73313679865E+02 -0.67892144575E+02  0.10277111088E+03  0.00000000000E+00 0.  1.
<mgrwt>
<rscale>  0 0.13870976E+04</rscale>
<asrwt>0</asrwt>
<pdfrwt beam="1">  1        1 0.67770662E-01 0.13870976E+04</pdfrwt>
<pdfrwt beam="2">  1       -1 0.16799084E+00 0.13870976E+04</pdfrwt>
<totfact> 0.13096580E+01</totfact>
</mgrwt>
</event>
<event>
12    1  0.1494110E-007  0.1164445E+04  0.7818608E-02  0.9144560E-01
          2   -1    0    0  501    0  0.00000000000E+00  0.00000000000E+00  0.18737741549E+04  0.18737741549E+04  0.00000000000E+00 0. -1.
         -2   -1    0    0    0  501 -0.00000000000E+00 -0.00000000000E+00 -0.18090915189E+03  0.18090915189E+03  0.00000000000E+00 0.  1.
         23    2    1    2    0    0  0.10077548078E+03 -0.13636008294E+03  0.10589810540E+03  0.22009778915E+03  0.92080716303E+02 0.  0.
        254    2    1    2    0    0 -0.10077548078E+03  0.13636008294E+03  0.15869668976E+04  0.18345855176E+04  0.90470454718E+03 0.  0.
        -24    2    4    4    0    0  0.24619099838E+03  0.38713980719E+03  0.63395745029E+03  0.78674449813E+03  0.81102518873E+02 0.  0.
         24    2    4    4    0    0 -0.34696647916E+03 -0.25077972425E+03  0.95300944730E+03  0.10478410195E+04  0.80421313955E+02 0.  0.
         11    1    3    3    0    0  0.10218913368E+03 -0.13757887263E+03  0.71575670664E+02  0.18572463990E+03  0.00000000000E+00 0.  1.
        -11    1    3    3    0    0 -0.14136528999E+01  0.12187896879E+01  0.34322434738E+02  0.34373149247E+02  0.00000000000E+00 0. -1.
          4    1    6    6  502    0 -0.25367495007E+03 -0.17409189277E+03  0.76306805599E+03  0.82275866783E+03  0.00000000000E+00 0. -1.
          3    1    5    5  503    0  0.22873974069E+03  0.31067108858E+03  0.50032258974E+03  0.63179196581E+03  0.00000000000E+00 0. -1.
         -4    1    5    5    0  503  0.17451257692E+02  0.76468718609E+02  0.13363486054E+03  0.15495253232E+03  0.00000000000E+00 0.  1.
         -3    1    6    6    0  502 -0.93291529090E+02 -0.76687831481E+02  0.18994139131E+03  0.22508235166E+03  0.00000000000E+00 0.  1.
<mgrwt>
<rscale>  0 0.11644447E+04</rscale>
<asrwt>0</asrwt>
<pdfrwt beam="1">  1        2 0.28827293E+00 0.11644447E+04</pdfrwt>
<pdfrwt beam="2">  1       -2 0.27832179E-01 0.11644447E+04</pdfrwt>
<totfact> 0.91604221E+01</totfact>
</mgrwt>
</event>
<event>
12    1  0.1494110E-007  0.1685987E+04  0.7818608E-02  0.8769397E-01
          2   -1    0    0  501    0  0.00000000000E+00  0.00000000000E+00  0.33658702641E+04  0.33658702641E+04  0.00000000000E+00 0.  1.
         -2   -1    0    0    0  501 -0.00000000000E+00 -0.00000000000E+00 -0.21113064770E+03  0.21113064770E+03  0.00000000000E+00 0. -1.
         23    2    1    2    0    0  0.17349748898E+02 -0.17103416409E+03 -0.83821102338E+02  0.21122029183E+03  0.89634454388E+02 0.  0.
        254    2    1    2    0    0 -0.17349748898E+02  0.17103416409E+03  0.32385607187E+04  0.33657806200E+04  0.90036101298E+03 0.  0.
        -24    2    4    4    0    0 -0.26844934944E+03  0.30323630049E+03  0.28413039195E+04  0.28710827615E+04  0.78044559259E+02 0.  0.
         24    2    4    4    0    0  0.25109960055E+03 -0.13220213640E+03  0.39725679919E+03  0.49469785843E+03  0.79903644233E+02 0.  0.
         11    1    3    3    0    0  0.73534726584E+01 -0.17997460918E+03 -0.74692389881E+02  0.19499714515E+03  0.00000000000E+00 0. -1.
        -11    1    3    3    0    0  0.99962762398E+01  0.89404450963E+01 -0.91287124567E+01  0.16223146683E+02  0.00000000000E+00 0.  1.
          4    1    6    6  502    0  0.23626855069E+03 -0.11588877649E+03  0.39181759476E+03  0.47198947459E+03  0.00000000000E+00 0. -1.
          1    1    5    5  503    0 -0.19107221323E+03  0.16705724042E+03  0.18913335543E+04  0.19082870135E+04  0.00000000000E+00 0. -1.
         -4    1    5    5    0  503 -0.77377136213E+02  0.13617906007E+03  0.94997036521E+03  0.96279574801E+03  0.00000000000E+00 0.  1.
         -1    1    6    6    0  502  0.14831049859E+02 -0.16313359912E+02  0.54392044330E+01  0.22708383835E+02  0.00000000000E+00 0.  1.
<mgrwt>
<rscale>  0 0.16859874E+04</rscale>
<asrwt>0</asrwt>
<pdfrwt beam="1">  1        2 0.51782615E+00 0.16859874E+04</pdfrwt>
<pdfrwt beam="2">  1       -2 0.32481641E-01 0.16859874E+04</pdfrwt>
<totfact> 0.85343818E+00</totfact>
</mgrwt>
</event>
<event>
12    1  0.1494110E-007  0.1462218E+04  0.7818608E-02  0.8909974E-01
         -1   -1    0    0    0  501 -0.00000000000E+00  0.00000000000E+00  0.33942871578E+03  0.33942871578E+03  0.00000000000E+00 0.  1.
          1   -1    0    0  501    0  0.00000000000E+00 -0.00000000000E+00 -0.15747646360E+04  0.15747646360E+04  0.00000000000E+00 0. -1.
         23    2    1    2    0    0 -0.10045872594E+03 -0.30050940240E+03  0.46683993862E+02  0.33290104861E+03  0.90806697631E+02 0.  0.
        254    2    1    2    0    0  0.10045872594E+03  0.30050940240E+03 -0.12820199141E+04  0.15812923032E+04  0.86977723093E+03 0.  0.
        -24    2    4    4    0    0  0.24740887285E+03  0.38539563237E+03 -0.24361352854E+03  0.52587504792E+03  0.86348543266E+02 0.  0.
         24    2    4    4    0    0 -0.14695014691E+03 -0.84886229975E+02 -0.10384063856E+04  0.10554172553E+04  0.82569627759E+02 0.  0.
         13    1    3    3    0    0 -0.29414657074E+02 -0.10897927356E+02  0.60607732680E+01  0.31948706454E+02  0.00000000000E+00 0. -1.
        -13    1    3    3    0    0 -0.71044068864E+02 -0.28961147504E+03  0.40623220594E+02  0.30095234215E+03  0.00000000000E+00 0.  1.
          4    1    6    6  502    0 -0.10291494451E+03 -0.21502242944E+02 -0.45864251455E+03  0.47053882773E+03  0.00000000000E+00 0. -1.
          3    1    5    5  503    0  0.59464036167E+02  0.37373060942E+02 -0.43386868748E+02  0.82553847040E+02  0.00000000000E+00 0. -1.
         -4    1    5    5    0  503  0.18794483668E+03  0.34802257143E+03 -0.20022665979E+03  0.44332120088E+03  0.00000000000E+00 0.  1.
         -3    1    6    6    0  502 -0.44035202402E+02 -0.63383987030E+02 -0.57976387104E+03  0.58487842756E+03  0.00000000000E+00 0.  1.
<mgrwt>
<rscale>  0 0.14622180E+04</rscale>
<asrwt>0</asrwt>
<pdfrwt beam="1">  1        1 0.24227148E+00 0.14622180E+04</pdfrwt>
<pdfrwt beam="2">  1       -1 0.52219802E-01 0.14622180E+04</pdfrwt>
<totfact> 0.20812960E+01</totfact>
</mgrwt>
</event>
<event>
12    1  0.1494110E-007  0.2124682E+04  0.7818608E-02  0.8550448E-01
         -2   -1    0    0    0  501 -0.00000000000E+00  0.00000000000E+00  0.38537903636E+03  0.38537903636E+03  0.00000000000E+00 0.  1.
          2   -1    0    0  501    0  0.00000000000E+00 -0.00000000000E+00 -0.29284625577E+04  0.29284625577E+04  0.00000000000E+00 0. -1.
         23    2    1    2    0    0  0.72842201716E+03 -0.28065030329E+03 -0.17196709339E+04  0.18907449392E+04  0.91022394081E+02 0.  0.
        254    2    1    2    0    0 -0.72842201716E+03  0.28065030329E+03 -0.82341258743E+03  0.14230966549E+04  0.85897181106E+03 0.  0.
        -24    2    4    4    0    0 -0.25676677249E+03  0.22745747580E+03  0.11295154140E+03  0.36989764771E+03  0.80000877005E+02 0.  0.
         24    2    4    4    0    0 -0.47165524467E+03  0.53192827485E+02 -0.93636412883E+03  0.10531990072E+04  0.84629901571E+02 0.  0.
         11    1    3    3    0    0  0.43767018704E+03 -0.21268149684E+03 -0.11042571324E+04  0.12067196966E+04  0.00000000000E+00 0. -1.
        -11    1    3    3    0    0  0.29075183013E+03 -0.67968806447E+02 -0.61541380153E+03  0.68402524258E+03  0.00000000000E+00 0.  1.
          2    1    6    6  502    0 -0.10228972265E+03  0.19456142958E+02 -0.28796166934E+03  0.30620851044E+03  0.00000000000E+00 0. -1.
          3    1    5    5  503    0 -0.15793403007E+03  0.11261015781E+03  0.27400522189E+02  0.19589536521E+03  0.00000000000E+00 0. -1.
         -4    1    5    5    0  503 -0.98832742418E+02  0.11484731799E+03  0.85551019216E+02  0.17400228249E+03  0.00000000000E+00 0.  1.
         -1    1    6    6    0  502 -0.36936552202E+03  0.33736684527E+02 -0.64840245949E+03  0.74699049674E+03  0.00000000000E+00 0.  1.
<mgrwt>
<rscale>  0 0.21246817E+04</rscale>
<asrwt>0</asrwt>
<pdfrwt beam="1">  1        2 0.45053270E+00 0.21246817E+04</pdfrwt>
<pdfrwt beam="2">  1       -2 0.59289082E-01 0.21246817E+04</pdfrwt>
<totfact> 0.47194846E+00</totfact>
</mgrwt>
</event>
<event>
12    1  0.1494110E-007  0.1758374E+04  0.7818608E-02  0.8728754E-01
         -2   -1    0    0    0  501 -0.00000000000E+00  0.00000000000E+00  0.95057950190E+03  0.95057950190E+03  0.00000000000E+00 0. -1.
          2   -1    0    0  501    0  0.00000000000E+00 -0.00000000000E+00 -0.81315645223E+03  0.81315645223E+03  0.00000000000E+00 0.  1.
         23    2    1    2    0    0  0.12325598156E+03 -0.30164643787E+03  0.60968318422E+03  0.69706796436E+03  0.89484922457E+02 0.  0.
        254    2    1    2    0    0 -0.12325598156E+03  0.30164643787E+03 -0.47226013454E+03  0.10666679898E+04  0.89920429005E+03 0.  0.
        -24    2    4    4    0    0  0.87642011960E+01  0.60307224390E+03 -0.37407161447E+03  0.71388631710E+03  0.77014014306E+02 0.  0.
         24    2    4    4    0    0 -0.13202018275E+03 -0.30142580603E+03 -0.98188520072E+02  0.35278167267E+03  0.80790332976E+02 0.  0.
         11    1    3    3    0    0  0.21274576673E+02 -0.10621517641E+03  0.13042355002E+03  0.16954224757E+03  0.00000000000E+00 0.  1.
        -11    1    3    3    0    0  0.10198140489E+03 -0.19543126146E+03  0.47925963420E+03  0.52752571678E+03  0.00000000000E+00 0. -1.
          4    1    6    6  502    0  0.21851963772E+01  0.43527573983E+01 -0.20523060326E+01  0.52852190330E+01  0.00000000000E+00 0. -1.
          1    1    5    5  503    0 -0.90814888784E+01  0.17224997813E+03 -0.69447228293E+02  0.18594473889E+03  0.00000000000E+00 0. -1.
         -2    1    5    5    0  503  0.17845690074E+02  0.43082226577E+03 -0.30462438618E+03  0.52794157820E+03  0.00000000000E+00 0.  1.
         -3    1    6    6    0  502 -0.13420537913E+03 -0.30577856343E+03 -0.96136214039E+02  0.34749645364E+03  0.00000000000E+00 0.  1.
<mgrwt>
<rscale>  0 0.17583741E+04</rscale>
<asrwt>0</asrwt>
<pdfrwt beam="1">  1        2 0.12510099E+00 0.17583741E+04</pdfrwt>
<pdfrwt beam="2">  1       -2 0.14624300E+00 0.17583741E+04</pdfrwt>
<totfact> 0.10224677E+01</totfact>
</mgrwt>
</event>
<event>
12    1  0.1494110E-007  0.1788899E+04  0.7818608E-02  0.8712225E-01
         -2   -1    0    0    0  501 -0.00000000000E+00  0.00000000000E+00  0.60575514296E+03  0.60575514296E+03  0.00000000000E+00 0.  1.
          2   -1    0    0  501    0  0.00000000000E+00 -0.00000000000E+00 -0.13207309684E+04  0.13207309684E+04  0.00000000000E+00 0. -1.
         23    2    1    2    0    0  0.27520285950E+03 -0.28857868588E+03  0.29215891043E+03  0.50298430019E+03  0.92855293209E+02 0.  0.
        254    2    1    2    0    0 -0.27520285950E+03  0.28857868588E+03 -0.10071347359E+04  0.14235018112E+04  0.92359231179E+03 0.  0.
        -24    2    4    4    0    0 -0.48330044716E+02  0.31293988573E+03  0.59074789453E+02  0.33011140712E+03  0.72225653747E+02 0.  0.
         24    2    4    4    0    0 -0.22687281479E+03 -0.24361199855E+02 -0.10662095254E+04  0.10933904041E+04  0.81456010306E+02 0.  0.
         11    1    3    3    0    0  0.91403251279E+02 -0.61956571812E+02  0.12468145098E+03  0.16654919800E+03  0.00000000000E+00 0.  1.
        -11    1    3    3    0    0  0.18379960822E+03 -0.22662211406E+03  0.16747745945E+03  0.33643510220E+03  0.00000000000E+00 0. -1.
          2    1    6    6  502    0 -0.17158066214E+03  0.16506567011E+02 -0.80814009365E+03  0.82631882548E+03  0.00000000000E+00 0. -1.
          1    1    5    5  503    0 -0.67417823374E+02  0.25503422396E+03  0.49314706883E+02  0.26836460015E+03  0.00000000000E+00 0. -1.
         -2    1    5    5    0  503  0.19087778658E+02  0.57905661775E+02  0.97600825698E+01  0.61746806974E+02  0.00000000000E+00 0.  1.
         -3    1    6    6    0  502 -0.55292152643E+02 -0.40867766866E+02 -0.25806943170E+03  0.26707157859E+03  0.00000000000E+00 0.  1.
<mgrwt>
<rscale>  0 0.17888986E+04</rscale>
<asrwt>0</asrwt>
<pdfrwt beam="1">  1        2 0.20318938E+00 0.17888986E+04</pdfrwt>
<pdfrwt beam="2">  1       -2 0.93193098E-01 0.17888986E+04</pdfrwt>
<totfact> 0.14810100E+01</totfact>
</mgrwt>
</event>
<event>
12    1  0.1494110E-007  0.1553176E+04  0.7818608E-02  0.8849842E-01
         -1   -1    0    0    0  501 -0.00000000000E+00  0.00000000000E+00  0.14001445664E+04  0.14001445664E+04  0.00000000000E+00 0.  1.
          1   -1    0    0  501    0  0.00000000000E+00 -0.00000000000E+00 -0.43073323799E+03  0.43073323799E+03  0.00000000000E+00 0. -1.
         23    2    1    2    0    0 -0.34629432668E+03 -0.10618556893E+03  0.74066463533E+03  0.82950694151E+03  0.91118210248E+02 0.  0.
        254    2    1    2    0    0  0.34629432668E+03  0.10618556893E+03  0.22874669305E+03  0.10013708629E+04  0.90510961748E+03 0.  0.
        -24    2    4    4    0    0  0.14082610809E+03  0.49927423113E+03  0.13310221834E+03  0.54131545236E+03  0.78736699504E+02 0.  0.
         24    2    4    4    0    0  0.20546821859E+03 -0.39308866220E+03  0.95644474713E+02  0.46005541050E+03  0.75942280603E+02 0.  0.
         11    1    3    3    0    0 -0.48031246129E+02 -0.43121221324E+00  0.47654781959E+02  0.67662137065E+02  0.00000000000E+00 0. -1.
        -11    1    3    3    0    0 -0.29826308055E+03 -0.10575435671E+03  0.69300985337E+03  0.76184480444E+03  0.00000000000E+00 0.  1.
          2    1    6    6  502    0  0.20004487635E+03 -0.39497349650E+03  0.89600842764E+02  0.45171930058E+03  0.00000000000E+00 0. -1.
          3    1    5    5  503    0  0.10441273283E+03  0.40634039715E+03  0.13723801970E+03  0.44141682250E+03  0.00000000000E+00 0. -1.
         -4    1    5    5    0  503  0.36413375260E+02  0.92933833976E+02 -0.41358013575E+01  0.99898629861E+02  0.00000000000E+00 0.  1.
         -1    1    6    6    0  502  0.54233422387E+01  0.18848343023E+01  0.60436319486E+01  0.83361099150E+01  0.00000000000E+00 0.  1.
<mgrwt>
<rscale>  0 0.15531758E+04</rscale>
<asrwt>0</asrwt>
<pdfrwt beam="1">  1        1 0.66266653E-01 0.15531758E+04</pdfrwt>
<pdfrwt beam="2">  1       -1 0.21540685E+00 0.15531758E+04</pdfrwt>
<totfact> 0.61825452E+00</totfact>
</mgrwt>
</event>
<event>
12    1  0.1494110E-007  0.1492616E+04  0.7818608E-02  0.8889378E-01
         -2   -1    0    0    0  501 -0.00000000000E+00  0.00000000000E+00  0.43180590929E+03  0.43180590929E+03  0.00000000000E+00 0.  1.
          2   -1    0    0  501    0  0.00000000000E+00 -0.00000000000E+00 -0.12898751468E+04  0.12898751468E+04  0.00000000000E+00 0. -1.
         23    2    1    2    0    0  0.34429619795E+03 -0.29522023390E+03 -0.39055967070E+03  0.60646859855E+03  0.97838878848E+02 0.  0.
        254    2    1    2    0    0 -0.34429619795E+03  0.29522023390E+03 -0.46750956677E+03  0.11152124575E+04  0.90522857441E+03 0.  0.
        -24    2    4    4    0    0 -0.32368674289E+02 -0.16872624558E+03 -0.51446908923E+03  0.54859189211E+03  0.82209143609E+02 0.  0.
         24    2    4    4    0    0 -0.31192752366E+03  0.46394647948E+03  0.46959522452E+02  0.56662056540E+03  0.79426397061E+02 0.  0.
         11    1    3    3    0    0  0.30735814495E+03 -0.27213382233E+03 -0.38454692964E+03  0.56249638898E+03  0.00000000000E+00 0. -1.
        -11    1    3    3    0    0  0.36938053001E+02 -0.23086411573E+02 -0.60127410624E+01  0.43972209563E+02  0.00000000000E+00 0.  1.
          4    1    6    6  502    0 -0.19338304178E+03  0.25237207154E+03 -0.76114926423E+01  0.31803552971E+03  0.00000000000E+00 0. -1.
          1    1    5    5  503    0 -0.33560837003E+02 -0.16830785153E+03 -0.41462994327E+03  0.44874475209E+03  0.00000000000E+00 0. -1.
         -2    1    5    5    0  503  0.11921627145E+01 -0.41839405074E+00 -0.99839145952E+02  0.99847140019E+02  0.00000000000E+00 0.  1.
         -3    1    6    6    0  502 -0.11854448189E+03  0.21157440794E+03  0.54571015095E+02  0.24858503569E+03  0.00000000000E+00 0.  1.
<mgrwt>
<rscale>  0 0.14926161E+04</rscale>
<asrwt>0</asrwt>
<pdfrwt beam="1">  1        2 0.19844233E+00 0.14926161E+04</pdfrwt>
<pdfrwt beam="2">  1       -2 0.66431678E-01 0.14926161E+04</pdfrwt>
<totfact> 0.33744549E+01</totfact>
</mgrwt>
</event>
<event>
12    1  0.1494110E-007  0.1445243E+04  0.7818608E-02  0.8921705E-01
          1   -1    0    0  501    0  0.00000000000E+00  0.00000000000E+00  0.77255274905E+03  0.77255274905E+03  0.00000000000E+00 0. -1.
         -1   -1    0    0    0  501 -0.00000000000E+00 -0.00000000000E+00 -0.67591744251E+03  0.67591744251E+03  0.00000000000E+00 0.  1.
         23    2    1    2    0    0  0.21291381135E+03  0.22691118773E+03 -0.28373840491E+03  0.43158435415E+03  0.94533560951E+02 0.  0.
        254    2    1    2    0    0 -0.21291381135E+03 -0.22691118773E+03  0.38037371145E+03  0.10168858374E+04  0.89025370979E+03 0.  0.
        -24    2    4    4    0    0 -0.55274466402E+03 -0.18511854299E+03  0.27665171974E+03  0.65019777194E+03  0.80158780132E+02 0.  0.
         24    2    4    4    0    0  0.33983085268E+03 -0.41792644737E+02  0.10372199171E+03  0.36668806548E+03  0.80437878001E+02 0.  0.
         11    1    3    3    0    0  0.19635609390E+03  0.23504016497E+03 -0.27275951838E+03  0.41011870187E+03  0.00000000000E+00 0.  1.
        -11    1    3    3    0    0  0.16557717448E+02 -0.81289772424E+01 -0.10978886534E+02  0.21465652276E+02  0.00000000000E+00 0. -1.
          2    1    6    6  502    0  0.73574547589E+02 -0.48084718452E+01  0.58451829235E+02  0.94090125919E+02  0.00000000000E+00 0. -1.
          1    1    5    5  503    0 -0.10586525538E+03 -0.68824662951E+02  0.50019216884E+02  0.13581681996E+03  0.00000000000E+00 0. -1.
         -2    1    5    5    0  503 -0.44687940864E+03 -0.11629388004E+03  0.22663250286E+03  0.51438095198E+03  0.00000000000E+00 0.  1.
         -1    1    6    6    0  502  0.26625630509E+03 -0.36984172892E+02  0.45270162471E+02  0.27259793956E+03  0.00000000000E+00 0.  1.
<mgrwt>
<rscale>  0 0.14452431E+04</rscale>
<asrwt>0</asrwt>
<pdfrwt beam="1">  1        1 0.11885427E+00 0.14452431E+04</pdfrwt>
<pdfrwt beam="2">  1       -1 0.10398730E+00 0.14452431E+04</pdfrwt>
<totfact> 0.19786279E+01</totfact>
</mgrwt>
</event>
<event>
12    1  0.1494110E-007  0.2822511E+04  0.7818608E-02  0.8296314E-01
          2   -1    0    0  501    0  0.00000000000E+00  0.00000000000E+00  0.28028107248E+04  0.28028107248E+04  0.00000000000E+00 0.  1.
         -2   -1    0    0    0  501 -0.00000000000E+00 -0.00000000000E+00 -0.71058729147E+03  0.71058729147E+03  0.00000000000E+00 0. -1.
         23    2    1    2    0    0 -0.32677758159E+03  0.98207236732E+03  0.25697785159E+02  0.10392853036E+04  0.90575071953E+02 0.  0.
        254    2    1    2    0    0  0.32677758159E+03 -0.98207236732E+03  0.20665256481E+04  0.24741127126E+04  0.88286790509E+03 0.  0.
        -24    2    4    4    0    0  0.77553359772E+02  0.83287092503E+02  0.74281327275E+03  0.75487386372E+03  0.71496353507E+02 0.  0.
         24    2    4    4    0    0  0.24922422182E+03 -0.10653594598E+04  0.13237123754E+04  0.17192388489E+04  0.80400717832E+02 0.  0.
         11    1    3    3    0    0 -0.86764474363E+02  0.15562349098E+03  0.12025985364E+02  0.17858154799E+03  0.00000000000E+00 0.  1.
        -11    1    3    3    0    0 -0.24001310723E+03  0.82644887634E+03  0.13671799795E+02  0.86070375563E+03  0.00000000000E+00 0. -1.
          2    1    6    6  502    0  0.72797059468E+02 -0.31041368538E+03  0.32993651640E+03  0.45881823502E+03  0.00000000000E+00 0. -1.
          3    1    5    5  503    0  0.13831390540E+02  0.33558820521E-01  0.18967543326E+02  0.23475012040E+02  0.00000000000E+00 0. -1.
         -4    1    5    5    0  503  0.63721969232E+02  0.83253533683E+02  0.72384572943E+03  0.73139885168E+03  0.00000000000E+00 0.  1.
         -1    1    6    6    0  502  0.17642716236E+03 -0.75494577444E+03  0.99377585898E+03  0.12604206139E+04  0.00000000000E+00 0.  1.
<mgrwt>
<rscale>  0 0.28225107E+04</rscale>
<asrwt>0</asrwt>
<pdfrwt beam="1">  1        2 0.43120164E+00 0.28225107E+04</pdfrwt>
<pdfrwt beam="2">  1       -2 0.10932112E+00 0.28225107E+04</pdfrwt>
<totfact> 0.13337683E+00</totfact>
</mgrwt>
</event>
<event>
12    1  0.1494110E-007  0.2042884E+04  0.7818608E-02  0.8586829E-01
         -1   -1    0    0    0  501 -0.00000000000E+00  0.00000000000E+00  0.10868104109E+04  0.10868104109E+04  0.00000000000E+00 0.  1.
          1   -1    0    0  501    0  0.00000000000E+00 -0.00000000000E+00 -0.96000564556E+03  0.96000564556E+03  0.00000000000E+00 0. -1.
         23    2    1    2    0    0 -0.43105534104E+03  0.60881583427E+03  0.40119679182E+03  0.85176079100E+03  0.89845156917E+02 0.  0.
        254    2    1    2    0    0  0.43105534104E+03 -0.60881583427E+03 -0.27439202649E+03  0.11950552654E+04  0.89241283953E+03 0.  0.
        -24    2    4    4    0    0  0.25173321978E+03 -0.30504162759E+03 -0.58991741326E+03  0.71499410904E+03  0.82425802943E+02 0.  0.
         24    2    4    4    0    0  0.17932212125E+03 -0.30377420668E+03  0.31552538677E+03  0.48006115640E+03  0.80419228913E+02 0.  0.
         13    1    3    3    0    0 -0.38492889384E+03  0.53191668669E+03  0.31842190812E+03  0.72972469224E+03  0.00000000000E+00 0.  1.
        -13    1    3    3    0    0 -0.46126447202E+02  0.76899147582E+02  0.82774883693E+02  0.12203609876E+03  0.00000000000E+00 0. -1.
          4    1    6    6  502    0  0.56505933417E+02 -0.10180248987E+03  0.15692569912E+03  0.19540302582E+03  0.00000000000E+00 0. -1.
          1    1    5    5  503    0  0.28589812296E+02 -0.86802886654E+02 -0.11934138954E+03  0.15031462256E+03  0.00000000000E+00 0. -1.
         -2    1    5    5    0  503  0.22314340749E+03 -0.21823874094E+03 -0.47057602372E+03  0.56467948648E+03  0.00000000000E+00 0.  1.
         -3    1    6    6    0  502  0.12281618784E+03 -0.20197171681E+03  0.15859968764E+03  0.28465813058E+03  0.00000000000E+00 0.  1.
<mgrwt>
<rscale>  0 0.20428844E+04</rscale>
<asrwt>0</asrwt>
<pdfrwt beam="1">  1        1 0.14769318E+00 0.20428844E+04</pdfrwt>
<pdfrwt beam="2">  1       -1 0.16720160E+00 0.20428844E+04</pdfrwt>
<totfact> 0.38812499E+00</totfact>
</mgrwt>
</event>
<event>
12    1  0.1494110E-007  0.1243000E+04  0.7818608E-02  0.9076030E-01
         -2   -1    0    0    0  501 -0.00000000000E+00  0.00000000000E+00  0.42912860364E+03  0.42912860364E+03  0.00000000000E+00 0.  1.
          2   -1    0    0  501    0  0.00000000000E+00 -0.00000000000E+00 -0.90010794831E+03  0.90010794831E+03  0.00000000000E+00 0. -1.
         23    2    1    2    0    0  0.22708132019E+03 -0.89313954092E+02  0.42740851330E+02  0.26437169184E+03  0.92318485129E+02 0.  0.
        254    2    1    2    0    0 -0.22708132019E+03  0.89313954092E+02 -0.51372019600E+03  0.10648648601E+04  0.90026986074E+03 0.  0.
        -24    2    4    4    0    0 -0.32186914983E+02  0.37201909573E+03 -0.59136435569E+03  0.70384944609E+03  0.79107752418E+02 0.  0.
         24    2    4    4    0    0 -0.19489440521E+03 -0.28270514163E+03  0.77644159699E+02  0.36101541402E+03  0.79984294319E+02 0.  0.
         13    1    3    3    0    0  0.80040305118E+02 -0.78110250345E+02  0.40393317768E+01  0.11191057972E+03  0.00000000000E+00 0. -1.
        -13    1    3    3    0    0  0.14704101508E+03 -0.11203703747E+02  0.38701519553E+02  0.15246111212E+03  0.00000000000E+00 0.  1.
          2    1    6    6  502    0 -0.19383487365E+03 -0.28800717272E+03  0.76414027372E+02  0.35547038324E+03  0.00000000000E+00 0. -1.
          1    1    5    5  503    0  0.20509378203E+02  0.20479059380E+03 -0.30048999174E+03  0.36421704661E+03  0.00000000000E+00 0. -1.
         -2    1    5    5    0  503 -0.52696293186E+02  0.16722850193E+03 -0.29087436395E+03  0.33963239948E+03  0.00000000000E+00 0.  1.
         -1    1    6    6    0  502 -0.10595315589E+01  0.53020310897E+01  0.12301323266E+01  0.55450307791E+01  0.00000000000E+00 0.  1.
<mgrwt>
<rscale>  0 0.12429997E+04</rscale>
<asrwt>0</asrwt>
<pdfrwt beam="1">  1        2 0.13847814E+00 0.12429997E+04</pdfrwt>
<pdfrwt beam="2">  1       -2 0.66019786E-01 0.12429997E+04</pdfrwt>
<totfact> 0.60915996E+01</totfact>
</mgrwt>
</event>
<event>
12    1  0.1494110E-007  0.2525290E+04  0.7818608E-02  0.8394031E-01
          2   -1    0    0  501    0  0.00000000000E+00  0.00000000000E+00  0.34287670844E+04  0.34287670844E+04  0.00000000000E+00 0.  1.
         -2   -1    0    0    0  501 -0.00000000000E+00 -0.00000000000E+00 -0.46496949269E+03  0.46496949269E+03  0.00000000000E+00 0. -1.
         23    2    1    2    0    0  0.56274918128E+03 -0.89028647605E+03  0.80257897141E+03  0.13272961498E+04  0.91024246602E+02 0.  0.
        254    2    1    2    0    0 -0.56274918128E+03  0.89028647605E+03  0.21612186203E+04  0.25664404273E+04  0.89802777885E+03 0.  0.
        -24    2    4    4    0    0 -0.61254175469E+03  0.10361520461E+04  0.19587825050E+04  0.23004745438E+04  0.80844052821E+02 0.  0.
         24    2    4    4    0    0  0.49792573412E+02 -0.14586557010E+03  0.20243611528E+03  0.26596588345E+03  0.77468738734E+02 0.  0.
         11    1    3    3    0    0  0.23714193663E+03 -0.43744411137E+03  0.41733862154E+03  0.64943450301E+03  0.00000000000E+00 0.  1.
        -11    1    3    3    0    0  0.32560724465E+03 -0.45284236468E+03  0.38524034987E+03  0.67786164679E+03  0.00000000000E+00 0. -1.
          2    1    6    6  502    0 -0.16414183627E+02 -0.40542723455E+02  0.81346988419E+02  0.92360545549E+02  0.00000000000E+00 0. -1.
          3    1    5    5  503    0 -0.39777625118E+03  0.73812350634E+03  0.13297438000E+04  0.15720276175E+04  0.00000000000E+00 0. -1.
         -4    1    5    5    0  503 -0.21476550351E+03  0.29802853981E+03  0.62903870504E+03  0.72844692633E+03  0.00000000000E+00 0.  1.
         -1    1    6    6    0  502  0.66206757039E+02 -0.10532284665E+03  0.12108912686E+03  0.17360533790E+03  0.00000000000E+00 0.  1.
<mgrwt>
<rscale>  0 0.25252898E+04</rscale>
<asrwt>0</asrwt>
<pdfrwt beam="1">  1        2 0.52750261E+00 0.25252898E+04</pdfrwt>
<pdfrwt beam="2">  1       -2 0.71533771E-01 0.25252898E+04</pdfrwt>
<totfact> 0.14387545E+00</totfact>
</mgrwt>
</event>
<event>
12    1  0.1494110E-007  0.1616714E+04  0.7818608E-02  0.8810345E-01
          2   -1    0    0  501    0  0.00000000000E+00  0.00000000000E+00  0.83648019489E+03  0.83648019489E+03  0.00000000000E+00 0. -1.
         -2   -1    0    0    0  501 -0.00000000000E+00 -0.00000000000E+00 -0.78117917190E+03  0.78117917190E+03  0.00000000000E+00 0.  1.
         23    2    1    2    0    0 -0.42259636231E+03  0.26777444246E+03 -0.23056653594E+03  0.55900380649E+03  0.95044677374E+02 0.  0.
        254    2    1    2    0    0  0.42259636231E+03 -0.26777444246E+03  0.28586755893E+03  0.10586555603E+04  0.88811063311E+03 0.  0.
        -24    2    4    4    0    0  0.44343590675E+03  0.23493839818E+03  0.11150816571E+03  0.52019805336E+03  0.79627189839E+02 0.  0.
         24    2    4    4    0    0 -0.20839544442E+02 -0.50271284064E+03  0.17435939322E+03  0.53845750695E+03  0.79879922537E+02 0.  0.
         13    1    3    3    0    0 -0.16576527767E+03  0.56299879272E+02 -0.99966440385E+02  0.20159636131E+03  0.00000000000E+00 0. -1.
        -13    1    3    3    0    0 -0.25683108464E+03  0.21147456319E+03 -0.13060009556E+03  0.35740744518E+03  0.00000000000E+00 0.  1.
          2    1    6    6  502    0  0.22245235334E+02 -0.34129180997E+03  0.12657488273E+03  0.36468637346E+03  0.00000000000E+00 0. -1.
          1    1    5    5  503    0  0.41662593792E+03  0.22397899279E+03  0.12346538314E+03  0.48886343921E+03  0.00000000000E+00 0. -1.
         -2    1    5    5    0  503  0.26809968833E+02  0.10959405384E+02 -0.11957217432E+02  0.31334614150E+02  0.00000000000E+00 0.  1.
         -1    1    6    6    0  502 -0.43084779775E+02 -0.16142103067E+03  0.47784510498E+02  0.17377113349E+03  0.00000000000E+00 0.  1.
<mgrwt>
<rscale>  0 0.16167138E+04</rscale>
<asrwt>0</asrwt>
<pdfrwt beam="1">  1        2 0.12868926E+00 0.16167138E+04</pdfrwt>
<pdfrwt beam="2">  1       -2 0.12018141E+00 0.16167138E+04</pdfrwt>
<totfact> 0.16434660E+01</totfact>
</mgrwt>
</event>
<event>
12    1  0.1494110E-007  0.1977909E+04  0.7818608E-02  0.8617019E-01
          1   -1    0    0  501    0  0.00000000000E+00  0.00000000000E+00  0.19056347492E+04  0.19056347492E+04  0.00000000000E+00 0. -1.
         -1   -1    0    0    0  501 -0.00000000000E+00 -0.00000000000E+00 -0.51323091353E+03  0.51323091353E+03  0.00000000000E+00 0.  1.
         23    2    1    2    0    0 -0.61361998984E+03 -0.41275167381E+03  0.24340235987E+03  0.78372461242E+03  0.89922873457E+02 0.  0.
        254    2    1    2    0    0  0.61361998984E+03  0.41275167381E+03  0.11490014758E+04  0.16351410503E+04  0.89810268165E+03 0.  0.
        -24    2    4    4    0    0  0.32996022281E+03  0.53249586312E+03  0.11550318329E+04  0.13170171835E+04  0.89499350318E+02 0.  0.
         24    2    4    4    0    0  0.28365976703E+03 -0.11974418931E+03 -0.60303571332E+01  0.31812386678E+03  0.79780292712E+02 0.  0.
         11    1    3    3    0    0 -0.40625003586E+02 -0.57690223004E+02  0.16367933204E+02  0.72432464986E+02  0.00000000000E+00 0. -1.
        -11    1    3    3    0    0 -0.57299498625E+03 -0.35506145080E+03  0.22703442667E+03  0.71129214744E+03  0.00000000000E+00 0.  1.
          4    1    6    6  502    0  0.19599241242E+03 -0.43287536092E+02 -0.16128407913E+02  0.20136276232E+03  0.00000000000E+00 0. -1.
          1    1    5    5  503    0  0.40646977182E+02  0.54879041130E+02  0.19222119973E+03  0.20399234186E+03  0.00000000000E+00 0. -1.
         -2    1    5    5    0  503  0.28931324563E+03  0.47761682199E+03  0.96281063316E+03  0.11130248416E+04  0.00000000000E+00 0.  1.
         -3    1    6    6    0  502  0.87667354604E+02 -0.76456653222E+02  0.10098050780E+02  0.11676110446E+03  0.00000000000E+00 0.  1.
<mgrwt>
<rscale>  0 0.19779087E+04</rscale>
<asrwt>0</asrwt>
<pdfrwt beam="1">  1        1 0.29317457E+00 0.19779087E+04</pdfrwt>
<pdfrwt beam="2">  1       -1 0.78958603E-01 0.19779087E+04</pdfrwt>
<totfact> 0.51480904E+00</totfact>
</mgrwt>
</event>
<event>
12    1  0.1494110E-007  0.1625932E+04  0.7818608E-02  0.8804774E-01
          1   -1    0    0  501    0  0.00000000000E+00  0.00000000000E+00  0.20017832120E+04  0.20017832120E+04  0.00000000000E+00 0. -1.
         -1   -1    0    0    0  501 -0.00000000000E+00 -0.00000000000E+00 -0.33016244050E+03  0.33016244050E+03  0.00000000000E+00 0.  1.
         23    2    1    2    0    0 -0.56072029803E+03  0.88424624547E+02  0.52349373338E+03  0.77752599143E+03  0.90965991504E+02 0.  0.
        254    2    1    2    0    0  0.56072029803E+03 -0.88424624547E+02  0.11481270381E+04  0.15544196611E+04  0.88079431209E+03 0.  0.
        -24    2    4    4    0    0  0.50064032547E+03 -0.23770889706E+03  0.12341275971E+04  0.13557719488E+04  0.88884173150E+02 0.  0.
         24    2    4    4    0    0  0.60079972565E+02  0.14928427251E+03 -0.86000558937E+02  0.19864771223E+03  0.78545657504E+02 0.  0.
         13    1    3    3    0    0 -0.34860017561E+03  0.54351185060E+02  0.38348497658E+03  0.52109198901E+03  0.00000000000E+00 0. -1.
        -13    1    3    3    0    0 -0.21212012242E+03  0.34073439487E+02  0.14000875681E+03  0.25643400242E+03  0.00000000000E+00 0.  1.
          4    1    6    6  502    0  0.37962597265E+02  0.41548877928E+02 -0.66212121705E+02  0.86899442512E+02  0.00000000000E+00 0. -1.
          1    1    5    5  503    0  0.83339989174E+02 -0.79431844306E+01  0.21795568549E+03  0.23348089604E+03  0.00000000000E+00 0. -1.
         -2    1    5    5    0  503  0.41730033629E+03 -0.22976571263E+03  0.10161719116E+04  0.11222910528E+04  0.00000000000E+00 0.  1.
         -3    1    6    6    0  502  0.22117375300E+02  0.10773539458E+03 -0.19788437232E+02  0.11174826971E+03  0.00000000000E+00 0.  1.
<mgrwt>
<rscale>  0 0.16259319E+04</rscale>
<asrwt>0</asrwt>
<pdfrwt beam="1">  1        1 0.30796664E+00 0.16259319E+04</pdfrwt>
<pdfrwt beam="2">  1       -1 0.50794223E-01 0.16259319E+04</pdfrwt>
<totfact> 0.11086672E+01</totfact>
</mgrwt>
</event>
<event>
12    1  0.1494110E-007  0.1866613E+04  0.7818608E-02  0.8671656E-01
         -2   -1    0    0    0  501 -0.00000000000E+00  0.00000000000E+00  0.48288693596E+03  0.48288693596E+03  0.00000000000E+00 0.  1.
          2   -1    0    0  501    0  0.00000000000E+00 -0.00000000000E+00 -0.18038604022E+04  0.18038604022E+04  0.00000000000E+00 0. -1.
         23    2    1    2    0    0  0.12187389124E+03  0.11108273991E+03 -0.13556284025E+04  0.13681165718E+04  0.82595205992E+02 0.  0.
        254    2    1    2    0    0 -0.12187389124E+03 -0.11108273991E+03  0.34654936170E+02  0.91863076638E+03  0.90304424026E+03 0.  0.
        -24    2    4    4    0    0 -0.19227247994E+03 -0.43464955421E+03 -0.18092031815E+03  0.51567527862E+03  0.85439393448E+02 0.  0.
         24    2    4    4    0    0  0.70398588696E+02  0.32356681429E+03  0.21557525432E+03  0.40295548776E+03  0.79050554942E+02 0.  0.
         13    1    3    3    0    0  0.87754210305E+02  0.37755626446E+02 -0.53040590918E+03  0.53894036521E+03  0.00000000000E+00 0.  1.
        -13    1    3    3    0    0  0.34119680935E+02  0.73327113467E+02 -0.82522249328E+03  0.82917620661E+03  0.00000000000E+00 0. -1.
          4    1    6    6  502    0  0.65410532390E+02  0.32692957034E+03  0.21540126256E+03  0.39693725653E+03  0.00000000000E+00 0. -1.
          3    1    5    5  503    0 -0.10277645938E+03 -0.32755018071E+03 -0.13123685086E+03  0.36752582564E+03  0.00000000000E+00 0. -1.
         -4    1    5    5    0  503 -0.89496020556E+02 -0.10709937349E+03 -0.49683467287E+02  0.14814945298E+03  0.00000000000E+00 0.  1.
         -3    1    6    6    0  502  0.49880563061E+01 -0.33627560487E+01  0.17399176232E+00  0.60182312260E+01  0.00000000000E+00 0.  1.
<mgrwt>
<rscale>  0 0.18666126E+04</rscale>
<asrwt>0</asrwt>
<pdfrwt beam="1">  1        2 0.27751699E+00 0.18666126E+04</pdfrwt>
<pdfrwt beam="2">  1       -2 0.74290298E-01 0.18666126E+04</pdfrwt>
<totfact> 0.13148185E+01</totfact>
</mgrwt>
</event>
<event>
12    1  0.1658537E-007  0.1926223E+04  0.7818608E-02  0.8641913E-01
          2   -1    0    0  501    0  0.00000000000E+00  0.00000000000E+00  0.23311715953E+04  0.23311715953E+04  0.00000000000E+00 0. -1.
         -2   -1    0    0    0  501 -0.00000000000E+00 -0.00000000000E+00 -0.39790453358E+03  0.39790453358E+03  0.00000000000E+00 0.  1.
         23    2    1    2    0    0 -0.47721739561E+03  0.52007057340E+03  0.63574227260E+03  0.95414254716E+03  0.89498151535E+02 0.  0.
        254    2    1    2    0    0  0.47721739561E+03 -0.52007057340E+03  0.12975247892E+04  0.17749335818E+04  0.98417925054E+03 0.  0.
        -24    2    4    4    0    0  0.77744695808E+03 -0.35585393577E+03  0.88762488405E+03  0.12350367015E+04  0.79886939029E+02 0.  0.
         24    2    4    4    0    0 -0.30022956246E+03 -0.16421663763E+03  0.40989990511E+03  0.53989688027E+03  0.79786056814E+02 0.  0.
         13    1    3    3    0    0 -0.22371023683E+03  0.21796862523E+03  0.33628283787E+03  0.45895831912E+03  0.00000000000E+00 0. -1.
        -13    1    3    3    0    0 -0.25350715878E+03  0.30210194817E+03  0.29945943474E+03  0.49518422803E+03  0.00000000000E+00 0.  1.
          4    1    6    6  502    0 -0.26267375039E+03 -0.16955476799E+03  0.37620987142E+03  0.48916273963E+03  0.00000000000E+00 0. -1.
          3    1    5    5  503    0  0.74310526805E+03 -0.32068170778E+03  0.82982190081E+03  0.11591577046E+04  0.00000000000E+00 0. -1.
         -4    1    5    5    0  503  0.34341690025E+02 -0.35172227990E+02  0.57802983238E+02  0.75878996874E+02  0.00000000000E+00 0.  1.
         -3    1    6    6    0  502 -0.37555812070E+02  0.53381303516E+01  0.33690033688E+02  0.50734140633E+02  0.00000000000E+00 0.  1.
<mgrwt>
<rscale>  0 0.19262230E+04</rscale>
<asrwt>0</asrwt>
<pdfrwt beam="1">  1        2 0.35864178E+00 0.19262230E+04</pdfrwt>
<pdfrwt beam="2">  1       -2 0.61216083E-01 0.19262230E+04</pdfrwt>
<totfact> 0.10099301E+01</totfact>
</mgrwt>
</event>
<event>
12    1  0.1494110E-007  0.1785154E+04  0.7818608E-02  0.8714234E-01
         -2   -1    0    0    0  501 -0.00000000000E+00  0.00000000000E+00  0.38494282281E+03  0.38494282281E+03  0.00000000000E+00 0.  1.
          2   -1    0    0  501    0  0.00000000000E+00 -0.00000000000E+00 -0.20696416200E+04  0.20696416200E+04  0.00000000000E+00 0. -1.
         23    2    1    2    0    0 -0.25696058538E+03 -0.15249625022E+03  0.18242250040E+03  0.36194649202E+03  0.91888223754E+02 0.  0.
        254    2    1    2    0    0  0.25696058538E+03  0.15249625022E+03 -0.18671212976E+04  0.20926379508E+04  0.89649752057E+03 0.  0.
        -24    2    4    4    0    0  0.48719041061E+03  0.36924120431E+03 -0.11561587645E+04  0.13102818890E+04  0.80261925555E+02 0.  0.
         24    2    4    4    0    0 -0.23022982523E+03 -0.21674495409E+03 -0.71096253309E+03  0.78235606181E+03  0.81419509027E+02 0.  0.
         13    1    3    3    0    0 -0.46800150585E+02 -0.41985944264E+01  0.66379407431E+00  0.46992796390E+02  0.00000000000E+00 0. -1.
        -13    1    3    3    0    0 -0.21016043479E+03 -0.14829765579E+03  0.18175870633E+03  0.31495369563E+03  0.00000000000E+00 0.  1.
          2    1    6    6  502    0 -0.12799141480E+03 -0.71390106606E+02 -0.27613924470E+03  0.31261994825E+03  0.00000000000E+00 0. -1.
          1    1    5    5  503    0  0.47241620827E+02  0.47355998421E+02 -0.18302276204E+03  0.19486326680E+03  0.00000000000E+00 0. -1.
         -2    1    5    5    0  503  0.43994878978E+03  0.32188520589E+03 -0.97313600249E+03  0.11154186222E+04  0.00000000000E+00 0.  1.
         -1    1    6    6    0  502 -0.10223841043E+03 -0.14535484749E+03 -0.43482328839E+03  0.46973611356E+03  0.00000000000E+00 0.  1.
<mgrwt>
<rscale>  0 0.17851540E+04</rscale>
<asrwt>0</asrwt>
<pdfrwt beam="1">  1        2 0.31840640E+00 0.17851540E+04</pdfrwt>
<pdfrwt beam="2">  1       -2 0.59221973E-01 0.17851540E+04</pdfrwt>
<totfact> 0.15376892E+01</totfact>
</mgrwt>
</event>
<event>
12    1  0.1494110E-007  0.1149969E+04  0.7818608E-02  0.9157812E-01
          2   -1    0    0  501    0  0.00000000000E+00  0.00000000000E+00  0.13797560440E+04  0.13797560440E+04  0.00000000000E+00 0. -1.
         -2   -1    0    0    0  501 -0.00000000000E+00 -0.00000000000E+00 -0.23961269721E+03  0.23961269721E+03  0.00000000000E+00 0.  1.
         23    2    1    2    0    0 -0.57001353363E+02  0.18200683081E+02 -0.51942929593E+02  0.11923030691E+03  0.89091969347E+02 0.  0.
        254    2    1    2    0    0  0.57001353363E+02 -0.18200683081E+02  0.11920862764E+04  0.15001384343E+04  0.90871624423E+03 0.  0.
        -24    2    4    4    0    0 -0.36450860945E+03 -0.36241797730E+02  0.91275669020E+03  0.98756568826E+03  0.89337667576E+02 0.  0.
         24    2    4    4    0    0  0.42150996281E+03  0.18041114648E+02  0.27932958618E+03  0.51257274603E+03  0.81912585639E+02 0.  0.
         13    1    3    3    0    0 -0.56059491564E+02 -0.14206274838E+01 -0.71929676203E+02  0.91206157114E+02  0.00000000000E+00 0.  1.
        -13    1    3    3    0    0 -0.94186179845E+00  0.19621310565E+02  0.19986746610E+02  0.28024149799E+02  0.00000000000E+00 0. -1.
          2    1    6    6  502    0  0.40842083021E+03  0.13797865655E+02  0.28443453834E+03  0.49789653769E+03  0.00000000000E+00 0. -1.
          1    1    5    5  503    0 -0.33808652210E+03 -0.10232142754E+02  0.79085627004E+03  0.86015163374E+03  0.00000000000E+00 0. -1.
         -2    1    5    5    0  503 -0.26422087354E+02 -0.26009654976E+02  0.12190042016E+03  0.12741405451E+03  0.00000000000E+00 0.  1.
         -1    1    6    6    0  502  0.13089132608E+02  0.42432489931E+01 -0.51049521669E+01  0.14676208334E+02  0.00000000000E+00 0.  1.
<mgrwt>
<rscale>  0 0.11499688E+04</rscale>
<asrwt>0</asrwt>
<pdfrwt beam="1">  1        2 0.21227016E+00 0.11499688E+04</pdfrwt>
<pdfrwt beam="2">  1       -2 0.36863493E-01 0.11499688E+04</pdfrwt>
<totfact> 0.10192519E+02</totfact>
</mgrwt>
</event>
<event>
12    1  0.1494110E-007  0.3047426E+04  0.7818608E-02  0.8230316E-01
         -1   -1    0    0    0  501 -0.00000000000E+00  0.00000000000E+00  0.80356225583E+03  0.80356225583E+03  0.00000000000E+00 0.  1.
          1   -1    0    0  501    0  0.00000000000E+00 -0.00000000000E+00 -0.28892604724E+04  0.28892604724E+04  0.00000000000E+00 0. -1.
         23    2    1    2    0    0  0.91849063083E+02 -0.13666070265E+04 -0.11627796715E+04  0.17991177845E+04  0.93366068405E+02 0.  0.
        254    2    1    2    0    0 -0.91849063083E+02  0.13666070265E+04 -0.92291854510E+03  0.18937049437E+04  0.92643875013E+03 0.  0.
        -24    2    4    4    0    0 -0.11672814701E+03 -0.30634501347E+02 -0.35462145829E+03  0.38301036022E+03  0.79853768720E+02 0.  0.
         24    2    4    4    0    0  0.24879083926E+02  0.13972415279E+04 -0.56829708681E+03  0.15106945835E+04  0.79584482136E+02 0.  0.
         11    1    3    3    0    0  0.60295670304E+02 -0.12620119825E+04 -0.10625376300E+04  0.16508470635E+04  0.00000000000E+00 0. -1.
        -11    1    3    3    0    0  0.31553392779E+02 -0.10459504405E+03 -0.10024204143E+03  0.14827072100E+03  0.00000000000E+00 0.  1.
          4    1    6    6  502    0 -0.39989912065E+01  0.11308461511E+04 -0.43766730760E+03  0.12125929579E+04  0.00000000000E+00 0. -1.
          1    1    5    5  503    0 -0.10540349763E+03 -0.26627880271E+02 -0.35471143800E+03  0.37099750076E+03  0.00000000000E+00 0. -1.
         -4    1    5    5    0  503 -0.11324649380E+02 -0.40066210759E+01  0.89979713344E-01  0.12012859459E+02  0.00000000000E+00 0.  1.
         -3    1    6    6    0  502  0.28878075133E+02  0.26639537673E+03 -0.13062977922E+03  0.29810162560E+03  0.00000000000E+00 0.  1.
<mgrwt>
<rscale>  0 0.30474256E+04</rscale>
<asrwt>0</asrwt>
<pdfrwt beam="1">  1        1 0.44450161E+00 0.30474256E+04</pdfrwt>
<pdfrwt beam="2">  1       -1 0.12362496E+00 0.30474256E+04</pdfrwt>
<totfact> 0.35042064E-01</totfact>
</mgrwt>
</event>
<event>
12    1  0.1494110E-007  0.1475674E+04  0.7818608E-02  0.8900793E-01
         -2   -1    0    0    0  501 -0.00000000000E+00  0.00000000000E+00  0.17098793757E+03  0.17098793757E+03  0.00000000000E+00 0.  1.
          2   -1    0    0  501    0  0.00000000000E+00 -0.00000000000E+00 -0.31838700114E+04  0.31838700114E+04  0.00000000000E+00 0. -1.
         23    2    1    2    0    0  0.24031216049E+03  0.51061501886E+02 -0.73884145380E+02  0.27265090343E+03  0.92317044743E+02 0.  0.
        254    2    1    2    0    0 -0.24031216049E+03 -0.51061501886E+02 -0.29389979284E+04  0.30822070455E+04  0.89550780942E+03 0.  0.
        -24    2    4    4    0    0 -0.33264401072E+03 -0.10297061794E+03 -0.38760120246E+03  0.52716504403E+03  0.80083116059E+02 0.  0.
         24    2    4    4    0    0  0.92331850234E+02  0.51909116058E+02 -0.25513967260E+04  0.25550420015E+04  0.85992146025E+02 0.  0.
         13    1    3    3    0    0  0.20023204009E+03  0.48645750492E+02 -0.22268161297E+02  0.20725624219E+03  0.00000000000E+00 0.  1.
        -13    1    3    3    0    0  0.40080120400E+02  0.24157513943E+01 -0.51615984084E+02  0.65394661242E+02  0.00000000000E+00 0. -1.
          4    1    6    6  502    0 -0.33950524697E+01  0.38780267297E+02 -0.87122148953E+03  0.87209077471E+03  0.00000000000E+00 0. -1.
          3    1    5    5  503    0 -0.56144216078E+02 -0.22012552866E+02 -0.11834173953E+03  0.13282128142E+03  0.00000000000E+00 0. -1.
         -4    1    5    5    0  503 -0.27649979464E+03 -0.80958065079E+02 -0.26925946293E+03  0.39434376262E+03  0.00000000000E+00 0.  1.
         -3    1    6    6    0  502  0.95726902703E+02  0.13128848761E+02 -0.16801752365E+04  0.16829512268E+04  0.00000000000E+00 0.  1.
<mgrwt>
<rscale>  0 0.14756739E+04</rscale>
<asrwt>0</asrwt>
<pdfrwt beam="1">  1        2 0.48982610E+00 0.14756739E+04</pdfrwt>
<pdfrwt beam="2">  1       -2 0.26305839E-01 0.14756739E+04</pdfrwt>
<totfact> 0.16983989E+01</totfact>
</mgrwt>
</event>
<event>
12    1  0.1494110E-007  0.4030222E+04  0.7818608E-02  0.7998477E-01
          2   -1    0    0  501    0  0.00000000000E+00  0.00000000000E+00  0.14318443172E+04  0.14318443172E+04  0.00000000000E+00 0. -1.
         -2   -1    0    0    0  501 -0.00000000000E+00 -0.00000000000E+00 -0.28359738697E+04  0.28359738697E+04  0.00000000000E+00 0.  1.
         23    2    1    2    0    0  0.16690701061E+04 -0.70334701520E+03 -0.21096878445E+01  0.18134820633E+04  0.90668077476E+02 0.  0.
        254    2    1    2    0    0 -0.16690701061E+04  0.70334701520E+03 -0.14020198646E+04  0.24543361236E+04  0.88182428191E+03 0.  0.
        -24    2    4    4    0    0 -0.93635981448E+03  0.40851194498E+03 -0.24901927294E+03  0.10545116558E+04  0.79577149090E+02 0.  0.
         24    2    4    4    0    0 -0.73271029158E+03  0.29483507022E+03 -0.11530005917E+04  0.13998244678E+04  0.79410869189E+02 0.  0.
         13    1    3    3    0    0  0.76673896652E+03 -0.35841847924E+03  0.30434192712E+02  0.84692307156E+03  0.00000000000E+00 0. -1.
        -13    1    3    3    0    0  0.90233113954E+03 -0.34492853596E+03 -0.32543880557E+02  0.96655899171E+03  0.00000000000E+00 0.  1.
          2    1    6    6  502    0 -0.29635380722E+03  0.15883884976E+03 -0.51316459930E+03  0.61350897729E+03  0.00000000000E+00 0. -1.
          3    1    5    5  503    0 -0.53289468675E+03  0.18998432137E+03 -0.13036840928E+03  0.58057446695E+03  0.00000000000E+00 0. -1.
         -4    1    5    5    0  503 -0.40346512772E+03  0.21852762361E+03 -0.11865086366E+03  0.47393718889E+03  0.00000000000E+00 0.  1.
         -1    1    6    6    0  502 -0.43635648436E+03  0.13599622046E+03 -0.63983599237E+03  0.78631549047E+03  0.00000000000E+00 0.  1.
<mgrwt>
<rscale>  0 0.40302224E+04</rscale>
<asrwt>0</asrwt>
<pdfrwt beam="1">  1        2 0.22028374E+00 0.40302224E+04</pdfrwt>
<pdfrwt beam="2">  1       -2 0.43630367E+00 0.40302224E+04</pdfrwt>
<totfact> 0.46695656E-02</totfact>
</mgrwt>
</event>
<event>
12    1  0.1494110E-007  0.2408091E+04  0.7818608E-02  0.8436481E-01
         -2   -1    0    0    0  501 -0.00000000000E+00  0.00000000000E+00  0.83022552429E+03  0.83022552429E+03  0.00000000000E+00 0. -1.
          2   -1    0    0  501    0  0.00000000000E+00 -0.00000000000E+00 -0.17461829523E+04  0.17461829523E+04  0.00000000000E+00 0.  1.
         23    2    1    2    0    0  0.48004398554E+03  0.87466159228E+03 -0.70257169278E+03  0.12237519697E+04  0.92123671694E+02 0.  0.
        254    2    1    2    0    0 -0.48004398554E+03 -0.87466159228E+03 -0.21338573524E+03  0.13526565069E+04  0.88807151990E+03 0.  0.
        -24    2    4    4    0    0 -0.27031690788E+03 -0.55785846089E+03  0.31274042765E+03  0.69884962353E+03  0.79416170544E+02 0.  0.
         24    2    4    4    0    0 -0.20972707766E+03 -0.31680313139E+03 -0.52612616290E+03  0.65380688332E+03  0.79404220494E+02 0.  0.
         11    1    3    3    0    0  0.53066607897E+02  0.12176316840E+03 -0.59925805293E+02  0.14571697291E+03  0.00000000000E+00 0. -1.
        -11    1    3    3    0    0  0.42697737765E+03  0.75289842388E+03 -0.64264588748E+03  0.10780349968E+04  0.00000000000E+00 0.  1.
          4    1    6    6  502    0 -0.71186393225E+02 -0.10960357000E+03 -0.12075817103E+03  0.17794094809E+03  0.00000000000E+00 0. -1.
          1    1    5    5  503    0 -0.22978040389E+03 -0.41158955667E+03  0.25887427263E+03  0.53779260519E+03  0.00000000000E+00 0. -1.
         -2    1    5    5    0  503 -0.40536503991E+02 -0.14626890423E+03  0.53866155024E+02  0.16105701834E+03  0.00000000000E+00 0.  1.
         -3    1    6    6    0  502 -0.13854068444E+03 -0.20719956139E+03 -0.40536799186E+03  0.47586593523E+03  0.00000000000E+00 0.  1.
<mgrwt>
<rscale>  0 0.24080911E+04</rscale>
<asrwt>0</asrwt>
<pdfrwt beam="1">  1        2 0.26864353E+00 0.24080911E+04</pdfrwt>
<pdfrwt beam="2">  1       -2 0.12772700E+00 0.24080911E+04</pdfrwt>
<totfact> 0.37726542E+00</totfact>
</mgrwt>
</event>
<event>
12    1  0.1494110E-007  0.1282707E+04  0.7818608E-02  0.9043392E-01
         -2   -1    0    0    0  501 -0.00000000000E+00  0.00000000000E+00  0.40205276854E+03  0.40205276854E+03  0.00000000000E+00 0.  1.
          2   -1    0    0  501    0  0.00000000000E+00 -0.00000000000E+00 -0.10230852253E+04  0.10230852253E+04  0.00000000000E+00 0. -1.
         23    2    1    2    0    0  0.15461553211E+03  0.25800329430E+03 -0.26437565298E+03  0.41054381055E+03  0.90443749671E+02 0.  0.
        254    2    1    2    0    0 -0.15461553211E+03 -0.25800329430E+03 -0.35665680382E+03  0.10145941833E+04  0.90095816689E+03 0.  0.
        -24    2    4    4    0    0 -0.43340077678E+03 -0.40075455131E+03 -0.35007060253E+03  0.69102758492E+03  0.80803791095E+02 0.  0.
         24    2    4    4    0    0  0.27878524467E+03  0.14275125701E+03 -0.65862012911E+01  0.32356659840E+03  0.80949561640E+02 0.  0.
         13    1    3    3    0    0  0.28422713046E+02  0.46393023463E+02 -0.10159269618E+03  0.11524425869E+03  0.00000000000E+00 0.  1.
        -13    1    3    3    0    0  0.12619281906E+03  0.21161027084E+03 -0.16278295679E+03  0.29529955186E+03  0.00000000000E+00 0. -1.
          4    1    6    6  502    0  0.11224408741E+03  0.14465030338E+02  0.16298985104E+01  0.11318404848E+03  0.00000000000E+00 0. -1.
          3    1    5    5  503    0 -0.25325215638E+03 -0.18190225168E+03 -0.16889247188E+03  0.35461211335E+03  0.00000000000E+00 0. -1.
         -4    1    5    5    0  503 -0.18014862040E+03 -0.21885229962E+03 -0.18117813065E+03  0.33641547156E+03  0.00000000000E+00 0.  1.
         -3    1    6    6    0  502  0.16654115726E+03  0.12828622667E+03 -0.82160998014E+01  0.21038254992E+03  0.00000000000E+00 0.  1.
<mgrwt>
<rscale>  0 0.12827069E+04</rscale>
<asrwt>0</asrwt>
<pdfrwt beam="1">  1        2 0.15739773E+00 0.12827069E+04</pdfrwt>
<pdfrwt beam="2">  1       -2 0.61854272E-01 0.12827069E+04</pdfrwt>
<totfact> 0.58011202E+01</totfact>
</mgrwt>
</event>
<event>
12    1  0.1494110E-007  0.1767017E+04  0.7818608E-02  0.8724039E-01
         -1   -1    0    0    0  501 -0.00000000000E+00  0.00000000000E+00  0.52223337712E+03  0.52223337712E+03  0.00000000000E+00 0.  1.
          1   -1    0    0  501    0  0.00000000000E+00 -0.00000000000E+00 -0.14947104566E+04  0.14947104566E+04  0.00000000000E+00 0. -1.
         23    2    1    2    0    0  0.30083214262E+02  0.49476602202E+03 -0.84305524350E+03  0.98230596182E+03  0.92111034656E+02 0.  0.
        254    2    1    2    0    0 -0.30083214262E+02 -0.49476602202E+03 -0.12942183596E+03  0.10346378719E+04  0.89890327510E+03 0.  0.
        -24    2    4    4    0    0 -0.45306666120E+03 -0.22619849944E+03 -0.11995616645E+03  0.52642966608E+03  0.79394904234E+02 0.  0.
         24    2    4    4    0    0  0.42298344694E+03 -0.26856752258E+03 -0.94656695134E+01  0.50820820580E+03  0.84513140839E+02 0.  0.
         13    1    3    3    0    0  0.36329392451E+02  0.49377277520E+03 -0.81545795398E+03  0.95399321434E+03  0.00000000000E+00 0. -1.
        -13    1    3    3    0    0 -0.62461781885E+01  0.99324681454E+00 -0.27597289514E+02  0.28312747477E+02  0.00000000000E+00 0.  1.
          2    1    6    6  502    0  0.30010809273E+03 -0.22563728078E+03 -0.29018447292E+02  0.37658879442E+03  0.00000000000E+00 0. -1.
          1    1    5    5  503    0 -0.22159418249E+03 -0.79288623681E+02 -0.84153029542E+02  0.24994479378E+03  0.00000000000E+00 0. -1.
         -2    1    5    5    0  503 -0.23147247872E+03 -0.14690987576E+03 -0.35803136910E+02  0.27648487230E+03  0.00000000000E+00 0.  1.
         -1    1    6    6    0  502  0.12287535421E+03 -0.42930241801E+02  0.19552777779E+02  0.13161941139E+03  0.00000000000E+00 0.  1.
<mgrwt>
<rscale>  0 0.17670175E+04</rscale>
<asrwt>0</asrwt>
<pdfrwt beam="1">  1        1 0.22995545E+00 0.17670175E+04</pdfrwt>
<pdfrwt beam="2">  1       -1 0.80343598E-01 0.17670175E+04</pdfrwt>
<totfact> 0.96488253E+00</totfact>
</mgrwt>
</event>
<event>
12    1  0.1494110E-007  0.1537563E+04  0.7818608E-02  0.8859851E-01
          1   -1    0    0  501    0  0.00000000000E+00  0.00000000000E+00  0.79840732674E+03  0.79840732674E+03  0.00000000000E+00 0. -1.
         -1   -1    0    0    0  501 -0.00000000000E+00 -0.00000000000E+00 -0.74025497405E+03  0.74025497405E+03  0.00000000000E+00 0.  1.
         23    2    1    2    0    0 -0.67646611188E+02 -0.40470267910E+03  0.32582243807E+03  0.53187471538E+03  0.91488410419E+02 0.  0.
        254    2    1    2    0    0  0.67646611188E+02  0.40470267910E+03 -0.26767008537E+03  0.10067875854E+04  0.87955309395E+03 0.  0.
        -24    2    4    4    0    0  0.28077954433E+03 -0.16580418732E+03 -0.16377035918E+01  0.33650911074E+03  0.83111482297E+02 0.  0.
         24    2    4    4    0    0 -0.21313293315E+03  0.57050686642E+03 -0.26603238178E+03  0.67027847467E+03  0.87156604067E+02 0.  0.
         11    1    3    3    0    0 -0.67416027412E+02 -0.28101749475E+03  0.27242965293E+03  0.39715698270E+03  0.00000000000E+00 0. -1.
        -11    1    3    3    0    0 -0.23058377540E+00 -0.12368518434E+03  0.53392785135E+02  0.13471773268E+03  0.00000000000E+00 0.  1.
          4    1    6    6  502    0 -0.35575858378E+02  0.48255589181E+02 -0.49297588241E+02  0.77617625530E+02  0.00000000000E+00 0. -1.
          3    1    5    5  503    0 -0.31427188542E+01 -0.13671077798E+02  0.30819990190E+01  0.14362234085E+02  0.00000000000E+00 0. -1.
         -4    1    5    5    0  503  0.28392226319E+03 -0.15213310953E+03 -0.47197026108E+01  0.32214687666E+03  0.00000000000E+00 0.  1.
         -3    1    6    6    0  502 -0.17755707477E+03  0.52225127724E+03 -0.21673479354E+03  0.59266084914E+03  0.00000000000E+00 0.  1.
<mgrwt>
<rscale>  0 0.15375630E+04</rscale>
<asrwt>0</asrwt>
<pdfrwt beam="1">  1        1 0.12283190E+00 0.15375630E+04</pdfrwt>
<pdfrwt beam="2">  1       -1 0.11388538E+00 0.15375630E+04</pdfrwt>
<totfact> 0.15034840E+01</totfact>
</mgrwt>
</event>
<event>
12    1  0.1494110E-007  0.2074345E+04  0.7818608E-02  0.8572630E-01
         -1   -1    0    0    0  501 -0.00000000000E+00  0.00000000000E+00  0.10786383589E+04  0.10786383589E+04  0.00000000000E+00 0.  1.
          1   -1    0    0  501    0  0.00000000000E+00 -0.00000000000E+00 -0.99730037014E+03  0.99730037014E+03  0.00000000000E+00 0. -1.
         23    2    1    2    0    0  0.41748857093E+03  0.18841006462E+03  0.73570771907E+03  0.87190311360E+03  0.95677229785E+02 0.  0.
        254    2    1    2    0    0 -0.41748857093E+03 -0.18841006462E+03 -0.65436973036E+03  0.12040356154E+04  0.90094781193E+03 0.  0.
        -24    2    4    4    0    0  0.12852550947E+03 -0.79258464604E+02 -0.61676967262E+03  0.64038451162E+03  0.82986642645E+02 0.  0.
         24    2    4    4    0    0 -0.54601408040E+03 -0.10915160002E+03 -0.37600057739E+02  0.56365110377E+03  0.79014901525E+02 0.  0.
         13    1    3    3    0    0  0.31556597759E+03  0.17929159318E+03  0.53311086920E+03  0.64492988802E+03  0.00000000000E+00 0.  1.
        -13    1    3    3    0    0  0.10192259334E+03  0.91184714390E+01  0.20259684987E+03  0.22697322558E+03  0.00000000000E+00 0. -1.
          4    1    6    6  502    0 -0.12896855346E+03 -0.24426670970E+02  0.24655466019E+02  0.13355688691E+03  0.00000000000E+00 0. -1.
          3    1    5    5  503    0  0.16472634022E+02  0.17317704991E+02 -0.70577515550E+02  0.74514671569E+02  0.00000000000E+00 0. -1.
         -4    1    5    5    0  503  0.11205287545E+03 -0.96576169595E+02 -0.54619215707E+03  0.56586984005E+03  0.00000000000E+00 0.  1.
         -1    1    6    6    0  502 -0.41704552694E+03 -0.84724929049E+02 -0.62255523758E+02  0.43009421687E+03  0.00000000000E+00 0.  1.
<mgrwt>
<rscale>  0 0.20743447E+04</rscale>
<asrwt>0</asrwt>
<pdfrwt beam="1">  1        1 0.15343083E+00 0.20743447E+04</pdfrwt>
<pdfrwt beam="2">  1       -1 0.16594436E+00 0.20743447E+04</pdfrwt>
<totfact> 0.36954722E+00</totfact>
</mgrwt>
</event>
<event>
12    1  0.1494110E-007  0.1535736E+04  0.7818608E-02  0.8861030E-01
         -2   -1    0    0    0  501 -0.00000000000E+00  0.00000000000E+00  0.14548275810E+04  0.14548275810E+04  0.00000000000E+00 0. -1.
          2   -1    0    0  501    0  0.00000000000E+00 -0.00000000000E+00 -0.40528612237E+03  0.40528612237E+03  0.00000000000E+00 0.  1.
         23    2    1    2    0    0  0.39788241931E+02 -0.22840839611E+03  0.86904344121E+03  0.90409615656E+03  0.91650739186E+02 0.  0.
        254    2    1    2    0    0 -0.39788241931E+02  0.22840839611E+03  0.18049801738E+03  0.95601754678E+03  0.90974530274E+03 0.  0.
        -24    2    4    4    0    0  0.38150896346E+03  0.29164234421E+03  0.18521071815E+03  0.52240080499E+03  0.89416132766E+02 0.  0.
         24    2    4    4    0    0 -0.42129720539E+03 -0.63233948101E+02 -0.47127007680E+01  0.43361674179E+03  0.80693257115E+02 0.  0.
         11    1    3    3    0    0  0.60247207081E+02 -0.19896027448E+03  0.65890024849E+03  0.69091566362E+03  0.00000000000E+00 0. -1.
        -11    1    3    3    0    0 -0.20458965150E+02 -0.29448121623E+02  0.21014319272E+03  0.21318049294E+03  0.00000000000E+00 0.  1.
          2    1    6    6  502    0 -0.35874422914E+03 -0.72545744217E+02 -0.25896492512E+02  0.36692088421E+03  0.00000000000E+00 0. -1.
          1    1    5    5  503    0  0.13183157981E+03  0.59960069201E+02  0.82328332153E+02  0.16659150521E+03  0.00000000000E+00 0. -1.
         -2    1    5    5    0  503  0.24967738366E+03  0.23168227501E+03  0.10288238600E+03  0.35580929978E+03  0.00000000000E+00 0.  1.
         -1    1    6    6    0  502 -0.62552976253E+02  0.93117961166E+01  0.21183791744E+02  0.66695857575E+02  0.00000000000E+00 0.  1.
<mgrwt>
<rscale>  0 0.15357362E+04</rscale>
<asrwt>0</asrwt>
<pdfrwt beam="1">  1        2 0.62351712E-01 0.15357362E+04</pdfrwt>
<pdfrwt beam="2">  1       -2 0.22381962E+00 0.15357362E+04</pdfrwt>
<totfact> 0.70544205E+00</totfact>
</mgrwt>
</event>
<event>
12    1  0.1494110E-007  0.1246574E+04  0.7818608E-02  0.9073040E-01
          2   -1    0    0  501    0  0.00000000000E+00  0.00000000000E+00  0.27236284197E+04  0.27236284197E+04  0.00000000000E+00 0. -1.
         -2   -1    0    0    0  501 -0.00000000000E+00 -0.00000000000E+00 -0.14263568841E+03  0.14263568841E+03  0.00000000000E+00 0.  1.
         23    2    1    2    0    0  0.25142389369E+03 -0.13569582609E+02  0.93323833065E+03  0.97082776635E+03  0.90413838761E+02 0.  0.
        254    2    1    2    0    0 -0.25142389369E+03  0.13569582609E+02  0.16477544006E+04  0.18954363418E+04  0.90232269890E+03 0.  0.
        -24    2    4    4    0    0 -0.10382931359E+03  0.16972806457E+03  0.16520380067E+04  0.16659102396E+04  0.80244678287E+02 0.  0.
         24    2    4    4    0    0 -0.14759458010E+03 -0.15615848196E+03 -0.42836060896E+01  0.22952610218E+03  0.80586914185E+02 0.  0.
         13    1    3    3    0    0  0.22733487771E+03 -0.41022812173E+02  0.80495479837E+03  0.83744626405E+03  0.00000000000E+00 0. -1.
        -13    1    3    3    0    0  0.24089015981E+02  0.27453229564E+02  0.12828353228E+03  0.13338150231E+03  0.00000000000E+00 0.  1.
          2    1    6    6  502    0 -0.63311982970E+02 -0.45081705099E+02 -0.37342041751E+02  0.86227579140E+02  0.00000000000E+00 0. -1.
          1    1    5    5  503    0 -0.16308200841E+02 -0.39769113357E+01  0.71254290683E+02  0.73204830299E+02  0.00000000000E+00 0. -1.
         -2    1    5    5    0  503 -0.87521112748E+02  0.17370497591E+03  0.15807837160E+04  0.15927054093E+04  0.00000000000E+00 0.  1.
         -1    1    6    6    0  502 -0.84282597129E+02 -0.11107677687E+03  0.33058435662E+02  0.14329852304E+03  0.00000000000E+00 0.  1.
<mgrwt>
<rscale>  0 0.12465739E+04</rscale>
<asrwt>0</asrwt>
<pdfrwt beam="1">  1        2 0.41901972E+00 0.12465739E+04</pdfrwt>
<pdfrwt beam="2">  1       -2 0.21943954E-01 0.12465739E+04</pdfrwt>
<totfact> 0.46257984E+01</totfact>
</mgrwt>
</event>
<event>
12    1  0.1494110E-007  0.1223390E+04  0.7818608E-02  0.9092626E-01
         -1   -1    0    0    0  501 -0.00000000000E+00  0.00000000000E+00  0.33849734415E+03  0.33849734415E+03  0.00000000000E+00 0.  1.
          1   -1    0    0  501    0  0.00000000000E+00 -0.00000000000E+00 -0.11053870152E+04  0.11053870152E+04  0.00000000000E+00 0. -1.
         23    2    1    2    0    0  0.11598739450E+03  0.21724928591E+03 -0.33131765174E+03  0.42279399064E+03  0.91285509576E+02 0.  0.
        254    2    1    2    0    0 -0.11598739450E+03 -0.21724928591E+03 -0.43557201929E+03  0.10210903687E+04  0.89008551786E+03 0.  0.
        -24    2    4    4    0    0 -0.36318172438E+03 -0.13162256677E+03  0.11235964918E+03  0.40878019269E+03  0.72464406228E+02 0.  0.
         24    2    4    4    0    0  0.24719432987E+03 -0.85626719144E+02 -0.54793166847E+03  0.61231017599E+03  0.79105414215E+02 0.  0.
         13    1    3    3    0    0  0.13073632785E+03  0.17986559722E+03 -0.27632039658E+03  0.35467813867E+03  0.00000000000E+00 0.  1.
        -13    1    3    3    0    0 -0.14748933351E+02  0.37383688696E+02 -0.54997255156E+02  0.68115851975E+02  0.00000000000E+00 0. -1.
          2    1    6    6  502    0  0.22644415331E+02  0.13399148672E+02 -0.35973097302E+02  0.44568716162E+02  0.00000000000E+00 0. -1.
          1    1    5    5  503    0 -0.19444095837E+03 -0.60926945141E+02  0.22650952397E+02  0.20501815671E+03  0.00000000000E+00 0. -1.
         -2    1    5    5    0  503 -0.16874076601E+03 -0.70695621630E+02  0.89708696779E+02  0.20376203598E+03  0.00000000000E+00 0.  1.
         -1    1    6    6    0  502  0.22454991454E+03 -0.99025867816E+02 -0.51195857116E+03  0.56774145983E+03  0.00000000000E+00 0.  1.
<mgrwt>
<rscale>  0 0.12233897E+04</rscale>
<asrwt>0</asrwt>
<pdfrwt beam="1">  1        1 0.17005954E+00 0.12233897E+04</pdfrwt>
<pdfrwt beam="2">  1       -1 0.52076514E-01 0.12233897E+04</pdfrwt>
<totfact> 0.46072311E+01</totfact>
</mgrwt>
</event>
<event>
12    1  0.1494110E-007  0.2523494E+04  0.7818608E-02  0.8394663E-01
          2   -1    0    0  501    0  0.00000000000E+00  0.00000000000E+00  0.21478689873E+04  0.21478689873E+04  0.00000000000E+00 0. -1.
         -2   -1    0    0    0  501 -0.00000000000E+00 -0.00000000000E+00 -0.74120257109E+03  0.74120257109E+03  0.00000000000E+00 0.  1.
         23    2    1    2    0    0 -0.82205053597E+03 -0.70998329661E+03  0.39621540147E+03  0.11597394023E+04  0.90362999443E+02 0.  0.
        254    2    1    2    0    0  0.82205053597E+03  0.70998329661E+03  0.10104510148E+04  0.17293321561E+04  0.88867040454E+03 0.  0.
        -24    2    4    4    0    0  0.40241208692E+03 -0.15437936353E+03  0.28130352354E+03  0.52046620638E+03  0.77362290888E+02 0.  0.
         24    2    4    4    0    0  0.41963844905E+03  0.86436266014E+03  0.72914749122E+03  0.12088659498E+04  0.80508287622E+02 0.  0.
         11    1    3    3    0    0 -0.75696508710E+03 -0.66656083593E+03  0.38951230895E+03  0.10812119727E+04  0.00000000000E+00 0.  1.
        -11    1    3    3    0    0 -0.65085448870E+02 -0.43422460678E+02  0.67030925196E+01  0.78527429572E+02  0.00000000000E+00 0. -1.
          4    1    6    6  502    0  0.37223943982E+03  0.81092193153E+03  0.66455122091E+03  0.11125578209E+04  0.00000000000E+00 0. -1.
          1    1    5    5  503    0  0.12212442762E+03 -0.85067901839E+02  0.10538449300E+03  0.18236451165E+03  0.00000000000E+00 0. -1.
         -2    1    5    5    0  503  0.28028765930E+03 -0.69311461693E+02  0.17591903054E+03  0.33810169473E+03  0.00000000000E+00 0.  1.
         -3    1    6    6    0  502  0.47399009233E+02  0.53440728612E+02  0.64596270304E+02  0.96308128879E+02  0.00000000000E+00 0.  1.
<mgrwt>
<rscale>  0 0.25234944E+04</rscale>
<asrwt>0</asrwt>
<pdfrwt beam="1">  1        2 0.33044138E+00 0.25234944E+04</pdfrwt>
<pdfrwt beam="2">  1       -2 0.11403117E+00 0.25234944E+04</pdfrwt>
<totfact> 0.29597776E+00</totfact>
</mgrwt>
</event>
<event>
12    1  0.1494110E-007  0.2005077E+04  0.7818608E-02  0.8604251E-01
          1   -1    0    0  501    0  0.00000000000E+00  0.00000000000E+00  0.73457861659E+03  0.73457861659E+03  0.00000000000E+00 0. -1.
         -1   -1    0    0    0  501 -0.00000000000E+00 -0.00000000000E+00 -0.13682445239E+04  0.13682445239E+04  0.00000000000E+00 0.  1.
         23    2    1    2    0    0  0.90652075086E+02 -0.53162717472E+03  0.33310829925E+03  0.64096422107E+03  0.95019692901E+02 0.  0.
        254    2    1    2    0    0 -0.90652075086E+02  0.53162717472E+03 -0.96677420657E+03  0.14618589194E+04  0.95474283563E+03 0.  0.
        -24    2    4    4    0    0  0.34366096041E+03  0.55798785214E+02 -0.64677250312E+03  0.73792471528E+03  0.70723790014E+02 0.  0.
         24    2    4    4    0    0 -0.43431303550E+03  0.47582838951E+03 -0.32000170345E+03  0.72393420415E+03  0.81481118456E+02 0.  0.
         13    1    3    3    0    0  0.25426617732E+02 -0.15812301290E+03  0.50016426402E+02  0.16778272560E+03  0.00000000000E+00 0.  1.
        -13    1    3    3    0    0  0.65225457354E+02 -0.37350416182E+03  0.28309187285E+03  0.47318149547E+03  0.00000000000E+00 0. -1.
          2    1    6    6  502    0 -0.36755902329E+03  0.35363643976E+03 -0.24686272414E+03  0.56665648474E+03  0.00000000000E+00 0. -1.
          3    1    5    5  503    0  0.18399864925E+03  0.22590230275E+02 -0.27153003958E+03  0.32877710356E+03  0.00000000000E+00 0. -1.
         -4    1    5    5    0  503  0.15966231116E+03  0.33208554939E+02 -0.37524246354E+03  0.40914761172E+03  0.00000000000E+00 0.  1.
         -1    1    6    6    0  502 -0.66754012210E+02  0.12219194975E+03 -0.73138979310E+02  0.15727771941E+03  0.00000000000E+00 0.  1.
<mgrwt>
<rscale>  0 0.20050767E+04</rscale>
<asrwt>0</asrwt>
<pdfrwt beam="1">  1        1 0.11301210E+00 0.20050767E+04</pdfrwt>
<pdfrwt beam="2">  1       -1 0.21049916E+00 0.20050767E+04</pdfrwt>
<totfact> 0.29918175E+00</totfact>
</mgrwt>
</event>
<event>
12    1  0.1494110E-007  0.1173389E+04  0.7818608E-02  0.9136474E-01
          1   -1    0    0  501    0  0.00000000000E+00  0.00000000000E+00  0.20665132265E+04  0.20665132265E+04  0.00000000000E+00 0. -1.
         -1   -1    0    0    0  501 -0.00000000000E+00 -0.00000000000E+00 -0.16656566659E+03  0.16656566659E+03  0.00000000000E+00 0.  1.
         23    2    1    2    0    0 -0.16507315995E+03  0.83022103564E+02  0.64159466826E+03  0.67365721949E+03  0.89601971066E+02 0.  0.
        254    2    1    2    0    0  0.16507315995E+03 -0.83022103564E+02  0.12583528916E+04  0.15594216735E+04  0.90233150134E+03 0.  0.
        -24    2    4    4    0    0 -0.21708267672E+03 -0.36429711054E+03  0.69147672830E+03  0.81508365703E+03  0.79900118279E+02 0.  0.
         24    2    4    4    0    0  0.38215583667E+03  0.28127500697E+03  0.56687616331E+03  0.74433801652E+03  0.86785858673E+02 0.  0.
         11    1    3    3    0    0 -0.13095848819E+03  0.81231470280E+02  0.38339523184E+03  0.41320767320E+03  0.00000000000E+00 0. -1.
        -11    1    3    3    0    0 -0.34114671757E+02  0.17906332839E+01  0.25819943642E+03  0.26044954629E+03  0.00000000000E+00 0.  1.
          4    1    6    6  502    0  0.36116725214E+03  0.27958597179E+03  0.51503076801E+03  0.68837983094E+03  0.00000000000E+00 0. -1.
          3    1    5    5  503    0 -0.20163366994E+03 -0.33939387482E+03  0.67359606138E+03  0.78075347776E+03  0.00000000000E+00 0. -1.
         -4    1    5    5    0  503 -0.15449006783E+02 -0.24903235711E+02  0.17880666916E+02  0.34330179272E+02  0.00000000000E+00 0.  1.
         -3    1    6    6    0  502  0.20988584522E+02  0.16890351775E+01  0.51845395297E+02  0.55958185581E+02  0.00000000000E+00 0.  1.
<mgrwt>
<rscale>  0 0.11733885E+04</rscale>
<asrwt>0</asrwt>
<pdfrwt beam="1">  1        1 0.31792509E+00 0.11733885E+04</pdfrwt>
<pdfrwt beam="2">  1       -1 0.25625489E-01 0.11733885E+04</pdfrwt>
<totfact> 0.35842010E+01</totfact>
</mgrwt>
</event>
<event>
12    1  0.1494110E-007  0.2887890E+04  0.7818608E-02  0.8276490E-01
         -1   -1    0    0    0  501 -0.00000000000E+00  0.00000000000E+00  0.52191220806E+03  0.52191220806E+03  0.00000000000E+00 0.  1.
          1   -1    0    0  501    0  0.00000000000E+00 -0.00000000000E+00 -0.39948815251E+04  0.39948815251E+04  0.00000000000E+00 0. -1.
         23    2    1    2    0    0  0.32895576689E+03  0.63576828296E+03  0.13185436972E+03  0.73257231177E+03  0.82845705824E+02 0.  0.
        254    2    1    2    0    0 -0.32895576689E+03 -0.63576828296E+03 -0.36048236868E+04  0.37842214214E+04  0.90175647891E+03 0.  0.
        -24    2    4    4    0    0  0.23638020858E+03 -0.40892038230E+03 -0.21893825343E+04  0.22411690544E+04  0.79695465030E+02 0.  0.
         24    2    4    4    0    0 -0.56533597547E+03 -0.22684790066E+03 -0.14154411525E+04  0.15430523670E+04  0.80450082531E+02 0.  0.
         11    1    3    3    0    0 -0.83267484576E+00  0.33821204599E+02  0.10246899719E+01  0.33846967625E+02  0.00000000000E+00 0. -1.
        -11    1    3    3    0    0  0.32978844174E+03  0.60194707836E+03  0.13082967975E+03  0.69872534415E+03  0.00000000000E+00 0.  1.
          4    1    6    6  502    0 -0.52493597111E+03 -0.22389334085E+03 -0.13551807996E+04  0.14704424509E+04  0.00000000000E+00 0. -1.
          1    1    5    5  503    0  0.21293312779E+03 -0.31596905452E+03 -0.16589208297E+04  0.17021149431E+04  0.00000000000E+00 0. -1.
         -2    1    5    5    0  503  0.23447080792E+02 -0.92951327773E+02 -0.53046170458E+03  0.53905411135E+03  0.00000000000E+00 0.  1.
         -3    1    6    6    0  502 -0.40400004367E+02 -0.29545598042E+01 -0.60260352924E+02  0.72609916066E+02  0.00000000000E+00 0.  1.
<mgrwt>
<rscale>  0 0.28878902E+04</rscale>
<asrwt>0</asrwt>
<pdfrwt beam="1">  1        1 0.61459716E+00 0.28878902E+04</pdfrwt>
<pdfrwt beam="2">  1       -1 0.80294185E-01 0.28878902E+04</pdfrwt>
<totfact> 0.12891721E-01</totfact>
</mgrwt>
</event>
<event>
12    1  0.1494110E-007  0.1620174E+04  0.7818608E-02  0.8808249E-01
          2   -1    0    0  501    0  0.00000000000E+00  0.00000000000E+00  0.14336335384E+04  0.14336335384E+04  0.00000000000E+00 0. -1.
         -2   -1    0    0    0  501 -0.00000000000E+00 -0.00000000000E+00 -0.45774650354E+03  0.45774650354E+03  0.00000000000E+00 0.  1.
         23    2    1    2    0    0  0.28148576941E+03  0.47551177697E+03  0.38941780272E+03  0.68064614734E+03  0.79292272007E+02 0.  0.
        254    2    1    2    0    0 -0.28148576941E+03 -0.47551177697E+03  0.58646923218E+03  0.12107338946E+04  0.90365077045E+03 0.  0.
        -24    2    4    4    0    0 -0.54294059388E+02 -0.70808255467E+03  0.32050902788E+03  0.78317396586E+03  0.79414575102E+02 0.  0.
         24    2    4    4    0    0 -0.22719171002E+03  0.23257077771E+03  0.26596020430E+03  0.42755992878E+03  0.79796131985E+02 0.  0.
         11    1    3    3    0    0  0.22188258139E+03  0.42324446554E+03  0.34833726432E+03  0.59135996419E+03  0.00000000000E+00 0. -1.
        -11    1    3    3    0    0  0.59603188026E+02  0.52267311430E+02  0.41080538401E+02  0.89286183154E+02  0.00000000000E+00 0.  1.
          4    1    6    6  502    0 -0.86057421151E+02  0.85401341410E+02  0.15040708235E+03  0.19318788593E+03  0.00000000000E+00 0. -1.
          3    1    5    5  503    0 -0.57449270202E+02 -0.69993490117E+03  0.30561123347E+03  0.76590306863E+03  0.00000000000E+00 0. -1.
         -4    1    5    5    0  503  0.31552108147E+01 -0.81476535098E+01  0.14897794411E+02  0.17270897236E+02  0.00000000000E+00 0.  1.
         -3    1    6    6    0  502 -0.14113428887E+03  0.14716943630E+03  0.11555312195E+03  0.23437204285E+03  0.00000000000E+00 0.  1.
<mgrwt>
<rscale>  0 0.16201737E+04</rscale>
<asrwt>0</asrwt>
<pdfrwt beam="1">  1        2 0.22055900E+00 0.16201737E+04</pdfrwt>
<pdfrwt beam="2">  1       -2 0.70422540E-01 0.16201737E+04</pdfrwt>
<totfact> 0.24316729E+01</totfact>
</mgrwt>
</event>
<event>
12    1  0.1494110E-007  0.1739659E+04  0.7818608E-02  0.8739063E-01
         -1   -1    0    0    0  501 -0.00000000000E+00  0.00000000000E+00  0.39091299262E+03  0.39091299262E+03  0.00000000000E+00 0.  1.
          1   -1    0    0  501    0  0.00000000000E+00 -0.00000000000E+00 -0.19354765867E+04  0.19354765867E+04  0.00000000000E+00 0. -1.
         23    2    1    2    0    0  0.37694445285E+03 -0.31513654765E+03 -0.10972438072E+04  0.12057183002E+04  0.91730490164E+02 0.  0.
        254    2    1    2    0    0 -0.37694445285E+03  0.31513654765E+03 -0.44731978686E+03  0.11206712791E+04  0.90244720612E+03 0.  0.
        -24    2    4    4    0    0  0.97575476979E+02 -0.19879224751E+03 -0.33261974900E+03  0.40739720809E+03  0.79355254133E+02 0.  0.
         24    2    4    4    0    0 -0.47451992982E+03  0.51392879517E+03 -0.11470003786E+03  0.71327407099E+03  0.79447034919E+02 0.  0.
         11    1    3    3    0    0  0.10983735125E+03 -0.41547535724E+02 -0.26269409482E+03  0.28774750896E+03  0.00000000000E+00 0.  1.
        -11    1    3    3    0    0  0.26710710159E+03 -0.27358901193E+03 -0.83454971235E+03  0.91797079123E+03  0.00000000000E+00 0. -1.
          2    1    6    6  502    0 -0.32626159501E+03  0.40402712604E+03 -0.78606427847E+02  0.52522711036E+03  0.00000000000E+00 0. -1.
          3    1    5    5  503    0  0.95770569018E+02 -0.17547989747E+03 -0.32713092234E+03  0.38337949431E+03  0.00000000000E+00 0. -1.
         -4    1    5    5    0  503  0.18049079606E+01 -0.23312350044E+02 -0.54888266605E+01  0.24017713785E+02  0.00000000000E+00 0.  1.
         -1    1    6    6    0  502 -0.14825833481E+03  0.10990166912E+03 -0.36093610017E+02  0.18804696063E+03  0.00000000000E+00 0.  1.
<mgrwt>
<rscale>  0 0.17396585E+04</rscale>
<asrwt>0</asrwt>
<pdfrwt beam="1">  1        1 0.29776563E+00 0.17396585E+04</pdfrwt>
<pdfrwt beam="2">  1       -1 0.60140460E-01 0.17396585E+04</pdfrwt>
<totfact> 0.87655351E+00</totfact>
</mgrwt>
</event>
<event>
12    1  0.1494110E-007  0.3143640E+04  0.7818608E-02  0.8203862E-01
         -2   -1    0    0    0  501 -0.00000000000E+00  0.00000000000E+00  0.21370645830E+04  0.21370645830E+04  0.00000000000E+00 0.  1.
          2   -1    0    0  501    0  0.00000000000E+00 -0.00000000000E+00 -0.11560800409E+04  0.11560800409E+04  0.00000000000E+00 0. -1.
         23    2    1    2    0    0  0.11649711171E+04 -0.38916451221E+03 -0.33665507481E+03  0.12759907161E+04  0.78796870568E+02 0.  0.
        254    2    1    2    0    0 -0.11649711171E+04  0.38916451221E+03  0.13176396169E+04  0.20171539079E+04  0.90781551356E+03 0.  0.
        -24    2    4    4    0    0 -0.98416710011E+03 -0.89952201945E+02  0.10071496084E+04  0.14133704361E+04  0.81174973345E+02 0.  0.
         24    2    4    4    0    0 -0.18080401699E+03  0.47911671416E+03  0.31049000856E+03  0.60378347181E+03  0.76860373854E+02 0.  0.
         11    1    3    3    0    0  0.37995291837E+03 -0.89136241150E+02 -0.98797582402E+02  0.40257974608E+03  0.00000000000E+00 0. -1.
        -11    1    3    3    0    0  0.78501819873E+03 -0.30002827106E+03 -0.23785749241E+03  0.87341096998E+03  0.00000000000E+00 0.  1.
          2    1    6    6  502    0 -0.32511112577E+01  0.55719326795E+02  0.55021224212E+02  0.78374410471E+02  0.00000000000E+00 0. -1.
          1    1    5    5  503    0 -0.53732735073E+03 -0.30557107909E+02  0.49660003234E+03  0.73230185771E+03  0.00000000000E+00 0. -1.
         -2    1    5    5    0  503 -0.44683974939E+03 -0.59395094036E+02  0.51054957605E+03  0.68106857836E+03  0.00000000000E+00 0.  1.
         -1    1    6    6    0  502 -0.17755290573E+03  0.42339738736E+03  0.25546878435E+03  0.52540906134E+03  0.00000000000E+00 0.  1.
<mgrwt>
<rscale>  0 0.31436397E+04</rscale>
<asrwt>0</asrwt>
<pdfrwt beam="1">  1        2 0.17785847E+00 0.31436397E+04</pdfrwt>
<pdfrwt beam="2">  1       -2 0.32877917E+00 0.31436397E+04</pdfrwt>
<totfact> 0.35966882E-01</totfact>
</mgrwt>
</event>
<event>
12    1  0.1494110E-007  0.1022733E+04  0.7818608E-02  0.9283957E-01
         -2   -1    0    0    0  501 -0.00000000000E+00  0.00000000000E+00  0.24685686074E+03  0.24685686074E+03  0.00000000000E+00 0. -1.
          2   -1    0    0  501    0  0.00000000000E+00 -0.00000000000E+00 -0.10593007842E+04  0.10593007842E+04  0.00000000000E+00 0.  1.
         23    2    1    2    0    0 -0.63839798309E+02 -0.38251470714E+02 -0.73902817045E+02  0.13981505875E+03  0.92455012991E+02 0.  0.
        254    2    1    2    0    0  0.63839798309E+02  0.38251470714E+02 -0.73854110643E+03  0.11663425862E+04  0.89965180355E+03 0.  0.
        -24    2    4    4    0    0 -0.29753880054E+03 -0.13914339609E+03 -0.21117254738E+02  0.33951956244E+03  0.83290889809E+02 0.  0.
         24    2    4    4    0    0  0.36137859885E+03  0.17739486681E+03 -0.71742385169E+03  0.82682302376E+03  0.82921041781E+02 0.  0.
         13    1    3    3    0    0 -0.26351899671E+02 -0.25836336275E+02 -0.89921300335E+02  0.97199686945E+02  0.00000000000E+00 0.  1.
        -13    1    3    3    0    0 -0.37487898639E+02 -0.12415134440E+02  0.16018483290E+02  0.42615371809E+02  0.00000000000E+00 0. -1.
          2    1    6    6  502    0  0.30399314079E+03  0.11572573063E+03 -0.53964398420E+03  0.63009515476E+03  0.00000000000E+00 0. -1.
          1    1    5    5  503    0 -0.29556572752E+03 -0.13714053672E+03 -0.78175865355E+01  0.32592597435E+03  0.00000000000E+00 0. -1.
         -2    1    5    5    0  503 -0.19730730240E+01 -0.20028593702E+01 -0.13299668202E+02  0.13593588088E+02  0.00000000000E+00 0.  1.
         -1    1    6    6    0  502  0.57385458058E+02  0.61669136179E+02 -0.17777986750E+03  0.19672786900E+03  0.00000000000E+00 0.  1.
<mgrwt>
<rscale>  0 0.10227329E+04</rscale>
<asrwt>0</asrwt>
<pdfrwt beam="1">  1        2 0.16296935E+00 0.10227329E+04</pdfrwt>
<pdfrwt beam="2">  1       -2 0.37977978E-01 0.10227329E+04</pdfrwt>
<totfact> 0.15056488E+02</totfact>
</mgrwt>
</event>
<event>
12    1  0.1494110E-007  0.1247760E+04  0.7818608E-02  0.9072050E-01
         -1   -1    0    0    0  501 -0.00000000000E+00  0.00000000000E+00  0.13228654020E+03  0.13228654020E+03  0.00000000000E+00 0.  1.
          1   -1    0    0  501    0  0.00000000000E+00 -0.00000000000E+00 -0.29422973579E+04  0.29422973579E+04  0.00000000000E+00 0. -1.
         23    2    1    2    0    0  0.14974581084E+03 -0.16143807872E+03 -0.12927959723E+04  0.13146964665E+04  0.92840249206E+02 0.  0.
        254    2    1    2    0    0 -0.14974581084E+03  0.16143807872E+03 -0.15172148454E+04  0.17598874316E+04  0.86416249845E+03 0.  0.
        -24    2    4    4    0    0 -0.27049154378E+02 -0.13994459752E+03  0.39633907018E+02  0.16768684470E+03  0.78942283800E+02 0.  0.
         24    2    4    4    0    0 -0.12269665647E+03  0.30138267624E+03 -0.15568487524E+04  0.15922005869E+04  0.73747434009E+02 0.  0.
         13    1    3    3    0    0  0.11545438583E+03 -0.13903458669E+03 -0.11961987097E+04  0.12097734021E+04  0.00000000000E+00 0.  1.
        -13    1    3    3    0    0  0.34291425017E+02 -0.22403492025E+02 -0.96597262612E+02  0.10492306433E+03  0.00000000000E+00 0. -1.
          2    1    6    6  502    0 -0.12963436274E+03  0.28869369115E+03 -0.15204350457E+04  0.15530202328E+04  0.00000000000E+00 0. -1.
          1    1    5    5  503    0 -0.11614831452E+01 -0.85658512691E+02 -0.14361676899E+02  0.86861888092E+02  0.00000000000E+00 0. -1.
         -2    1    5    5    0  503 -0.25887671233E+02 -0.54286084832E+02  0.53995583917E+02  0.80824956609E+02  0.00000000000E+00 0.  1.
         -1    1    6    6    0  502  0.69377062779E+01  0.12688985090E+02 -0.36413706682E+02  0.39180354074E+02  0.00000000000E+00 0.  1.
<mgrwt>
<rscale>  0 0.12477601E+04</rscale>
<asrwt>0</asrwt>
<pdfrwt beam="1">  1        1 0.45266111E+00 0.12477601E+04</pdfrwt>
<pdfrwt beam="2">  1       -1 0.20351776E-01 0.12477601E+04</pdfrwt>
<totfact> 0.13039740E+01</totfact>
</mgrwt>
</event>
<event>
12    1  0.1494110E-007  0.1943289E+04  0.7818608E-02  0.8633604E-01
         -2   -1    0    0    0  501 -0.00000000000E+00  0.00000000000E+00  0.40649017963E+03  0.40649017963E+03  0.00000000000E+00 0.  1.
          2   -1    0    0  501    0  0.00000000000E+00 -0.00000000000E+00 -0.23225484094E+04  0.23225484094E+04  0.00000000000E+00 0. -1.
         23    2    1    2    0    0 -0.34156121151E+03 -0.11167779289E+03  0.19458569996E+03  0.41876211688E+03  0.91444656888E+02 0.  0.
        254    2    1    2    0    0  0.34156121151E+03  0.11167779289E+03 -0.21106439298E+04  0.23102764722E+04  0.86799976325E+03 0.  0.
        -24    2    4    4    0    0  0.39743703259E+03  0.17944431523E+02 -0.21358514443E+04  0.21740910080E+04  0.80821540283E+02 0.  0.
         24    2    4    4    0    0 -0.55875821076E+02  0.93733361364E+02  0.25207514553E+02  0.13618546418E+03  0.77479103308E+02 0.  0.
         11    1    3    3    0    0 -0.18623372303E+01 -0.14109740903E+02 -0.19417041388E+01  0.14363958482E+02  0.00000000000E+00 0. -1.
        -11    1    3    3    0    0 -0.33969887428E+03 -0.97568051984E+02  0.19652740410E+03  0.40439815840E+03  0.00000000000E+00 0.  1.
          2    1    6    6  502    0 -0.48800738284E+02  0.13031656406E+02 -0.24849170915E+01  0.50571839384E+02  0.00000000000E+00 0. -1.
          1    1    5    5  503    0  0.31137057714E+02 -0.19720065448E+02 -0.15677376676E+03  0.16104785403E+03  0.00000000000E+00 0. -1.
         -2    1    5    5    0  503  0.36629997487E+03  0.37664496970E+02 -0.19790776776E+04  0.20130431540E+04  0.00000000000E+00 0.  1.
         -1    1    6    6    0  502 -0.70750827920E+01  0.80701704958E+02  0.27692431645E+02  0.85613624792E+02  0.00000000000E+00 0.  1.
<mgrwt>
<rscale>  0 0.19432891E+04</rscale>
<asrwt>0</asrwt>
<pdfrwt beam="1">  1        2 0.35731515E+00 0.19432891E+04</pdfrwt>
<pdfrwt beam="2">  1       -2 0.62536950E-01 0.19432891E+04</pdfrwt>
<totfact> 0.97460931E+00</totfact>
</mgrwt>
</event>
<event>
12    1  0.1494110E-007  0.1149517E+04  0.7818608E-02  0.9158229E-01
          2   -1    0    0  501    0  0.00000000000E+00  0.00000000000E+00  0.28999058684E+04  0.28999058684E+04  0.00000000000E+00 0. -1.
         -2   -1    0    0    0  501 -0.00000000000E+00 -0.00000000000E+00 -0.11391659825E+03  0.11391659825E+03  0.00000000000E+00 0.  1.
         23    2    1    2    0    0  0.16522176932E+03  0.13185009714E+03  0.50296517097E+03  0.55308198065E+03  0.90791150136E+02 0.  0.
        254    2    1    2    0    0 -0.16522176932E+03 -0.13185009714E+03  0.22830240992E+04  0.24607404860E+04  0.89351106359E+03 0.  0.
        -24    2    4    4    0    0  0.18295309506E+03  0.29591937529E+03  0.10024046882E+04  0.10640948022E+04  0.80265045967E+02 0.  0.
         24    2    4    4    0    0 -0.34817486438E+03 -0.42776947243E+03  0.12806194110E+04  0.13966456838E+04  0.80128848492E+02 0.  0.
         13    1    3    3    0    0  0.15547104208E+03  0.13904215193E+03  0.49813352027E+03  0.54003793289E+03  0.00000000000E+00 0.  1.
        -13    1    3    3    0    0  0.97507272375E+01 -0.71920547865E+01  0.48316506993E+01  0.13044047769E+02  0.00000000000E+00 0. -1.
          2    1    6    6  502    0 -0.30792815644E+03 -0.37680763783E+03  0.10541398054E+04  0.11610402554E+04  0.00000000000E+00 0. -1.
          1    1    5    5  503    0  0.57660981553E+02  0.68682784735E+02  0.36587765312E+03  0.37670754010E+03  0.00000000000E+00 0. -1.
         -2    1    5    5    0  503  0.12529211350E+03  0.22723659056E+03  0.63652703504E+03  0.68738726213E+03  0.00000000000E+00 0.  1.
         -1    1    6    6    0  502 -0.40246707937E+02 -0.50961834605E+02  0.22647960565E+03  0.23560542833E+03  0.00000000000E+00 0.  1.
<mgrwt>
<rscale>  0 0.11495171E+04</rscale>
<asrwt>0</asrwt>
<pdfrwt beam="1">  1        2 0.44613931E+00 0.11495171E+04</pdfrwt>
<pdfrwt beam="2">  1       -2 0.17525633E-01 0.11495171E+04</pdfrwt>
<totfact> 0.54301420E+01</totfact>
</mgrwt>
</event>
<event>
12    1  0.1494110E-007  0.1403140E+04  0.7818608E-02  0.8951548E-01
          1   -1    0    0  501    0  0.00000000000E+00  0.00000000000E+00  0.15125000049E+04  0.15125000049E+04  0.00000000000E+00 0. -1.
         -1   -1    0    0    0  501 -0.00000000000E+00 -0.00000000000E+00 -0.32542198593E+03  0.32542198593E+03  0.00000000000E+00 0.  1.
         23    2    1    2    0    0 -0.50297805569E+02  0.17656351621E+03 -0.12582275713E+03  0.23311241190E+03  0.69321611841E+02 0.  0.
        254    2    1    2    0    0  0.50297805569E+02 -0.17656351621E+03  0.13129007761E+04  0.16048095789E+04  0.90443396232E+03 0.  0.
        -24    2    4    4    0    0 -0.18334962736E+03  0.21579281115E+02 -0.48617101993E+02  0.20709773211E+03  0.80268903141E+02 0.  0.
         24    2    4    4    0    0  0.23364743293E+03 -0.19814279733E+03  0.13615178781E+04  0.13977118468E+04  0.77561480793E+02 0.  0.
         13    1    3    3    0    0 -0.52345939317E+02  0.17315279386E+03 -0.13325993648E+03  0.22467798747E+03  0.00000000000E+00 0.  1.
        -13    1    3    3    0    0  0.20481337482E+01  0.34107223540E+01  0.74371793473E+01  0.84344244303E+01  0.00000000000E+00 0. -1.
          4    1    6    6  502    0  0.22031840780E+03 -0.15813221870E+03  0.12322272821E+04  0.12617171133E+04  0.00000000000E+00 0. -1.
          1    1    5    5  503    0 -0.16549029156E+03  0.39929570212E+02 -0.57967069262E+02  0.17983767207E+03  0.00000000000E+00 0. -1.
         -2    1    5    5    0  503 -0.17859335801E+02 -0.18350289097E+02  0.93499672695E+01  0.27260060035E+02  0.00000000000E+00 0.  1.
         -3    1    6    6    0  502  0.13329025124E+02 -0.40010578629E+02  0.12929059603E+03  0.13599473348E+03  0.00000000000E+00 0.  1.
<mgrwt>
<rscale>  0 0.14031404E+04</rscale>
<asrwt>0</asrwt>
<pdfrwt beam="1">  1        1 0.23269230E+00 0.14031404E+04</pdfrwt>
<pdfrwt beam="2">  1       -1 0.50064922E-01 0.14031404E+04</pdfrwt>
<totfact> 0.25026697E+01</totfact>
</mgrwt>
</event>
<event>
12    1  0.1494110E-007  0.1582673E+04  0.7818608E-02  0.8831264E-01
         -1   -1    0    0    0  501 -0.00000000000E+00  0.00000000000E+00  0.69600226830E+03  0.69600226830E+03  0.00000000000E+00 0.  1.
          1   -1    0    0  501    0  0.00000000000E+00 -0.00000000000E+00 -0.89972870864E+03  0.89972870864E+03  0.00000000000E+00 0. -1.
         23    2    1    2    0    0  0.20158743113E+03 -0.48892933427E+03 -0.68559541026E+02  0.54082986517E+03  0.90039691810E+02 0.  0.
        254    2    1    2    0    0 -0.20158743113E+03  0.48892933427E+03 -0.13516689932E+03  0.10549011118E+04  0.90269423319E+03 0.  0.
        -24    2    4    4    0    0 -0.18960849244E+02  0.72823561805E+03 -0.73519274736E+02  0.73661859600E+03  0.80717055325E+02 0.  0.
         24    2    4    4    0    0 -0.18262658189E+03 -0.23930628378E+03 -0.61647624585E+02  0.31828251576E+03  0.82966043360E+02 0.  0.
         11    1    3    3    0    0  0.89473271408E+02 -0.18254919686E+03  0.15618758334E+02  0.20389610390E+03  0.00000000000E+00 0.  1.
        -11    1    3    3    0    0  0.11211415973E+03 -0.30638013740E+03 -0.84178299360E+02  0.33693376128E+03  0.00000000000E+00 0. -1.
          4    1    6    6  502    0 -0.70600792290E+02 -0.34034342296E+02 -0.13628190908E+02  0.79552095604E+02  0.00000000000E+00 0. -1.
          3    1    5    5  503    0 -0.30193423850E+02  0.12201974024E+03  0.12486271797E+01  0.12570608148E+03  0.00000000000E+00 0. -1.
         -4    1    5    5    0  503  0.11232574606E+02  0.60621587781E+03 -0.74767901916E+02  0.61091251452E+03  0.00000000000E+00 0.  1.
         -3    1    6    6    0  502 -0.11202578960E+03 -0.20527194149E+03 -0.48019433678E+02  0.23873042016E+03  0.00000000000E+00 0.  1.
<mgrwt>
<rscale>  0 0.15826727E+04</rscale>
<asrwt>0</asrwt>
<pdfrwt beam="1">  1        1 0.13841980E+00 0.15826727E+04</pdfrwt>
<pdfrwt beam="2">  1       -1 0.10707727E+00 0.15826727E+04</pdfrwt>
<totfact> 0.14230320E+01</totfact>
</mgrwt>
</event>
<event>
12    1  0.1494110E-007  0.1459499E+04  0.7818608E-02  0.8911841E-01
         -2   -1    0    0    0  501 -0.00000000000E+00  0.00000000000E+00  0.12013477975E+04  0.12013477975E+04  0.00000000000E+00 0.  1.
          2   -1    0    0  501    0  0.00000000000E+00 -0.00000000000E+00 -0.44328086357E+03  0.44328086357E+03  0.00000000000E+00 0. -1.
         23    2    1    2    0    0  0.21050461633E+02 -0.34407121432E+03  0.41504921324E+03  0.54724536560E+03  0.91561554678E+02 0.  0.
        254    2    1    2    0    0 -0.21050461633E+02  0.34407121432E+03  0.34301772070E+03  0.10973832955E+04  0.98374835097E+03 0.  0.
        -24    2    4    4    0    0  0.41139837590E+03 -0.72857745974E+02  0.62997631258E+02  0.42965192728E+03  0.77943583645E+02 0.  0.
         24    2    4    4    0    0 -0.43244883753E+03  0.41692896030E+03  0.28002008944E+03  0.66773136820E+03  0.81315278804E+02 0.  0.
         13    1    3    3    0    0 -0.10614734104E+02 -0.18813690352E+03  0.16289387799E+03  0.24908348506E+03  0.00000000000E+00 0. -1.
        -13    1    3    3    0    0  0.31665195737E+02 -0.15593431080E+03  0.25215533525E+03  0.29816188053E+03  0.00000000000E+00 0.  1.
          2    1    6    6  502    0 -0.18002617936E+03  0.14123519980E+03  0.71606381410E+02  0.23975879708E+03  0.00000000000E+00 0. -1.
          1    1    5    5  503    0  0.18506494958E+03 -0.13003164729E+02  0.61771234618E+02  0.19553466006E+03  0.00000000000E+00 0. -1.
         -2    1    5    5    0  503  0.22633342632E+03 -0.59854581245E+02  0.12263966397E+01  0.23411726723E+03  0.00000000000E+00 0.  1.
         -1    1    6    6    0  502 -0.25242265817E+03  0.27569376049E+03  0.20841370803E+03  0.42797257112E+03  0.00000000000E+00 0.  1.
<mgrwt>
<rscale>  0 0.14594992E+04</rscale>
<asrwt>0</asrwt>
<pdfrwt beam="1">  1        2 0.68197056E-01 0.14594992E+04</pdfrwt>
<pdfrwt beam="2">  1       -2 0.18482274E+00 0.14594992E+04</pdfrwt>
<totfact> 0.11507904E+01</totfact>
</mgrwt>
</event>
<event>
12    1  0.1494110E-007  0.1503137E+04  0.7818608E-02  0.8882370E-01
         -1   -1    0    0    0  501 -0.00000000000E+00  0.00000000000E+00  0.54666430973E+03  0.54666430973E+03  0.00000000000E+00 0.  1.
          1   -1    0    0  501    0  0.00000000000E+00 -0.00000000000E+00 -0.10332756201E+04  0.10332756201E+04  0.00000000000E+00 0. -1.
         23    2    1    2    0    0 -0.19573697429E+03 -0.35756159868E+03  0.11421115329E+03  0.43311374927E+03  0.91542734900E+02 0.  0.
        254    2    1    2    0    0  0.19573697429E+03  0.35756159868E+03 -0.60082246365E+03  0.11468261805E+04  0.88772709522E+03 0.  0.
        -24    2    4    4    0    0  0.44942987133E+03  0.15058186743E+03 -0.26660907759E+02  0.48113886629E+03  0.78241271758E+02 0.  0.
         24    2    4    4    0    0 -0.25369289704E+03  0.20697973125E+03 -0.57416155589E+03  0.66568731426E+03  0.79230126456E+02 0.  0.
         11    1    3    3    0    0 -0.24256032059E+02 -0.47108900652E+01  0.13161895965E+02  0.27996126194E+02  0.00000000000E+00 0. -1.
        -11    1    3    3    0    0 -0.17148094224E+03 -0.35285070862E+03  0.10104925733E+03  0.40511762308E+03  0.00000000000E+00 0.  1.
          4    1    6    6  502    0 -0.16658693805E+03  0.10406486955E+03 -0.39819808526E+03  0.44400722979E+03  0.00000000000E+00 0. -1.
          3    1    5    5  503    0  0.41576286525E+03  0.12701651957E+03 -0.51678931747E+01  0.43476276690E+03  0.00000000000E+00 0. -1.
         -4    1    5    5    0  503  0.33667006082E+02  0.23565347861E+02 -0.21493014585E+02  0.46376099386E+02  0.00000000000E+00 0.  1.
         -3    1    6    6    0  502 -0.87105958991E+02  0.10291486170E+03 -0.17596347064E+03  0.22168008447E+03  0.00000000000E+00 0.  1.
<mgrwt>
<rscale>  0 0.15031366E+04</rscale>
<asrwt>0</asrwt>
<pdfrwt beam="1">  1        1 0.15896548E+00 0.15031366E+04</pdfrwt>
<pdfrwt beam="2">  1       -1 0.84102202E-01 0.15031366E+04</pdfrwt>
<totfact> 0.19319233E+01</totfact>
</mgrwt>
</event>
<event>
12    1  0.1494110E-007  0.1245446E+04  0.7818608E-02  0.9073982E-01
         -1   -1    0    0    0  501 -0.00000000000E+00  0.00000000000E+00  0.77788619942E+03  0.77788619942E+03  0.00000000000E+00 0.  1.
          1   -1    0    0  501    0  0.00000000000E+00 -0.00000000000E+00 -0.49850984727E+03  0.49850984727E+03  0.00000000000E+00 0. -1.
         23    2    1    2    0    0 -0.20361304517E+03  0.23314348060E+03  0.12840875504E+03  0.34818878695E+03  0.94511736202E+02 0.  0.
        254    2    1    2    0    0  0.20361304517E+03 -0.23314348060E+03  0.15096759710E+03  0.92820725974E+03  0.86195321622E+03 0.  0.
        -24    2    4    4    0    0  0.31272906624E+03  0.24753163720E+03  0.13145223033E+03  0.42810133202E+03  0.83184621961E+02 0.  0.
         24    2    4    4    0    0 -0.10911602106E+03 -0.48067511780E+03  0.19515366769E+02  0.50010592772E+03  0.82281313081E+02 0.  0.
         13    1    3    3    0    0 -0.81721357294E+02  0.62453749156E+02  0.86292380952E+02  0.13425805760E+03  0.00000000000E+00 0.  1.
        -13    1    3    3    0    0 -0.12189168788E+03  0.17068973144E+03  0.42116374091E+02  0.21393072935E+03  0.00000000000E+00 0. -1.
          4    1    6    6  502    0 -0.77381234017E+01 -0.21692218246E+03  0.13429526320E+02  0.21747520313E+03  0.00000000000E+00 0. -1.
          3    1    5    5  503    0  0.41854390052E+02  0.68108626933E+02  0.72752305457E+01  0.80271439559E+02  0.00000000000E+00 0. -1.
         -4    1    5    5    0  503  0.27087467618E+03  0.17942301027E+03  0.12417699978E+03  0.34782989246E+03  0.00000000000E+00 0.  1.
         -3    1    6    6    0  502 -0.10137789766E+03 -0.26375293534E+03  0.60858404486E+01  0.28263072460E+03  0.00000000000E+00 0.  1.
<mgrwt>
<rscale>  0 0.12454460E+04</rscale>
<asrwt>0</asrwt>
<pdfrwt beam="1">  1        1 0.76693823E-01 0.12454460E+04</pdfrwt>
<pdfrwt beam="2">  1       -1 0.11967480E+00 0.12454460E+04</pdfrwt>
<totfact> 0.27372643E+01</totfact>
</mgrwt>
</event>
<event>
12    1  0.1494110E-007  0.2281080E+04  0.7818608E-02  0.8485419E-01
         -2   -1    0    0    0  501 -0.00000000000E+00  0.00000000000E+00  0.84180806999E+03  0.84180806999E+03  0.00000000000E+00 0.  1.
          2   -1    0    0  501    0  0.00000000000E+00 -0.00000000000E+00 -0.15452826057E+04  0.15452826057E+04  0.00000000000E+00 0. -1.
         23    2    1    2    0    0 -0.60858117236E+03 -0.51629702258E+03 -0.85866602393E+03  0.11759012385E+04  0.92210211681E+02 0.  0.
        254    2    1    2    0    0  0.60858117236E+03  0.51629702258E+03  0.15519148824E+03  0.12111894372E+04  0.89775375012E+03 0.  0.
        -24    2    4    4    0    0  0.19330656811E+03  0.20958836734E+03  0.50307142187E+03  0.58358003879E+03  0.78677145172E+02 0.  0.
         24    2    4    4    0    0  0.41527460425E+03  0.30670865523E+03 -0.34787993363E+03  0.62760939839E+03  0.79686338840E+02 0.  0.
         13    1    3    3    0    0 -0.57024689474E+03 -0.49132837772E+03 -0.77395210775E+03  0.10796235273E+04  0.00000000000E+00 0. -1.
        -13    1    3    3    0    0 -0.38334277618E+02 -0.24968644863E+02 -0.84713916182E+02  0.96277711137E+02  0.00000000000E+00 0.  1.
          4    1    6    6  502    0  0.20575264847E+03  0.15267039075E+03 -0.22053851450E+03  0.33805271327E+03  0.00000000000E+00 0. -1.
          3    1    5    5  503    0  0.15242396968E+03  0.18309100361E+03  0.35357611321E+03  0.42634663124E+03  0.00000000000E+00 0. -1.
         -4    1    5    5    0  503  0.40882598429E+02  0.26497363738E+02  0.14949530866E+03  0.15723340756E+03  0.00000000000E+00 0.  1.
         -3    1    6    6    0  502  0.20952195577E+03  0.15403826448E+03 -0.12734141912E+03  0.28955668512E+03  0.00000000000E+00 0.  1.
<mgrwt>
<rscale>  0 0.22810799E+04</rscale>
<asrwt>0</asrwt>
<pdfrwt beam="1">  1        2 0.23773579E+00 0.22810799E+04</pdfrwt>
<pdfrwt beam="2">  1       -2 0.12950893E+00 0.22810799E+04</pdfrwt>
<totfact> 0.47662772E+00</totfact>
</mgrwt>
</event>
<event>
12    1  0.1494110E-007  0.1471867E+04  0.7818608E-02  0.8903380E-01
          2   -1    0    0  501    0  0.00000000000E+00  0.00000000000E+00  0.25609746651E+04  0.25609746651E+04  0.00000000000E+00 0. -1.
         -2   -1    0    0    0  501 -0.00000000000E+00 -0.00000000000E+00 -0.21148116014E+03  0.21148116014E+03  0.00000000000E+00 0.  1.
         23    2    1    2    0    0  0.28488734943E+03 -0.71808335498E+02  0.14420542246E+04  0.14744160370E+04  0.89805482874E+02 0.  0.
        254    2    1    2    0    0 -0.28488734943E+03  0.71808335498E+02  0.90743928045E+03  0.12980397883E+04  0.88042262881E+03 0.  0.
        -24    2    4    4    0    0 -0.53669332943E+03 -0.55937000028E+02  0.29822333891E+03  0.62171633667E+03  0.80158378064E+02 0.  0.
         24    2    4    4    0    0  0.25180598000E+03  0.12774533553E+03  0.60921594154E+03  0.67632345160E+03  0.80896387129E+02 0.  0.
         11    1    3    3    0    0  0.20225368823E+03 -0.33740118254E+02  0.11620318933E+04  0.11799843520E+04  0.00000000000E+00 0. -1.
        -11    1    3    3    0    0  0.82633661197E+02 -0.38068217245E+02  0.28002233129E+03  0.29443168503E+03  0.00000000000E+00 0.  1.
          4    1    6    6  502    0  0.20905948050E+03  0.73794390007E+02  0.41903774748E+03  0.47407184286E+03  0.00000000000E+00 0. -1.
          1    1    5    5  503    0 -0.35169182846E+03 -0.17813996260E+02  0.23134719591E+03  0.42133835065E+03  0.00000000000E+00 0. -1.
         -4    1    5    5    0  503 -0.18500150097E+03 -0.38123003767E+02  0.66876143000E+02  0.20037798602E+03  0.00000000000E+00 0.  1.
         -3    1    6    6    0  502  0.42746499501E+02  0.53950945519E+02  0.19017819406E+03  0.20225160874E+03  0.00000000000E+00 0.  1.
<mgrwt>
<rscale>  0 0.14718667E+04</rscale>
<asrwt>0</asrwt>
<pdfrwt beam="1">  1        2 0.39399608E+00 0.14718667E+04</pdfrwt>
<pdfrwt beam="2">  1       -2 0.32535565E-01 0.14718667E+04</pdfrwt>
<totfact> 0.27437997E+01</totfact>
</mgrwt>
</event>
<event>
12    1  0.1494110E-007  0.1713202E+04  0.7818608E-02  0.8753870E-01
         -1   -1    0    0    0  501 -0.00000000000E+00  0.00000000000E+00  0.33761133088E+03  0.33761133088E+03  0.00000000000E+00 0.  1.
          1   -1    0    0  501    0  0.00000000000E+00 -0.00000000000E+00 -0.21734032234E+04  0.21734032234E+04  0.00000000000E+00 0. -1.
         23    2    1    2    0    0 -0.24295556783E+03 -0.48171006807E+03 -0.24074004780E+03  0.59749119753E+03  0.89263446599E+02 0.  0.
        254    2    1    2    0    0  0.24295556783E+03  0.48171006807E+03 -0.15950518447E+04  0.19135233567E+04  0.90901553994E+03 0.  0.
        -24    2    4    4    0    0 -0.17305977729E+03 -0.15571134132E+03 -0.18146952397E+03  0.30605150664E+03  0.80874150752E+02 0.  0.
         24    2    4    4    0    0  0.41601534511E+03  0.63742140938E+03 -0.14135823207E+04  0.16074718501E+04  0.79849551128E+02 0.  0.
         13    1    3    3    0    0 -0.18827737750E+03 -0.30438304398E+03 -0.18951265930E+03  0.40498451375E+03  0.00000000000E+00 0.  1.
        -13    1    3    3    0    0 -0.54678190330E+02 -0.17732702409E+03 -0.51227388494E+02  0.19250668378E+03  0.00000000000E+00 0. -1.
          2    1    6    6  502    0  0.18529182904E+03  0.34773983481E+03 -0.68795529728E+03  0.79280422910E+03  0.00000000000E+00 0. -1.
          1    1    5    5  503    0 -0.12727129755E+02  0.85027856827E+01 -0.21100877197E+02  0.26067685256E+02  0.00000000000E+00 0. -1.
         -2    1    5    5    0  503 -0.16033264753E+03 -0.16421412700E+03 -0.16036864677E+03  0.27998382139E+03  0.00000000000E+00 0.  1.
         -1    1    6    6    0  502  0.23072351608E+03  0.28968157458E+03 -0.72562702344E+03  0.81466762097E+03  0.00000000000E+00 0.  1.
<mgrwt>
<rscale>  0 0.17132023E+04</rscale>
<asrwt>0</asrwt>
<pdfrwt beam="1">  1        1 0.33436973E+00 0.17132023E+04</pdfrwt>
<pdfrwt beam="2">  1       -1 0.51940204E-01 0.17132023E+04</pdfrwt>
<totfact> 0.80620135E+00</totfact>
</mgrwt>
</event>
<event>
12    1  0.1494110E-007  0.2147316E+04  0.7818608E-02  0.8540682E-01
          1   -1    0    0  501    0  0.00000000000E+00  0.00000000000E+00  0.15727324969E+04  0.15727324969E+04  0.00000000000E+00 0. -1.
         -1   -1    0    0    0  501 -0.00000000000E+00 -0.00000000000E+00 -0.73295464726E+03  0.73295464726E+03  0.00000000000E+00 0.  1.
         23    2    1    2    0    0 -0.15334840631E+03 -0.18100375560E+03 -0.55879093631E+03  0.61352121938E+03  0.88785600596E+02 0.  0.
        254    2    1    2    0    0  0.15334840631E+03  0.18100375560E+03  0.13985687860E+04  0.16921659248E+04  0.92257941377E+03 0.  0.
        -24    2    4    4    0    0  0.51445431140E+03 -0.37623770635E+02  0.72776682191E+03  0.89545251846E+03  0.78178507983E+02 0.  0.
         24    2    4    4    0    0 -0.36110590509E+03  0.21862752624E+03  0.67080196408E+03  0.79671340636E+03  0.81126487281E+02 0.  0.
         13    1    3    3    0    0 -0.90991774240E+02 -0.42198840010E+02 -0.19806728570E+03  0.22201552815E+03  0.00000000000E+00 0. -1.
        -13    1    3    3    0    0 -0.62356632069E+02 -0.13880491559E+03 -0.36072365061E+03  0.39150569123E+03  0.00000000000E+00 0.  1.
          4    1    6    6  502    0 -0.34220053746E+03  0.22211657390E+03  0.61793741933E+03  0.74046177109E+03  0.00000000000E+00 0. -1.
          1    1    5    5  503    0  0.49513594529E+03 -0.25978826379E+02  0.67054679361E+03  0.83394694445E+03  0.00000000000E+00 0. -1.
         -4    1    5    5    0  503  0.19318366115E+02 -0.11644944256E+02  0.57220028298E+02  0.61505574012E+02  0.00000000000E+00 0.  1.
         -3    1    6    6    0  502 -0.18905367628E+02 -0.34890476585E+01  0.52864544749E+02  0.56251635267E+02  0.00000000000E+00 0.  1.
<mgrwt>
<rscale>  0 0.21473161E+04</rscale>
<asrwt>0</asrwt>
<pdfrwt beam="1">  1        1 0.24195885E+00 0.21473161E+04</pdfrwt>
<pdfrwt beam="2">  1       -1 0.11276225E+00 0.21473161E+04</pdfrwt>
<totfact> 0.38393588E+00</totfact>
</mgrwt>
</event>
<event>
12    1  0.1494110E-007  0.2037719E+04  0.7818608E-02  0.8589186E-01
         -1   -1    0    0    0  501 -0.00000000000E+00  0.00000000000E+00  0.10256921342E+04  0.10256921342E+04  0.00000000000E+00 0.  1.
          1   -1    0    0  501    0  0.00000000000E+00 -0.00000000000E+00 -0.10120726739E+04  0.10120726739E+04  0.00000000000E+00 0. -1.
         23    2    1    2    0    0  0.16479120258E+03  0.23299407785E+03 -0.75543508254E+03  0.81272228880E+03  0.91613176019E+02 0.  0.
        254    2    1    2    0    0 -0.16479120258E+03 -0.23299407785E+03  0.76905454281E+03  0.12250425193E+04  0.90985817772E+03 0.  0.
        -24    2    4    4    0    0 -0.49114228641E+03 -0.29681857461E+03  0.32482455115E+03  0.66444626256E+03  0.81583301393E+02 0.  0.
         24    2    4    4    0    0  0.32635108383E+03  0.63824496752E+02  0.44422999166E+03  0.56059625677E+03  0.79682377647E+02 0.  0.
         13    1    3    3    0    0  0.17309094670E+03  0.23184245873E+03 -0.74578682475E+03  0.79994336641E+03  0.00000000000E+00 0. -1.
        -13    1    3    3    0    0 -0.82997441189E+01  0.11516191264E+01 -0.96482577950E+01  0.12778922393E+02  0.00000000000E+00 0.  1.
          2    1    6    6  502    0  0.13049332265E+02 -0.13711723726E+01  0.22288453256E-01  0.13121192133E+02  0.00000000000E+00 0. -1.
          1    1    5    5  503    0 -0.53994826815E+02 -0.85682345932E+01  0.44572695555E+02  0.70537799483E+02  0.00000000000E+00 0. -1.
         -2    1    5    5    0  503 -0.43714745959E+03 -0.28825034001E+03  0.28025185560E+03  0.59390846308E+03  0.00000000000E+00 0.  1.
         -1    1    6    6    0  502  0.31330175157E+03  0.65195669125E+02  0.44420770321E+03  0.54747506463E+03  0.00000000000E+00 0.  1.
<mgrwt>
<rscale>  0 0.20377193E+04</rscale>
<asrwt>0</asrwt>
<pdfrwt beam="1">  1        1 0.15570349E+00 0.20377193E+04</pdfrwt>
<pdfrwt beam="2">  1       -1 0.15779879E+00 0.20377193E+04</pdfrwt>
<totfact> 0.41584629E+00</totfact>
</mgrwt>
</event>
<event>
12    1  0.1494110E-007  0.1463117E+04  0.7818608E-02  0.8909357E-01
          1   -1    0    0  501    0  0.00000000000E+00  0.00000000000E+00  0.88708674864E+03  0.88708674864E+03  0.00000000000E+00 0. -1.
         -1   -1    0    0    0  501 -0.00000000000E+00 -0.00000000000E+00 -0.60329803535E+03  0.60329803535E+03  0.00000000000E+00 0.  1.
         23    2    1    2    0    0  0.19927260764E+03 -0.18036105354E+03  0.49143159745E+03  0.56718073116E+03  0.89158763145E+02 0.  0.
        254    2    1    2    0    0 -0.19927260764E+03  0.18036105354E+03 -0.20764288416E+03  0.92320405282E+03  0.85845819584E+03 0.  0.
        -24    2    4    4    0    0  0.28996816578E+03 -0.11325223635E+03 -0.38563971645E+02  0.32363467676E+03  0.79653109725E+02 0.  0.
         24    2    4    4    0    0 -0.48924077342E+03  0.29361328989E+03 -0.16907891251E+03  0.59956937606E+03  0.73009997113E+02 0.  0.
         11    1    3    3    0    0  0.65511289183E+02 -0.11450575262E+03  0.26583313803E+03  0.29676683384E+03  0.00000000000E+00 0. -1.
        -11    1    3    3    0    0  0.13376131845E+03 -0.65855300924E+02  0.22559845941E+03  0.27041389732E+03  0.00000000000E+00 0.  1.
          4    1    6    6  502    0 -0.46586963651E+03  0.29418918973E+03 -0.15537686451E+03  0.57247163039E+03  0.00000000000E+00 0. -1.
          1    1    5    5  503    0  0.24185949007E+03 -0.12346150521E+03 -0.39735903598E+02  0.27444070077E+03  0.00000000000E+00 0. -1.
         -2    1    5    5    0  503  0.48108675711E+02  0.10209268857E+02  0.11719319533E+01  0.49193975991E+02  0.00000000000E+00 0.  1.
         -3    1    6    6    0  502 -0.23371136904E+02 -0.57589983912E+00 -0.13702048004E+02  0.27097745669E+02  0.00000000000E+00 0.  1.
<mgrwt>
<rscale>  0 0.14631168E+04</rscale>
<asrwt>0</asrwt>
<pdfrwt beam="1">  1        1 0.13647488E+00 0.14631168E+04</pdfrwt>
<pdfrwt beam="2">  1       -1 0.92815082E-01 0.14631168E+04</pdfrwt>
<totfact> 0.20416749E+01</totfact>
</mgrwt>
</event>
<event>
12    1  0.1494110E-007  0.1742961E+04  0.7818608E-02  0.8737234E-01
          2   -1    0    0  501    0  0.00000000000E+00  0.00000000000E+00  0.83606405747E+03  0.83606405747E+03  0.00000000000E+00 0. -1.
         -2   -1    0    0    0  501 -0.00000000000E+00 -0.00000000000E+00 -0.90839748807E+03  0.90839748807E+03  0.00000000000E+00 0.  1.
         23    2    1    2    0    0 -0.38871106826E+02 -0.56131306514E+03 -0.31631023118E+03  0.65181569439E+03  0.90709520215E+02 0.  0.
        254    2    1    2    0    0  0.38871106826E+02  0.56131306514E+03  0.24397680057E+03  0.10926458511E+04  0.90430468138E+03 0.  0.
        -24    2    4    4    0    0  0.34013079419E+03  0.37427132104E+02  0.32336045172E+03  0.47788617770E+03  0.81996766525E+02 0.  0.
         24    2    4    4    0    0 -0.30125968737E+03  0.52388593304E+03 -0.79383651145E+02  0.61475967345E+03  0.80086340683E+02 0.  0.
         11    1    3    3    0    0  0.27465569178E+02 -0.17783535289E+03 -0.11628715763E+03  0.21424862487E+03  0.00000000000E+00 0. -1.
        -11    1    3    3    0    0 -0.66336676004E+02 -0.38347771225E+03 -0.20002307355E+03  0.43756706952E+03  0.00000000000E+00 0.  1.
          4    1    6    6  502    0 -0.59761802236E+02  0.57460742694E+02 -0.25646719076E+02  0.86781127884E+02  0.00000000000E+00 0. -1.
          1    1    5    5  503    0  0.10252716559E+03  0.24990467665E+02  0.15042004522E+03  0.18374583849E+03  0.00000000000E+00 0. -1.
         -2    1    5    5    0  503  0.23760362861E+03  0.12436664439E+02  0.17294040650E+03  0.29414033921E+03  0.00000000000E+00 0.  1.
         -3    1    6    6    0  502 -0.24149788513E+03  0.46642519034E+03 -0.53736932069E+02  0.52797854557E+03  0.00000000000E+00 0.  1.
<mgrwt>
<rscale>  0 0.17429613E+04</rscale>
<asrwt>0</asrwt>
<pdfrwt beam="1">  1        2 0.12862524E+00 0.17429613E+04</pdfrwt>
<pdfrwt beam="2">  1       -2 0.13975346E+00 0.17429613E+04</pdfrwt>
<totfact> 0.11104844E+01</totfact>
</mgrwt>
</event>
<event>
12    1  0.1494110E-007  0.2195457E+04  0.7818608E-02  0.8520322E-01
          2   -1    0    0  501    0  0.00000000000E+00  0.00000000000E+00  0.12016515132E+04  0.12016515132E+04  0.00000000000E+00 0. -1.
         -2   -1    0    0    0  501 -0.00000000000E+00 -0.00000000000E+00 -0.10027926640E+04  0.10027926640E+04  0.00000000000E+00 0.  1.
         23    2    1    2    0    0 -0.11954583489E+03 -0.79977001593E+03 -0.35293868725E+03  0.88703279270E+03  0.91313598991E+02 0.  0.
        254    2    1    2    0    0  0.11954583489E+03  0.79977001593E+03  0.55179753650E+03  0.13174113845E+04  0.88157186297E+03 0.  0.
        -24    2    4    4    0    0 -0.16649205216E+03  0.87103282668E+03  0.42926294494E+03  0.98850982359E+03  0.80418945887E+02 0.  0.
         24    2    4    4    0    0  0.28603788706E+03 -0.71262810751E+02  0.12253459156E+03  0.32890156086E+03  0.79154592920E+02 0.  0.
         11    1    3    3    0    0 -0.88719659805E+01 -0.36988603313E+02  0.27804725481E+01  0.38139213193E+02  0.00000000000E+00 0. -1.
        -11    1    3    3    0    0 -0.11067386891E+03 -0.76278141261E+03 -0.35571915980E+03  0.84889357951E+03  0.00000000000E+00 0.  1.
          4    1    6    6  502    0  0.29075177148E+03 -0.72932042158E+02  0.11799179879E+03  0.32214552608E+03  0.00000000000E+00 0. -1.
          1    1    5    5  503    0 -0.13848586614E+03  0.57013136759E+03  0.25565352011E+03  0.63998971381E+03  0.00000000000E+00 0. -1.
         -2    1    5    5    0  503 -0.28006186019E+02  0.30090145908E+03  0.17360942483E+03  0.34852010979E+03  0.00000000000E+00 0.  1.
         -3    1    6    6    0  502 -0.47138844226E+01  0.16692314070E+01  0.45427927641E+01  0.67560347791E+01  0.00000000000E+00 0.  1.
<mgrwt>
<rscale>  0 0.21954565E+04</rscale>
<asrwt>0</asrwt>
<pdfrwt beam="1">  1        2 0.18486946E+00 0.21954565E+04</pdfrwt>
<pdfrwt beam="2">  1       -2 0.15427580E+00 0.21954565E+04</pdfrwt>
<totfact> 0.48039759E+00</totfact>
</mgrwt>
</event>
<event>
12    1  0.1494110E-007  0.1305033E+04  0.7818608E-02  0.9025584E-01
         -1   -1    0    0    0  501 -0.00000000000E+00  0.00000000000E+00  0.57355596336E+03  0.57355596336E+03  0.00000000000E+00 0. -1.
          1   -1    0    0  501    0  0.00000000000E+00 -0.00000000000E+00 -0.74234696486E+03  0.74234696486E+03  0.00000000000E+00 0.  1.
         23    2    1    2    0    0  0.24600219587E+03 -0.21664465691E+02 -0.28508027514E+03  0.38785853756E+03  0.90427055907E+02 0.  0.
        254    2    1    2    0    0 -0.24600219587E+03  0.21664465691E+02  0.11628927364E+03  0.92804439065E+03  0.88699310393E+03 0.  0.
        -24    2    4    4    0    0 -0.17480132710E+03 -0.18172450510E+03  0.45030183524E+03  0.52244868946E+03  0.81250172841E+02 0.  0.
         24    2    4    4    0    0 -0.71200868775E+02  0.20338897079E+03 -0.33401256161E+03  0.40559570119E+03  0.80665013230E+02 0.  0.
         13    1    3    3    0    0 -0.26314577954E+01 -0.12816556960E+02 -0.23238921787E+02  0.26669011760E+02  0.00000000000E+00 0. -1.
        -13    1    3    3    0    0  0.24863365367E+03 -0.88479087307E+01 -0.26184135335E+03  0.36118952580E+03  0.00000000000E+00 0.  1.
          4    1    6    6  502    0 -0.89007602230E+02  0.16646343428E+03 -0.26573028444E+03  0.32595246935E+03  0.00000000000E+00 0. -1.
          3    1    5    5  503    0 -0.21381867277E+02 -0.71650390766E+02  0.10518135434E+03  0.12905068790E+03  0.00000000000E+00 0. -1.
         -4    1    5    5    0  503 -0.15341945982E+03 -0.11007411434E+03  0.34512048090E+03  0.39339800156E+03  0.00000000000E+00 0.  1.
         -3    1    6    6    0  502  0.17806733454E+02  0.36925536516E+02 -0.68282277165E+02  0.79643231842E+02  0.00000000000E+00 0.  1.
<mgrwt>
<rscale>  0 0.13050326E+04</rscale>
<asrwt>0</asrwt>
<pdfrwt beam="1">  1        1 0.11420722E+00 0.13050326E+04</pdfrwt>
<pdfrwt beam="2">  1       -1 0.88239379E-01 0.13050326E+04</pdfrwt>
<totfact> 0.30855023E+01</totfact>
</mgrwt>
</event>
<event>
12    1  0.1494110E-007  0.2046117E+04  0.7818608E-02  0.8585358E-01
         -2   -1    0    0    0  501 -0.00000000000E+00  0.00000000000E+00  0.51389509973E+03  0.51389509973E+03  0.00000000000E+00 0.  1.
          2   -1    0    0  501    0  0.00000000000E+00 -0.00000000000E+00 -0.20366963513E+04  0.20366963513E+04  0.00000000000E+00 0. -1.
         23    2    1    2    0    0 -0.35261163412E+03 -0.28989974011E+03 -0.14700670748E+04  0.15420070102E+04  0.91167928622E+02 0.  0.
        254    2    1    2    0    0  0.35261163412E+03  0.28989974011E+03 -0.52734176821E+02  0.10085844409E+04  0.89782228597E+03 0.  0.
        -24    2    4    4    0    0  0.20577327639E+03  0.55596418922E+03 -0.23717064651E+03  0.64391687109E+03  0.83307864802E+02 0.  0.
         24    2    4    4    0    0  0.14683835773E+03 -0.26606444911E+03  0.18443646969E+03  0.36466756981E+03  0.81325461803E+02 0.  0.
         13    1    3    3    0    0 -0.18569491644E+03 -0.20232821767E+03 -0.94683732685E+03  0.98586014890E+03  0.00000000000E+00 0.  1.
        -13    1    3    3    0    0 -0.16691671768E+03 -0.87571522439E+02 -0.52322974792E+03  0.55614686126E+03  0.00000000000E+00 0. -1.
          4    1    6    6  502    0  0.15233196549E+03 -0.21896726663E+03  0.14960147832E+03  0.30583049861E+03  0.00000000000E+00 0. -1.
          1    1    5    5  503    0  0.20867167737E+03  0.55453494298E+03 -0.24034289922E+03  0.63938844307E+03  0.00000000000E+00 0. -1.
         -2    1    5    5    0  503 -0.28984009866E+01  0.14292462398E+01  0.31722527094E+01  0.45284280215E+01  0.00000000000E+00 0.  1.
         -3    1    6    6    0  502 -0.54936077534E+01 -0.47097182472E+02  0.34834991373E+02  0.58837071196E+02  0.00000000000E+00 0.  1.
<mgrwt>
<rscale>  0 0.20461166E+04</rscale>
<asrwt>0</asrwt>
<pdfrwt beam="1">  1        2 0.31333790E+00 0.20461166E+04</pdfrwt>
<pdfrwt beam="2">  1       -2 0.79060784E-01 0.20461166E+04</pdfrwt>
<totfact> 0.83739793E+00</totfact>
</mgrwt>
</event>
<event>
12    1  0.1494110E-007  0.1982621E+04  0.7818608E-02  0.8614789E-01
         -2   -1    0    0    0  501 -0.00000000000E+00  0.00000000000E+00  0.53141448720E+03  0.53141448720E+03  0.00000000000E+00 0.  1.
          2   -1    0    0  501    0  0.00000000000E+00 -0.00000000000E+00 -0.18492084922E+04  0.18492084922E+04  0.00000000000E+00 0. -1.
         23    2    1    2    0    0  0.17301229285E+03 -0.68759689108E+03 -0.52208278697E+03  0.88512703422E+03  0.90314407239E+02 0.  0.
        254    2    1    2    0    0 -0.17301229285E+03  0.68759689108E+03 -0.79571121805E+03  0.14954959452E+04  0.10491086891E+04 0.  0.
        -24    2    4    4    0    0  0.37458992431E+03  0.35985301120E+03 -0.77114504693E+02  0.53106832377E+03  0.79215633634E+02 0.  0.
         24    2    4    4    0    0 -0.54760221716E+03  0.32774387988E+03 -0.71859671335E+03  0.96442762142E+03  0.80344019541E+02 0.  0.
         11    1    3    3    0    0  0.16578554923E+02 -0.15218705652E+03 -0.15197505879E+03  0.21571315943E+03  0.00000000000E+00 0.  1.
        -11    1    3    3    0    0  0.15643373793E+03 -0.53540983456E+03 -0.37010772817E+03  0.66941387479E+03  0.00000000000E+00 0. -1.
          2    1    6    6  502    0 -0.37137305457E+03  0.19502427399E+03 -0.51511403565E+03  0.66430029567E+03  0.00000000000E+00 0. -1.
          1    1    5    5  503    0  0.34712361432E+03  0.31742696979E+03 -0.48198041391E+02  0.47284007441E+03  0.00000000000E+00 0. -1.
         -2    1    5    5    0  503  0.27466309991E+02  0.42426041408E+02 -0.28916463301E+02  0.58228249363E+02  0.00000000000E+00 0.  1.
         -1    1    6    6    0  502 -0.17622916259E+03  0.13271960589E+03 -0.20348267770E+03  0.30012732575E+03  0.00000000000E+00 0.  1.
<mgrwt>
<rscale>  0 0.19826207E+04</rscale>
<asrwt>0</asrwt>
<pdfrwt beam="1">  1        2 0.28449361E+00 0.19826207E+04</pdfrwt>
<pdfrwt beam="2">  1       -2 0.81756075E-01 0.19826207E+04</pdfrwt>
<totfact> 0.99214852E+00</totfact>
</mgrwt>
</event>
<event>
12    1  0.1494110E-007  0.1824126E+04  0.7818608E-02  0.8693574E-01
          2   -1    0    0  501    0  0.00000000000E+00  0.00000000000E+00  0.87720438588E+03  0.87720438588E+03  0.00000000000E+00 0. -1.
         -2   -1    0    0    0  501 -0.00000000000E+00 -0.00000000000E+00 -0.94830650260E+03  0.94830650260E+03  0.00000000000E+00 0.  1.
         23    2    1    2    0    0 -0.52559697677E+02 -0.35887314548E+02 -0.70893851050E+03  0.71754710866E+03  0.90717254741E+02 0.  0.
        254    2    1    2    0    0  0.52559697677E+02  0.35887314548E+02  0.63783639378E+03  0.11079637798E+04  0.90371347837E+03 0.  0.
        -24    2    4    4    0    0 -0.20065235309E+03 -0.36578401654E+03  0.31283639940E+03  0.52694628345E+03  0.75805404174E+02 0.  0.
         24    2    4    4    0    0  0.25321205077E+03  0.40167133108E+03  0.32499999438E+03  0.58101749636E+03  0.80623407643E+02 0.  0.
         13    1    3    3    0    0 -0.17763248217E+02  0.27022259443E+02 -0.12165151531E+03  0.12587623553E+03  0.00000000000E+00 0. -1.
        -13    1    3    3    0    0 -0.34796449460E+02 -0.62909573991E+02 -0.58728699519E+03  0.59167087313E+03  0.00000000000E+00 0.  1.
          4    1    6    6  502    0  0.20727224091E+03  0.26630626512E+03  0.20915390918E+03  0.39702161959E+03  0.00000000000E+00 0. -1.
          1    1    5    5  503    0 -0.14225809373E+03 -0.21128764626E+03  0.22509730099E+03  0.33992444691E+03  0.00000000000E+00 0. -1.
         -2    1    5    5    0  503 -0.58394259367E+02 -0.15449637027E+03  0.87739098408E+02  0.18702183654E+03  0.00000000000E+00 0.  1.
         -3    1    6    6    0  502  0.45939809859E+02  0.13536506596E+03  0.11584608520E+03  0.18399587677E+03  0.00000000000E+00 0.  1.
<mgrwt>
<rscale>  0 0.18241257E+04</rscale>
<asrwt>0</asrwt>
<pdfrwt beam="1">  1        2 0.13495452E+00 0.18241257E+04</pdfrwt>
<pdfrwt beam="2">  1       -2 0.14589331E+00 0.18241257E+04</pdfrwt>
<totfact> 0.92307127E+00</totfact>
</mgrwt>
</event>
<event>
12    1  0.1494110E-007  0.1765493E+04  0.7818608E-02  0.8724868E-01
         -1   -1    0    0    0  501 -0.00000000000E+00  0.00000000000E+00  0.68314406278E+03  0.68314406278E+03  0.00000000000E+00 0.  1.
          1   -1    0    0  501    0  0.00000000000E+00 -0.00000000000E+00 -0.11406686847E+04  0.11406686847E+04  0.00000000000E+00 0. -1.
         23    2    1    2    0    0 -0.17475981452E+03  0.30748268472E+03  0.39319983653E+03  0.53651871533E+03  0.90330649703E+02 0.  0.
        254    2    1    2    0    0  0.17475981452E+03 -0.30748268472E+03 -0.85072445848E+03  0.12872940322E+04  0.89905907861E+03 0.  0.
        -24    2    4    4    0    0  0.17954622503E+03 -0.28402847668E+03 -0.10319407043E+04  0.10882549331E+04  0.80549113903E+02 0.  0.
         24    2    4    4    0    0 -0.47864105084E+01 -0.23454208041E+02  0.18121624579E+03  0.19903909909E+03  0.78766906930E+02 0.  0.
         11    1    3    3    0    0 -0.21292260021E+02  0.95302106078E+02  0.68011060888E+02  0.11900149647E+03  0.00000000000E+00 0. -1.
        -11    1    3    3    0    0 -0.15346755450E+03  0.21218057865E+03  0.32518877564E+03  0.41751721886E+03  0.00000000000E+00 0.  1.
          4    1    6    6  502    0  0.18270710589E+02  0.21906228211E+02  0.92129403271E+02  0.96444432949E+02  0.00000000000E+00 0. -1.
          1    1    5    5  503    0 -0.85726831398E+01 -0.10800766401E+02 -0.43741411727E+02  0.45863477309E+02  0.00000000000E+00 0. -1.
         -2    1    5    5    0  503  0.18811890817E+03 -0.27322771028E+03 -0.98819929255E+03  0.10423914558E+04  0.00000000000E+00 0.  1.
         -3    1    6    6    0  502 -0.23057121097E+02 -0.45360436252E+02  0.89086842524E+02  0.10259466614E+03  0.00000000000E+00 0.  1.
<mgrwt>
<rscale>  0 0.17654926E+04</rscale>
<asrwt>0</asrwt>
<pdfrwt beam="1">  1        1 0.17548749E+00 0.17654926E+04</pdfrwt>
<pdfrwt beam="2">  1       -1 0.10509909E+00 0.17654926E+04</pdfrwt>
<totfact> 0.95035882E+00</totfact>
</mgrwt>
</event>
<event>
12    1  0.1494110E-007  0.1571376E+04  0.7818608E-02  0.8838328E-01
          2   -1    0    0  501    0  0.00000000000E+00  0.00000000000E+00  0.13684815465E+04  0.13684815465E+04  0.00000000000E+00 0. -1.
         -2   -1    0    0    0  501 -0.00000000000E+00 -0.00000000000E+00 -0.45108829181E+03  0.45108829181E+03  0.00000000000E+00 0.  1.
         23    2    1    2    0    0  0.12268310370E+03 -0.38418931970E+03  0.31428942269E+03  0.51946497445E+03  0.91724812157E+02 0.  0.
        254    2    1    2    0    0 -0.12268310370E+03  0.38418931970E+03  0.60310383201E+03  0.13001048639E+04  0.10788354126E+04 0.  0.
        -24    2    4    4    0    0 -0.42190518258E+01 -0.33796235409E+03  0.41166402513E+03  0.53969562432E+03  0.86992782162E+02 0.  0.
         24    2    4    4    0    0 -0.11846405187E+03  0.72215167380E+03  0.19143980688E+03  0.76040923953E+03  0.77693245211E+02 0.  0.
         11    1    3    3    0    0  0.50246994630E+02 -0.23513521388E+03  0.13680681267E+03  0.27663953670E+03  0.00000000000E+00 0.  1.
        -11    1    3    3    0    0  0.72436109065E+02 -0.14905410583E+03  0.17748261002E+03  0.24282543775E+03  0.00000000000E+00 0. -1.
          2    1    6    6  502    0 -0.25879826949E+02  0.46480569218E+02  0.22824121780E+02  0.57889112040E+02  0.00000000000E+00 0. -1.
          1    1    5    5  503    0  0.53373589996E+01 -0.39701109571E+02  0.13827136131E+02  0.42377531734E+02  0.00000000000E+00 0. -1.
         -2    1    5    5    0  503 -0.95564108254E+01 -0.29826124452E+03  0.39783688900E+03  0.49731809259E+03  0.00000000000E+00 0.  1.
         -1    1    6    6    0  502 -0.92584224920E+02  0.67567110458E+03  0.16861568510E+03  0.70252012749E+03  0.00000000000E+00 0.  1.
<mgrwt>
<rscale>  0 0.15713765E+04</rscale>
<asrwt>0</asrwt>
<pdfrwt beam="1">  1        2 0.21053562E+00 0.15713765E+04</pdfrwt>
<pdfrwt beam="2">  1       -2 0.69398199E-01 0.15713765E+04</pdfrwt>
<totfact> 0.27464704E+01</totfact>
</mgrwt>
</event>
<event>
12    1  0.1494110E-007  0.3692507E+04  0.7818608E-02  0.8069624E-01
         -2   -1    0    0    0  501 -0.00000000000E+00  0.00000000000E+00  0.17306888055E+04  0.17306888055E+04  0.00000000000E+00 0.  1.
          2   -1    0    0  501    0  0.00000000000E+00 -0.00000000000E+00 -0.19695352167E+04  0.19695352167E+04  0.00000000000E+00 0. -1.
         23    2    1    2    0    0  0.67351873109E+03 -0.37233659666E+03  0.14411408740E+04  0.16366568384E+04  0.97450323218E+02 0.  0.
        254    2    1    2    0    0 -0.67351873109E+03  0.37233659666E+03 -0.16799872851E+04  0.20635671838E+04  0.91852611370E+03 0.  0.
        -24    2    4    4    0    0 -0.69975612753E+03  0.48444703396E+03 -0.17151283878E+04  0.19163548677E+04  0.80018908203E+02 0.  0.
         24    2    4    4    0    0  0.26237396442E+02 -0.11211043730E+03  0.35141102685E+02  0.14721231607E+03  0.84731445062E+02 0.  0.
         13    1    3    3    0    0  0.45348225031E+03 -0.26576806670E+03  0.88815216674E+03  0.10320334723E+04  0.00000000000E+00 0. -1.
        -13    1    3    3    0    0  0.22003648079E+03 -0.10656852996E+03  0.55298870727E+03  0.60462336609E+03  0.00000000000E+00 0.  1.
          2    1    6    6  502    0  0.96228251869E+00 -0.11600208368E+03  0.36473149107E+02  0.12160468746E+03  0.00000000000E+00 0. -1.
          3    1    5    5  503    0 -0.38300022690E+03  0.28867614897E+03 -0.10424873599E+04  0.11475203651E+04  0.00000000000E+00 0. -1.
         -4    1    5    5    0  503 -0.31675590063E+03  0.19577088499E+03 -0.67264102796E+03  0.76883450267E+03  0.00000000000E+00 0.  1.
         -1    1    6    6    0  502  0.25275113923E+02  0.38916463860E+01 -0.13320464225E+01  0.25607628611E+02  0.00000000000E+00 0.  1.
<mgrwt>
<rscale>  0 0.36925073E+04</rscale>
<asrwt>0</asrwt>
<pdfrwt beam="1">  1        2 0.30300542E+00 0.36925073E+04</pdfrwt>
<pdfrwt beam="2">  1       -2 0.26625982E+00 0.36925073E+04</pdfrwt>
<totfact> 0.28709447E-01</totfact>
</mgrwt>
</event>
<event>
12    1  0.1494110E-007  0.1443462E+04  0.7818608E-02  0.8922946E-01
          1   -1    0    0  501    0  0.00000000000E+00  0.00000000000E+00  0.29633113381E+04  0.29633113381E+04  0.00000000000E+00 0. -1.
         -1   -1    0    0    0  501 -0.00000000000E+00 -0.00000000000E+00 -0.17578158159E+03  0.17578158159E+03  0.00000000000E+00 0.  1.
         23    2    1    2    0    0  0.22700883517E+03 -0.10050270545E+03  0.16422745815E+04  0.16636287294E+04  0.94662258763E+02 0.  0.
        254    2    1    2    0    0 -0.22700883517E+03  0.10050270545E+03  0.11452551750E+04  0.14754641903E+04  0.89652181003E+03 0.  0.
        -24    2    4    4    0    0 -0.40541304501E+03  0.38513371958E+02  0.12351416461E+03  0.43337062288E+03  0.81922713780E+02 0.  0.
         24    2    4    4    0    0  0.17840420983E+03  0.61989333489E+02  0.10217410104E+04  0.10420935674E+04  0.79583737939E+02 0.  0.
         13    1    3    3    0    0  0.18567190941E+03 -0.11863723690E+03  0.13875202194E+04  0.14049061218E+04  0.00000000000E+00 0. -1.
        -13    1    3    3    0    0  0.41336925767E+02  0.18134531456E+02  0.25475436217E+03  0.25872260764E+03  0.00000000000E+00 0.  1.
          2    1    6    6  502    0  0.15397490854E+03  0.25340838023E+02  0.68898115840E+03  0.70643150210E+03  0.00000000000E+00 0. -1.
          3    1    5    5  503    0 -0.24362844539E+03  0.13223470623E+01  0.37811123437E+02  0.24654867483E+03  0.00000000000E+00 0. -1.
         -4    1    5    5    0  503 -0.16178459961E+03  0.37191024896E+02  0.85703041174E+02  0.18682194804E+03  0.00000000000E+00 0.  1.
         -1    1    6    6    0  502  0.24429301290E+02  0.36648495466E+02  0.33275985197E+03  0.33566206527E+03  0.00000000000E+00 0.  1.
<mgrwt>
<rscale>  0 0.14434619E+04</rscale>
<asrwt>0</asrwt>
<pdfrwt beam="1">  1        1 0.45589401E+00 0.14434619E+04</pdfrwt>
<pdfrwt beam="2">  1       -1 0.27043323E-01 0.14434619E+04</pdfrwt>
<totfact> 0.76068026E+00</totfact>
</mgrwt>
</event>
<event>
12    1  0.1494110E-007  0.2002150E+04  0.7818608E-02  0.8605616E-01
          2   -1    0    0  501    0  0.00000000000E+00  0.00000000000E+00  0.12436493430E+04  0.12436493430E+04  0.00000000000E+00 0. -1.
         -2   -1    0    0    0  501 -0.00000000000E+00 -0.00000000000E+00 -0.80581454978E+03  0.80581454978E+03  0.00000000000E+00 0.  1.
         23    2    1    2    0    0  0.29356850868E+02  0.14754575044E+03  0.97440454914E+03  0.98997270692E+03  0.89163680299E+02 0.  0.
        254    2    1    2    0    0 -0.29356850868E+02 -0.14754575044E+03 -0.53656975593E+03  0.10594911859E+04  0.90110093594E+03 0.  0.
        -24    2    4    4    0    0  0.30116076680E+03 -0.36658021955E+03 -0.15957190278E+03  0.50701345419E+03  0.80750143950E+02 0.  0.
         24    2    4    4    0    0 -0.33051761767E+03  0.21903446911E+03 -0.37699785315E+03  0.55247773166E+03  0.76722020603E+02 0.  0.
         11    1    3    3    0    0  0.24324798017E+02  0.14975486538E+03  0.97233491781E+03  0.98410030378E+03  0.00000000000E+00 0. -1.
        -11    1    3    3    0    0  0.50320528511E+01 -0.22091149487E+01  0.20696313324E+01  0.58724031371E+01  0.00000000000E+00 0.  1.
          4    1    6    6  502    0 -0.23940661844E+02  0.34757974925E+02 -0.18600246285E+02  0.46122025891E+02  0.00000000000E+00 0. -1.
          1    1    5    5  503    0  0.11664143097E+03 -0.14077833074E+03 -0.10343422068E+03  0.21005332616E+03  0.00000000000E+00 0. -1.
         -2    1    5    5    0  503  0.18451933583E+03 -0.22580188881E+03 -0.56137682098E+02  0.29696012803E+03  0.00000000000E+00 0.  1.
         -3    1    6    6    0  502 -0.30657695583E+03  0.18427649419E+03 -0.35839760687E+03  0.50635570577E+03  0.00000000000E+00 0.  1.
<mgrwt>
<rscale>  0 0.20021496E+04</rscale>
<asrwt>0</asrwt>
<pdfrwt beam="1">  1        2 0.19133067E+00 0.20021496E+04</pdfrwt>
<pdfrwt beam="2">  1       -2 0.12397147E+00 0.20021496E+04</pdfrwt>
<totfact> 0.81141513E+00</totfact>
</mgrwt>
</event>
<event>
12    1  0.1494110E-007  0.1606297E+04  0.7818608E-02  0.8816689E-01
          2   -1    0    0  501    0  0.00000000000E+00  0.00000000000E+00  0.12831686182E+04  0.12831686182E+04  0.00000000000E+00 0. -1.
         -2   -1    0    0    0  501 -0.00000000000E+00 -0.00000000000E+00 -0.50269885475E+03  0.50269885475E+03  0.00000000000E+00 0.  1.
         23    2    1    2    0    0 -0.27741553376E+03 -0.34013781212E+03 -0.37591622344E+02  0.44979137673E+03  0.90807724932E+02 0.  0.
        254    2    1    2    0    0  0.27741553376E+03  0.34013781212E+03  0.81806138579E+03  0.13360760962E+04  0.96084431326E+03 0.  0.
        -24    2    4    4    0    0 -0.33740883325E+02  0.38510795359E+02  0.88534366504E+03  0.89038272522E+03  0.79539069448E+02 0.  0.
         24    2    4    4    0    0  0.31115641708E+03  0.30162701676E+03 -0.67282279254E+02  0.44569337099E+03  0.79489009976E+02 0.  0.
         13    1    3    3    0    0 -0.61333702903E+02 -0.29226167969E+02  0.80850818245E+01  0.68420468824E+02  0.00000000000E+00 0. -1.
        -13    1    3    3    0    0 -0.21608183085E+03 -0.31091164415E+03 -0.45676704168E+02  0.38137090791E+03  0.00000000000E+00 0.  1.
          2    1    6    6  502    0  0.22309867472E+03  0.16667742781E+03 -0.28399459837E+02  0.27993019295E+03  0.00000000000E+00 0. -1.
          1    1    5    5  503    0 -0.22659884988E+02  0.60843833417E+02  0.49440602524E+03  0.49865094028E+03  0.00000000000E+00 0. -1.
         -2    1    5    5    0  503 -0.11080998337E+02 -0.22333038058E+02  0.39093763980E+03  0.39173178493E+03  0.00000000000E+00 0.  1.
         -3    1    6    6    0  502  0.88057742358E+02  0.13494958895E+03 -0.38882819418E+02  0.16576317804E+03  0.00000000000E+00 0.  1.
<mgrwt>
<rscale>  0 0.16062969E+04</rscale>
<asrwt>0</asrwt>
<pdfrwt beam="1">  1        2 0.19741056E+00 0.16062969E+04</pdfrwt>
<pdfrwt beam="2">  1       -2 0.77338286E-01 0.16062969E+04</pdfrwt>
<totfact> 0.24172847E+01</totfact>
</mgrwt>
</event>
<event>
12    1  0.1494110E-007  0.9578668E+03  0.7818608E-02  0.9356002E-01
          1   -1    0    0  501    0  0.00000000000E+00  0.00000000000E+00  0.47592855084E+03  0.47592855084E+03  0.00000000000E+00 0. -1.
         -1   -1    0    0    0  501 -0.00000000000E+00 -0.00000000000E+00 -0.48195725410E+03  0.48195725410E+03  0.00000000000E+00 0.  1.
         23    2    1    2    0    0 -0.42952358318E+02 -0.70567406800E+02  0.63165146582E+02  0.13632010627E+03  0.88140068317E+02 0.  0.
        254    2    1    2    0    0  0.42952358318E+02  0.70567406800E+02 -0.69193849846E+02  0.82156569867E+03  0.81446776756E+03 0.  0.
        -24    2    4    4    0    0  0.13044112723E+03  0.42143937195E+03 -0.42984952299E+02  0.45034416369E+03  0.79599797374E+02 0.  0.
         24    2    4    4    0    0 -0.87488768909E+02 -0.35087196515E+03 -0.26208897548E+02  0.37122153498E+03  0.79706342993E+02 0.  0.
         13    1    3    3    0    0 -0.52536392650E+02 -0.84295673991E+02  0.66115669521E+02  0.11931938217E+03  0.00000000000E+00 0. -1.
        -13    1    3    3    0    0  0.95840343317E+01  0.13728267191E+02 -0.29505229390E+01  0.17000724095E+02  0.00000000000E+00 0.  1.
          2    1    6    6  502    0 -0.74330193855E+02 -0.17762403533E+03  0.13406435524E+02  0.19301556455E+03  0.00000000000E+00 0. -1.
          3    1    5    5  503    0  0.17162533030E+02  0.62591487445E+02  0.21881959473E+02  0.68491364353E+02  0.00000000000E+00 0. -1.
         -4    1    5    5    0  503  0.11327859420E+03  0.35884788450E+03 -0.64866911772E+02  0.38185279933E+03  0.00000000000E+00 0.  1.
         -1    1    6    6    0  502 -0.13158575055E+02 -0.17324792982E+03 -0.39615333072E+02  0.17820597044E+03  0.00000000000E+00 0.  1.
<mgrwt>
<rscale>  0 0.95786683E+03</rscale>
<asrwt>0</asrwt>
<pdfrwt beam="1">  1        1 0.73219777E-01 0.95786683E+03</pdfrwt>
<pdfrwt beam="2">  1       -1 0.74147270E-01 0.95786683E+03</pdfrwt>
<totfact> 0.87347580E+01</totfact>
</mgrwt>
</event>
<event>
12    1  0.1494110E-007  0.2620411E+04  0.7818608E-02  0.8361301E-01
         -2   -1    0    0    0  501 -0.00000000000E+00  0.00000000000E+00  0.68775148354E+03  0.68775148354E+03  0.00000000000E+00 0. -1.
          2   -1    0    0  501    0  0.00000000000E+00 -0.00000000000E+00 -0.24960163939E+04  0.24960163939E+04  0.00000000000E+00 0.  1.
         23    2    1    2    0    0 -0.90815940183E+03  0.14952743640E+03  0.39848168115E+02  0.92562892388E+03  0.89939284181E+02 0.  0.
        254    2    1    2    0    0  0.90815940183E+03 -0.14952743640E+03 -0.18481130785E+04  0.22581389536E+04  0.91463524389E+03 0.  0.
        -24    2    4    4    0    0  0.95302123929E+03 -0.38947900641E+03 -0.15728261570E+04  0.18815513517E+04  0.80684507292E+02 0.  0.
         24    2    4    4    0    0 -0.44861837454E+02  0.23995157001E+03 -0.27528692143E+03  0.37658760189E+03  0.80286937757E+02 0.  0.
         11    1    3    3    0    0 -0.72443404907E+03  0.14968319645E+03  0.51557121543E+02  0.74153077316E+03  0.00000000000E+00 0. -1.
        -11    1    3    3    0    0 -0.18372535276E+03 -0.15576004946E+00 -0.11708953428E+02  0.18409815072E+03  0.00000000000E+00 0.  1.
          4    1    6    6  502    0  0.10716287397E+02  0.13100810605E+03 -0.11275465056E+03  0.17318075497E+03  0.00000000000E+00 0. -1.
          3    1    5    5  503    0  0.59153692524E+03 -0.25825925279E+03 -0.10500106455E+04  0.12325324058E+04  0.00000000000E+00 0. -1.
         -4    1    5    5    0  503  0.36148431405E+03 -0.13121975362E+03 -0.52281551154E+03  0.64901894591E+03  0.00000000000E+00 0.  1.
         -3    1    6    6    0  502 -0.55578124851E+02  0.10894346396E+03 -0.16253227087E+03  0.20340684692E+03  0.00000000000E+00 0.  1.
<mgrwt>
<rscale>  0 0.26204114E+04</rscale>
<asrwt>0</asrwt>
<pdfrwt beam="1">  1        2 0.38400252E+00 0.26204114E+04</pdfrwt>
<pdfrwt beam="2">  1       -2 0.10580792E+00 0.26204114E+04</pdfrwt>
<totfact> 0.22297691E+00</totfact>
</mgrwt>
</event>
<event>
12    1  0.1494110E-007  0.1655937E+04  0.7818608E-02  0.8786902E-01
         -2   -1    0    0    0  501 -0.00000000000E+00  0.00000000000E+00  0.22715813867E+04  0.22715813867E+04  0.00000000000E+00 0.  1.
          2   -1    0    0  501    0  0.00000000000E+00 -0.00000000000E+00 -0.30178600907E+03  0.30178600907E+03  0.00000000000E+00 0. -1.
         23    2    1    2    0    0 -0.31806569286E+03 -0.78444771457E+02  0.14319102245E+04  0.14716305607E+04  0.89499994113E+02 0.  0.
        254    2    1    2    0    0  0.31806569286E+03  0.78444771457E+02  0.53788515313E+03  0.11017368351E+04  0.90398243828E+03 0.  0.
        -24    2    4    4    0    0 -0.10646097492E+03 -0.21394499383E+03  0.52231083998E+03  0.57951316749E+03  0.76944773484E+02 0.  0.
         24    2    4    4    0    0  0.42452666777E+03  0.29238976529E+03  0.15574313151E+02  0.52222366762E+03  0.82221245996E+02 0.  0.
         13    1    3    3    0    0  0.31093352771E-01 -0.10506689031E+02  0.10117605190E+03  0.10172013055E+03  0.00000000000E+00 0. -1.
        -13    1    3    3    0    0 -0.31809678621E+03 -0.67938082426E+02  0.13307341726E+04  0.13699104302E+04  0.00000000000E+00 0.  1.
          4    1    6    6  502    0  0.39225867592E+03  0.29282136472E+03  0.10952525978E+02  0.48962350669E+03  0.00000000000E+00 0. -1.
          3    1    5    5  503    0 -0.48789105769E+02 -0.11115542358E+03  0.35242277901E+03  0.37274350457E+03  0.00000000000E+00 0. -1.
         -4    1    5    5    0  503 -0.57671869146E+02 -0.10278957025E+03  0.16988806096E+03  0.20676966291E+03  0.00000000000E+00 0.  1.
         -3    1    6    6    0  502  0.32267991848E+02 -0.43159943198E+00  0.46217871737E+01  0.32600160929E+02  0.00000000000E+00 0.  1.
<mgrwt>
<rscale>  0 0.16559366E+04</rscale>
<asrwt>0</asrwt>
<pdfrwt beam="1">  1        2 0.46428618E-01 0.16559366E+04</pdfrwt>
<pdfrwt beam="2">  1       -2 0.34947405E+00 0.16559366E+04</pdfrwt>
<totfact> 0.16409529E+00</totfact>
</mgrwt>
</event>
<event>
12    1  0.1494110E-007  0.1623871E+04  0.7818608E-02  0.8806016E-01
          3   -1    0    0  501    0  0.00000000000E+00  0.00000000000E+00  0.16877653917E+04  0.16877653917E+04  0.00000000000E+00 0. -1.
         -3   -1    0    0    0  501 -0.00000000000E+00 -0.00000000000E+00 -0.39059893881E+03  0.39059893881E+03  0.00000000000E+00 0.  1.
         23    2    1    2    0    0 -0.88295188755E+02  0.22462764523E+03 -0.19118420489E+03  0.32122954642E+03  0.91560919245E+02 0.  0.
        254    2    1    2    0    0  0.88295188755E+02 -0.22462764523E+03  0.14883506578E+04  0.17571347841E+04  0.90226456739E+03 0.  0.
        -24    2    4    4    0    0  0.37815440111E+03  0.18038073486E+03  0.60720522683E+03  0.74189063391E+03  0.78521109305E+02 0.  0.
         24    2    4    4    0    0 -0.28985921236E+03 -0.40500838009E+03  0.88114543097E+03  0.10152441502E+04  0.79077576147E+02 0.  0.
         11    1    3    3    0    0 -0.57612297424E+02  0.66431108785E+02 -0.28978750968E+02  0.92585296006E+02  0.00000000000E+00 0. -1.
        -11    1    3    3    0    0 -0.30682891331E+02  0.15819653645E+03 -0.16220545393E+03  0.22864425041E+03  0.00000000000E+00 0.  1.
          2    1    6    6  502    0 -0.26991629385E+03 -0.32839995161E+03  0.73851313265E+03  0.85211676489E+03  0.00000000000E+00 0. -1.
          3    1    5    5  503    0  0.34586385619E+03  0.18441665105E+03  0.57667060684E+03  0.69726630278E+03  0.00000000000E+00 0. -1.
         -4    1    5    5    0  503  0.32290544921E+02 -0.40359161885E+01  0.30534619995E+02  0.44624331133E+02  0.00000000000E+00 0.  1.
         -1    1    6    6    0  502 -0.19942918505E+02 -0.76608428481E+02  0.14263229832E+03  0.16312738531E+03  0.00000000000E+00 0.  1.
<mgrwt>
<rscale>  0 0.16238711E+04</rscale>
<asrwt>0</asrwt>
<pdfrwt beam="1">  1        3 0.25965621E+00 0.16238711E+04</pdfrwt>
<pdfrwt beam="2">  1       -3 0.60092146E-01 0.16238711E+04</pdfrwt>
<totfact> 0.44198521E-01</totfact>
</mgrwt>
</event>
<event>
12    1  0.1494110E-007  0.1596204E+04  0.7818608E-02  0.8822884E-01
          2   -1    0    0  501    0  0.00000000000E+00  0.00000000000E+00  0.65150199161E+03  0.65150199161E+03  0.00000000000E+00 0. -1.
         -2   -1    0    0    0  501 -0.00000000000E+00 -0.00000000000E+00 -0.97768946743E+03  0.97768946743E+03  0.00000000000E+00 0.  1.
         23    2    1    2    0    0  0.47558980507E+02 -0.38945289523E+02 -0.65763986295E+03  0.66694747423E+03  0.92467031050E+02 0.  0.
        254    2    1    2    0    0 -0.47558980507E+02  0.38945289523E+02  0.33145238713E+03  0.96224398482E+03  0.90126256395E+03 0.  0.
        -24    2    4    4    0    0  0.16165483678E+03  0.22941953723E+03 -0.20048585756E+03  0.35430305831E+03  0.81058421681E+02 0.  0.
         24    2    4    4    0    0 -0.20921381729E+03 -0.19047424771E+03  0.53193824469E+03  0.60794092651E+03  0.81135772508E+02 0.  0.
         13    1    3    3    0    0  0.74235128148E+02 -0.27434573895E+02 -0.40649210307E+03  0.41412478790E+03  0.00000000000E+00 0.  1.
        -13    1    3    3    0    0 -0.26676147640E+02 -0.11510715628E+02 -0.25114775988E+03  0.25282268632E+03  0.00000000000E+00 0. -1.
          2    1    6    6  502    0 -0.84532887264E+02 -0.27675338665E+02  0.14793772382E+03  0.17261895472E+03  0.00000000000E+00 0. -1.
          3    1    5    5  503    0  0.65442454259E+02  0.15872601036E+03 -0.10340281976E+03  0.20042156650E+03  0.00000000000E+00 0. -1.
         -4    1    5    5    0  503  0.96212382522E+02  0.70693526875E+02 -0.97083037803E+02  0.15388149181E+03  0.00000000000E+00 0.  1.
         -1    1    6    6    0  502 -0.12468093003E+03 -0.16279890904E+03  0.38400052087E+03  0.43532197179E+03  0.00000000000E+00 0.  1.
<mgrwt>
<rscale>  0 0.15962038E+04</rscale>
<asrwt>0</asrwt>
<pdfrwt beam="1">  1        2 0.10023108E+00 0.15962038E+04</pdfrwt>
<pdfrwt beam="2">  1       -2 0.15041376E+00 0.15962038E+04</pdfrwt>
<totfact> 0.12782992E+01</totfact>
</mgrwt>
</event>
<event>
12    1  0.1494110E-007  0.1279033E+04  0.7818608E-02  0.9046359E-01
         -2   -1    0    0    0  501 -0.00000000000E+00  0.00000000000E+00  0.10286271414E+03  0.10286271414E+03  0.00000000000E+00 0.  1.
          2   -1    0    0  501    0  0.00000000000E+00 -0.00000000000E+00 -0.39759918197E+04  0.39759918197E+04  0.00000000000E+00 0. -1.
         23    2    1    2    0    0  0.10840042481E+03  0.24525979954E+03 -0.44683863902E+03  0.52848311050E+03  0.87901122845E+02 0.  0.
        254    2    1    2    0    0 -0.10840042481E+03 -0.24525979954E+03 -0.34262904665E+04  0.35503714233E+04  0.89093650796E+03 0.  0.
        -24    2    4    4    0    0  0.18956268458E+03 -0.31579978911E+03 -0.61245434123E+03  0.71879923563E+03  0.76866786528E+02 0.  0.
         24    2    4    4    0    0 -0.29796310939E+03  0.70539989571E+02 -0.28138361253E+04  0.28315721877E+04  0.79808579933E+02 0.  0.
         11    1    3    3    0    0  0.53200608184E+02  0.18288171315E+03 -0.24643272216E+03  0.31145643719E+03  0.00000000000E+00 0.  1.
        -11    1    3    3    0    0  0.55199816626E+02  0.62378086388E+02 -0.20040591686E+03  0.21702667331E+03  0.00000000000E+00 0. -1.
          4    1    6    6  502    0 -0.29116994034E+02 -0.68157810974E+01 -0.49856310945E+03  0.49945913578E+03  0.00000000000E+00 0. -1.
          1    1    5    5  503    0  0.99047427385E+02 -0.12121937101E+03 -0.20124373130E+03  0.25495797334E+03  0.00000000000E+00 0. -1.
         -2    1    5    5    0  503  0.90515257195E+02 -0.19458041810E+03 -0.41121060993E+03  0.46384126230E+03  0.00000000000E+00 0.  1.
         -3    1    6    6    0  502 -0.26884611536E+03  0.77355770669E+02 -0.23152730158E+04  0.23321130519E+04  0.00000000000E+00 0.  1.
<mgrwt>
<rscale>  0 0.12790329E+04</rscale>
<asrwt>0</asrwt>
<pdfrwt beam="1">  1        2 0.61169095E+00 0.12790329E+04</pdfrwt>
<pdfrwt beam="2">  1       -2 0.15825036E-01 0.12790329E+04</pdfrwt>
<totfact> 0.11647991E+01</totfact>
</mgrwt>
</event>
<event>
12    1  0.1494110E-007  0.3508616E+04  0.7818608E-02  0.8111751E-01
          2   -1    0    0  501    0  0.00000000000E+00  0.00000000000E+00  0.26496964801E+04  0.26496964801E+04  0.00000000000E+00 0. -1.
         -2   -1    0    0    0  501 -0.00000000000E+00 -0.00000000000E+00 -0.11614905195E+04  0.11614905195E+04  0.00000000000E+00 0.  1.
         23    2    1    2    0    0  0.34278714860E+03  0.12185170366E+04 -0.43286310609E+03  0.13409848505E+04  0.92645038058E+02 0.  0.
        254    2    1    2    0    0 -0.34278714860E+03 -0.12185170366E+04  0.19210690667E+04  0.24702021490E+04  0.89950291846E+03 0.  0.
        -24    2    4    4    0    0 -0.24864135151E+03 -0.12869931979E+04  0.13558676725E+04  0.18875809532E+04  0.80066824165E+02 0.  0.
         24    2    4    4    0    0 -0.94145797094E+02  0.68476161286E+02  0.56520139413E+03  0.58262119582E+03  0.80264725229E+02 0.  0.
         11    1    3    3    0    0  0.27061836729E+03  0.98754058713E+03 -0.31158550130E+03  0.10703066087E+04  0.00000000000E+00 0. -1.
        -11    1    3    3    0    0  0.72168781315E+02  0.23097644945E+03 -0.12127760479E+03  0.27067824187E+03  0.00000000000E+00 0.  1.
          4    1    6    6  502    0 -0.90736071791E+02  0.65357270284E+02  0.35126550957E+03  0.36863541028E+03  0.00000000000E+00 0. -1.
          3    1    5    5  503    0 -0.22621976091E+03 -0.12382290433E+04  0.13130251963E+04  0.18189067348E+04  0.00000000000E+00 0. -1.
         -4    1    5    5    0  503 -0.22421590597E+02 -0.48764154617E+02  0.42842476273E+02  0.68674218406E+02  0.00000000000E+00 0.  1.
         -3    1    6    6    0  502 -0.34097253034E+01  0.31188910020E+01  0.21393588457E+03  0.21398578554E+03  0.00000000000E+00 0.  1.
<mgrwt>
<rscale>  0 0.35086164E+04</rscale>
<asrwt>0</asrwt>
<pdfrwt beam="1">  1        2 0.40764561E+00 0.35086164E+04</pdfrwt>
<pdfrwt beam="2">  1       -2 0.17869085E+00 0.35086164E+04</pdfrwt>
<totfact> 0.43238455E-01</totfact>
</mgrwt>
</event>
<event>
12    1  0.1494110E-007  0.1563648E+04  0.7818608E-02  0.8843197E-01
          1   -1    0    0  501    0  0.00000000000E+00  0.00000000000E+00  0.10814362147E+04  0.10814362147E+04  0.00000000000E+00 0. -1.
         -1   -1    0    0    0  501 -0.00000000000E+00 -0.00000000000E+00 -0.56521935839E+03  0.56521935839E+03  0.00000000000E+00 0.  1.
         23    2    1    2    0    0 -0.50737309406E+03  0.34147325339E+02  0.13992648362E+03  0.53535246697E+03  0.91811473537E+02 0.  0.
        254    2    1    2    0    0  0.50737309406E+03 -0.34147325339E+02  0.37629037271E+03  0.11113031061E+04  0.91367754307E+03 0.  0.
        -24    2    4    4    0    0  0.46748019744E+03 -0.35016107594E+03 -0.26931257560E+02  0.59123593939E+03  0.87659165490E+02 0.  0.
         24    2    4    4    0    0  0.39892896621E+02  0.31601375060E+03  0.40322163027E+03  0.52006716674E+03  0.80162591261E+02 0.  0.
         13    1    3    3    0    0 -0.38393505613E+03  0.18143263590E+02  0.64292131343E+02  0.38970345584E+03  0.00000000000E+00 0. -1.
        -13    1    3    3    0    0 -0.12343803792E+03  0.16004061749E+02  0.75634352276E+02  0.14564901113E+03  0.00000000000E+00 0.  1.
          2    1    6    6  502    0 -0.13108108902E+02  0.68779398603E+02  0.51624082219E+02  0.86991229766E+02  0.00000000000E+00 0. -1.
          1    1    5    5  503    0  0.36058508158E+02 -0.62130170540E+02 -0.73651371896E+00  0.71839519447E+02  0.00000000000E+00 0. -1.
         -2    1    5    5    0  503  0.43142168928E+03 -0.28803090540E+03 -0.26194743841E+02  0.51939641994E+03  0.00000000000E+00 0.  1.
         -1    1    6    6    0  502  0.53001005523E+02  0.24723435200E+03  0.35159754805E+03  0.43307593698E+03  0.00000000000E+00 0.  1.
<mgrwt>
<rscale>  0 0.15636479E+04</rscale>
<asrwt>0</asrwt>
<pdfrwt beam="1">  1        1 0.16637480E+00 0.15636479E+04</pdfrwt>
<pdfrwt beam="2">  1       -1 0.86956824E-01 0.15636479E+04</pdfrwt>
<totfact> 0.16422383E+01</totfact>
</mgrwt>
</event>
<event>
12    1  0.1494110E-007  0.1278343E+04  0.7818608E-02  0.9046918E-01
         -1   -1    0    0    0  501 -0.00000000000E+00  0.00000000000E+00  0.16349296477E+03  0.16349296477E+03  0.00000000000E+00 0.  1.
          1   -1    0    0  501    0  0.00000000000E+00 -0.00000000000E+00 -0.24988225668E+04  0.24988225668E+04  0.00000000000E+00 0. -1.
         23    2    1    2    0    0  0.14966780085E+03 -0.20162310742E+03 -0.10114608016E+04  0.10462905559E+04  0.92836663885E+02 0.  0.
        254    2    1    2    0    0 -0.14966780085E+03  0.20162310742E+03 -0.13238688004E+04  0.16160249756E+04  0.89210750086E+03 0.  0.
        -24    2    4    4    0    0  0.10687803025E+03 -0.31652658964E+03 -0.50053679450E+03  0.60679855176E+03  0.77816479385E+02 0.  0.
         24    2    4    4    0    0 -0.25654583110E+03  0.51814969707E+03 -0.82333200588E+03  0.10092264239E+04  0.79796683265E+02 0.  0.
         13    1    3    3    0    0  0.63222671214E+02 -0.42289632744E+02 -0.18204009749E+03  0.19729195697E+03  0.00000000000E+00 0.  1.
        -13    1    3    3    0    0  0.86445129637E+02 -0.15933347468E+03 -0.82942070413E+03  0.84899859896E+03  0.00000000000E+00 0. -1.
          2    1    6    6  502    0 -0.24674275769E+02  0.11554362123E+03 -0.14500837586E+03  0.18704699238E+03  0.00000000000E+00 0. -1.
          3    1    5    5  503    0 -0.10343507440E+02 -0.56939594407E+02 -0.74887897489E+02  0.94643027993E+02  0.00000000000E+00 0. -1.
         -4    1    5    5    0  503  0.11722153769E+03 -0.25958699524E+03 -0.42564889701E+03  0.51215552377E+03  0.00000000000E+00 0.  1.
         -1    1    6    6    0  502 -0.23187155533E+03  0.40260607584E+03 -0.67832363003E+03  0.82217943147E+03  0.00000000000E+00 0.  1.
<mgrwt>
<rscale>  0 0.12783425E+04</rscale>
<asrwt>0</asrwt>
<pdfrwt beam="1">  1        1 0.38443422E+00 0.12783425E+04</pdfrwt>
<pdfrwt beam="2">  1       -1 0.25152765E-01 0.12783425E+04</pdfrwt>
<totfact> 0.18606471E+01</totfact>
</mgrwt>
</event>
<event>
12    1  0.1494110E-007  0.1335046E+04  0.7818608E-02  0.9002226E-01
         -2   -1    0    0    0  501 -0.00000000000E+00  0.00000000000E+00  0.26079033943E+03  0.26079033943E+03  0.00000000000E+00 0.  1.
          2   -1    0    0  501    0  0.00000000000E+00 -0.00000000000E+00 -0.17086029419E+04  0.17086029419E+04  0.00000000000E+00 0. -1.
         23    2    1    2    0    0  0.10161487834E+03 -0.10943949732E+03  0.10850176275E+03  0.20680051311E+03  0.93226780651E+02 0.  0.
        254    2    1    2    0    0 -0.10161487834E+03  0.10943949732E+03 -0.15563143652E+04  0.17625927682E+04  0.81382816129E+03 0.  0.
        -24    2    4    4    0    0  0.26019901634E+03  0.29044968242E+01 -0.12225701268E+04  0.12525195162E+04  0.80096562481E+02 0.  0.
         24    2    4    4    0    0 -0.36181389468E+03  0.10653500049E+03 -0.33374423841E+03  0.51007325200E+03  0.80811540150E+02 0.  0.
         13    1    3    3    0    0  0.69608627230E+02 -0.99089807430E+02  0.12074152287E+03  0.17100487205E+03  0.00000000000E+00 0.  1.
        -13    1    3    3    0    0  0.32006251112E+02 -0.10349689886E+02 -0.12239760120E+02  0.35795641058E+02  0.00000000000E+00 0. -1.
          4    1    6    6  502    0 -0.68037361699E+02  0.34219026363E+02 -0.31480082283E+02  0.82407644868E+02  0.00000000000E+00 0. -1.
          1    1    5    5  503    0  0.68491939786E+01 -0.73726670267E+01 -0.15197730223E+03  0.15231010495E+03  0.00000000000E+00 0. -1.
         -4    1    5    5    0  503  0.25334982236E+03  0.10277163851E+02 -0.10705928246E+04  0.11002094113E+04  0.00000000000E+00 0.  1.
         -3    1    6    6    0  502 -0.29377653298E+03  0.72315974128E+02 -0.30226415613E+03  0.42766560714E+03  0.00000000000E+00 0.  1.
<mgrwt>
<rscale>  0 0.13350463E+04</rscale>
<asrwt>0</asrwt>
<pdfrwt beam="1">  1        2 0.26286198E+00 0.13350463E+04</pdfrwt>
<pdfrwt beam="2">  1       -2 0.40121592E-01 0.13350463E+04</pdfrwt>
<totfact> 0.55751090E+01</totfact>
</mgrwt>
</event>
<event>
12    1  0.1494110E-007  0.1826899E+04  0.7818608E-02  0.8692124E-01
         -2   -1    0    0    0  501 -0.00000000000E+00  0.00000000000E+00  0.55713055238E+03  0.55713055238E+03  0.00000000000E+00 0.  1.
          2   -1    0    0  501    0  0.00000000000E+00 -0.00000000000E+00 -0.14976560433E+04  0.14976560433E+04  0.00000000000E+00 0. -1.
         23    2    1    2    0    0 -0.10179363832E+03  0.19569119413E+03 -0.10912780772E+04  0.11172893036E+04  0.93757975852E+02 0.  0.
        254    2    1    2    0    0  0.10179363832E+03 -0.19569119413E+03  0.15075258625E+03  0.93749729204E+03  0.89861996532E+03 0.  0.
        -24    2    4    4    0    0 -0.91076051294E+02  0.18411510737E+03 -0.25932506074E+03  0.34065907892E+03  0.81276694323E+02 0.  0.
         24    2    4    4    0    0  0.19286968961E+03 -0.37980630149E+03  0.41007764700E+03  0.59683821313E+03  0.81244275218E+02 0.  0.
         13    1    3    3    0    0 -0.30984145380E+00  0.21050281647E+02 -0.29649262124E+03  0.29723910376E+03  0.00000000000E+00 0.  1.
        -13    1    3    3    0    0 -0.10148379686E+03  0.17464091248E+03 -0.79478545594E+03  0.82005019987E+03  0.00000000000E+00 0. -1.
          4    1    6    6  502    0  0.13664882038E+03 -0.30926839686E+03  0.35910465110E+03  0.49323016113E+03  0.00000000000E+00 0. -1.
          1    1    5    5  503    0 -0.98718051397E+02  0.14615057500E+03 -0.23868633956E+03  0.29677670552E+03  0.00000000000E+00 0. -1.
         -2    1    5    5    0  503  0.76420001023E+01  0.37964532367E+02 -0.20638721184E+02  0.43882373403E+02  0.00000000000E+00 0.  1.
         -3    1    6    6    0  502  0.56220869236E+02 -0.70537904629E+02  0.50972995896E+02  0.10360805199E+03  0.00000000000E+00 0.  1.
<mgrwt>
<rscale>  0 0.18268989E+04</rscale>
<asrwt>0</asrwt>
<pdfrwt beam="1">  1        2 0.23040862E+00 0.18268989E+04</pdfrwt>
<pdfrwt beam="2">  1       -2 0.85712394E-01 0.18268989E+04</pdfrwt>
<totfact> 0.14180201E+01</totfact>
</mgrwt>
</event>
<event>
12    1  0.1494110E-007  0.2015161E+04  0.7818608E-02  0.8599565E-01
         -1   -1    0    0    0  501 -0.00000000000E+00  0.00000000000E+00  0.61995833412E+03  0.61995833412E+03  0.00000000000E+00 0.  1.
          1   -1    0    0  501    0  0.00000000000E+00 -0.00000000000E+00 -0.16375599340E+04  0.16375599340E+04  0.00000000000E+00 0. -1.
         23    2    1    2    0    0  0.73707504832E+03 -0.28333844613E+03 -0.24850167687E+03  0.83293322969E+03  0.92002064143E+02 0.  0.
        254    2    1    2    0    0 -0.73707504832E+03  0.28333844613E+03 -0.76909992299E+03  0.14245850384E+04  0.90242314810E+03 0.  0.
        -24    2    4    4    0    0 -0.52560635022E+03  0.59517719517E+03 -0.62261573805E+03  0.10121140094E+04  0.78908059217E+02 0.  0.
         24    2    4    4    0    0 -0.21146869809E+03 -0.31183874904E+03 -0.14648418493E+03  0.41247102896E+03  0.81928735020E+02 0.  0.
         13    1    3    3    0    0  0.16682940089E+02 -0.11402021333E+02 -0.22931081781E+02  0.30564049014E+02  0.00000000000E+00 0.  1.
        -13    1    3    3    0    0  0.72039210823E+03 -0.27193642480E+03 -0.22557059509E+03  0.80236918067E+03  0.00000000000E+00 0. -1.
          2    1    6    6  502    0 -0.62532013629E+02 -0.40135719458E+02 -0.42731714785E+02  0.85715390411E+02  0.00000000000E+00 0. -1.
          3    1    5    5  503    0 -0.15955876122E+03  0.22801227666E+03 -0.24414341988E+03  0.37020886816E+03  0.00000000000E+00 0. -1.
         -4    1    5    5    0  503 -0.36604758900E+03  0.36716491851E+03 -0.37847231817E+03  0.64190514129E+03  0.00000000000E+00 0.  1.
         -1    1    6    6    0  502 -0.14893668447E+03 -0.27170302958E+03 -0.10375247015E+03  0.32675563855E+03  0.00000000000E+00 0.  1.
<mgrwt>
<rscale>  0 0.20151615E+04</rscale>
<asrwt>0</asrwt>
<pdfrwt beam="1">  1        1 0.25193230E+00 0.20151615E+04</pdfrwt>
<pdfrwt beam="2">  1       -1 0.95378205E-01 0.20151615E+04</pdfrwt>
<totfact> 0.51695659E+00</totfact>
</mgrwt>
</event>
<event>
12    1  0.1494110E-007  0.1354447E+04  0.7818608E-02  0.8987468E-01
          3   -1    0    0  501    0  0.00000000000E+00  0.00000000000E+00  0.33342309194E+03  0.33342309194E+03  0.00000000000E+00 0. -1.
         -3   -1    0    0    0  501 -0.00000000000E+00 -0.00000000000E+00 -0.13755249599E+04  0.13755249599E+04  0.00000000000E+00 0.  1.
         23    2    1    2    0    0  0.35664471827E+02  0.36311926027E+03 -0.21940795532E+03  0.43494378496E+03  0.88930835437E+02 0.  0.
        254    2    1    2    0    0 -0.35664471827E+02 -0.36311926027E+03 -0.82269391262E+03  0.12740042669E+04  0.90173945592E+03 0.  0.
        -24    2    4    4    0    0 -0.40306656204E+03  0.45536765555E+02 -0.40516345769E+03  0.57903174227E+03  0.81142348134E+02 0.  0.
         24    2    4    4    0    0  0.36740209021E+03 -0.40865602582E+03 -0.41753045493E+03  0.69497252458E+03  0.81676715129E+02 0.  0.
         13    1    3    3    0    0 -0.13281307918E+02  0.20741049360E+03 -0.15587947091E+03  0.25979591114E+03  0.00000000000E+00 0.  1.
        -13    1    3    3    0    0  0.48945779746E+02  0.15570876667E+03 -0.63528484409E+02  0.17514787382E+03  0.00000000000E+00 0. -1.
          4    1    6    6  502    0  0.25190830689E+02 -0.65786384688E+02 -0.41791918199E+02  0.81908429284E+02  0.00000000000E+00 0. -1.
          3    1    5    5  503    0 -0.24085053356E+01 -0.78327692244E+01 -0.26813905886E+01  0.86222402636E+01  0.00000000000E+00 0. -1.
         -4    1    5    5    0  503 -0.40065805670E+03  0.53369534779E+02 -0.40248206710E+03  0.57040950201E+03  0.00000000000E+00 0.  1.
         -3    1    6    6    0  502  0.34221125952E+03 -0.34286964114E+03 -0.37573853673E+03  0.61306409530E+03  0.00000000000E+00 0.  1.
<mgrwt>
<rscale>  0 0.13544472E+04</rscale>
<asrwt>0</asrwt>
<pdfrwt beam="1">  1        3 0.51295860E-01 0.13544472E+04</pdfrwt>
<pdfrwt beam="2">  1       -3 0.21161923E+00 0.13544472E+04</pdfrwt>
<totfact> 0.11944674E+00</totfact>
</mgrwt>
</event>
<event>
12    1  0.1494110E-007  0.1404315E+04  0.7818608E-02  0.8950701E-01
         -2   -1    0    0    0  501 -0.00000000000E+00  0.00000000000E+00  0.21939075250E+03  0.21939075250E+03  0.00000000000E+00 0.  1.
          2   -1    0    0  501    0  0.00000000000E+00 -0.00000000000E+00 -0.22472452297E+04  0.22472452297E+04  0.00000000000E+00 0. -1.
         23    2    1    2    0    0 -0.33577112646E+03 -0.76508900236E+02 -0.99370107054E+03  0.10556936345E+04  0.91931338930E+02 0.  0.
        254    2    1    2    0    0  0.33577112646E+03  0.76508900236E+02 -0.10341534067E+04  0.14109423478E+04  0.89592922655E+03 0.  0.
        -24    2    4    4    0    0 -0.15871498797E+03  0.24485297378E+03 -0.75360908251E+03  0.81208673079E+03  0.80092339860E+02 0.  0.
         24    2    4    4    0    0  0.49448611444E+03 -0.16834407354E+03 -0.28054432418E+03  0.59885561699E+03  0.84063593171E+02 0.  0.
         11    1    3    3    0    0 -0.15688248155E+03 -0.45665939560E+02 -0.33947613110E+03  0.37675129016E+03  0.00000000000E+00 0.  1.
        -11    1    3    3    0    0 -0.17888864492E+03 -0.30842960676E+02 -0.65422493944E+03  0.67894234430E+03  0.00000000000E+00 0. -1.
          4    1    6    6  502    0  0.44780233710E+03 -0.13608804981E+03 -0.27241726849E+03  0.54153306324E+03  0.00000000000E+00 0. -1.
          3    1    5    5  503    0 -0.77414790677E+02  0.55403019185E+02 -0.27322631906E+03  0.28933573194E+03  0.00000000000E+00 0. -1.
         -4    1    5    5    0  503 -0.81300197296E+02  0.18944995459E+03 -0.48038276345E+03  0.52275099885E+03  0.00000000000E+00 0.  1.
         -3    1    6    6    0  502  0.46683777334E+02 -0.32256023733E+02 -0.81270556942E+01  0.57322553742E+02  0.00000000000E+00 0.  1.
<mgrwt>
<rscale>  0 0.14043145E+04</rscale>
<asrwt>0</asrwt>
<pdfrwt beam="1">  1        2 0.34573003E+00 0.14043145E+04</pdfrwt>
<pdfrwt beam="2">  1       -2 0.33752424E-01 0.14043145E+04</pdfrwt>
<totfact> 0.38868719E+01</totfact>
</mgrwt>
</event>
<event>
12    1  0.1494110E-007  0.1633690E+04  0.7818608E-02  0.8800114E-01
         -2   -1    0    0    0  501 -0.00000000000E+00  0.00000000000E+00  0.82027427650E+03  0.82027427650E+03  0.00000000000E+00 0.  1.
          2   -1    0    0  501    0  0.00000000000E+00 -0.00000000000E+00 -0.81342977891E+03  0.81342977891E+03  0.00000000000E+00 0. -1.
         23    2    1    2    0    0 -0.25964525406E+03  0.31378746184E+03 -0.39721379051E+03  0.57625838261E+03  0.91742569145E+02 0.  0.
        254    2    1    2    0    0  0.25964525406E+03 -0.31378746184E+03  0.40405828810E+03  0.10574456728E+04  0.88828487637E+03 0.  0.
        -24    2    4    4    0    0 -0.78780616829E+02 -0.52031344005E+03  0.77988549313E+02  0.53788534107E+03  0.79410105324E+02 0.  0.
         24    2    4    4    0    0  0.33842587089E+03  0.20652597821E+03  0.32606973879E+03  0.51956033173E+03  0.80227264673E+02 0.  0.
         13    1    3    3    0    0 -0.13554047738E+03  0.20993259852E+03 -0.28659942739E+03  0.38023959382E+03  0.00000000000E+00 0. -1.
        -13    1    3    3    0    0 -0.12410477668E+03  0.10385486333E+03 -0.11061436312E+03  0.19601878879E+03  0.00000000000E+00 0.  1.
          4    1    6    6  502    0  0.11996615952E+03  0.39799585792E+02  0.13447266647E+03  0.18455022213E+03  0.00000000000E+00 0. -1.
          3    1    5    5  503    0 -0.42552532073E+02 -0.10210816698E+03  0.34458814960E+02  0.11586287446E+03  0.00000000000E+00 0. -1.
         -4    1    5    5    0  503 -0.36228084756E+02 -0.41820527307E+03  0.43529734353E+02  0.42202246661E+03  0.00000000000E+00 0.  1.
         -1    1    6    6    0  502  0.21845971136E+03  0.16672639242E+03  0.19159707232E+03  0.33501010961E+03  0.00000000000E+00 0.  1.
<mgrwt>
<rscale>  0 0.16336897E+04</rscale>
<asrwt>0</asrwt>
<pdfrwt beam="1">  1        2 0.12514304E+00 0.16336897E+04</pdfrwt>
<pdfrwt beam="2">  1       -2 0.12619604E+00 0.16336897E+04</pdfrwt>
<totfact> 0.15081703E+01</totfact>
</mgrwt>
</event>
<event>
12    1  0.1494110E-007  0.2307293E+04  0.7818608E-02  0.8475051E-01
         -1   -1    0    0    0  501 -0.00000000000E+00  0.00000000000E+00  0.50416939497E+03  0.50416939497E+03  0.00000000000E+00 0.  1.
          1   -1    0    0  501    0  0.00000000000E+00 -0.00000000000E+00 -0.26397868188E+04  0.26397868188E+04  0.00000000000E+00 0. -1.
         23    2    1    2    0    0  0.20702203965E+02  0.83835727112E+03 -0.16046234948E+04  0.18129287966E+04  0.92858851586E+02 0.  0.
        254    2    1    2    0    0 -0.20702203965E+02 -0.83835727112E+03 -0.53099392906E+03  0.13310274172E+04  0.88679644633E+03 0.  0.
        -24    2    4    4    0    0  0.27350220941E+03 -0.68147688421E+03 -0.50065222365E+02  0.74040083519E+03  0.80452893030E+02 0.  0.
         24    2    4    4    0    0 -0.29420441338E+03 -0.15688038691E+03 -0.48092870669E+03  0.59062658196E+03  0.79872684618E+02 0.  0.
         11    1    3    3    0    0  0.60788773556E+01  0.73278214760E+03 -0.13331281777E+04  0.15212617680E+04  0.00000000000E+00 0. -1.
        -11    1    3    3    0    0  0.14623326610E+02  0.10557512352E+03 -0.27149531711E+03  0.29166702865E+03  0.00000000000E+00 0.  1.
          4    1    6    6  502    0 -0.19965555122E+03 -0.14330057214E+03 -0.37075908622E+03  0.44481422316E+03  0.00000000000E+00 0. -1.
          3    1    5    5  503    0  0.17818761576E+03 -0.51785919793E+03 -0.15243152721E+02  0.54786981026E+03  0.00000000000E+00 0. -1.
         -4    1    5    5    0  503  0.95314593652E+02 -0.16361768628E+03 -0.34822069644E+02  0.19253102493E+03  0.00000000000E+00 0.  1.
         -3    1    6    6    0  502 -0.94548862155E+02 -0.13579814773E+02 -0.11016962047E+03  0.14581235880E+03  0.00000000000E+00 0.  1.
<mgrwt>
<rscale>  0 0.23072925E+04</rscale>
<asrwt>0</asrwt>
<pdfrwt beam="1">  1        1 0.40612104E+00 0.23072925E+04</pdfrwt>
<pdfrwt beam="2">  1       -1 0.77564524E-01 0.23072925E+04</pdfrwt>
<totfact> 0.16281670E+00</totfact>
</mgrwt>
</event>
<event>
12    1  0.1494110E-007  0.1449555E+04  0.7818608E-02  0.8918709E-01
          1   -1    0    0  501    0  0.00000000000E+00  0.00000000000E+00  0.18660812742E+04  0.18660812742E+04  0.00000000000E+00 0. -1.
         -1   -1    0    0    0  501 -0.00000000000E+00 -0.00000000000E+00 -0.28150032761E+03  0.28150032761E+03  0.00000000000E+00 0.  1.
         23    2    1    2    0    0 -0.31268952125E+03  0.30672365788E+03  0.43773716017E+03  0.62229238260E+03  0.61480476912E+02 0.  0.
        254    2    1    2    0    0  0.31268952125E+03 -0.30672365788E+03  0.11468437864E+04  0.15252892192E+04  0.90520848029E+03 0.  0.
        -24    2    4    4    0    0  0.42535393293E+03 -0.46908236127E+03  0.41321852529E+03  0.76054804855E+03  0.81972889364E+02 0.  0.
         24    2    4    4    0    0 -0.11266441167E+03  0.16235870339E+03  0.73362526112E+03  0.76474117067E+03  0.87002391485E+02 0.  0.
         11    1    3    3    0    0 -0.19718619077E+02  0.20305307919E+02  0.10083870802E+02  0.30046862038E+02  0.00000000000E+00 0. -1.
        -11    1    3    3    0    0 -0.29297090218E+03  0.28641834996E+03  0.42765328937E+03  0.59224552056E+03  0.00000000000E+00 0.  1.
          4    1    6    6  502    0 -0.83504200687E+02  0.48882152613E+02  0.38417192139E+03  0.39616976356E+03  0.00000000000E+00 0. -1.
          1    1    5    5  503    0  0.31885848481E+03 -0.30083977512E+03  0.30371195457E+03  0.53330690505E+03  0.00000000000E+00 0. -1.
         -2    1    5    5    0  503  0.10649544812E+03 -0.16824258615E+03  0.10950657072E+03  0.22724114349E+03  0.00000000000E+00 0.  1.
         -3    1    6    6    0  502 -0.29160210986E+02  0.11347655078E+03  0.34945333974E+03  0.36857140711E+03  0.00000000000E+00 0.  1.
<mgrwt>
<rscale>  0 0.14495551E+04</rscale>
<asrwt>0</asrwt>
<pdfrwt beam="1">  1        1 0.28708942E+00 0.14495551E+04</pdfrwt>
<pdfrwt beam="2">  1       -1 0.43307744E-01 0.14495551E+04</pdfrwt>
<totfact> 0.18777392E+01</totfact>
</mgrwt>
</event>
<event>
12    1  0.1494110E-007  0.1805904E+04  0.7818608E-02  0.8703166E-01
         -2   -1    0    0    0  501 -0.00000000000E+00  0.00000000000E+00  0.48942793889E+03  0.48942793889E+03  0.00000000000E+00 0.  1.
          2   -1    0    0  501    0  0.00000000000E+00 -0.00000000000E+00 -0.16658671556E+04  0.16658671556E+04  0.00000000000E+00 0. -1.
         23    2    1    2    0    0 -0.24854020740E+03 -0.16709515970E+03 -0.11691371237E+04  0.12103321817E+04  0.91265266948E+02 0.  0.
        254    2    1    2    0    0  0.24854020740E+03  0.16709515970E+03 -0.73020930521E+01  0.94496291284E+03  0.89621903516E+03 0.  0.
        -24    2    4    4    0    0 -0.24737510254E+03  0.24319696711E+03 -0.19219072122E+03  0.40438323522E+03  0.79052649792E+02 0.  0.
         24    2    4    4    0    0  0.49591530994E+03 -0.76101807406E+02  0.18488862816E+03  0.54057967762E+03  0.79492787809E+02 0.  0.
         11    1    3    3    0    0 -0.23001798045E+03 -0.13685285841E+03 -0.11059208768E+04  0.11378479520E+04  0.00000000000E+00 0. -1.
        -11    1    3    3    0    0 -0.18522226947E+02 -0.30242301295E+02 -0.63216246864E+02  0.72484229638E+02  0.00000000000E+00 0.  1.
          2    1    6    6  502    0  0.78948708803E+02 -0.34885557823E+02  0.53123171702E+02  0.10135073822E+03  0.00000000000E+00 0. -1.
          3    1    5    5  503    0 -0.23007132676E+01 -0.55446972340E+01 -0.66559307622E+01  0.89631670334E+01  0.00000000000E+00 0. -1.
         -2    1    5    5    0  503 -0.24507438927E+03  0.24874166434E+03 -0.18553479045E+03  0.39542006818E+03  0.00000000000E+00 0.  1.
         -1    1    6    6    0  502  0.41696660113E+03 -0.41216249583E+02  0.13176545646E+03  0.43922893940E+03  0.00000000000E+00 0.  1.
<mgrwt>
<rscale>  0 0.18059036E+04</rscale>
<asrwt>0</asrwt>
<pdfrwt beam="1">  1        2 0.25628725E+00 0.18059036E+04</pdfrwt>
<pdfrwt beam="2">  1       -2 0.75296607E-01 0.18059036E+04</pdfrwt>
<totfact> 0.15302365E+01</totfact>
</mgrwt>
</event>
<event>
12    1  0.1494110E-007  0.2372574E+04  0.7818608E-02  0.8449843E-01
          2   -1    0    0  501    0  0.00000000000E+00  0.00000000000E+00  0.14951830444E+04  0.14951830444E+04  0.00000000000E+00 0. -1.
         -2   -1    0    0    0  501 -0.00000000000E+00 -0.00000000000E+00 -0.94120707056E+03  0.94120707056E+03  0.00000000000E+00 0.  1.
         23    2    1    2    0    0 -0.58570165269E+03  0.42332213104E+03  0.99110071201E+03  0.12298861952E+04  0.89952094265E+02 0.  0.
        254    2    1    2    0    0  0.58570165269E+03 -0.42332213104E+03 -0.43712473817E+03  0.12065039197E+04  0.86158320493E+03 0.  0.
        -24    2    4    4    0    0  0.14923051240E+03 -0.24488161683E+02 -0.56998863637E+03  0.59512734743E+03  0.80125515099E+02 0.  0.
         24    2    4    4    0    0  0.43647114029E+03 -0.39883396935E+03  0.13286389820E+03  0.61137657231E+03  0.80950023481E+02 0.  0.
         11    1    3    3    0    0  0.33842471255E+01  0.34918379001E+01  0.67503473285E+01  0.83194500770E+01  0.00000000000E+00 0.  1.
        -11    1    3    3    0    0 -0.58908589981E+03  0.41983029314E+03  0.98435036468E+03  0.12215667451E+04  0.00000000000E+00 0. -1.
          2    1    6    6  502    0  0.72056334032E+02 -0.93845886897E+02  0.14004736762E+01  0.11832635838E+03  0.00000000000E+00 0. -1.
          1    1    5    5  503    0  0.47713530113E+02 -0.43394384928E+02 -0.27906347624E+03  0.28641940816E+03  0.00000000000E+00 0. -1.
         -2    1    5    5    0  503  0.10151698228E+03  0.18906223245E+02 -0.29092516013E+03  0.30870793927E+03  0.00000000000E+00 0.  1.
         -1    1    6    6    0  502  0.36441480626E+03 -0.30498808246E+03  0.13146342452E+03  0.49305021392E+03  0.00000000000E+00 0.  1.
<mgrwt>
<rscale>  0 0.23725740E+04</rscale>
<asrwt>0</asrwt>
<pdfrwt beam="1">  1        2 0.23002816E+00 0.23725740E+04</pdfrwt>
<pdfrwt beam="2">  1       -2 0.14480109E+00 0.23725740E+04</pdfrwt>
<totfact> 0.37866042E+00</totfact>
</mgrwt>
</event>
<event>
12    1  0.1494110E-007  0.1274082E+04  0.7818608E-02  0.9050375E-01
          2   -1    0    0  501    0  0.00000000000E+00  0.00000000000E+00  0.68489869513E+03  0.68489869513E+03  0.00000000000E+00 0.  1.
         -2   -1    0    0    0  501 -0.00000000000E+00 -0.00000000000E+00 -0.59252755420E+03  0.59252755420E+03  0.00000000000E+00 0. -1.
         23    2    1    2    0    0 -0.13006306702E+03 -0.65597200873E+02 -0.21117578021E+03  0.27510704767E+03  0.99344266890E+02 0.  0.
        254    2    1    2    0    0  0.13006306702E+03  0.65597200873E+02  0.30354692114E+03  0.10023192017E+04  0.94407820360E+03 0.  0.
        -24    2    4    4    0    0 -0.13860688923E+03 -0.30492991548E+03 -0.12846997901E+03  0.36760686580E+03  0.80225614250E+02 0.  0.
         24    2    4    4    0    0  0.26866995625E+03  0.37052711635E+03  0.43201690015E+03  0.63471233586E+03  0.82141694221E+02 0.  0.
         13    1    3    3    0    0 -0.86128952299E+02 -0.13647293517E+02 -0.50859711942E+02  0.10095125231E+03  0.00000000000E+00 0.  1.
        -13    1    3    3    0    0 -0.43934114720E+02 -0.51949907356E+02 -0.16031606827E+03  0.17415579536E+03  0.00000000000E+00 0. -1.
          2    1    6    6  502    0  0.21770009393E+03  0.25298861723E+03  0.27797849351E+03  0.43436000529E+03  0.00000000000E+00 0. -1.
          3    1    5    5  503    0 -0.77931516792E+02 -0.25244952943E+03 -0.98641252953E+02  0.28201805439E+03  0.00000000000E+00 0. -1.
         -4    1    5    5    0  503 -0.60675372438E+02 -0.52480386049E+02 -0.29828726055E+02  0.85588811409E+02  0.00000000000E+00 0.  1.
         -3    1    6    6    0  502  0.50969862316E+02  0.11753849912E+03  0.15403840665E+03  0.20035233056E+03  0.00000000000E+00 0.  1.
<mgrwt>
<rscale>  0 0.12740822E+04</rscale>
<asrwt>0</asrwt>
<pdfrwt beam="1">  1        2 0.10536903E+00 0.12740822E+04</pdfrwt>
<pdfrwt beam="2">  1       -2 0.91158085E-01 0.12740822E+04</pdfrwt>
<totfact> 0.42448538E+01</totfact>
</mgrwt>
</event>
<event>
12    1  0.1494110E-007  0.1510867E+04  0.7818608E-02  0.8877259E-01
          2   -1    0    0  501    0  0.00000000000E+00  0.00000000000E+00  0.49285590287E+03  0.49285590287E+03  0.00000000000E+00 0. -1.
         -2   -1    0    0    0  501 -0.00000000000E+00 -0.00000000000E+00 -0.11579036250E+04  0.11579036250E+04  0.00000000000E+00 0.  1.
         23    2    1    2    0    0  0.34952779822E+03  0.22798580844E+03 -0.47786226191E+03  0.64083596291E+03  0.90394576361E+02 0.  0.
        254    2    1    2    0    0 -0.34952779822E+03 -0.22798580844E+03 -0.18718546026E+03  0.10099235650E+04  0.90042212323E+03 0.  0.
        -24    2    4    4    0    0  0.23284668419E+03 -0.35039338169E+02 -0.29098447876E+03  0.38258281562E+03  0.79071552214E+02 0.  0.
         24    2    4    4    0    0 -0.58237448240E+03 -0.19294647027E+03  0.10379901851E+03  0.62734074936E+03  0.79961249528E+02 0.  0.
         13    1    3    3    0    0  0.92029703813E+02  0.78636997921E+02 -0.84899794252E+02  0.14785539858E+03  0.00000000000E+00 0. -1.
        -13    1    3    3    0    0  0.25749809440E+03  0.14934881051E+03 -0.39296246765E+03  0.49298056433E+03  0.00000000000E+00 0.  1.
          4    1    6    6  502    0 -0.17818420035E+02  0.74778879241E+01 -0.79577237862E-01  0.19324110145E+02  0.00000000000E+00 0. -1.
          1    1    5    5  503    0  0.55053400675E+02 -0.59246618163E+01 -0.23656795729E+02  0.60213142483E+02  0.00000000000E+00 0. -1.
         -2    1    5    5    0  503  0.17779328351E+03 -0.29114676352E+02 -0.26732768304E+03  0.32236967314E+03  0.00000000000E+00 0.  1.
         -3    1    6    6    0  502 -0.56455606237E+03 -0.20042435819E+03  0.10387859575E+03  0.60801663922E+03  0.00000000000E+00 0.  1.
<mgrwt>
<rscale>  0 0.15108668E+04</rscale>
<asrwt>0</asrwt>
<pdfrwt beam="1">  1        2 0.75823986E-01 0.15108668E+04</pdfrwt>
<pdfrwt beam="2">  1       -2 0.17813902E+00 0.15108668E+04</pdfrwt>
<totfact> 0.11280184E+01</totfact>
</mgrwt>
</event>
<event>
12    1  0.1494110E-007  0.2008868E+04  0.7818608E-02  0.8602486E-01
          2   -1    0    0  501    0  0.00000000000E+00  0.00000000000E+00  0.14971852989E+04  0.14971852989E+04  0.00000000000E+00 0. -1.
         -2   -1    0    0    0  501 -0.00000000000E+00 -0.00000000000E+00 -0.67385652268E+03  0.67385652268E+03  0.00000000000E+00 0.  1.
         23    2    1    2    0    0 -0.10063734499E+02 -0.68153687332E+03 -0.12191900677E+03  0.69847459821E+03  0.91699136722E+02 0.  0.
        254    2    1    2    0    0  0.10063734499E+02  0.68153687332E+03  0.94524778296E+03  0.14725672233E+04  0.90020390337E+03 0.  0.
        -24    2    4    4    0    0  0.61998151701E+02 -0.11153866719E+03 -0.82340229202E+02  0.17076929270E+03  0.78087085321E+02 0.  0.
         24    2    4    4    0    0 -0.51934417201E+02  0.79307554051E+03  0.10275880122E+04  0.13017979306E+04  0.84111431112E+02 0.  0.
         13    1    3    3    0    0 -0.46943120947E+02 -0.40685003400E+03 -0.53737651993E+02  0.41305973177E+03  0.00000000000E+00 0.  1.
        -13    1    3    3    0    0  0.36879386448E+02 -0.27468683933E+03 -0.68181354774E+02  0.28541486644E+03  0.00000000000E+00 0. -1.
          2    1    6    6  502    0 -0.14154842668E+02  0.38144701875E+03  0.42740402593E+03  0.57304135022E+03  0.00000000000E+00 0. -1.
          3    1    5    5  503    0  0.25510561164E+02 -0.58433669410E+02  0.30085742743E+01  0.63830509718E+02  0.00000000000E+00 0. -1.
         -2    1    5    5    0  503  0.36487590536E+02 -0.53104997775E+02 -0.85348803477E+02  0.10693878299E+03  0.00000000000E+00 0.  1.
         -1    1    6    6    0  502 -0.37779574534E+02  0.41162852176E+03  0.60018398623E+03  0.72875658042E+03  0.00000000000E+00 0.  1.
<mgrwt>
<rscale>  0 0.20088684E+04</rscale>
<asrwt>0</asrwt>
<pdfrwt beam="1">  1        2 0.23033620E+00 0.20088684E+04</pdfrwt>
<pdfrwt beam="2">  1       -2 0.10367023E+00 0.20088684E+04</pdfrwt>
<totfact> 0.89657953E+00</totfact>
</mgrwt>
</event>
<event>
12    1  0.1494110E-007  0.4289939E+04  0.7818608E-02  0.7948481E-01
         -2   -1    0    0    0  501 -0.00000000000E+00  0.00000000000E+00  0.13611388804E+04  0.13611388804E+04  0.00000000000E+00 0.  1.
          2   -1    0    0  501    0  0.00000000000E+00 -0.00000000000E+00 -0.33801805707E+04  0.33801805707E+04  0.00000000000E+00 0. -1.
         23    2    1    2    0    0  0.19237869292E+04  0.50141656946E+03 -0.15158653863E+04  0.25018096725E+04  0.93962987432E+02 0.  0.
        254    2    1    2    0    0 -0.19237869292E+04 -0.50141656946E+03 -0.50317630401E+03  0.22395097785E+04  0.89991273479E+03 0.  0.
        -24    2    4    4    0    0 -0.11544523676E+02 -0.16633579361E+03 -0.20087243068E+03  0.27314023454E+03  0.80342902937E+02 0.  0.
         24    2    4    4    0    0 -0.19122424055E+04 -0.33508077584E+03 -0.30230387333E+03  0.19663695440E+04  0.79192221754E+02 0.  0.
         11    1    3    3    0    0  0.17307034141E+04  0.45547028538E+03 -0.13281413615E+04  0.22286199686E+04  0.00000000000E+00 0. -1.
        -11    1    3    3    0    0  0.19308351514E+03  0.45946284072E+02 -0.18772402477E+03  0.27318970390E+03  0.00000000000E+00 0.  1.
          4    1    6    6  502    0 -0.55298560997E+03 -0.81979273528E+02 -0.54020354461E+02  0.56163322980E+03  0.00000000000E+00 0. -1.
          1    1    5    5  503    0 -0.44283139748E+02 -0.85440203795E+02 -0.87473929762E+02  0.13004888803E+03  0.00000000000E+00 0. -1.
         -2    1    5    5    0  503  0.32738616072E+02 -0.80895589818E+02 -0.11339850092E+03  0.14309134650E+03  0.00000000000E+00 0.  1.
         -3    1    6    6    0  502 -0.13592567956E+04 -0.25310150231E+03 -0.24828351887E+03  0.14047363142E+04  0.00000000000E+00 0.  1.
<mgrwt>
<rscale>  0 0.42899395E+04</rscale>
<asrwt>0</asrwt>
<pdfrwt beam="1">  1        2 0.52002778E+00 0.42899395E+04</pdfrwt>
<pdfrwt beam="2">  1       -2 0.20940598E+00 0.42899395E+04</pdfrwt>
<totfact> 0.87432825E-02</totfact>
</mgrwt>
</event>
<event>
12    1  0.1494110E-007  0.1344348E+04  0.7818608E-02  0.8995117E-01
         -2   -1    0    0    0  501 -0.00000000000E+00  0.00000000000E+00  0.74540058429E+03  0.74540058429E+03  0.00000000000E+00 0.  1.
          2   -1    0    0  501    0  0.00000000000E+00 -0.00000000000E+00 -0.60614123516E+03  0.60614123516E+03  0.00000000000E+00 0. -1.
         23    2    1    2    0    0  0.10980205051E+03  0.17417865992E+03  0.33219335933E+03  0.40155340466E+03  0.92184667637E+02 0.  0.
        254    2    1    2    0    0 -0.10980205051E+03 -0.17417865992E+03 -0.19293401020E+03  0.94998841479E+03  0.90711617783E+03 0.  0.
        -24    2    4    4    0    0  0.28584115353E+03 -0.34028283127E+03 -0.23929330940E+03  0.51107387755E+03  0.80234967955E+02 0.  0.
         24    2    4    4    0    0 -0.39564320404E+03  0.16610417136E+03  0.46359299192E+02  0.43891453724E+03  0.79828852725E+02 0.  0.
         13    1    3    3    0    0  0.80855528431E+02  0.15555537243E+03  0.32029401372E+03  0.36513469514E+03  0.00000000000E+00 0.  1.
        -13    1    3    3    0    0  0.28946522081E+02  0.18623287488E+02  0.11899345608E+02  0.36418709523E+02  0.00000000000E+00 0. -1.
          4    1    6    6  502    0 -0.10890565142E+03  0.40333969558E+02 -0.22573951699E+02  0.11830829771E+03  0.00000000000E+00 0. -1.
          1    1    5    5  503    0  0.35046977382E+02 -0.93012504754E+02 -0.53301691413E+02  0.11278602294E+03  0.00000000000E+00 0. -1.
         -2    1    5    5    0  503  0.25079417615E+03 -0.24727032652E+03 -0.18599161798E+03  0.39828785461E+03  0.00000000000E+00 0.  1.
         -3    1    6    6    0  502 -0.28673755262E+03  0.12577020180E+03  0.68933250891E+02  0.32060623953E+03  0.00000000000E+00 0.  1.
<mgrwt>
<rscale>  0 0.13443482E+04</rscale>
<asrwt>0</asrwt>
<pdfrwt beam="1">  1        2 0.93252498E-01 0.13443482E+04</pdfrwt>
<pdfrwt beam="2">  1       -2 0.11467701E+00 0.13443482E+04</pdfrwt>
<totfact> 0.28417850E+01</totfact>
</mgrwt>
</event>
<event>
12    1  0.1494110E-007  0.1156687E+04  0.7818608E-02  0.9151637E-01
          2   -1    0    0  501    0  0.00000000000E+00  0.00000000000E+00  0.77106082533E+03  0.77106082533E+03  0.00000000000E+00 0. -1.
         -2   -1    0    0    0  501 -0.00000000000E+00 -0.00000000000E+00 -0.43379341280E+03  0.43379341280E+03  0.00000000000E+00 0.  1.
         23    2    1    2    0    0 -0.19931267331E+03 -0.31179568611E+02  0.26091559995E+03  0.34245975395E+03  0.92217273521E+02 0.  0.
        254    2    1    2    0    0  0.19931267331E+03  0.31179568611E+02  0.76351812579E+02  0.86239448418E+03  0.83498319732E+03 0.  0.
        -24    2    4    4    0    0  0.51375331815E+03  0.14961870554E+02 -0.29208000996E+02  0.52088729836E+03  0.79398619600E+02 0.  0.
         24    2    4    4    0    0 -0.31444064483E+03  0.16217698057E+02  0.10555981358E+03  0.34150718582E+03  0.79676539005E+02 0.  0.
         11    1    3    3    0    0 -0.14792057041E+03  0.19408814912E+02  0.16477201740E+03  0.22227688805E+03  0.00000000000E+00 0. -1.
        -11    1    3    3    0    0 -0.51392102905E+02 -0.50588383523E+02  0.96143582554E+02  0.12018286590E+03  0.00000000000E+00 0.  1.
          2    1    6    6  502    0 -0.11503901235E+03  0.42666620847E+02  0.52657910170E+02  0.13351880167E+03  0.00000000000E+00 0. -1.
          1    1    5    5  503    0  0.51447765411E+03  0.12778006351E+02 -0.33806301910E+02  0.51574547994E+03  0.00000000000E+00 0. -1.
         -2    1    5    5    0  503 -0.72433596211E+00  0.21838642030E+01  0.45983009136E+01  0.51418184269E+01  0.00000000000E+00 0.  1.
         -1    1    6    6    0  502 -0.19940163248E+03 -0.26448922790E+02  0.52901903405E+02  0.20798838414E+03  0.00000000000E+00 0.  1.
<mgrwt>
<rscale>  0 0.11566868E+04</rscale>
<asrwt>0</asrwt>
<pdfrwt beam="1">  1        2 0.11862474E+00 0.11566868E+04</pdfrwt>
<pdfrwt beam="2">  1       -2 0.66737448E-01 0.11566868E+04</pdfrwt>
<totfact> 0.73836419E+01</totfact>
</mgrwt>
</event>
<event>
12    1  0.1494110E-007  0.1675897E+04  0.7818608E-02  0.8775232E-01
          2   -1    0    0  501    0  0.00000000000E+00  0.00000000000E+00  0.13370641424E+04  0.13370641424E+04  0.00000000000E+00 0. -1.
         -2   -1    0    0    0  501 -0.00000000000E+00 -0.00000000000E+00 -0.52514908563E+03  0.52514908563E+03  0.00000000000E+00 0.  1.
         23    2    1    2    0    0 -0.15310442582E+03  0.51726342365E+03  0.47750048126E+03  0.72596038076E+03  0.89494972968E+02 0.  0.
        254    2    1    2    0    0  0.15310442582E+03 -0.51726342365E+03  0.33441457549E+03  0.11362528472E+04  0.94246220610E+03 0.  0.
        -24    2    4    4    0    0  0.40512972388E+03 -0.47963994794E+03  0.51323446479E+03  0.81462513246E+03  0.77588128981E+02 0.  0.
         24    2    4    4    0    0 -0.25202529806E+03 -0.37623475704E+02 -0.17881988930E+03  0.32162771478E+03  0.80842793878E+02 0.  0.
         13    1    3    3    0    0 -0.30956445384E+02  0.40968367682E+02  0.73005664820E+02  0.89255452255E+02  0.00000000000E+00 0.  1.
        -13    1    3    3    0    0 -0.12214798044E+03  0.47629505596E+03  0.40449481644E+03  0.63670492851E+03  0.00000000000E+00 0. -1.
          2    1    6    6  502    0 -0.24202145579E+03 -0.43109447964E+02 -0.14380949750E+03  0.28480516347E+03  0.00000000000E+00 0. -1.
          1    1    5    5  503    0  0.26275165423E+03 -0.36348870313E+03  0.37642924207E+03  0.58554371603E+03  0.00000000000E+00 0. -1.
         -2    1    5    5    0  503  0.14237806965E+03 -0.11615124481E+03  0.13680522273E+03  0.22908141643E+03  0.00000000000E+00 0.  1.
         -1    1    6    6    0  502 -0.10003842272E+02  0.54859722598E+01 -0.35010391795E+02  0.36822551316E+02  0.00000000000E+00 0.  1.
<mgrwt>
<rscale>  0 0.16758974E+04</rscale>
<asrwt>0</asrwt>
<pdfrwt beam="1">  1        2 0.20570217E+00 0.16758974E+04</pdfrwt>
<pdfrwt beam="2">  1       -2 0.80792167E-01 0.16758974E+04</pdfrwt>
<totfact> 0.20276072E+01</totfact>
</mgrwt>
</event>
<event>
12    1  0.1494110E-007  0.2985451E+04  0.7818608E-02  0.8247898E-01
         -2   -1    0    0    0  501 -0.00000000000E+00  0.00000000000E+00  0.80602558330E+03  0.80602558330E+03  0.00000000000E+00 0.  1.
          2   -1    0    0  501    0  0.00000000000E+00 -0.00000000000E+00 -0.27644643486E+04  0.27644643486E+04  0.00000000000E+00 0. -1.
         23    2    1    2    0    0 -0.70129685611E+03 -0.89553808837E+03 -0.95037792275E+01  0.11411132610E+04  0.90793196190E+02 0.  0.
        254    2    1    2    0    0  0.70129685611E+03  0.89553808837E+03 -0.19489349861E+04  0.24293766709E+04  0.89984314252E+03 0.  0.
        -24    2    4    4    0    0  0.76823953066E+03  0.89831887680E+03 -0.19878486988E+04  0.23139058515E+04  0.73817745085E+02 0.  0.
         24    2    4    4    0    0 -0.66942674551E+02 -0.27807884296E+01  0.38913712756E+02  0.11547081937E+03  0.85616462349E+02 0.  0.
         13    1    3    3    0    0 -0.54754494364E+03 -0.64391592207E+03 -0.27471426882E+02  0.84568780250E+03  0.00000000000E+00 0. -1.
        -13    1    3    3    0    0 -0.15375191247E+03 -0.25162216630E+03  0.17967647654E+02  0.29542545849E+03  0.00000000000E+00 0.  1.
          4    1    6    6  502    0 -0.27711361411E+02 -0.43862011445E+02  0.17240041217E+02  0.54671881442E+02  0.00000000000E+00 0. -1.
          1    1    5    5  503    0  0.41267585931E+03  0.52056086084E+03 -0.10630818929E+04  0.12535661473E+04  0.00000000000E+00 0. -1.
         -2    1    5    5    0  503  0.35556367136E+03  0.37775801596E+03 -0.92476680592E+03  0.10603397042E+04  0.00000000000E+00 0.  1.
         -3    1    6    6    0  502 -0.39231313140E+02  0.41081223016E+02  0.21673671539E+02  0.60798937928E+02  0.00000000000E+00 0.  1.
<mgrwt>
<rscale>  0 0.29854507E+04</rscale>
<asrwt>0</asrwt>
<pdfrwt beam="1">  1        2 0.42530220E+00 0.29854507E+04</pdfrwt>
<pdfrwt beam="2">  1       -2 0.12400394E+00 0.29854507E+04</pdfrwt>
<totfact> 0.10182065E+00</totfact>
</mgrwt>
</event>
<event>
12    1  0.1494110E-007  0.2016299E+04  0.7818608E-02  0.8599038E-01
          2   -1    0    0  501    0  0.00000000000E+00  0.00000000000E+00  0.12243198253E+04  0.12243198253E+04  0.00000000000E+00 0. -1.
         -2   -1    0    0    0  501 -0.00000000000E+00 -0.00000000000E+00 -0.83014667155E+03  0.83014667155E+03  0.00000000000E+00 0.  1.
         23    2    1    2    0    0 -0.14333876278E+03 -0.42434145671E+03 -0.52499739193E+03  0.69606456281E+03  0.90950213138E+02 0.  0.
        254    2    1    2    0    0  0.14333876278E+03  0.42434145671E+03  0.91917054564E+03  0.13584019340E+04  0.89429841189E+03 0.  0.
        -24    2    4    4    0    0  0.17186048152E+03 -0.23551707227E+03  0.45657078253E+03  0.54833298890E+03  0.84899180302E+02 0.  0.
         24    2    4    4    0    0 -0.28521718744E+02  0.65985852897E+03  0.46259976311E+03  0.81006894510E+03  0.77371753766E+02 0.  0.
         11    1    3    3    0    0 -0.14705578583E+03 -0.41245801347E+03 -0.48157763242E+03  0.65089479416E+03  0.00000000000E+00 0.  1.
        -11    1    3    3    0    0  0.37170230518E+01 -0.11883443237E+02 -0.43419759512E+02  0.45169768647E+02  0.00000000000E+00 0. -1.
          4    1    6    6  502    0 -0.83702485015E+01  0.60711859564E+03  0.43695308031E+03  0.74805818264E+03  0.00000000000E+00 0. -1.
          3    1    5    5  503    0  0.13783940293E+03 -0.23103657318E+03  0.39658212494E+03  0.47922331013E+03  0.00000000000E+00 0. -1.
         -4    1    5    5    0  503  0.34021078593E+02 -0.44804990900E+01  0.59988657588E+02  0.69109678771E+02  0.00000000000E+00 0.  1.
         -1    1    6    6    0  502 -0.20151470243E+02  0.52739933339E+02  0.25646682801E+02  0.62010762455E+02  0.00000000000E+00 0.  1.
<mgrwt>
<rscale>  0 0.20162986E+04</rscale>
<asrwt>0</asrwt>
<pdfrwt beam="1">  1        2 0.18835690E+00 0.20162986E+04</pdfrwt>
<pdfrwt beam="2">  1       -2 0.12771487E+00 0.20162986E+04</pdfrwt>
<totfact> 0.77214980E+00</totfact>
</mgrwt>
</event>
<event>
12    1  0.1494110E-007  0.2717976E+04  0.7818608E-02  0.8329196E-01
          2   -1    0    0  501    0  0.00000000000E+00  0.00000000000E+00  0.32247988914E+04  0.32247988914E+04  0.00000000000E+00 0. -1.
         -2   -1    0    0    0  501 -0.00000000000E+00 -0.00000000000E+00 -0.57270186636E+03  0.57270186636E+03  0.00000000000E+00 0.  1.
         23    2    1    2    0    0 -0.49692646661E+03 -0.59993112519E+03 -0.11222606983E+03  0.79294380508E+03  0.96498285394E+02 0.  0.
        254    2    1    2    0    0  0.49692646661E+03  0.59993112519E+03  0.27643230948E+04  0.30045569526E+04  0.88262508508E+03 0.  0.
        -24    2    4    4    0    0  0.10286596498E+02  0.19898092970E+03  0.19947716008E+04  0.20062920174E+04  0.79966839615E+02 0.  0.
         24    2    4    4    0    0  0.48663987011E+03  0.40095019549E+03  0.76955149406E+03  0.99826493522E+03  0.82121595461E+02 0.  0.
         11    1    3    3    0    0 -0.27506246622E+03 -0.32044364478E+03 -0.12770326595E+02  0.42250037994E+03  0.00000000000E+00 0. -1.
        -11    1    3    3    0    0 -0.22186400038E+03 -0.27948748041E+03 -0.99455743236E+02  0.37044342514E+03  0.00000000000E+00 0.  1.
          4    1    6    6  502    0  0.28930189184E+03  0.20759489667E+03  0.48476069817E+03  0.60148496260E+03  0.00000000000E+00 0. -1.
          1    1    5    5  503    0  0.83992649863E+01  0.17521082168E+02  0.52507473659E+03  0.52543412049E+03  0.00000000000E+00 0. -1.
         -2    1    5    5    0  503  0.18873315117E+01  0.18145984753E+03  0.14696968642E+04  0.14808578969E+04  0.00000000000E+00 0.  1.
         -3    1    6    6    0  502  0.19733797827E+03  0.19335529882E+03  0.28479079589E+03  0.39677997262E+03  0.00000000000E+00 0.  1.
<mgrwt>
<rscale>  0 0.27179760E+04</rscale>
<asrwt>0</asrwt>
<pdfrwt beam="1">  1        2 0.49612290E+00 0.27179760E+04</pdfrwt>
<pdfrwt beam="2">  1       -2 0.88107981E-01 0.27179760E+04</pdfrwt>
<totfact> 0.12142405E+00</totfact>
</mgrwt>
</event>
<event>
12    1  0.1494110E-007  0.1747919E+04  0.7818608E-02  0.8734497E-01
          2   -1    0    0  501    0  0.00000000000E+00  0.00000000000E+00  0.30434128894E+03  0.30434128894E+03  0.00000000000E+00 0. -1.
         -2   -1    0    0    0  501 -0.00000000000E+00 -0.00000000000E+00 -0.25096989384E+04  0.25096989384E+04  0.00000000000E+00 0.  1.
         23    2    1    2    0    0  0.13546044906E+03 -0.21286008505E+03 -0.17615613413E+04  0.17818860635E+04  0.91436507793E+02 0.  0.
        254    2    1    2    0    0 -0.13546044906E+03  0.21286008505E+03 -0.44379630816E+03  0.10321541639E+04  0.89706638873E+03 0.  0.
        -24    2    4    4    0    0  0.29786310121E+03  0.34866119313E+03 -0.27744710619E+03  0.54165411652E+03  0.78263852097E+02 0.  0.
         24    2    4    4    0    0 -0.43332355027E+03 -0.13580110808E+03 -0.16634920197E+03  0.49050004736E+03  0.81896271507E+02 0.  0.
         11    1    3    3    0    0  0.93763288832E+02 -0.17220684044E+03 -0.15536090813E+04  0.15659335643E+04  0.00000000000E+00 0.  1.
        -11    1    3    3    0    0  0.41697160228E+02 -0.40653244613E+02 -0.20795225996E+03  0.21595249915E+03  0.00000000000E+00 0. -1.
          2    1    6    6  502    0 -0.33372718533E+03 -0.13050932656E+03 -0.10499971388E+03  0.37340522019E+03  0.00000000000E+00 0. -1.
          1    1    5    5  503    0  0.24230987208E+03  0.32354725895E+03 -0.24235857481E+03  0.47131155477E+03  0.00000000000E+00 0. -1.
         -2    1    5    5    0  503  0.55553229138E+02  0.25113934174E+02 -0.35088531389E+02  0.70342561742E+02  0.00000000000E+00 0.  1.
         -1    1    6    6    0  502 -0.99596364942E+02 -0.52917815150E+01 -0.61349488091E+02  0.11709482717E+03  0.00000000000E+00 0.  1.
<mgrwt>
<rscale>  0 0.17479188E+04</rscale>
<asrwt>0</asrwt>
<pdfrwt beam="1">  1        2 0.46821737E-01 0.17479188E+04</pdfrwt>
<pdfrwt beam="2">  1       -2 0.38610753E+00 0.17479188E+04</pdfrwt>
<totfact> 0.94122873E-01</totfact>
</mgrwt>
</event>
<event>
12    1  0.1494110E-007  0.3356940E+04  0.7818608E-02  0.8148556E-01
          1   -1    0    0  501    0  0.00000000000E+00  0.00000000000E+00  0.17873543759E+04  0.17873543759E+04  0.00000000000E+00 0. -1.
         -1   -1    0    0    0  501 -0.00000000000E+00 -0.00000000000E+00 -0.15762184697E+04  0.15762184697E+04  0.00000000000E+00 0.  1.
         23    2    1    2    0    0  0.13880038707E+04  0.62270966037E+03  0.42254206205E+03  0.15814691149E+04  0.90447228324E+02 0.  0.
        254    2    1    2    0    0 -0.13880038707E+04 -0.62270966037E+03 -0.21140615587E+03  0.17821037307E+04  0.90381363025E+03 0.  0.
        -24    2    4    4    0    0 -0.12209099581E+04 -0.64947532360E+03 -0.47020975206E+03  0.14628174285E+04  0.79361807670E+02 0.  0.
         24    2    4    4    0    0 -0.16709391258E+03  0.26765663237E+02  0.25880359618E+03  0.31928630221E+03  0.79546621762E+02 0.  0.
         11    1    3    3    0    0  0.58625759270E+03  0.23155233403E+03  0.21037506637E+03  0.66450892917E+03  0.00000000000E+00 0. -1.
        -11    1    3    3    0    0  0.80174627796E+03  0.39115732634E+03  0.21216699568E+03  0.91696018573E+03  0.00000000000E+00 0.  1.
          4    1    6    6  502    0 -0.19660331374E+02 -0.30384737033E+01 -0.61043860220E-01  0.19893835189E+02  0.00000000000E+00 0. -1.
          3    1    5    5  503    0 -0.23355925878E+03 -0.14515145671E+03 -0.12094355938E+03  0.30041008189E+03  0.00000000000E+00 0. -1.
         -4    1    5    5    0  503 -0.98735069930E+03 -0.50432386689E+03 -0.34926619268E+03  0.11624073466E+04  0.00000000000E+00 0.  1.
         -3    1    6    6    0  502 -0.14743358120E+03  0.29804136940E+02  0.25886464004E+03  0.29939246702E+03  0.00000000000E+00 0.  1.
<mgrwt>
<rscale>  0 0.33569397E+04</rscale>
<asrwt>0</asrwt>
<pdfrwt beam="1">  1        1 0.27497760E+00 0.33569397E+04</pdfrwt>
<pdfrwt beam="2">  1       -1 0.24249515E+00 0.33569397E+04</pdfrwt>
<totfact> 0.26788360E-01</totfact>
</mgrwt>
</event>
<event>
12    1  0.1494110E-007  0.1343134E+04  0.7818608E-02  0.8996042E-01
          2   -1    0    0  501    0  0.00000000000E+00  0.00000000000E+00  0.45502519172E+04  0.45502519172E+04  0.00000000000E+00 0. -1.
         -2   -1    0    0    0  501 -0.00000000000E+00 -0.00000000000E+00 -0.99115907503E+02  0.99115907503E+02  0.00000000000E+00 0.  1.
         23    2    1    2    0    0  0.16153688704E+03  0.30329381364E+03  0.94191335311E+03  0.10070439026E+04  0.94102889596E+02 0.  0.
        254    2    1    2    0    0 -0.16153688704E+03 -0.30329381364E+03  0.35092226566E+04  0.36423239221E+04  0.91312572869E+03 0.  0.
        -24    2    4    4    0    0 -0.15768122255E+03 -0.43828100591E+03  0.80666427776E+03  0.93512723201E+03  0.82474692676E+02 0.  0.
         24    2    4    4    0    0 -0.38556644942E+01  0.13498719227E+03  0.27025583789E+04  0.27071966901E+04  0.82799271842E+02 0.  0.
         13    1    3    3    0    0  0.34464975482E+02  0.16346632648E+02  0.16042959186E+03  0.16490209482E+03  0.00000000000E+00 0. -1.
        -13    1    3    3    0    0  0.12707191156E+03  0.28694718099E+03  0.78148376125E+03  0.84214180783E+03  0.00000000000E+00 0.  1.
          4    1    6    6  502    0  0.36879235006E+02  0.46425956787E+02  0.84070038410E+03  0.84278857566E+03  0.00000000000E+00 0. -1.
          3    1    5    5  503    0 -0.13859852233E+03 -0.30447903282E+03  0.62238025833E+03  0.70659338928E+03  0.00000000000E+00 0. -1.
         -4    1    5    5    0  503 -0.19082700216E+02 -0.13380197310E+03  0.18428401944E+03  0.22853384273E+03  0.00000000000E+00 0.  1.
         -3    1    6    6    0  502 -0.40734899500E+02  0.88561235487E+02  0.18618579948E+04  0.18644081144E+04  0.00000000000E+00 0.  1.
<mgrwt>
<rscale>  0 0.13431342E+04</rscale>
<asrwt>0</asrwt>
<pdfrwt beam="1">  1        2 0.70003859E+00 0.13431342E+04</pdfrwt>
<pdfrwt beam="2">  1       -2 0.15248605E-01 0.13431342E+04</pdfrwt>
<totfact> 0.38408227E+00</totfact>
</mgrwt>
</event>
<event>
12    1  0.1494110E-007  0.3191482E+04  0.7818608E-02  0.8191070E-01
          2   -1    0    0  501    0  0.00000000000E+00  0.00000000000E+00  0.24204810010E+04  0.24204810010E+04  0.00000000000E+00 0.  1.
         -2   -1    0    0    0  501 -0.00000000000E+00 -0.00000000000E+00 -0.10520181001E+04  0.10520181001E+04  0.00000000000E+00 0. -1.
         23    2    1    2    0    0 -0.60052421705E+02 -0.30188864779E+03  0.21923756290E+04  0.22157573294E+04  0.91250179235E+02 0.  0.
        254    2    1    2    0    0  0.60052421705E+02  0.30188864779E+03 -0.82391272809E+03  0.12567417716E+04  0.89767736302E+03 0.  0.
        -24    2    4    4    0    0 -0.34357537537E+03 -0.36960464661E+02 -0.12145896376E+03  0.37496439547E+03  0.80224082953E+02 0.  0.
         24    2    4    4    0    0  0.40362779707E+03  0.33884911245E+03 -0.70245376433E+03  0.88177737618E+03  0.79724090129E+02 0.  0.
         13    1    3    3    0    0 -0.52401257259E+02 -0.14586535590E+03  0.13643621930E+04  0.13731375705E+04  0.00000000000E+00 0. -1.
        -13    1    3    3    0    0 -0.76511644456E+01 -0.15602329189E+03  0.82801343599E+03  0.84261975891E+03  0.00000000000E+00 0.  1.
          4    1    6    6  502    0  0.76168695194E+01  0.29186693980E+02 -0.35433436516E+02  0.46533947072E+02  0.00000000000E+00 0. -1.
          1    1    5    5  503    0 -0.37926684807E+02 -0.29828229679E+01  0.11757644642E+02  0.39819252389E+02  0.00000000000E+00 0. -1.
         -2    1    5    5    0  503 -0.30564869056E+03 -0.33977641694E+02 -0.13321660840E+03  0.33514514308E+03  0.00000000000E+00 0.  1.
         -3    1    6    6    0  502  0.39601092755E+03  0.30966241847E+03 -0.66702032781E+03  0.83524342911E+03  0.00000000000E+00 0.  1.
<mgrwt>
<rscale>  0 0.31914823E+04</rscale>
<asrwt>0</asrwt>
<pdfrwt beam="1">  1        2 0.37238169E+00 0.31914823E+04</pdfrwt>
<pdfrwt beam="2">  1       -2 0.16184894E+00 0.31914823E+04</pdfrwt>
<totfact> 0.79580769E-01</totfact>
</mgrwt>
</event>
<event>
12    1  0.2124863E-007  0.2545038E+04  0.7818608E-02  0.8387114E-01
         -1   -1    0    0    0  501 -0.00000000000E+00  0.00000000000E+00  0.11036218314E+04  0.11036218314E+04  0.00000000000E+00 0.  1.
          1   -1    0    0  501    0  0.00000000000E+00 -0.00000000000E+00 -0.14672637210E+04  0.14672637210E+04  0.00000000000E+00 0. -1.
         23    2    1    2    0    0 -0.16143319556E+03  0.44908289261E+03  0.85393751492E+03  0.98252768288E+03  0.91734656337E+02 0.  0.
        254    2    1    2    0    0  0.16143319556E+03 -0.44908289261E+03 -0.12175794045E+04  0.15883578695E+04  0.90146824362E+03 0.  0.
        -24    2    4    4    0    0  0.11021059541E+03  0.18485890913E+03 -0.77753257860E+03  0.81076743259E+03  0.80422181827E+02 0.  0.
         24    2    4    4    0    0  0.51222600150E+02 -0.63394180173E+03 -0.44004682588E+03  0.77759043689E+03  0.80620815103E+02 0.  0.
         13    1    3    3    0    0 -0.29791311602E+02  0.22106058785E+02  0.92727816752E+02  0.99873159966E+02  0.00000000000E+00 0. -1.
        -13    1    3    3    0    0 -0.13164188396E+03  0.42697683382E+03  0.76120969817E+03  0.88265452291E+03  0.00000000000E+00 0.  1.
          2    1    6    6  502    0 -0.42960001293E+01 -0.69673537417E+02 -0.78909582307E+02  0.10535454244E+03  0.00000000000E+00 0. -1.
          1    1    5    5  503    0 -0.80865944023E+01  0.88754938277E+01 -0.10280790340E+03  0.10350667805E+03  0.00000000000E+00 0. -1.
         -4    1    5    5    0  503  0.11829718981E+03  0.17598341530E+03 -0.67472467520E+03  0.70726075453E+03  0.00000000000E+00 0.  1.
         -1    1    6    6    0  502  0.55518600279E+02 -0.56426826432E+03 -0.36113724357E+03  0.67223589445E+03  0.00000000000E+00 0.  1.
<mgrwt>
<rscale>  0 0.25450377E+04</rscale>
<asrwt>0</asrwt>
<pdfrwt beam="1">  1        1 0.22573288E+00 0.25450377E+04</pdfrwt>
<pdfrwt beam="2">  1       -1 0.16978797E+00 0.25450377E+04</pdfrwt>
<totfact> 0.15066037E+00</totfact>
</mgrwt>
</event>
<event>
12    1  0.1494110E-007  0.1341740E+04  0.7818608E-02  0.8997104E-01
         -2   -1    0    0    0  501 -0.00000000000E+00  0.00000000000E+00  0.60084787422E+03  0.60084787422E+03  0.00000000000E+00 0.  1.
          2   -1    0    0  501    0  0.00000000000E+00 -0.00000000000E+00 -0.74905293998E+03  0.74905293998E+03  0.00000000000E+00 0. -1.
         23    2    1    2    0    0  0.11363626228E+03 -0.26662980283E+03 -0.24528055661E+03  0.39089131643E+03  0.92891431002E+02 0.  0.
        254    2    1    2    0    0 -0.11363626228E+03  0.26662980283E+03  0.97075490855E+02  0.95900949776E+03  0.90899445214E+03 0.  0.
        -24    2    4    4    0    0 -0.43476470325E+03  0.38811448583E+03 -0.14151957253E+02  0.58950335716E+03  0.87525590033E+02 0.  0.
         24    2    4    4    0    0  0.32112844097E+03 -0.12148468301E+03  0.11122744811E+03  0.36950614060E+03  0.79254267562E+02 0.  0.
         13    1    3    3    0    0  0.19831401036E+02 -0.72301621868E+02 -0.11965478178E+03  0.14120225138E+03  0.00000000000E+00 0.  1.
        -13    1    3    3    0    0  0.93804861243E+02 -0.19432818096E+03 -0.12562577483E+03  0.24968906506E+03  0.00000000000E+00 0. -1.
          4    1    6    6  502    0  0.16836805483E+03 -0.10092077519E+03  0.43049488546E+02  0.20096284038E+03  0.00000000000E+00 0. -1.
          3    1    5    5  503    0 -0.98648248822E+02  0.11813572872E+03  0.27620385324E+02  0.15636627860E+03  0.00000000000E+00 0. -1.
         -4    1    5    5    0  503 -0.33611645443E+03  0.26997875711E+03 -0.41772342576E+02  0.43313707857E+03  0.00000000000E+00 0.  1.
         -3    1    6    6    0  502  0.15276038614E+03 -0.20563907817E+02  0.68177959561E+02  0.16854330022E+03  0.00000000000E+00 0.  1.
<mgrwt>
<rscale>  0 0.13417405E+04</rscale>
<asrwt>0</asrwt>
<pdfrwt beam="1">  1        2 0.11523891E+00 0.13417405E+04</pdfrwt>
<pdfrwt beam="2">  1       -2 0.92438135E-01 0.13417405E+04</pdfrwt>
<totfact> 0.36478593E+01</totfact>
</mgrwt>
</event>
<event>
12    1  0.1494110E-007  0.1879186E+04  0.7818608E-02  0.8665287E-01
          2   -1    0    0  501    0  0.00000000000E+00  0.00000000000E+00  0.20246064216E+04  0.20246064216E+04  0.00000000000E+00 0. -1.
         -2   -1    0    0    0  501 -0.00000000000E+00 -0.00000000000E+00 -0.43605262944E+03  0.43605262944E+03  0.00000000000E+00 0.  1.
         23    2    1    2    0    0 -0.43662696410E+03 -0.57468637416E+03  0.64280548818E+03  0.97081493211E+03  0.91516131621E+02 0.  0.
        254    2    1    2    0    0  0.43662696410E+03  0.57468637416E+03  0.94574830398E+03  0.14898441189E+04  0.89682111360E+03 0.  0.
        -24    2    4    4    0    0 -0.17017187241E+03  0.82669174213E+02  0.59574528815E+03  0.62992316341E+03  0.78090235799E+02 0.  0.
         24    2    4    4    0    0  0.60679883651E+03  0.49201719995E+03  0.35000301583E+03  0.85992095552E+03  0.81707928684E+02 0.  0.
         11    1    3    3    0    0 -0.32397405947E+03 -0.45136283958E+03  0.53941213193E+03  0.77437268304E+03  0.00000000000E+00 0. -1.
        -11    1    3    3    0    0 -0.11265290463E+03 -0.12332353458E+03  0.10339335625E+03  0.19644224907E+03  0.00000000000E+00 0.  1.
          2    1    6    6  502    0  0.17134384060E+03  0.18265838044E+03  0.13069148694E+03  0.28249435466E+03  0.00000000000E+00 0. -1.
          3    1    5    5  503    0 -0.39104894937E+02 -0.51802878539E+01  0.63247377620E+02  0.74540317722E+02  0.00000000000E+00 0. -1.
         -4    1    5    5    0  503 -0.13106697747E+03  0.87849462067E+02  0.53249791053E+03  0.55538284569E+03  0.00000000000E+00 0.  1.
         -1    1    6    6    0  502  0.43545499591E+03  0.30935881951E+03  0.21931152889E+03  0.57742660086E+03  0.00000000000E+00 0.  1.
<mgrwt>
<rscale>  0 0.18791859E+04</rscale>
<asrwt>0</asrwt>
<pdfrwt beam="1">  1        2 0.31147791E+00 0.18791859E+04</pdfrwt>
<pdfrwt beam="2">  1       -2 0.67085021E-01 0.18791859E+04</pdfrwt>
<totfact> 0.12384133E+01</totfact>
</mgrwt>
</event>
<event>
12    1  0.1494110E-007  0.1334764E+04  0.7818608E-02  0.9002442E-01
          1   -1    0    0  501    0  0.00000000000E+00  0.00000000000E+00  0.15935549818E+04  0.15935549818E+04  0.00000000000E+00 0. -1.
         -1   -1    0    0    0  501 -0.00000000000E+00 -0.00000000000E+00 -0.27950023427E+03  0.27950023427E+03  0.00000000000E+00 0.  1.
         23    2    1    2    0    0  0.31010066440E+03  0.17329901597E+03  0.55107624245E+03  0.66218836282E+03  0.92808576497E+02 0.  0.
        254    2    1    2    0    0 -0.31010066440E+03 -0.17329901597E+03  0.76297850504E+03  0.12108668532E+04  0.87055577998E+03 0.  0.
        -24    2    4    4    0    0 -0.32769368443E+02 -0.35926196802E+03 -0.57203460302E+01  0.36928359875E+03  0.78706167300E+02 0.  0.
         24    2    4    4    0    0 -0.27733129596E+03  0.18596295205E+03  0.76869885107E+03  0.84158325446E+03  0.76613205748E+02 0.  0.
         11    1    3    3    0    0  0.19900646561E+03  0.11556907106E+03  0.27184055508E+03  0.35617000284E+03  0.00000000000E+00 0.  1.
        -11    1    3    3    0    0  0.11109419879E+03  0.57729944906E+02  0.27923568737E+03  0.30601835998E+03  0.00000000000E+00 0. -1.
          4    1    6    6  502    0  0.34700856931E+00  0.15244412419E+02  0.53031175346E+02  0.55179870275E+02  0.00000000000E+00 0. -1.
          1    1    5    5  503    0 -0.11689147606E+02 -0.53892985526E+02  0.27078569587E+02  0.61435649192E+02  0.00000000000E+00 0. -1.
         -2    1    5    5    0  503 -0.21080220837E+02 -0.30536898249E+03 -0.32798915618E+02  0.30784794956E+03  0.00000000000E+00 0.  1.
         -3    1    6    6    0  502 -0.27767830453E+03  0.17071853964E+03  0.71566767573E+03  0.78640338419E+03  0.00000000000E+00 0.  1.
<mgrwt>
<rscale>  0 0.13347644E+04</rscale>
<asrwt>0</asrwt>
<pdfrwt beam="1">  1        1 0.24516230E+00 0.13347644E+04</pdfrwt>
<pdfrwt beam="2">  1       -1 0.43000037E-01 0.13347644E+04</pdfrwt>
<totfact> 0.29446055E+01</totfact>
</mgrwt>
</event>
<event>
12    1  0.1494110E-007  0.1512452E+04  0.7818608E-02  0.8876215E-01
          1   -1    0    0  501    0  0.00000000000E+00  0.00000000000E+00  0.70931734391E+03  0.70931734391E+03  0.00000000000E+00 0. -1.
         -1   -1    0    0    0  501 -0.00000000000E+00 -0.00000000000E+00 -0.80623673958E+03  0.80623673958E+03  0.00000000000E+00 0.  1.
         23    2    1    2    0    0  0.20034466039E+03 -0.33101929363E+03 -0.32522259705E+03  0.51061631983E+03  0.72439856055E+02 0.  0.
        254    2    1    2    0    0 -0.20034466039E+03  0.33101929363E+03  0.22830320137E+03  0.10049377637E+04  0.89892480296E+03 0.  0.
        -24    2    4    4    0    0 -0.13885111429E+03 -0.19686409891E+03  0.36950889083E+03  0.44807295974E+03  0.78723893884E+02 0.  0.
         24    2    4    4    0    0 -0.61493546094E+02  0.52788339254E+03 -0.14120568946E+03  0.55686480392E+03  0.87846632158E+02 0.  0.
         11    1    3    3    0    0  0.42900243668E+02 -0.39469448828E+02 -0.24788984740E+02  0.63346365815E+02  0.00000000000E+00 0. -1.
        -11    1    3    3    0    0  0.15744441672E+03 -0.29154984480E+03 -0.30043361231E+03  0.44726995402E+03  0.00000000000E+00 0.  1.
          4    1    6    6  502    0 -0.74996786773E+02  0.35120958955E+03 -0.11878650497E+03  0.37826304020E+03  0.00000000000E+00 0. -1.
          3    1    5    5  503    0 -0.88960372411E+02 -0.16533866956E+03  0.23213744225E+03  0.29856090770E+03  0.00000000000E+00 0. -1.
         -4    1    5    5    0  503 -0.49890741881E+02 -0.31525429354E+02  0.13737144858E+03  0.14951205205E+03  0.00000000000E+00 0.  1.
         -3    1    6    6    0  502  0.13503240679E+02  0.17667380299E+03 -0.22419184488E+02  0.17860176372E+03  0.00000000000E+00 0.  1.
<mgrwt>
<rscale>  0 0.15124519E+04</rscale>
<asrwt>0</asrwt>
<pdfrwt beam="1">  1        1 0.10912575E+00 0.15124519E+04</pdfrwt>
<pdfrwt beam="2">  1       -1 0.12403642E+00 0.15124519E+04</pdfrwt>
<totfact> 0.14724437E+01</totfact>
</mgrwt>
</event>
<event>
12    1  0.1494110E-007  0.1454405E+04  0.7818608E-02  0.8915352E-01
         -2   -1    0    0    0  501 -0.00000000000E+00  0.00000000000E+00  0.29309571379E+03  0.29309571379E+03  0.00000000000E+00 0.  1.
          2   -1    0    0  501    0  0.00000000000E+00 -0.00000000000E+00 -0.18042698701E+04  0.18042698701E+04  0.00000000000E+00 0. -1.
         23    2    1    2    0    0 -0.37666800089E+03  0.21603593023E+03 -0.32162471382E+03  0.54739218596E+03  0.87438221985E+02 0.  0.
        254    2    1    2    0    0  0.37666800089E+03 -0.21603593023E+03 -0.11895494425E+04  0.15499733979E+04  0.89377813359E+03 0.  0.
        -24    2    4    4    0    0  0.10141516877E+03  0.14787556481E+03 -0.10468788083E+04  0.10650842261E+04  0.79353324808E+02 0.  0.
         24    2    4    4    0    0  0.27525283212E+03 -0.36391149503E+03 -0.14267063413E+03  0.48488917183E+03  0.81036419636E+02 0.  0.
         11    1    3    3    0    0 -0.12332268291E+02  0.30878595933E+02 -0.15042416984E+02  0.36494476798E+02  0.00000000000E+00 0. -1.
        -11    1    3    3    0    0 -0.36433573260E+03  0.18515733429E+03 -0.30658229683E+03  0.51089770916E+03  0.00000000000E+00 0.  1.
          2    1    6    6  502    0  0.16483631742E+03 -0.15211805576E+03 -0.77461332071E+02  0.23729975220E+03  0.00000000000E+00 0. -1.
          3    1    5    5  503    0 -0.42788206658E+01 -0.41208793762E+01 -0.10589289497E+03  0.10605939449E+03  0.00000000000E+00 0. -1.
         -4    1    5    5    0  503  0.10569398944E+03  0.15199644418E+03 -0.94098591336E+03  0.95902483159E+03  0.00000000000E+00 0.  1.
         -1    1    6    6    0  502  0.11041651470E+03 -0.21179343927E+03 -0.65209302063E+02  0.24758941963E+03  0.00000000000E+00 0.  1.
<mgrwt>
<rscale>  0 0.14544054E+04</rscale>
<asrwt>0</asrwt>
<pdfrwt beam="1">  1        2 0.27757998E+00 0.14544054E+04</pdfrwt>
<pdfrwt beam="2">  1       -2 0.45091649E-01 0.14544054E+04</pdfrwt>
<totfact> 0.38804880E+01</totfact>
</mgrwt>
</event>
<event>
12    1  0.1494110E-007  0.1458737E+04  0.7818608E-02  0.8912366E-01
         -2   -1    0    0    0  501 -0.00000000000E+00  0.00000000000E+00  0.89232518116E+03  0.89232518116E+03  0.00000000000E+00 0.  1.
          2   -1    0    0  501    0  0.00000000000E+00 -0.00000000000E+00 -0.59617084891E+03  0.59617084891E+03  0.00000000000E+00 0. -1.
         23    2    1    2    0    0  0.37391158798E+03  0.21842895279E+03  0.16062529647E+03  0.47084108432E+03  0.91486380290E+02 0.  0.
        254    2    1    2    0    0 -0.37391158798E+03 -0.21842895279E+03  0.13552903579E+03  0.10176549457E+04  0.91089647382E+03 0.  0.
        -24    2    4    4    0    0 -0.23162323124E+03  0.34344618535E+03  0.84968716680E+02  0.43045222392E+03  0.80404171423E+02 0.  0.
         24    2    4    4    0    0 -0.14228835674E+03 -0.56187513814E+03  0.50560319109E+02  0.58720272183E+03  0.79379111382E+02 0.  0.
         13    1    3    3    0    0  0.96160917546E+02  0.41576636823E+02  0.66099483312E+00  0.10476629089E+03  0.00000000000E+00 0. -1.
        -13    1    3    3    0    0  0.27775067043E+03  0.17685231596E+03  0.15996430163E+03  0.36607479343E+03  0.00000000000E+00 0.  1.
          2    1    6    6  502    0 -0.11951147430E+03 -0.54121913059E+03  0.48882421041E+02  0.55640869053E+03  0.00000000000E+00 0. -1.
          3    1    5    5  503    0 -0.17229655482E+03  0.30762809625E+03  0.67705530143E+02  0.35903368535E+03  0.00000000000E+00 0. -1.
         -4    1    5    5    0  503 -0.59326676422E+02  0.35818089102E+02  0.17263186536E+02  0.71418538571E+02  0.00000000000E+00 0.  1.
         -1    1    6    6    0  502 -0.22776882439E+02 -0.20656007550E+02  0.16778980687E+01  0.30794031296E+02  0.00000000000E+00 0.  1.
<mgrwt>
<rscale>  0 0.14587368E+04</rscale>
<asrwt>0</asrwt>
<pdfrwt beam="1">  1        2 0.91718592E-01 0.14587368E+04</pdfrwt>
<pdfrwt beam="2">  1       -2 0.13728080E+00 0.14587368E+04</pdfrwt>
<totfact> 0.18295823E+01</totfact>
</mgrwt>
</event>
<event>
12    1  0.1494110E-007  0.1815837E+04  0.7818608E-02  0.8697922E-01
          2   -1    0    0  501    0  0.00000000000E+00  0.00000000000E+00  0.15301899858E+04  0.15301899858E+04  0.00000000000E+00 0. -1.
         -2   -1    0    0    0  501 -0.00000000000E+00 -0.00000000000E+00 -0.53870201329E+03  0.53870201329E+03  0.00000000000E+00 0.  1.
         23    2    1    2    0    0 -0.62794305597E+03  0.49168405407E+02  0.18519039761E+03  0.66275368389E+03  0.90647385608E+02 0.  0.
        254    2    1    2    0    0  0.62794305597E+03 -0.49168405407E+02  0.80629757492E+03  0.14061383152E+04  0.96456164582E+03 0.  0.
        -24    2    4    4    0    0  0.60383653022E+03 -0.34021939252E+03  0.85289316729E+03  0.11019270446E+04  0.80303590387E+02 0.  0.
         24    2    4    4    0    0  0.24106525747E+02  0.29105098712E+03 -0.46595592370E+02  0.30421127058E+03  0.71284964984E+02 0.  0.
         11    1    3    3    0    0 -0.94648108798E+02 -0.17781938727E+02  0.50097793594E+02  0.10855528899E+03  0.00000000000E+00 0. -1.
        -11    1    3    3    0    0 -0.53329494717E+03  0.66950344135E+02  0.13509260402E+03  0.55419839491E+03  0.00000000000E+00 0.  1.
          4    1    6    6  502    0  0.23048538357E+02  0.27929774560E+03 -0.27274258511E+02  0.28157121833E+03  0.00000000000E+00 0. -1.
          3    1    5    5  503    0  0.36508566831E+03 -0.23880158652E+03  0.49314992788E+03  0.65841521420E+03  0.00000000000E+00 0. -1.
         -4    1    5    5    0  503  0.23875086191E+03 -0.10141780601E+03  0.35974323941E+03  0.44351183044E+03  0.00000000000E+00 0.  1.
         -3    1    6    6    0  502  0.10579873903E+01  0.11753241519E+02 -0.19321333859E+02  0.22640052244E+02  0.00000000000E+00 0.  1.
<mgrwt>
<rscale>  0 0.18158375E+04</rscale>
<asrwt>0</asrwt>
<pdfrwt beam="1">  1        2 0.23541384E+00 0.18158375E+04</pdfrwt>
<pdfrwt beam="2">  1       -2 0.82877233E-01 0.18158375E+04</pdfrwt>
<totfact> 0.14686913E+01</totfact>
</mgrwt>
</event>
<event>
12    1  0.1494110E-007  0.1838869E+04  0.7818608E-02  0.8685898E-01
         -1   -1    0    0    0  501 -0.00000000000E+00  0.00000000000E+00  0.60595054090E+03  0.60595054090E+03  0.00000000000E+00 0.  1.
          1   -1    0    0  501    0  0.00000000000E+00 -0.00000000000E+00 -0.13950965569E+04  0.13950965569E+04  0.00000000000E+00 0. -1.
         23    2    1    2    0    0 -0.19746725223E+03 -0.93798677837E+02  0.41678224580E+03  0.48018062619E+03  0.95260094946E+02 0.  0.
        254    2    1    2    0    0  0.19746725223E+03  0.93798677837E+02 -0.12059282618E+04  0.15208664716E+04  0.90054447098E+03 0.  0.
        -24    2    4    4    0    0  0.13693527358E+03 -0.55969588608E+02  0.10467310785E+03  0.19790416466E+03  0.79534488645E+02 0.  0.
         24    2    4    4    0    0  0.60531978650E+02  0.14976826645E+03 -0.13106013696E+04  0.13229623069E+04  0.80365797665E+02 0.  0.
         11    1    3    3    0    0 -0.28205402179E+02 -0.17171686947E+02  0.15915143718E+03  0.16254104559E+03  0.00000000000E+00 0. -1.
        -11    1    3    3    0    0 -0.16926185005E+03 -0.76626990890E+02  0.25763080862E+03  0.31763958060E+03  0.00000000000E+00 0.  1.
          4    1    6    6  502    0  0.39494787606E+02  0.14478547791E+03 -0.95653122591E+03  0.96823275043E+03  0.00000000000E+00 0. -1.
          3    1    5    5  503    0 -0.10052393071E+02 -0.28870412013E+01  0.13133797653E+02  0.16789349425E+02  0.00000000000E+00 0. -1.
         -4    1    5    5    0  503  0.14698766665E+03 -0.53082547407E+02  0.91539310196E+02  0.18111481523E+03  0.00000000000E+00 0.  1.
         -3    1    6    6    0  502  0.21037191044E+02  0.49827885340E+01 -0.35407014372E+03  0.35472955651E+03  0.00000000000E+00 0.  1.
<mgrwt>
<rscale>  0 0.18388687E+04</rscale>
<asrwt>0</asrwt>
<pdfrwt beam="1">  1        1 0.21463024E+00 0.18388687E+04</pdfrwt>
<pdfrwt beam="2">  1       -1 0.93223161E-01 0.18388687E+04</pdfrwt>
<totfact> 0.81358355E+00</totfact>
</mgrwt>
</event>
<event>
12    1  0.1494110E-007  0.1927351E+04  0.7818608E-02  0.8641361E-01
          1   -1    0    0  501    0  0.00000000000E+00  0.00000000000E+00  0.16553259707E+04  0.16553259707E+04  0.00000000000E+00 0. -1.
         -1   -1    0    0    0  501 -0.00000000000E+00 -0.00000000000E+00 -0.56101952070E+03  0.56101952070E+03  0.00000000000E+00 0.  1.
         23    2    1    2    0    0  0.43001051736E+03  0.33228684691E+03  0.10253295092E+04  0.11651145175E+04  0.10424798666E+03 0.  0.
        254    2    1    2    0    0 -0.43001051736E+03 -0.33228684691E+03  0.68976940787E+02  0.10512309739E+04  0.89722079139E+03 0.  0.
        -24    2    4    4    0    0  0.96464866244E+02 -0.44353046397E+03 -0.11834306605E+03  0.47586491557E+03  0.80109885158E+02 0.  0.
         24    2    4    4    0    0 -0.52647538361E+03  0.11124361706E+03  0.18732000684E+03  0.57536605835E+03  0.80036518274E+02 0.  0.
         11    1    3    3    0    0  0.17652628463E+03  0.11634868129E+03  0.30014008039E+03  0.36712751553E+03  0.00000000000E+00 0.  1.
        -11    1    3    3    0    0  0.25348423274E+03  0.21593816562E+03  0.72518942882E+03  0.79798700195E+03  0.00000000000E+00 0. -1.
          4    1    6    6  502    0 -0.49495444024E+03  0.99773660713E+02  0.15348863477E+03  0.52772477893E+03  0.00000000000E+00 0. -1.
          1    1    5    5  503    0  0.51652894201E+02 -0.29010901528E+03 -0.11405821834E+03  0.31597553607E+03  0.00000000000E+00 0. -1.
         -2    1    5    5    0  503  0.44811972043E+02 -0.15342144869E+03 -0.42848477144E+01  0.15988937950E+03  0.00000000000E+00 0.  1.
         -3    1    6    6    0  502 -0.31520943364E+02  0.11469956350E+02  0.33831372067E+02  0.47641279424E+02  0.00000000000E+00 0.  1.
<mgrwt>
<rscale>  0 0.19273507E+04</rscale>
<asrwt>0</asrwt>
<pdfrwt beam="1">  1        1 0.25466553E+00 0.19273507E+04</pdfrwt>
<pdfrwt beam="2">  1       -1 0.86310696E-01 0.19273507E+04</pdfrwt>
<totfact> 0.63198763E+00</totfact>
</mgrwt>
</event>
<event>
12    1  0.1494110E-007  0.1674426E+04  0.7818608E-02  0.8776086E-01
         -1   -1    0    0    0  501 -0.00000000000E+00  0.00000000000E+00  0.56287286658E+03  0.56287286658E+03  0.00000000000E+00 0.  1.
          1   -1    0    0  501    0  0.00000000000E+00 -0.00000000000E+00 -0.12452645911E+04  0.12452645911E+04  0.00000000000E+00 0. -1.
         23    2    1    2    0    0  0.54430960779E+03 -0.77300187918E+01 -0.50170457741E+03  0.74663395837E+03  0.97067412073E+02 0.  0.
        254    2    1    2    0    0 -0.54430960779E+03  0.77300187918E+01 -0.18068714716E+03  0.10615034993E+04  0.89320161871E+03 0.  0.
        -24    2    4    4    0    0 -0.73680784681E+03 -0.86525967434E+02 -0.29864549662E+03  0.80377606543E+03  0.80587123886E+02 0.  0.
         24    2    4    4    0    0  0.19249823903E+03  0.94255986225E+02  0.11795834946E+03  0.25772743392E+03  0.81052421430E+02 0.  0.
         11    1    3    3    0    0  0.42118486923E+03 -0.14875790383E+02 -0.33024320294E+03  0.53542371660E+03  0.00000000000E+00 0.  1.
        -11    1    3    3    0    0  0.12312473855E+03  0.71457715916E+01 -0.17146137447E+03  0.21121024177E+03  0.00000000000E+00 0. -1.
          2    1    6    6  502    0  0.18993110053E+03  0.71223189052E+02  0.11776115474E+03  0.23455117815E+03  0.00000000000E+00 0. -1.
          3    1    5    5  503    0 -0.24754553744E+03 -0.63641348129E+02 -0.84384702930E+02  0.26916499101E+03  0.00000000000E+00 0. -1.
         -4    1    5    5    0  503 -0.48926230938E+03 -0.22884619304E+02 -0.21426079369E+03  0.53461107442E+03  0.00000000000E+00 0.  1.
         -1    1    6    6    0  502  0.25671384983E+01  0.23032797173E+02  0.19719472227E+00  0.23176255769E+02  0.00000000000E+00 0.  1.
<mgrwt>
<rscale>  0 0.16744261E+04</rscale>
<asrwt>0</asrwt>
<pdfrwt beam="1">  1        1 0.19157917E+00 0.16744261E+04</pdfrwt>
<pdfrwt beam="2">  1       -1 0.86595826E-01 0.16744261E+04</pdfrwt>
<totfact> 0.12419402E+01</totfact>
</mgrwt>
</event>
<event>
12    1  0.1494110E-007  0.1561401E+04  0.7818608E-02  0.8844618E-01
          2   -1    0    0  501    0  0.00000000000E+00  0.00000000000E+00  0.52860453784E+03  0.52860453784E+03  0.00000000000E+00 0. -1.
         -2   -1    0    0    0  501 -0.00000000000E+00 -0.00000000000E+00 -0.11530236752E+04  0.11530236752E+04  0.00000000000E+00 0.  1.
         23    2    1    2    0    0 -0.11663183329E+03  0.26052018424E+03 -0.68684025673E+03  0.74923648411E+03  0.90177712982E+02 0.  0.
        254    2    1    2    0    0  0.11663183329E+03 -0.26052018424E+03  0.62421119338E+02  0.93239172897E+03  0.88542881655E+03 0.  0.
        -24    2    4    4    0    0 -0.16211682789E+03  0.22996261050E+03  0.18965293999E+03  0.34856783079E+03  0.79791145518E+02 0.  0.
         24    2    4    4    0    0  0.27874866119E+03 -0.49048279475E+03 -0.12723182065E+03  0.58382389818E+03  0.79926340082E+02 0.  0.
         11    1    3    3    0    0 -0.39817248705E+00  0.28024392187E+01  0.27474220576E+01  0.39446843812E+01  0.00000000000E+00 0. -1.
        -11    1    3    3    0    0 -0.11623366081E+03  0.25771774502E+03 -0.68958767879E+03  0.74529179973E+03  0.00000000000E+00 0.  1.
          4    1    6    6  502    0  0.26215754751E+02 -0.85333634828E+02  0.17924419535E+01  0.89287781238E+02  0.00000000000E+00 0. -1.
          3    1    5    5  503    0 -0.14435438230E+02  0.22982199153E+02 -0.59327721439E+01  0.27780589268E+02  0.00000000000E+00 0. -1.
         -4    1    5    5    0  503 -0.14768138966E+03  0.20698041135E+03  0.19558571213E+03  0.32078724153E+03  0.00000000000E+00 0.  1.
         -3    1    6    6    0  502  0.25253290644E+03 -0.40514915992E+03 -0.12902426260E+03  0.49453611694E+03  0.00000000000E+00 0.  1.
<mgrwt>
<rscale>  0 0.15614014E+04</rscale>
<asrwt>0</asrwt>
<pdfrwt beam="1">  1        2 0.81323775E-01 0.15614014E+04</pdfrwt>
<pdfrwt beam="2">  1       -2 0.17738826E+00 0.15614014E+04</pdfrwt>
<totfact> 0.10479773E+01</totfact>
</mgrwt>
</event>
<event>
12    1  0.1494110E-007  0.1172691E+04  0.7818608E-02  0.9137101E-01
         -2   -1    0    0    0  501 -0.00000000000E+00  0.00000000000E+00  0.71383593048E+03  0.71383593048E+03  0.00000000000E+00 0. -1.
          2   -1    0    0  501    0  0.00000000000E+00 -0.00000000000E+00 -0.48162489479E+03  0.48162489479E+03  0.00000000000E+00 0.  1.
         23    2    1    2    0    0 -0.31623359482E+02 -0.19780795058E+03 -0.69431037109E+02  0.23061148609E+03  0.90735695437E+02 0.  0.
        254    2    1    2    0    0  0.31623359482E+02  0.19780795058E+03  0.30164207280E+03  0.96484933917E+03  0.89432560348E+03 0.  0.
        -24    2    4    4    0    0 -0.32564182550E+03  0.25120254857E+03 -0.87626158145E+02  0.42784703626E+03  0.78926699672E+02 0.  0.
         24    2    4    4    0    0  0.35726518498E+03 -0.53394597989E+02  0.38926823094E+03  0.53700230292E+03  0.79701456845E+02 0.  0.
         11    1    3    3    0    0 -0.30465740396E+02 -0.55333150013E+02 -0.61111447056E+02  0.87889292804E+02  0.00000000000E+00 0. -1.
        -11    1    3    3    0    0 -0.11576190857E+01 -0.14247480057E+03 -0.83195900522E+01  0.14272219329E+03  0.00000000000E+00 0.  1.
          4    1    6    6  502    0  0.23022501788E+03 -0.12885204983E+02  0.19852552246E+03  0.30427285523E+03  0.00000000000E+00 0. -1.
          3    1    5    5  503    0 -0.30687987553E+03  0.23955536430E+03 -0.62329872067E+02  0.39426773076E+03  0.00000000000E+00 0. -1.
         -4    1    5    5    0  503 -0.18761949971E+02  0.11647184265E+02 -0.25296286077E+02  0.33579305492E+02  0.00000000000E+00 0.  1.
         -3    1    6    6    0  502  0.12704016710E+03 -0.40509393006E+02  0.19074270849E+03  0.23272944769E+03  0.00000000000E+00 0.  1.
<mgrwt>
<rscale>  0 0.11726912E+04</rscale>
<asrwt>0</asrwt>
<pdfrwt beam="1">  1        2 0.74096138E-01 0.11726912E+04</pdfrwt>
<pdfrwt beam="2">  1       -2 0.10982091E+00 0.11726912E+04</pdfrwt>
<totfact> 0.41933894E+01</totfact>
</mgrwt>
</event>
<event>
12    1  0.1494110E-007  0.1934962E+04  0.7818608E-02  0.8637646E-01
         -1   -1    0    0    0  501 -0.00000000000E+00  0.00000000000E+00  0.89118923027E+03  0.89118923027E+03  0.00000000000E+00 0.  1.
          1   -1    0    0  501    0  0.00000000000E+00 -0.00000000000E+00 -0.10503043687E+04  0.10503043687E+04  0.00000000000E+00 0. -1.
         23    2    1    2    0    0  0.47179506175E+03 -0.34402929468E+03 -0.54923907360E+03  0.80689199926E+03  0.92002188070E+02 0.  0.
        254    2    1    2    0    0 -0.47179506175E+03  0.34402929468E+03  0.39012393521E+03  0.11346015997E+04  0.89116629719E+03 0.  0.
        -24    2    4    4    0    0 -0.21076958405E+03  0.62252300571E+03  0.15740113101E+03  0.68054195377E+03  0.80022025675E+02 0.  0.
         24    2    4    4    0    0 -0.26102547770E+03 -0.27849371103E+03  0.23272280420E+03  0.45405964590E+03  0.79480886664E+02 0.  0.
         11    1    3    3    0    0  0.46260614881E+03 -0.34999013723E+03 -0.53728218150E+03  0.79067672764E+03  0.00000000000E+00 0. -1.
        -11    1    3    3    0    0  0.91889129436E+01  0.59608425518E+01 -0.11956892098E+02  0.16215271619E+02  0.00000000000E+00 0.  1.
          2    1    6    6  502    0 -0.11519926940E+03 -0.13842504461E+03  0.65367538836E+02  0.19158622022E+03  0.00000000000E+00 0. -1.
          3    1    5    5  503    0 -0.16766674995E+02  0.14624219657E+02  0.14727518723E+02  0.26681248073E+02  0.00000000000E+00 0. -1.
         -4    1    5    5    0  503 -0.19400290905E+03  0.60789878606E+03  0.14267361228E+03  0.65386070570E+03  0.00000000000E+00 0.  1.
         -1    1    6    6    0  502 -0.14582620830E+03 -0.14006866642E+03  0.16735526537E+03  0.26247342568E+03  0.00000000000E+00 0.  1.
<mgrwt>
<rscale>  0 0.19349625E+04</rscale>
<asrwt>0</asrwt>
<pdfrwt beam="1">  1        1 0.16158529E+00 0.19349625E+04</pdfrwt>
<pdfrwt beam="2">  1       -1 0.13710604E+00 0.19349625E+04</pdfrwt>
<totfact> 0.57116827E+00</totfact>
</mgrwt>
</event>
<event>
12    1  0.1494110E-007  0.2118586E+04  0.7818608E-02  0.8553100E-01
          2   -1    0    0  501    0  0.00000000000E+00  0.00000000000E+00  0.10361854075E+04  0.10361854075E+04  0.00000000000E+00 0. -1.
         -2   -1    0    0    0  501 -0.00000000000E+00 -0.00000000000E+00 -0.10829161999E+04  0.10829161999E+04  0.00000000000E+00 0.  1.
         23    2    1    2    0    0  0.73961548087E+03 -0.35176398745E+03  0.25246148328E+03  0.86411425387E+03  0.11039782971E+03 0.  0.
        254    2    1    2    0    0 -0.73961548087E+03  0.35176398745E+03 -0.29919227571E+03  0.12549873535E+04  0.90261191953E+03 0.  0.
        -24    2    4    4    0    0 -0.17747075141E+03 -0.24715938928E+03  0.11102238390E+03  0.33335312558E+03  0.78833402127E+02 0.  0.
         24    2    4    4    0    0 -0.56214472946E+03  0.59892337673E+03 -0.41021465961E+03  0.92163422795E+03  0.80110393389E+02 0.  0.
         11    1    3    3    0    0  0.31578886479E+02 -0.43482332903E+02  0.23451141250E+02  0.58633568643E+02  0.00000000000E+00 0.  1.
        -11    1    3    3    0    0  0.70803659439E+03 -0.30828165454E+03  0.22901034203E+03  0.80548068523E+03  0.00000000000E+00 0. -1.
          2    1    6    6  502    0 -0.19869825294E+03  0.18585632508E+03 -0.99051987419E+02  0.28954251070E+03  0.00000000000E+00 0. -1.
          1    1    5    5  503    0 -0.99864021340E+02 -0.97818628433E+02  0.17691105196E+02  0.14090522357E+03  0.00000000000E+00 0. -1.
         -2    1    5    5    0  503 -0.77606730068E+02 -0.14934076085E+03  0.93331278700E+02  0.19244790200E+03  0.00000000000E+00 0.  1.
         -1    1    6    6    0  502 -0.36344647652E+03  0.41306705165E+03 -0.31116267219E+03  0.63209171725E+03  0.00000000000E+00 0.  1.
<mgrwt>
<rscale>  0 0.21185863E+04</rscale>
<asrwt>0</asrwt>
<pdfrwt beam="1">  1        2 0.15941314E+00 0.21185863E+04</pdfrwt>
<pdfrwt beam="2">  1       -2 0.16660249E+00 0.21185863E+04</pdfrwt>
<totfact> 0.49533300E+00</totfact>
</mgrwt>
</event>
<event>
12    1  0.1494110E-007  0.1541578E+04  0.7818608E-02  0.8857265E-01
          2   -1    0    0  501    0  0.00000000000E+00  0.00000000000E+00  0.15675996840E+04  0.15675996840E+04  0.00000000000E+00 0. -1.
         -2   -1    0    0    0  501 -0.00000000000E+00 -0.00000000000E+00 -0.37899726429E+03  0.37899726429E+03  0.00000000000E+00 0.  1.
         23    2    1    2    0    0  0.20519866832E+03 -0.74440230635E+02 -0.16339638501E+03  0.28828557824E+03  0.93607449318E+02 0.  0.
        254    2    1    2    0    0 -0.20519866832E+03  0.74440230635E+02  0.13519988047E+04  0.16583113701E+04  0.93511923874E+03 0.  0.
        -24    2    4    4    0    0  0.28501444422E+02 -0.17209237192E+03  0.12893611243E+04  0.13034532425E+04  0.78167319599E+02 0.  0.
         24    2    4    4    0    0 -0.23370011275E+03  0.24653260255E+03  0.62637680437E+02  0.35485812752E+03  0.81281885044E+02 0.  0.
         13    1    3    3    0    0  0.47452865582E+02 -0.52362106604E+01  0.42307031581E+01  0.47927979336E+02  0.00000000000E+00 0. -1.
        -13    1    3    3    0    0  0.15774580274E+03 -0.69204019974E+02 -0.16762708816E+03  0.24035759890E+03  0.00000000000E+00 0.  1.
          4    1    6    6  502    0 -0.31232093020E+02  0.20145760579E+02  0.32992856440E+02  0.49697322663E+02  0.00000000000E+00 0. -1.
          3    1    5    5  503    0  0.53057926701E+02 -0.12415866266E+03  0.82446310232E+03  0.83544594330E+03  0.00000000000E+00 0. -1.
         -4    1    5    5    0  503 -0.24556482279E+02 -0.47933709252E+02  0.46489802198E+03  0.46800729925E+03  0.00000000000E+00 0.  1.
         -3    1    6    6    0  502 -0.20246801973E+03  0.22638684197E+03  0.29644823996E+02  0.30516080485E+03  0.00000000000E+00 0.  1.
<mgrwt>
<rscale>  0 0.15415784E+04</rscale>
<asrwt>0</asrwt>
<pdfrwt beam="1">  1        2 0.24116918E+00 0.15415784E+04</pdfrwt>
<pdfrwt beam="2">  1       -2 0.58307273E-01 0.15415784E+04</pdfrwt>
<totfact> 0.30809787E+01</totfact>
</mgrwt>
</event>
<event>
12    1  0.1494110E-007  0.2547945E+04  0.7818608E-02  0.8386101E-01
          1   -1    0    0  501    0  0.00000000000E+00  0.00000000000E+00  0.92086870014E+03  0.92086870014E+03  0.00000000000E+00 0. -1.
         -1   -1    0    0    0  501 -0.00000000000E+00 -0.00000000000E+00 -0.17624720220E+04  0.17624720220E+04  0.00000000000E+00 0.  1.
         23    2    1    2    0    0  0.20528126852E+03 -0.24047255029E+03  0.75508317628E+03  0.82355732232E+03  0.90158823194E+02 0.  0.
        254    2    1    2    0    0 -0.20528126852E+03  0.24047255029E+03 -0.15966864982E+04  0.18597833999E+04  0.89967720562E+03 0.  0.
        -24    2    4    4    0    0 -0.46582209349E+03 -0.67676701467E+01 -0.44237734565E+03  0.64824713230E+03  0.86548278083E+02 0.  0.
         24    2    4    4    0    0  0.26054082497E+03  0.24724022044E+03 -0.11543091525E+04  0.12115362676E+04  0.79882788836E+02 0.  0.
         13    1    3    3    0    0  0.16324675351E+03 -0.23392740323E+03  0.63397461841E+03  0.69519446869E+03  0.00000000000E+00 0. -1.
        -13    1    3    3    0    0  0.42034515010E+02 -0.65451470602E+01  0.12110855787E+03  0.12836285363E+03  0.00000000000E+00 0.  1.
          4    1    6    6  502    0  0.21028980428E+03  0.15137283181E+03 -0.78160075648E+03  0.82342897600E+03  0.00000000000E+00 0. -1.
          3    1    5    5  503    0 -0.20178251867E+03  0.11453825296E+02 -0.24770504720E+03  0.31969542594E+03  0.00000000000E+00 0. -1.
         -4    1    5    5    0  503 -0.26403957482E+03 -0.18221495443E+02 -0.19467229845E+03  0.32855170636E+03  0.00000000000E+00 0.  1.
         -3    1    6    6    0  502  0.50251020695E+02  0.95867388628E+02 -0.37270839605E+03  0.38810729157E+03  0.00000000000E+00 0.  1.
<mgrwt>
<rscale>  0 0.25479445E+04</rscale>
<asrwt>0</asrwt>
<pdfrwt beam="1">  1        1 0.14167211E+00 0.25479445E+04</pdfrwt>
<pdfrwt beam="2">  1       -1 0.27114954E+00 0.25479445E+04</pdfrwt>
<totfact> 0.78615939E-01</totfact>
</mgrwt>
</event>
<event>
12    1  0.1494110E-007  0.1822551E+04  0.7818608E-02  0.8694398E-01
         -2   -1    0    0    0  501 -0.00000000000E+00  0.00000000000E+00  0.49406849007E+03  0.49406849007E+03  0.00000000000E+00 0.  1.
          2   -1    0    0  501    0  0.00000000000E+00 -0.00000000000E+00 -0.16807852422E+04  0.16807852422E+04  0.00000000000E+00 0. -1.
         23    2    1    2    0    0  0.40668894421E+03  0.11784489401E+03  0.19654744055E+03  0.47501068581E+03  0.87868873058E+02 0.  0.
        254    2    1    2    0    0 -0.40668894421E+03 -0.11784489401E+03 -0.13832641926E+04  0.16998430464E+04  0.89261595295E+03 0.  0.
        -24    2    4    4    0    0 -0.20879021740E+03 -0.48523659670E+03 -0.97485130478E+03  0.11116387776E+04  0.79735787499E+02 0.  0.
         24    2    4    4    0    0 -0.19789872681E+03  0.36739170269E+03 -0.40841288785E+03  0.58820426881E+03  0.71011306152E+02 0.  0.
         11    1    3    3    0    0  0.43430892936E+02  0.54223948445E+00  0.49716641253E+02  0.66017277302E+02  0.00000000000E+00 0. -1.
        -11    1    3    3    0    0  0.36325805128E+03  0.11730265452E+03  0.14683079930E+03  0.40899340850E+03  0.00000000000E+00 0.  1.
          4    1    6    6  502    0 -0.74677817579E+02  0.15631392819E+03 -0.12311054904E+03  0.21252535818E+03  0.00000000000E+00 0. -1.
          3    1    5    5  503    0 -0.76075694316E+01 -0.39460572462E+02 -0.40651141657E+02  0.57162288353E+02  0.00000000000E+00 0. -1.
         -4    1    5    5    0  503 -0.20118264797E+03 -0.44577602423E+03 -0.93420016313E+03  0.10544764893E+04  0.00000000000E+00 0.  1.
         -3    1    6    6    0  502 -0.12322090924E+03  0.21107777450E+03 -0.28530233881E+03  0.37567891063E+03  0.00000000000E+00 0.  1.
<mgrwt>
<rscale>  0 0.18225510E+04</rscale>
<asrwt>0</asrwt>
<pdfrwt beam="1">  1        2 0.25858235E+00 0.18225510E+04</pdfrwt>
<pdfrwt beam="2">  1       -2 0.76010537E-01 0.18225510E+04</pdfrwt>
<totfact> 0.14680879E+01</totfact>
</mgrwt>
</event>
<event>
12    1  0.1494110E-007  0.1865672E+04  0.7818608E-02  0.8672135E-01
         -2   -1    0    0    0  501 -0.00000000000E+00  0.00000000000E+00  0.40985408909E+03  0.40985408909E+03  0.00000000000E+00 0.  1.
          2   -1    0    0  501    0  0.00000000000E+00 -0.00000000000E+00 -0.21231521399E+04  0.21231521399E+04  0.00000000000E+00 0. -1.
         23    2    1    2    0    0  0.60876647141E+03  0.28180846559E+03 -0.95842752678E+03  0.11733860562E+04  0.90768302303E+02 0.  0.
        254    2    1    2    0    0 -0.60876647141E+03 -0.28180846559E+03 -0.75487052404E+03  0.13596201729E+04  0.91034327502E+03 0.  0.
        -24    2    4    4    0    0 -0.27146756389E+03 -0.59641549384E+03 -0.48366982165E+03  0.81830511057E+03  0.79250729205E+02 0.  0.
         24    2    4    4    0    0 -0.33729890752E+03  0.31460702825E+03 -0.27120070240E+03  0.54131506229E+03  0.82000246597E+02 0.  0.
         11    1    3    3    0    0  0.59826800994E+03  0.28864605270E+03 -0.94385970871E+03  0.11541716966E+04  0.00000000000E+00 0. -1.
        -11    1    3    3    0    0  0.10498461476E+02 -0.68375871077E+01 -0.14567818064E+02  0.19214359577E+02  0.00000000000E+00 0.  1.
          2    1    6    6  502    0 -0.56631347395E+02  0.58843361743E+02 -0.14448007407E+02  0.82936093753E+02  0.00000000000E+00 0. -1.
          3    1    5    5  503    0 -0.36923934484E+02 -0.11279513003E+03 -0.55024849339E+02  0.13081992333E+03  0.00000000000E+00 0. -1.
         -4    1    5    5    0  503 -0.23454362941E+03 -0.48362036380E+03 -0.42864497231E+03  0.68748518723E+03  0.00000000000E+00 0.  1.
         -1    1    6    6    0  502 -0.28066756012E+03  0.25576366650E+03 -0.25675269499E+03  0.45837896853E+03  0.00000000000E+00 0.  1.
<mgrwt>
<rscale>  0 0.18656716E+04</rscale>
<asrwt>0</asrwt>
<pdfrwt beam="1">  1        2 0.32663879E+00 0.18656716E+04</pdfrwt>
<pdfrwt beam="2">  1       -2 0.63054475E-01 0.18656716E+04</pdfrwt>
<totfact> 0.12481696E+01</totfact>
</mgrwt>
</event>
<event>
12    1  0.1494110E-007  0.1302722E+04  0.7818608E-02  0.9027409E-01
          2   -1    0    0  501    0  0.00000000000E+00  0.00000000000E+00  0.50541915110E+03  0.50541915110E+03  0.00000000000E+00 0. -1.
         -2   -1    0    0    0  501 -0.00000000000E+00 -0.00000000000E+00 -0.83944474955E+03  0.83944474955E+03  0.00000000000E+00 0.  1.
         23    2    1    2    0    0 -0.19438832148E+03  0.20263790381E+03  0.11415143992E+03  0.32158486239E+03  0.10741197741E+03 0.  0.
        254    2    1    2    0    0  0.19438832148E+03 -0.20263790381E+03 -0.44817703837E+03  0.10232790383E+04  0.87600707351E+03 0.  0.
        -24    2    4    4    0    0  0.41243651557E+03 -0.34575102944E+02  0.73547682871E+02  0.42765256951E+03  0.78601154153E+02 0.  0.
         24    2    4    4    0    0 -0.21804819409E+03 -0.16806280087E+03 -0.52172472125E+03  0.59562646875E+03  0.82365560385E+02 0.  0.
         11    1    3    3    0    0 -0.43768218801E+02  0.18932687067E+02  0.62260674289E+02  0.78425092792E+02  0.00000000000E+00 0.  1.
        -11    1    3    3    0    0 -0.15062010268E+03  0.18370521675E+03  0.51890765629E+02  0.24315976959E+03  0.00000000000E+00 0. -1.
          4    1    6    6  502    0 -0.26074299589E+02 -0.28861657911E+02 -0.28054195664E+02  0.47957296533E+02  0.00000000000E+00 0. -1.
          3    1    5    5  503    0  0.14696724430E+02 -0.17940902057E+02  0.42860502038E+01  0.23584738750E+02  0.00000000000E+00 0. -1.
         -4    1    5    5    0  503  0.39773979114E+03 -0.16634200887E+02  0.69261632668E+02  0.40406783076E+03  0.00000000000E+00 0.  1.
         -3    1    6    6    0  502 -0.19197389450E+03 -0.13920114296E+03 -0.49367052558E+03  0.54766917222E+03  0.00000000000E+00 0.  1.
<mgrwt>
<rscale>  0 0.13027225E+04</rscale>
<asrwt>0</asrwt>
<pdfrwt beam="1">  1        2 0.77756794E-01 0.13027225E+04</pdfrwt>
<pdfrwt beam="2">  1       -2 0.12914534E+00 0.13027225E+04</pdfrwt>
<totfact> 0.26304443E+01</totfact>
</mgrwt>
</event>
<event>
12    1  0.1494110E-007  0.1368676E+04  0.7818608E-02  0.8976810E-01
          2   -1    0    0  501    0  0.00000000000E+00  0.00000000000E+00  0.22785204244E+04  0.22785204244E+04  0.00000000000E+00 0. -1.
         -2   -1    0    0    0  501 -0.00000000000E+00 -0.00000000000E+00 -0.20553613475E+03  0.20553613475E+03  0.00000000000E+00 0.  1.
         23    2    1    2    0    0  0.42080320756E+02  0.25459471528E+03  0.10929978308E+04  0.11267925192E+04  0.91803599580E+02 0.  0.
        254    2    1    2    0    0 -0.42080320756E+02 -0.25459471528E+03  0.97998645886E+03  0.13572640399E+04  0.90288592414E+03 0.  0.
        -24    2    4    4    0    0 -0.24456380278E+03 -0.43564925774E+03  0.22952788986E+03  0.55529993700E+03  0.77930984870E+02 0.  0.
         24    2    4    4    0    0  0.20248348203E+03  0.18105454247E+03  0.75045856900E+03  0.80196410290E+03  0.78600577060E+02 0.  0.
         13    1    3    3    0    0  0.63123379083E+02  0.14406423425E+03  0.53879822359E+03  0.56128654920E+03  0.00000000000E+00 0.  1.
        -13    1    3    3    0    0 -0.21043058328E+02  0.11053048103E+03  0.55419960718E+03  0.56550597003E+03  0.00000000000E+00 0. -1.
          4    1    6    6  502    0  0.19847334599E+03  0.18775739624E+03  0.74059129789E+03  0.78937949012E+03  0.00000000000E+00 0. -1.
          1    1    5    5  503    0 -0.21165138657E+03 -0.32811045466E+03  0.20157911656E+03  0.43941656788E+03  0.00000000000E+00 0. -1.
         -2    1    5    5    0  503 -0.32912416217E+02 -0.10753880308E+03  0.27948773301E+02  0.11588336912E+03  0.00000000000E+00 0.  1.
         -1    1    6    6    0  502  0.40101360416E+01 -0.67028537698E+01  0.98672711077E+01  0.12584612781E+02  0.00000000000E+00 0.  1.
<mgrwt>
<rscale>  0 0.13686757E+04</rscale>
<asrwt>0</asrwt>
<pdfrwt beam="1">  1        2 0.35054159E+00 0.13686757E+04</pdfrwt>
<pdfrwt beam="2">  1       -2 0.31620945E-01 0.13686757E+04</pdfrwt>
<totfact> 0.42349655E+01</totfact>
</mgrwt>
</event>
<event>
12    1  0.1494110E-007  0.1490394E+04  0.7818608E-02  0.8890866E-01
          2   -1    0    0  501    0  0.00000000000E+00  0.00000000000E+00  0.15913981872E+04  0.15913981872E+04  0.00000000000E+00 0. -1.
         -2   -1    0    0    0  501 -0.00000000000E+00 -0.00000000000E+00 -0.34894989657E+03  0.34894989657E+03  0.00000000000E+00 0.  1.
         23    2    1    2    0    0 -0.45383214279E+03 -0.98926050496E+02  0.46147521722E+03  0.66100210529E+03  0.90633491578E+02 0.  0.
        254    2    1    2    0    0  0.45383214279E+03  0.98926050496E+02  0.78097307343E+03  0.12793459785E+04  0.90058714958E+03 0.  0.
        -24    2    4    4    0    0  0.71022378002E+03 -0.22552045303E+02  0.50260796672E+03  0.87384184673E+03  0.77835675798E+02 0.  0.
         24    2    4    4    0    0 -0.25639163723E+03  0.12147809580E+03  0.27836510671E+03  0.40550413178E+03  0.80329750744E+02 0.  0.
         13    1    3    3    0    0 -0.42070290099E+03 -0.10714655287E+03  0.44926970772E+03  0.62475161862E+03  0.00000000000E+00 0.  1.
        -13    1    3    3    0    0 -0.33129241806E+02  0.82205023755E+01  0.12205509496E+02  0.36250486672E+02  0.00000000000E+00 0. -1.
          2    1    6    6  502    0 -0.26212166655E+03  0.12195241812E+03  0.27348751284E+03  0.39796429493E+03  0.00000000000E+00 0. -1.
          3    1    5    5  503    0  0.51165435294E+03 -0.50547205130E+02  0.36967536521E+03  0.63324961309E+03  0.00000000000E+00 0. -1.
         -2    1    5    5    0  503  0.19856942708E+03  0.27995159827E+02  0.13293260151E+03  0.24059223364E+03  0.00000000000E+00 0.  1.
         -1    1    6    6    0  502  0.57300293227E+01 -0.47432231868E+00  0.48775938676E+01  0.75398368443E+01  0.00000000000E+00 0.  1.
<mgrwt>
<rscale>  0 0.14903935E+04</rscale>
<asrwt>0</asrwt>
<pdfrwt beam="1">  1        2 0.24483049E+00 0.14903935E+04</pdfrwt>
<pdfrwt beam="2">  1       -2 0.53684600E-01 0.14903935E+04</pdfrwt>
<totfact> 0.35638490E+01</totfact>
</mgrwt>
</event>
<event>
12    1  0.1494110E-007  0.1554149E+04  0.7818608E-02  0.8849222E-01
         -2   -1    0    0    0  501 -0.00000000000E+00  0.00000000000E+00  0.71630276529E+03  0.71630276529E+03  0.00000000000E+00 0.  1.
          2   -1    0    0  501    0  0.00000000000E+00 -0.00000000000E+00 -0.84300213838E+03  0.84300213838E+03  0.00000000000E+00 0. -1.
         23    2    1    2    0    0 -0.35407371497E+03 -0.19670015496E+02 -0.44731683770E+03  0.57829092316E+03  0.92590136488E+02 0.  0.
        254    2    1    2    0    0  0.35407371497E+03  0.19670015496E+02  0.32061746462E+03  0.98101398051E+03  0.85664331328E+03 0.  0.
        -24    2    4    4    0    0  0.18591828497E+03  0.32277894802E+03  0.46082422890E+03  0.59862742115E+03  0.85111464792E+02 0.  0.
         24    2    4    4    0    0  0.16815543001E+03 -0.30310893252E+03 -0.14020676428E+03  0.38238655936E+03  0.80064164365E+02 0.  0.
         13    1    3    3    0    0 -0.44722820243E+01  0.67811823794E+01  0.20070474389E+01  0.83674357117E+01  0.00000000000E+00 0.  1.
        -13    1    3    3    0    0 -0.34960143295E+03 -0.26451197876E+02 -0.44932388514E+03  0.56992348745E+03  0.00000000000E+00 0. -1.
          4    1    6    6  502    0  0.48950623146E+02 -0.38458862396E+02 -0.45363640068E+02  0.77026667092E+02  0.00000000000E+00 0. -1.
          3    1    5    5  503    0 -0.64203635255E+01  0.58526896315E+01  0.23080967716E+01  0.89890129841E+01  0.00000000000E+00 0. -1.
         -4    1    5    5    0  503  0.19233864849E+03  0.31692625839E+03  0.45851613213E+03  0.58963840816E+03  0.00000000000E+00 0.  1.
         -3    1    6    6    0  502  0.11920480686E+03 -0.26465007013E+03 -0.94843124212E+02  0.30535989227E+03  0.00000000000E+00 0.  1.
<mgrwt>
<rscale>  0 0.15541490E+04</rscale>
<asrwt>0</asrwt>
<pdfrwt beam="1">  1        2 0.12969264E+00 0.15541490E+04</pdfrwt>
<pdfrwt beam="2">  1       -2 0.11020043E+00 0.15541490E+04</pdfrwt>
<totfact> 0.20206674E+01</totfact>
</mgrwt>
</event>
<event>
12    1  0.1494110E-007  0.1572699E+04  0.7818608E-02  0.8837498E-01
         -2   -1    0    0    0  501 -0.00000000000E+00  0.00000000000E+00  0.30502391261E+03  0.30502391261E+03  0.00000000000E+00 0.  1.
          2   -1    0    0  501    0  0.00000000000E+00 -0.00000000000E+00 -0.20272043505E+04  0.20272043505E+04  0.00000000000E+00 0. -1.
         23    2    1    2    0    0  0.46086102191E+03  0.16584028877E+03 -0.85835731044E+03  0.99241482794E+03  0.90631315957E+02 0.  0.
        254    2    1    2    0    0 -0.46086102191E+03 -0.16584028877E+03 -0.86382312743E+03  0.13398134352E+04  0.89945192347E+03 0.  0.
        -24    2    4    4    0    0  0.15281559581E+03 -0.19493265860E+03  0.19157125223E+02  0.26099960282E+03  0.80015307986E+02 0.  0.
         24    2    4    4    0    0 -0.61367661772E+03  0.29092369833E+02 -0.88298025265E+03  0.10788138323E+04  0.82096291891E+02 0.  0.
         11    1    3    3    0    0  0.72540227000E+02  0.56054281503E+02 -0.12040621950E+03  0.15133348837E+03  0.00000000000E+00 0.  1.
        -11    1    3    3    0    0  0.38832079491E+03  0.10978600726E+03 -0.73795109093E+03  0.84108133956E+03  0.00000000000E+00 0. -1.
          2    1    6    6  502    0 -0.30989006017E+03  0.78113087962E+00 -0.51209918572E+03  0.59856330958E+03  0.00000000000E+00 0. -1.
          1    1    5    5  503    0  0.43432495455E+02 -0.30682303837E+02  0.33976436607E+02  0.63104545595E+02  0.00000000000E+00 0. -1.
         -4    1    5    5    0  503  0.10938310036E+03 -0.16425035476E+03 -0.14819311384E+02  0.19789505722E+03  0.00000000000E+00 0.  1.
         -1    1    6    6    0  502 -0.30378655755E+03  0.28311238953E+02 -0.37088106694E+03  0.48025052276E+03  0.00000000000E+00 0.  1.
<mgrwt>
<rscale>  0 0.15726993E+04</rscale>
<asrwt>0</asrwt>
<pdfrwt beam="1">  1        2 0.31187759E+00 0.15726993E+04</pdfrwt>
<pdfrwt beam="2">  1       -2 0.46926755E-01 0.15726993E+04</pdfrwt>
<totfact> 0.26697127E+01</totfact>
</mgrwt>
</event>
<event>
12    1  0.1494110E-007  0.1639268E+04  0.7818608E-02  0.8796781E-01
         -1   -1    0    0    0  501 -0.00000000000E+00  0.00000000000E+00  0.70694279970E+03  0.70694279970E+03  0.00000000000E+00 0.  1.
          1   -1    0    0  501    0  0.00000000000E+00 -0.00000000000E+00 -0.95028926770E+03  0.95028926770E+03  0.00000000000E+00 0. -1.
         23    2    1    2    0    0 -0.26354479353E+03  0.25900696032E+02  0.42027808556E+03  0.50512109728E+03  0.91580289717E+02 0.  0.
        254    2    1    2    0    0  0.26354479353E+03 -0.25900696032E+02 -0.66362455356E+03  0.11521109701E+04  0.90378948608E+03 0.  0.
        -24    2    4    4    0    0 -0.41263079693E+02  0.38353479290E+03 -0.14321739728E+03  0.41885949479E+03  0.78297345935E+02 0.  0.
         24    2    4    4    0    0  0.30480787322E+03 -0.40943548893E+03 -0.52040715628E+03  0.73325147534E+03  0.79302324102E+02 0.  0.
         13    1    3    3    0    0 -0.17851645737E+03  0.44586902239E+02  0.34051465926E+03  0.38704825354E+03  0.00000000000E+00 0.  1.
        -13    1    3    3    0    0 -0.85028336156E+02 -0.18686206206E+02  0.79763426303E+02  0.11807284373E+03  0.00000000000E+00 0. -1.
          4    1    6    6  502    0  0.18455516923E+03 -0.29884414283E+03 -0.38410387610E+03  0.52048460095E+03  0.00000000000E+00 0. -1.
          3    1    5    5  503    0 -0.35211188186E+02  0.26617801106E+03 -0.60711688711E+02  0.27527526313E+03  0.00000000000E+00 0. -1.
         -4    1    5    5    0  503 -0.60518915075E+01  0.11735678184E+03 -0.82505708566E+02  0.14358423166E+03  0.00000000000E+00 0.  1.
         -1    1    6    6    0  502  0.12025270399E+03 -0.11059134610E+03 -0.13630328019E+03  0.21276687439E+03  0.00000000000E+00 0.  1.
<mgrwt>
<rscale>  0 0.16392683E+04</rscale>
<asrwt>0</asrwt>
<pdfrwt beam="1">  1        1 0.14619835E+00 0.16392683E+04</pdfrwt>
<pdfrwt beam="2">  1       -1 0.10876043E+00 0.16392683E+04</pdfrwt>
<totfact> 0.12423325E+01</totfact>
</mgrwt>
</event>
<event>
12    1  0.1494110E-007  0.1525339E+04  0.7818608E-02  0.8867776E-01
         -1   -1    0    0    0  501 -0.00000000000E+00  0.00000000000E+00  0.89288616100E+03  0.89288616100E+03  0.00000000000E+00 0.  1.
          1   -1    0    0  501    0  0.00000000000E+00 -0.00000000000E+00 -0.65144306962E+03  0.65144306962E+03  0.00000000000E+00 0. -1.
         23    2    1    2    0    0  0.39074049857E+02 -0.31405105599E+03 -0.30150559599E+03  0.44651509883E+03  0.91188058020E+02 0.  0.
        254    2    1    2    0    0 -0.39074049857E+02  0.31405105599E+03  0.54294868738E+03  0.10978141318E+04  0.90013762487E+03 0.  0.
        -24    2    4    4    0    0 -0.41632657505E+03  0.10674175387E+03  0.52446466184E+02  0.44026606578E+03  0.79761881560E+02 0.  0.
         24    2    4    4    0    0  0.37725252520E+03  0.20730930212E+03  0.49050222119E+03  0.65754806602E+03  0.80501028660E+02 0.  0.
         13    1    3    3    0    0  0.11127826420E+02 -0.12577017630E+03 -0.18288149376E+03  0.22223322553E+03  0.00000000000E+00 0.  1.
        -13    1    3    3    0    0  0.27946223436E+02 -0.18828087969E+03 -0.11862410223E+03  0.22428187330E+03  0.00000000000E+00 0. -1.
          4    1    6    6  502    0  0.15922400757E+02 -0.46103852339E+01  0.34941441368E+02  0.38674058783E+02  0.00000000000E+00 0. -1.
          3    1    5    5  503    0 -0.14644318370E+03  0.77391029343E+02  0.17765500124E+02  0.16658508478E+03  0.00000000000E+00 0. -1.
         -4    1    5    5    0  503 -0.26988339135E+03  0.29350724526E+02  0.34680966060E+02  0.27368098100E+03  0.00000000000E+00 0.  1.
         -3    1    6    6    0  502  0.36133012444E+03  0.21191968736E+03  0.45556077982E+03  0.61887400723E+03  0.00000000000E+00 0.  1.
<mgrwt>
<rscale>  0 0.15253387E+04</rscale>
<asrwt>0</asrwt>
<pdfrwt beam="1">  1        1 0.10022201E+00 0.15253387E+04</pdfrwt>
<pdfrwt beam="2">  1       -1 0.13736710E+00 0.15253387E+04</pdfrwt>
<totfact> 0.12909472E+01</totfact>
</mgrwt>
</event>
<event>
12    1  0.1494110E-007  0.2550981E+04  0.7818608E-02  0.8385045E-01
          1   -1    0    0  501    0  0.00000000000E+00  0.00000000000E+00  0.15139878828E+04  0.15139878828E+04  0.00000000000E+00 0. -1.
         -1   -1    0    0    0  501 -0.00000000000E+00 -0.00000000000E+00 -0.10745632284E+04  0.10745632284E+04  0.00000000000E+00 0.  1.
         23    2    1    2    0    0  0.22410954606E+03  0.10432541651E+04  0.38833288090E+03  0.11391074810E+04  0.90327655462E+02 0.  0.
        254    2    1    2    0    0 -0.22410954606E+03 -0.10432541651E+04  0.51091773460E+02  0.14494436302E+04  0.97962856541E+03 0.  0.
        -24    2    4    4    0    0 -0.59521431514E+03 -0.56946737780E+03 -0.70331691269E+02  0.83026581463E+03  0.76299415624E+02 0.  0.
         24    2    4    4    0    0  0.37110476908E+03 -0.47378678726E+03  0.12142346473E+03  0.61917781553E+03  0.80279761136E+02 0.  0.
         13    1    3    3    0    0  0.55872214390E+02  0.32765952446E+03  0.79503295925E+02  0.34176489341E+03  0.00000000000E+00 0.  1.
        -13    1    3    3    0    0  0.16823733167E+03  0.71559464060E+03  0.30882958497E+03  0.79734258759E+03  0.00000000000E+00 0. -1.
          4    1    6    6  502    0  0.22896622769E+03 -0.33051843995E+03  0.11087965466E+03  0.41708784493E+03  0.00000000000E+00 0. -1.
          3    1    5    5  503    0 -0.17894374267E+02 -0.32312820215E+02 -0.14657650233E+02  0.39738818440E+02  0.00000000000E+00 0. -1.
         -4    1    5    5    0  503 -0.57731994087E+03 -0.53715455758E+03 -0.55674041037E+02  0.79052699619E+03  0.00000000000E+00 0.  1.
         -3    1    6    6    0  502  0.14213854138E+03 -0.14326834731E+03  0.10543810070E+02  0.20208997060E+03  0.00000000000E+00 0.  1.
<mgrwt>
<rscale>  0 0.25509808E+04</rscale>
<asrwt>0</asrwt>
<pdfrwt beam="1">  1        1 0.23292121E+00 0.25509808E+04</pdfrwt>
<pdfrwt beam="2">  1       -1 0.16531742E+00 0.25509808E+04</pdfrwt>
<totfact> 0.15081566E+00</totfact>
</mgrwt>
</event>
<event>
12    1  0.1494110E-007  0.1446513E+04  0.7818608E-02  0.8920821E-01
          1   -1    0    0  501    0  0.00000000000E+00  0.00000000000E+00  0.47798492962E+03  0.47798492962E+03  0.00000000000E+00 0. -1.
         -1   -1    0    0    0  501 -0.00000000000E+00 -0.00000000000E+00 -0.10943862785E+04  0.10943862785E+04  0.00000000000E+00 0.  1.
         23    2    1    2    0    0  0.37837866078E+03  0.10260916308E+03 -0.37699326922E+03  0.55159275651E+03  0.91823704494E+02 0.  0.
        254    2    1    2    0    0 -0.37837866078E+03 -0.10260916308E+03 -0.23940807969E+03  0.10207784516E+04  0.91157740618E+03 0.  0.
        -24    2    4    4    0    0 -0.17173716928E+03 -0.44456851714E+03 -0.35208051949E+03  0.59803748785E+03  0.80952596792E+02 0.  0.
         24    2    4    4    0    0 -0.20664149150E+03  0.34195935406E+03  0.11267243981E+03  0.42274096380E+03  0.79861993083E+02 0.  0.
         13    1    3    3    0    0  0.29459613989E+03  0.41639892820E+02 -0.25800453435E+03  0.39381100297E+03  0.00000000000E+00 0.  1.
        -13    1    3    3    0    0  0.83782520887E+02  0.60969270258E+02 -0.11898873487E+03  0.15778175354E+03  0.00000000000E+00 0. -1.
          4    1    6    6  502    0 -0.16733070679E+03  0.20488766750E+03  0.81141603380E+02  0.27669926188E+03  0.00000000000E+00 0. -1.
          1    1    5    5  503    0 -0.17985260461E+03 -0.42960505625E+03 -0.33342185609E+03  0.57278058440E+03  0.00000000000E+00 0. -1.
         -2    1    5    5    0  503  0.81154353288E+01 -0.14963460888E+02 -0.18658663402E+02  0.25256903457E+02  0.00000000000E+00 0.  1.
         -3    1    6    6    0  502 -0.39310784712E+02  0.13707168656E+03  0.31530836429E+02  0.14604170191E+03  0.00000000000E+00 0.  1.
<mgrwt>
<rscale>  0 0.14465133E+04</rscale>
<asrwt>0</asrwt>
<pdfrwt beam="1">  1        1 0.73536144E-01 0.14465133E+04</pdfrwt>
<pdfrwt beam="2">  1       -1 0.16836712E+00 0.14465133E+04</pdfrwt>
<totfact> 0.11589431E+01</totfact>
</mgrwt>
</event>
<event>
12    1  0.1494110E-007  0.1373731E+04  0.7818608E-02  0.8973056E-01
          1   -1    0    0  501    0  0.00000000000E+00  0.00000000000E+00  0.19108915812E+04  0.19108915812E+04  0.00000000000E+00 0. -1.
         -1   -1    0    0    0  501 -0.00000000000E+00 -0.00000000000E+00 -0.24689201701E+03  0.24689201701E+03  0.00000000000E+00 0.  1.
         23    2    1    2    0    0  0.30455291316E+03 -0.12396110723E+03  0.78336152212E+03  0.85469253000E+03  0.93408851228E+02 0.  0.
        254    2    1    2    0    0 -0.30455291316E+03  0.12396110723E+03  0.88063804207E+03  0.13030910682E+04  0.90244342641E+03 0.  0.
        -24    2    4    4    0    0 -0.16708577903E+03 -0.34783450416E+03  0.63301187146E+03  0.74589220433E+03  0.82125825615E+02 0.  0.
         24    2    4    4    0    0 -0.13746713412E+03  0.47179561139E+03  0.24762617061E+03  0.55719886387E+03  0.87541656578E+02 0.  0.
         11    1    3    3    0    0  0.25135369560E+03 -0.13790509520E+03  0.66570864810E+03  0.72482032237E+03  0.00000000000E+00 0. -1.
        -11    1    3    3    0    0  0.53199217556E+02  0.13943987968E+02  0.11765287402E+03  0.12987220763E+03  0.00000000000E+00 0.  1.
          2    1    6    6  502    0 -0.38715766655E+02  0.92752685391E+02  0.90211350852E+02  0.13505576277E+03  0.00000000000E+00 0. -1.
          1    1    5    5  503    0 -0.76964897931E+02 -0.94085808234E+02  0.15189572299E+03  0.19454574137E+03  0.00000000000E+00 0. -1.
         -2    1    5    5    0  503 -0.90120881100E+02 -0.25374869593E+03  0.48111614847E+03  0.55134646296E+03  0.00000000000E+00 0.  1.
         -1    1    6    6    0  502 -0.98751367470E+02  0.37904292600E+03  0.15741481976E+03  0.42214310110E+03  0.00000000000E+00 0.  1.
<mgrwt>
<rscale>  0 0.13737305E+04</rscale>
<asrwt>0</asrwt>
<pdfrwt beam="1">  1        1 0.29398331E+00 0.13737305E+04</pdfrwt>
<pdfrwt beam="2">  1       -1 0.37983389E-01 0.13737305E+04</pdfrwt>
<totfact> 0.22418117E+01</totfact>
</mgrwt>
</event>
<event>
12    1  0.1494110E-007  0.1387217E+04  0.7818608E-02  0.8963124E-01
          2   -1    0    0  501    0  0.00000000000E+00  0.00000000000E+00  0.27003307993E+04  0.27003307993E+04  0.00000000000E+00 0. -1.
         -2   -1    0    0    0  501 -0.00000000000E+00 -0.00000000000E+00 -0.17816063404E+03  0.17816063404E+03  0.00000000000E+00 0.  1.
         23    2    1    2    0    0 -0.37491007490E+03 -0.10952688430E+03  0.67551741790E+03  0.78543229365E+03  0.89590196878E+02 0.  0.
        254    2    1    2    0    0  0.37491007490E+03  0.10952688430E+03  0.18466527474E+04  0.20930591397E+04  0.90455319927E+03 0.  0.
        -24    2    4    4    0    0  0.13110832495E+03 -0.39279149236E+03  0.76987272012E+03  0.87755176856E+03  0.76932125814E+02 0.  0.
         24    2    4    4    0    0  0.24380174996E+03  0.50231837666E+03  0.10767800273E+04  0.12155073712E+04  0.78993021338E+02 0.  0.
         13    1    3    3    0    0 -0.36598989546E+03 -0.87393113408E+02  0.64443496890E+03  0.74624566263E+03  0.00000000000E+00 0. -1.
        -13    1    3    3    0    0 -0.89201794446E+01 -0.22133770892E+02  0.31082448998E+02  0.39186631023E+02  0.00000000000E+00 0.  1.
          2    1    6    6  502    0  0.76911291097E+01  0.20120903149E+01  0.35611278393E+02  0.36487876386E+02  0.00000000000E+00 0. -1.
          3    1    5    5  503    0  0.21587580545E+02 -0.14528767231E+03  0.21773760232E+03  0.26264842437E+03  0.00000000000E+00 0. -1.
         -4    1    5    5    0  503  0.10952074440E+03 -0.24750382005E+03  0.55213511780E+03  0.61490334419E+03  0.00000000000E+00 0.  1.
         -1    1    6    6    0  502  0.23611062085E+03  0.50030628634E+03  0.10411687489E+04  0.11790194948E+04  0.00000000000E+00 0.  1.
<mgrwt>
<rscale>  0 0.13872169E+04</rscale>
<asrwt>0</asrwt>
<pdfrwt beam="1">  1        2 0.41543548E+00 0.13872169E+04</pdfrwt>
<pdfrwt beam="2">  1       -2 0.27409330E-01 0.13872169E+04</pdfrwt>
<totfact> 0.31533411E+01</totfact>
</mgrwt>
</event>
<event>
12    1  0.1494110E-007  0.3083385E+04  0.7818608E-02  0.8220313E-01
          1   -1    0    0  501    0  0.00000000000E+00  0.00000000000E+00  0.30743509474E+04  0.30743509474E+04  0.00000000000E+00 0. -1.
         -1   -1    0    0    0  501 -0.00000000000E+00 -0.00000000000E+00 -0.77311136764E+03  0.77311136764E+03  0.00000000000E+00 0.  1.
         23    2    1    2    0    0 -0.33788213121E+03 -0.20861740472E+02  0.27574311771E+04  0.27796536795E+04  0.91914824249E+02 0.  0.
        254    2    1    2    0    0  0.33788213121E+03  0.20861740472E+02 -0.45619159728E+03  0.10678086356E+04  0.90415980997E+03 0.  0.
        -24    2    4    4    0    0  0.54657496101E+03  0.16451238988E+03 -0.44861597091E+02  0.57816350805E+03  0.80324122931E+02 0.  0.
         24    2    4    4    0    0 -0.20869282980E+03 -0.14365064941E+03 -0.41133000019E+03  0.48964512752E+03  0.79823402371E+02 0.  0.
         11    1    3    3    0    0 -0.51660598245E+02  0.28964130474E+02  0.39228293128E+03  0.39672866853E+03  0.00000000000E+00 0.  1.
        -11    1    3    3    0    0 -0.28622153296E+03 -0.49825870946E+02  0.23651482458E+04  0.23829250110E+04  0.00000000000E+00 0. -1.
          4    1    6    6  502    0 -0.21365237887E+03 -0.13470727580E+03 -0.37670629710E+03  0.45354274707E+03  0.00000000000E+00 0. -1.
          1    1    5    5  503    0  0.46577906182E+03  0.11523826532E+03 -0.19640641501E+02  0.48022468390E+03  0.00000000000E+00 0. -1.
         -2    1    5    5    0  503  0.80795899191E+02  0.49274124553E+02 -0.25220955590E+02  0.97938824157E+02  0.00000000000E+00 0.  1.
         -3    1    6    6    0  502  0.49595490664E+01 -0.89433736006E+01 -0.34623703090E+02  0.36102380447E+02  0.00000000000E+00 0.  1.
<mgrwt>
<rscale>  0 0.30833849E+04</rscale>
<asrwt>0</asrwt>
<pdfrwt beam="1">  1        1 0.47297706E+00 0.30833849E+04</pdfrwt>
<pdfrwt beam="2">  1       -1 0.11894021E+00 0.30833849E+04</pdfrwt>
<totfact> 0.28160313E-01</totfact>
</mgrwt>
</event>
<event>
12    1  0.1494110E-007  0.1380414E+04  0.7818608E-02  0.8968119E-01
          2   -1    0    0  501    0  0.00000000000E+00  0.00000000000E+00  0.86892907655E+03  0.86892907655E+03  0.00000000000E+00 0. -1.
         -2   -1    0    0    0  501 -0.00000000000E+00 -0.00000000000E+00 -0.54824447079E+03  0.54824447079E+03  0.00000000000E+00 0.  1.
         23    2    1    2    0    0 -0.10838290653E+03 -0.44043305483E+02 -0.29310029906E+03  0.32867855311E+03  0.91843011593E+02 0.  0.
        254    2    1    2    0    0  0.10838290653E+03  0.44043305483E+02  0.61378490482E+03  0.10884949942E+04  0.89129275544E+03 0.  0.
        -24    2    4    4    0    0  0.25364615003E+03  0.89829842004E+02  0.79252730322E+03  0.84079121896E+03  0.80153462715E+02 0.  0.
         24    2    4    4    0    0 -0.14526324350E+03 -0.45786536522E+02 -0.17874239840E+03  0.24770377527E+03  0.78806715804E+02 0.  0.
         13    1    3    3    0    0 -0.11596851760E+02  0.48939690595E+01  0.33390750393E+01  0.13022569870E+02  0.00000000000E+00 0. -1.
        -13    1    3    3    0    0 -0.96786054771E+02 -0.48937274542E+02 -0.29643937410E+03  0.31565598324E+03  0.00000000000E+00 0.  1.
          4    1    6    6  502    0 -0.91828487310E+02  0.19636049506E+01 -0.13647922635E+03  0.16450807290E+03  0.00000000000E+00 0. -1.
          3    1    5    5  503    0  0.24993592770E+03  0.80060867982E+02  0.78553773010E+03  0.82821931633E+03  0.00000000000E+00 0. -1.
         -4    1    5    5    0  503  0.37102223297E+01  0.97689740225E+01  0.69895731236E+01  0.12571902626E+02  0.00000000000E+00 0.  1.
         -3    1    6    6    0  502 -0.53434756193E+02 -0.47750141472E+02 -0.42263172059E+02  0.83195702368E+02  0.00000000000E+00 0.  1.
<mgrwt>
<rscale>  0 0.13804138E+04</rscale>
<asrwt>0</asrwt>
<pdfrwt beam="1">  1        2 0.13368140E+00 0.13804138E+04</pdfrwt>
<pdfrwt beam="2">  1       -2 0.84345303E-01 0.13804138E+04</pdfrwt>
<totfact> 0.36816981E+01</totfact>
</mgrwt>
</event>
<event>
12    1  0.1494110E-007  0.2381458E+04  0.7818608E-02  0.8446478E-01
          2   -1    0    0  501    0  0.00000000000E+00  0.00000000000E+00  0.29074560829E+04  0.29074560829E+04  0.00000000000E+00 0.  1.
         -2   -1    0    0    0  501 -0.00000000000E+00 -0.00000000000E+00 -0.48765515250E+03  0.48765515250E+03  0.00000000000E+00 0. -1.
         23    2    1    2    0    0  0.14971991029E+03 -0.63416558162E+03 -0.73979872906E+02  0.66210392775E+03  0.91249948432E+02 0.  0.
        254    2    1    2    0    0 -0.14971991029E+03  0.63416558162E+03  0.24937808033E+04  0.27330073076E+04  0.90873770268E+03 0.  0.
        -24    2    4    4    0    0 -0.48753687011E+03  0.58398697517E+03  0.17778080398E+04  0.19356913314E+04  0.86985731324E+02 0.  0.
         24    2    4    4    0    0  0.33781695982E+03  0.50178606454E+02  0.71597276352E+03  0.79731597620E+03  0.80359049931E+02 0.  0.
         11    1    3    3    0    0  0.13576883893E+02 -0.60606664402E+01  0.17351562956E+01  0.14969108902E+02  0.00000000000E+00 0.  1.
        -11    1    3    3    0    0  0.13614302640E+03 -0.62810491518E+03 -0.75715029201E+02  0.64713481884E+03  0.00000000000E+00 0. -1.
          4    1    6    6  502    0  0.14955095969E+03 -0.53480738322E+01  0.37700484371E+03  0.40561896358E+03  0.00000000000E+00 0. -1.
          3    1    5    5  503    0 -0.13376276312E+03  0.20692001492E+03  0.50602648618E+03  0.56282428349E+03  0.00000000000E+00 0. -1.
         -4    1    5    5    0  503 -0.35377410699E+03  0.37706696025E+03  0.12717815536E+04  0.13728670479E+04  0.00000000000E+00 0.  1.
         -3    1    6    6    0  502  0.18826600013E+03  0.55526680287E+02  0.33896791981E+03  0.39169701261E+03  0.00000000000E+00 0.  1.
<mgrwt>
<rscale>  0 0.23814583E+04</rscale>
<asrwt>0</asrwt>
<pdfrwt beam="1">  1        2 0.44730093E+00 0.23814583E+04</pdfrwt>
<pdfrwt beam="2">  1       -2 0.75023871E-01 0.23814583E+04</pdfrwt>
<totfact> 0.28577534E+00</totfact>
</mgrwt>
</event>
<event>
12    1  0.1494110E-007  0.1389691E+04  0.7818608E-02  0.8961315E-01
         -2   -1    0    0    0  501 -0.00000000000E+00  0.00000000000E+00  0.63211784961E+03  0.63211784961E+03  0.00000000000E+00 0.  1.
          2   -1    0    0  501    0  0.00000000000E+00 -0.00000000000E+00 -0.76379792079E+03  0.76379792079E+03  0.00000000000E+00 0. -1.
         23    2    1    2    0    0  0.11374510901E+02  0.35636502788E+03  0.14527429556E+03  0.38998423850E+03  0.62110166128E+02 0.  0.
        254    2    1    2    0    0 -0.11374510901E+02 -0.35636502788E+03 -0.27695436674E+03  0.10059315319E+04  0.89892664495E+03 0.  0.
        -24    2    4    4    0    0 -0.22494551207E+03  0.94585309657E+02  0.18958141293E+03  0.31832309539E+03  0.76430469884E+02 0.  0.
         24    2    4    4    0    0  0.21357100117E+03 -0.45095033754E+03 -0.46653577967E+03  0.68760843650E+03  0.78619010193E+02 0.  0.
         13    1    3    3    0    0 -0.94263332981E+01  0.14928660751E+02  0.17417360238E+02  0.24800909437E+02  0.00000000000E+00 0. -1.
        -13    1    3    3    0    0  0.20800844199E+02  0.34143636713E+03  0.12785693532E+03  0.36518332907E+03  0.00000000000E+00 0.  1.
          2    1    6    6  502    0  0.77455879116E+02 -0.13270952686E+03 -0.99242891814E+02  0.18292179560E+03  0.00000000000E+00 0. -1.
          3    1    5    5  503    0 -0.12195902019E+02  0.29971229913E+02  0.15187443373E+02  0.35744553218E+02  0.00000000000E+00 0. -1.
         -4    1    5    5    0  503 -0.21274961005E+03  0.64614079744E+02  0.17439396956E+03  0.28257854217E+03  0.00000000000E+00 0.  1.
         -1    1    6    6    0  502  0.13611512205E+03 -0.31824081068E+03 -0.36729288786E+03  0.50468664090E+03  0.00000000000E+00 0.  1.
<mgrwt>
<rscale>  0 0.13896910E+04</rscale>
<asrwt>0</asrwt>
<pdfrwt beam="1">  1        2 0.11750737E+00 0.13896910E+04</pdfrwt>
<pdfrwt beam="2">  1       -2 0.97248900E-01 0.13896910E+04</pdfrwt>
<totfact> 0.31475814E+01</totfact>
</mgrwt>
</event>
<event>
12    1  0.1494110E-007  0.1780348E+04  0.7818608E-02  0.8716820E-01
         -2   -1    0    0    0  501 -0.00000000000E+00  0.00000000000E+00  0.55441017044E+03  0.55441017044E+03  0.00000000000E+00 0.  1.
          2   -1    0    0  501    0  0.00000000000E+00 -0.00000000000E+00 -0.14292848283E+04  0.14292848283E+04  0.00000000000E+00 0. -1.
         23    2    1    2    0    0  0.12702004802E+03  0.32080294174E+03  0.29599841269E+03  0.46627719663E+03  0.10368579340E+03 0.  0.
        254    2    1    2    0    0 -0.12702004802E+03 -0.32080294174E+03 -0.11708730705E+04  0.15174178021E+04  0.90142355124E+03 0.  0.
        -24    2    4    4    0    0 -0.63581142798E+02 -0.59559655894E+03 -0.10244361011E+04  0.11895672941E+04  0.82602658648E+02 0.  0.
         24    2    4    4    0    0 -0.63438905223E+02  0.27479361720E+03 -0.14643696944E+03  0.32785050799E+03  0.80660664639E+02 0.  0.
         13    1    3    3    0    0 -0.16234271805E+02  0.61886843904E+02  0.44512295809E+02  0.77941500547E+02  0.00000000000E+00 0. -1.
        -13    1    3    3    0    0  0.14325431983E+03  0.25891609784E+03  0.25148611688E+03  0.38833569608E+03  0.00000000000E+00 0.  1.
          2    1    6    6  502    0 -0.47505295554E+02  0.27057198853E+03 -0.12784019754E+03  0.30300011582E+03  0.00000000000E+00 0. -1.
          1    1    5    5  503    0 -0.44426917788E+02 -0.11140002719E+03 -0.21367625461E+03  0.24503317912E+03  0.00000000000E+00 0. -1.
         -2    1    5    5    0  503 -0.19154225009E+02 -0.48419653175E+03 -0.81075984646E+03  0.94453411496E+03  0.00000000000E+00 0.  1.
         -1    1    6    6    0  502 -0.15933609669E+02  0.42216286720E+01 -0.18596771898E+02  0.24850392165E+02  0.00000000000E+00 0.  1.
<mgrwt>
<rscale>  0 0.17803483E+04</rscale>
<asrwt>0</asrwt>
<pdfrwt beam="1">  1        2 0.21988997E+00 0.17803483E+04</pdfrwt>
<pdfrwt beam="2">  1       -2 0.85293873E-01 0.17803483E+04</pdfrwt>
<totfact> 0.15739204E+01</totfact>
</mgrwt>
</event>
<event>
12    1  0.1494110E-007  0.1416267E+04  0.7818608E-02  0.8942127E-01
         -2   -1    0    0    0  501 -0.00000000000E+00  0.00000000000E+00  0.14821109563E+03  0.14821109563E+03  0.00000000000E+00 0.  1.
          2   -1    0    0  501    0  0.00000000000E+00 -0.00000000000E+00 -0.33833705439E+04  0.33833705439E+04  0.00000000000E+00 0. -1.
         23    2    1    2    0    0  0.14068993300E+02 -0.38936875257E+02 -0.19907658277E+04  0.19933007281E+04  0.91570709341E+02 0.  0.
        254    2    1    2    0    0 -0.14068993300E+02  0.38936875257E+02 -0.12443936205E+04  0.15382809114E+04  0.90337072285E+03 0.  0.
        -24    2    4    4    0    0 -0.33507343562E+03 -0.21042415302E+03 -0.28759922254E+03  0.49564308464E+03  0.79976390959E+02 0.  0.
         24    2    4    4    0    0  0.32100444232E+03  0.24936102827E+03 -0.95679439797E+03  0.10426378268E+04  0.80083353317E+02 0.  0.
         11    1    3    3    0    0  0.11683208592E+02 -0.66887591505E+02 -0.11002661202E+04  0.11023592802E+04  0.00000000000E+00 0. -1.
        -11    1    3    3    0    0  0.23857847078E+01  0.27950716247E+02 -0.89049970751E+03  0.89094144790E+03  0.00000000000E+00 0.  1.
          4    1    6    6  502    0  0.38616603882E+02  0.68813645543E+02 -0.19572850057E+03  0.21103602973E+03  0.00000000000E+00 0. -1.
          3    1    5    5  503    0 -0.24082692225E+03 -0.11571749667E+03 -0.21889661166E+03  0.34540392602E+03  0.00000000000E+00 0. -1.
         -4    1    5    5    0  503 -0.94246513368E+02 -0.94706656349E+02 -0.68702610880E+02  0.15023915861E+03  0.00000000000E+00 0.  1.
         -3    1    6    6    0  502  0.28238783844E+03  0.18054738273E+03 -0.76106589740E+03  0.83160179708E+03  0.00000000000E+00 0.  1.
<mgrwt>
<rscale>  0 0.14162670E+04</rscale>
<asrwt>0</asrwt>
<pdfrwt beam="1">  1        2 0.52051846E+00 0.14162670E+04</pdfrwt>
<pdfrwt beam="2">  1       -2 0.22801711E-01 0.14162670E+04</pdfrwt>
<totfact> 0.16350848E+01</totfact>
</mgrwt>
</event>
<event>
12    1  0.1494110E-007  0.2265318E+04  0.7818608E-02  0.8491723E-01
          2   -1    0    0  501    0  0.00000000000E+00  0.00000000000E+00  0.12134072459E+04  0.12134072459E+04  0.00000000000E+00 0.  1.
         -2   -1    0    0    0  501 -0.00000000000E+00 -0.00000000000E+00 -0.10572845498E+04  0.10572845498E+04  0.00000000000E+00 0. -1.
         23    2    1    2    0    0  0.70580130824E+03  0.62800109353E+03  0.25805952955E+03  0.98369598235E+03  0.92315788066E+02 0.  0.
        254    2    1    2    0    0 -0.70580130824E+03 -0.62800109353E+03 -0.10193683344E+03  0.12869958133E+04  0.86800129337E+03 0.  0.
        -24    2    4    4    0    0 -0.74127810088E+03 -0.32612052611E+03 -0.35117845757E+03  0.88637245076E+03  0.80510819220E+02 0.  0.
         24    2    4    4    0    0  0.35476792635E+02 -0.30188056742E+03  0.24924162413E+03  0.40062336255E+03  0.77377074288E+02 0.  0.
         13    1    3    3    0    0  0.35657209971E+03  0.28302816059E+03  0.16397711482E+03  0.48387714987E+03  0.00000000000E+00 0.  1.
        -13    1    3    3    0    0  0.34922920853E+03  0.34497293293E+03  0.94082414729E+02  0.49981883249E+03  0.00000000000E+00 0. -1.
          4    1    6    6  502    0  0.39557021370E+02 -0.85147638918E+02  0.10166310301E+03  0.13838448203E+03  0.00000000000E+00 0. -1.
          1    1    5    5  503    0 -0.15825217828E+03 -0.99607585984E+02 -0.59531331398E+02  0.19623812711E+03  0.00000000000E+00 0. -1.
         -2    1    5    5    0  503 -0.58302592260E+03 -0.22651294013E+03 -0.29164712617E+03  0.69013432364E+03  0.00000000000E+00 0.  1.
         -3    1    6    6    0  502 -0.40802287353E+01 -0.21673292850E+03  0.14757852112E+03  0.26223888052E+03  0.00000000000E+00 0.  1.
<mgrwt>
<rscale>  0 0.22653183E+04</rscale>
<asrwt>0</asrwt>
<pdfrwt beam="1">  1        2 0.18667804E+00 0.22653183E+04</pdfrwt>
<pdfrwt beam="2">  1       -2 0.16265916E+00 0.22653183E+04</pdfrwt>
<totfact> 0.40710542E+00</totfact>
</mgrwt>
</event>
<event>
12    1  0.1494110E-007  0.1652234E+04  0.7818608E-02  0.8789086E-01
          2   -1    0    0  501    0  0.00000000000E+00  0.00000000000E+00  0.25070763239E+04  0.25070763239E+04  0.00000000000E+00 0. -1.
         -2   -1    0    0    0  501 -0.00000000000E+00 -0.00000000000E+00 -0.27221725136E+03  0.27221725136E+03  0.00000000000E+00 0.  1.
         23    2    1    2    0    0 -0.23503917913E+03  0.51513358813E+03  0.79780992897E+03  0.98263169238E+03  0.91969183722E+02 0.  0.
        254    2    1    2    0    0  0.23503917913E+03 -0.51513358813E+03  0.14370491435E+04  0.17966618829E+04  0.91775685834E+03 0.  0.
        -24    2    4    4    0    0 -0.25916991746E+03 -0.17024740003E+02  0.80163156334E+03  0.84642824730E+03  0.79804301888E+02 0.  0.
         24    2    4    4    0    0  0.49420909659E+03 -0.49810884813E+03  0.63541758019E+03  0.95023363555E+03  0.82664413067E+02 0.  0.
         11    1    3    3    0    0 -0.12466047492E+03  0.35369023791E+03  0.47492197703E+03  0.60513461532E+03  0.00000000000E+00 0. -1.
        -11    1    3    3    0    0 -0.11037870421E+03  0.16144335022E+03  0.32288795195E+03  0.37749707706E+03  0.00000000000E+00 0.  1.
          4    1    6    6  502    0  0.24946147255E+03 -0.21894095453E+03  0.34628639214E+03  0.47966700245E+03  0.00000000000E+00 0. -1.
          1    1    5    5  503    0 -0.56292759899E+02 -0.31001214280E+01  0.89033987504E+02  0.10538280932E+03  0.00000000000E+00 0. -1.
         -2    1    5    5    0  503 -0.20287715756E+03 -0.13924618575E+02  0.71259757584E+03  0.74104543798E+03  0.00000000000E+00 0.  1.
         -3    1    6    6    0  502  0.24474762404E+03 -0.27916789359E+03  0.28913118805E+03  0.47056663310E+03  0.00000000000E+00 0.  1.
<mgrwt>
<rscale>  0 0.16522342E+04</rscale>
<asrwt>0</asrwt>
<pdfrwt beam="1">  1        2 0.38570403E+00 0.16522342E+04</pdfrwt>
<pdfrwt beam="2">  1       -2 0.41879579E-01 0.16522342E+04</pdfrwt>
<totfact> 0.17829011E+01</totfact>
</mgrwt>
</event>
<event>
12    1  0.1494110E-007  0.1269473E+04  0.7818608E-02  0.9054130E-01
         -1   -1    0    0    0  501 -0.00000000000E+00  0.00000000000E+00  0.16916717858E+03  0.16916717858E+03  0.00000000000E+00 0.  1.
          1   -1    0    0  501    0  0.00000000000E+00 -0.00000000000E+00 -0.23816104533E+04  0.23816104533E+04  0.00000000000E+00 0. -1.
         23    2    1    2    0    0  0.16542256850E+03 -0.24971593630E+03 -0.74409403894E+03  0.80721164202E+03  0.90509785163E+02 0.  0.
        254    2    1    2    0    0 -0.16542256850E+03  0.24971593630E+03 -0.14683492358E+04  0.17435659899E+04  0.89120716323E+03 0.  0.
        -24    2    4    4    0    0 -0.24850731304E+03  0.35800597416E+03 -0.23636771797E+03  0.50169044176E+03  0.76807806183E+02 0.  0.
         24    2    4    4    0    0  0.83084744539E+02 -0.10829003786E+03 -0.12319815178E+04  0.12418755481E+04  0.76463126193E+02 0.  0.
         11    1    3    3    0    0  0.10403836438E+03 -0.22212617920E+03 -0.59869002738E+03  0.64698822990E+03  0.00000000000E+00 0. -1.
        -11    1    3    3    0    0  0.61384204111E+02 -0.27589757102E+02 -0.14540401156E+03  0.16022341211E+03  0.00000000000E+00 0.  1.
          2    1    6    6  502    0  0.45567066511E+01 -0.45066782385E+02 -0.61935280700E+03  0.62100698707E+03  0.00000000000E+00 0. -1.
          3    1    5    5  503    0 -0.16224587129E+02  0.22718081132E+02 -0.40555945874E+02  0.49235487035E+02  0.00000000000E+00 0. -1.
         -4    1    5    5    0  503 -0.23228272591E+03  0.33528789303E+03 -0.19581177209E+03  0.45245495473E+03  0.00000000000E+00 0.  1.
         -1    1    6    6    0  502  0.78528037888E+02 -0.63223255472E+02 -0.61262871085E+03  0.62086856107E+03  0.00000000000E+00 0.  1.
<mgrwt>
<rscale>  0 0.12694728E+04</rscale>
<asrwt>0</asrwt>
<pdfrwt beam="1">  1        1 0.36640161E+00 0.12694728E+04</pdfrwt>
<pdfrwt beam="2">  1       -1 0.26025720E-01 0.12694728E+04</pdfrwt>
<totfact> 0.21137984E+01</totfact>
</mgrwt>
</event>
<event>
12    1  0.1494110E-007  0.1685600E+04  0.7818608E-02  0.8769620E-01
          2   -1    0    0  501    0  0.00000000000E+00  0.00000000000E+00  0.25469368181E+04  0.25469368181E+04  0.00000000000E+00 0. -1.
         -2   -1    0    0    0  501 -0.00000000000E+00 -0.00000000000E+00 -0.27888857882E+03  0.27888857882E+03  0.00000000000E+00 0.  1.
         23    2    1    2    0    0 -0.20075097438E+03  0.49227576540E+03  0.36883907696E+03  0.65316015472E+03  0.89104097004E+02 0.  0.
        254    2    1    2    0    0  0.20075097438E+03 -0.49227576540E+03  0.18992091623E+04  0.21726652422E+04  0.91150558391E+03 0.  0.
        -24    2    4    4    0    0  0.10933630464E+03 -0.70111467838E+03  0.17478436976E+04  0.18881296273E+04  0.80991841675E+02 0.  0.
         24    2    4    4    0    0  0.91414669740E+02  0.20883891299E+03  0.15136546467E+03  0.28453561487E+03  0.77965882371E+02 0.  0.
         13    1    3    3    0    0 -0.18458788802E+03  0.42220236439E+03  0.28129041927E+03  0.53986278338E+03  0.00000000000E+00 0.  1.
        -13    1    3    3    0    0 -0.16163086360E+02  0.70073401008E+02  0.87548657690E+02  0.11329737134E+03  0.00000000000E+00 0. -1.
          4    1    6    6  502    0  0.16126552844E+02  0.10150010200E+03  0.10096875796E+03  0.14407299017E+03  0.00000000000E+00 0. -1.
          3    1    5    5  503    0  0.19413904165E+02 -0.15585033842E+03  0.30472470080E+03  0.34281681834E+03  0.00000000000E+00 0. -1.
         -4    1    5    5    0  503  0.89922400471E+02 -0.54526433996E+03  0.14431189968E+04  0.15453128090E+04  0.00000000000E+00 0.  1.
         -1    1    6    6    0  502  0.75288116896E+02  0.10733881099E+03  0.50396706701E+02  0.14046262470E+03  0.00000000000E+00 0.  1.
<mgrwt>
<rscale>  0 0.16855997E+04</rscale>
<asrwt>0</asrwt>
<pdfrwt beam="1">  1        2 0.39183642E+00 0.16855997E+04</pdfrwt>
<pdfrwt beam="2">  1       -2 0.42905937E-01 0.16855997E+04</pdfrwt>
<totfact> 0.16068720E+01</totfact>
</mgrwt>
</event>
<event>
12    1  0.1494110E-007  0.1755223E+04  0.7818608E-02  0.8730481E-01
         -2   -1    0    0    0  501 -0.00000000000E+00  0.00000000000E+00  0.47793257067E+03  0.47793257067E+03  0.00000000000E+00 0.  1.
          2   -1    0    0  501    0  0.00000000000E+00 -0.00000000000E+00 -0.16115278940E+04  0.16115278940E+04  0.00000000000E+00 0. -1.
         23    2    1    2    0    0 -0.15744796979E+03  0.22167659811E+03 -0.11087242168E+04  0.11453314193E+04  0.92651463685E+02 0.  0.
        254    2    1    2    0    0  0.15744796979E+03 -0.22167659811E+03 -0.24871106537E+02  0.94412904540E+03  0.90378686928E+03 0.  0.
        -24    2    4    4    0    0  0.36298908357E+03  0.22920142215E+03 -0.62259309625E+02  0.44115611948E+03  0.80300270343E+02 0.  0.
         24    2    4    4    0    0 -0.20554111378E+03 -0.45087802026E+03  0.37388203088E+02  0.50297292592E+03  0.77754407405E+02 0.  0.
         11    1    3    3    0    0 -0.42322494772E+02  0.32320861025E+02 -0.10865077655E+03  0.12099926804E+03  0.00000000000E+00 0.  1.
        -11    1    3    3    0    0 -0.11512547502E+03  0.18935573708E+03 -0.10000734403E+04  0.10243321513E+04  0.00000000000E+00 0. -1.
          4    1    6    6  502    0 -0.12537797687E+02 -0.17968472733E+01  0.26590972476E+01  0.12942017970E+02  0.00000000000E+00 0. -1.
          1    1    5    5  503    0 -0.17774369100E+01 -0.25853700132E+01  0.26775252058E+01  0.41246286259E+01  0.00000000000E+00 0. -1.
         -2    1    5    5    0  503  0.36476652048E+03  0.23178679216E+03 -0.64936834831E+02  0.43703149086E+03  0.00000000000E+00 0.  1.
         -3    1    6    6    0  502 -0.19300331610E+03 -0.44908117298E+03  0.34729105841E+02  0.49003090795E+03  0.00000000000E+00 0.  1.
<mgrwt>
<rscale>  0 0.17552227E+04</rscale>
<asrwt>0</asrwt>
<pdfrwt beam="1">  1        2 0.24792737E+00 0.17552227E+04</pdfrwt>
<pdfrwt beam="2">  1       -2 0.73528087E-01 0.17552227E+04</pdfrwt>
<totfact> 0.17367053E+01</totfact>
</mgrwt>
</event>
<event>
12    1  0.1494110E-007  0.2067061E+04  0.7818608E-02  0.8575894E-01
          1   -1    0    0  501    0  0.00000000000E+00  0.00000000000E+00  0.28388813682E+04  0.28388813682E+04  0.00000000000E+00 0. -1.
         -1   -1    0    0    0  501 -0.00000000000E+00 -0.00000000000E+00 -0.37626969085E+03  0.37626969085E+03  0.00000000000E+00 0.  1.
         23    2    1    2    0    0 -0.69896383950E+03 -0.20223874997E+03  0.37149964721E+03  0.82165036261E+03  0.87443522211E+02 0.  0.
        254    2    1    2    0    0  0.69896383950E+03  0.20223874997E+03  0.20911120301E+04  0.23935006964E+04  0.90920025317E+03 0.  0.
        -24    2    4    4    0    0  0.85197623016E+03  0.30108412052E+03  0.13521774633E+04  0.16282794889E+04  0.79969101292E+02 0.  0.
         24    2    4    4    0    0 -0.15301239066E+03 -0.98845370550E+02  0.73893456682E+03  0.76522120757E+03  0.79724547720E+02 0.  0.
         11    1    3    3    0    0 -0.49171689770E+03 -0.10020313202E+03  0.25852233012E+03  0.56449975227E+03  0.00000000000E+00 0. -1.
        -11    1    3    3    0    0 -0.20724694181E+03 -0.10203561795E+03  0.11297731709E+03  0.25715061034E+03  0.00000000000E+00 0.  1.
          2    1    6    6  502    0 -0.42784395914E+01 -0.24023710737E+01 -0.40913223054E+00  0.49238015085E+01  0.00000000000E+00 0. -1.
          1    1    5    5  503    0  0.93830800491E-01  0.83301970324E+00 -0.10197247197E+01  0.13200623278E+01  0.00000000000E+00 0. -1.
         -2    1    5    5    0  503  0.85188239936E+03  0.30025110082E+03  0.13531971880E+04  0.16269594265E+04  0.00000000000E+00 0.  1.
         -1    1    6    6    0  502 -0.14873395107E+03 -0.96442999476E+02  0.73934369905E+03  0.76029740606E+03  0.00000000000E+00 0.  1.
<mgrwt>
<rscale>  0 0.20670607E+04</rscale>
<asrwt>0</asrwt>
<pdfrwt beam="1">  1        1 0.43675097E+00 0.20670607E+04</pdfrwt>
<pdfrwt beam="2">  1       -1 0.57887647E-01 0.20670607E+04</pdfrwt>
<totfact> 0.21818680E+00</totfact>
</mgrwt>
</event>
<event>
12    1  0.1494110E-007  0.1292943E+04  0.7818608E-02  0.9035181E-01
          2   -1    0    0  501    0  0.00000000000E+00  0.00000000000E+00  0.11961162705E+04  0.11961162705E+04  0.00000000000E+00 0. -1.
         -2   -1    0    0    0  501 -0.00000000000E+00 -0.00000000000E+00 -0.34940173098E+03  0.34940173098E+03  0.00000000000E+00 0.  1.
         23    2    1    2    0    0 -0.10661623848E+03  0.31656173434E+02  0.55566582226E+03  0.57380528599E+03  0.90104742265E+02 0.  0.
        254    2    1    2    0    0  0.10661623848E+03 -0.31656173434E+02  0.29104871726E+03  0.97171271549E+03  0.92040594848E+03 0.  0.
        -24    2    4    4    0    0  0.15784871551E+03  0.20452538769E+03  0.54691309398E+03  0.61058526715E+03  0.83388157969E+02 0.  0.
         24    2    4    4    0    0 -0.51232477033E+02 -0.23618156113E+03 -0.25586437672E+03  0.36112744834E+03  0.80870007735E+02 0.  0.
         11    1    3    3    0    0 -0.57547574589E+02  0.47187417167E+02  0.45178598682E+03  0.45787438623E+03  0.00000000000E+00 0. -1.
        -11    1    3    3    0    0 -0.49068663889E+02 -0.15531243734E+02  0.10387983544E+03  0.11593089976E+03  0.00000000000E+00 0.  1.
          2    1    6    6  502    0 -0.65836416658E+02 -0.20245587515E+03 -0.18831607049E+03  0.28422835458E+03  0.00000000000E+00 0. -1.
          3    1    5    5  503    0  0.16344646720E+03  0.18366804964E+03  0.46651818105E+03  0.52734041506E+03  0.00000000000E+00 0. -1.
         -4    1    5    5    0  503 -0.55977516941E+01  0.20857338056E+02  0.80394912926E+02  0.83244852088E+02  0.00000000000E+00 0.  1.
         -1    1    6    6    0  502  0.14603939625E+02 -0.33725685979E+02 -0.67548306224E+02  0.76899093759E+02  0.00000000000E+00 0.  1.
<mgrwt>
<rscale>  0 0.12929425E+04</rscale>
<asrwt>0</asrwt>
<pdfrwt beam="1">  1        2 0.18401789E+00 0.12929425E+04</pdfrwt>
<pdfrwt beam="2">  1       -2 0.53754113E-01 0.12929425E+04</pdfrwt>
<totfact> 0.60878123E+01</totfact>
</mgrwt>
</event>
<event>
12    1  0.1494110E-007  0.1105374E+04  0.7818608E-02  0.9199970E-01
          1   -1    0    0  501    0  0.00000000000E+00  0.00000000000E+00  0.19283851694E+04  0.19283851694E+04  0.00000000000E+00 0. -1.
         -1   -1    0    0    0  501 -0.00000000000E+00 -0.00000000000E+00 -0.15840343738E+03  0.15840343738E+03  0.00000000000E+00 0.  1.
         23    2    1    2    0    0  0.60155544161E+02 -0.11445931189E+03  0.50509804298E+03  0.52953580378E+03  0.92544642715E+02 0.  0.
        254    2    1    2    0    0 -0.60155544161E+02  0.11445931189E+03  0.12648836890E+04  0.15572528030E+04  0.89910284286E+03 0.  0.
        -24    2    4    4    0    0 -0.21923272718E+03 -0.34354755124E+03  0.53210806501E+03  0.67499470271E+03  0.79943400024E+02 0.  0.
         24    2    4    4    0    0  0.15907718302E+03  0.45800686313E+03  0.73277562403E+03  0.88225810028E+03  0.79645486360E+02 0.  0.
         11    1    3    3    0    0  0.28758888592E+02 -0.11584348383E+03  0.31496589018E+03  0.33682383881E+03  0.00000000000E+00 0. -1.
        -11    1    3    3    0    0  0.31396655568E+02  0.13841719388E+01  0.19013215280E+03  0.19271196497E+03  0.00000000000E+00 0.  1.
          2    1    6    6  502    0  0.10547608418E+03  0.19778449298E+03  0.30110819259E+03  0.37537987911E+03  0.00000000000E+00 0. -1.
          1    1    5    5  503    0 -0.21975759946E+03 -0.32013776654E+03  0.51892180548E+03  0.64812146414E+03  0.00000000000E+00 0. -1.
         -2    1    5    5    0  503  0.52487227435E+00 -0.23409784698E+02  0.13186259531E+02  0.26873238564E+02  0.00000000000E+00 0.  1.
         -1    1    6    6    0  502  0.53601098838E+02  0.26022237015E+03  0.43166743144E+03  0.50687822116E+03  0.00000000000E+00 0.  1.
<mgrwt>
<rscale>  0 0.11053739E+04</rscale>
<asrwt>0</asrwt>
<pdfrwt beam="1">  1        1 0.29667462E+00 0.11053739E+04</pdfrwt>
<pdfrwt beam="2">  1       -1 0.24369761E-01 0.11053739E+04</pdfrwt>
<totfact> 0.48695487E+01</totfact>
</mgrwt>
</event>
<event>
12    1  0.1494110E-007  0.1373491E+04  0.7818608E-02  0.8973234E-01
          1   -1    0    0  501    0  0.00000000000E+00  0.00000000000E+00  0.17879124768E+04  0.17879124768E+04  0.00000000000E+00 0. -1.
         -1   -1    0    0    0  501 -0.00000000000E+00 -0.00000000000E+00 -0.26378211083E+03  0.26378211083E+03  0.00000000000E+00 0.  1.
         23    2    1    2    0    0  0.12550405965E+03 -0.26063611407E+03  0.70239702361E+03  0.76525967192E+03  0.92619294744E+02 0.  0.
        254    2    1    2    0    0 -0.12550405965E+03  0.26063611407E+03  0.82173334232E+03  0.12864349157E+04  0.94656571532E+03 0.  0.
        -24    2    4    4    0    0 -0.32778228792E+03  0.20331290200E+03  0.94892415727E+03  0.10275187211E+04  0.80995688349E+02 0.  0.
         24    2    4    4    0    0  0.20227822827E+03  0.57323212062E+02 -0.12719081495E+03  0.25891619459E+03  0.81594485955E+02 0.  0.
         11    1    3    3    0    0  0.79686352553E+02 -0.17363607104E+03  0.56407640269E+03  0.59555149905E+03  0.00000000000E+00 0.  1.
        -11    1    3    3    0    0  0.45817707093E+02 -0.87000043022E+02  0.13832062092E+03  0.16970817287E+03  0.00000000000E+00 0. -1.
          2    1    6    6  502    0  0.51649171653E+02  0.49743521129E+02 -0.21893923557E+02  0.74975987593E+02  0.00000000000E+00 0. -1.
          1    1    5    5  503    0 -0.12069557737E+03  0.11300516429E+03  0.34094446163E+03  0.37892046061E+03  0.00000000000E+00 0. -1.
         -4    1    5    5    0  503 -0.20708671055E+03  0.90307737709E+02  0.60797969564E+03  0.64859826047E+03  0.00000000000E+00 0.  1.
         -1    1    6    6    0  502  0.15062905662E+03  0.75796909332E+01 -0.10529689139E+03  0.18394020699E+03  0.00000000000E+00 0.  1.
<mgrwt>
<rscale>  0 0.13734909E+04</rscale>
<asrwt>0</asrwt>
<pdfrwt beam="1">  1        1 0.27506345E+00 0.13734909E+04</pdfrwt>
<pdfrwt beam="2">  1       -1 0.40581864E-01 0.13734909E+04</pdfrwt>
<totfact> 0.24070623E+01</totfact>
</mgrwt>
</event>
<event>
12    1  0.1494110E-007  0.1820519E+04  0.7818608E-02  0.8695463E-01
          2   -1    0    0  501    0  0.00000000000E+00  0.00000000000E+00  0.31723633324E+04  0.31723633324E+04  0.00000000000E+00 0. -1.
         -2   -1    0    0    0  501 -0.00000000000E+00 -0.00000000000E+00 -0.26118450377E+03  0.26118450377E+03  0.00000000000E+00 0.  1.
         23    2    1    2    0    0  0.55612298469E+03 -0.26044021978E+03  0.47013603172E+03  0.77883309008E+03  0.91930472154E+02 0.  0.
        254    2    1    2    0    0 -0.55612298469E+03  0.26044021978E+03  0.24410427970E+04  0.26547147461E+04  0.84363414143E+03 0.  0.
        -24    2    4    4    0    0 -0.92167383516E+02 -0.29257028291E+03  0.75087436119E+03  0.81508479440E+03  0.80366154181E+02 0.  0.
         24    2    4    4    0    0 -0.46395560117E+03  0.55301050269E+03  0.16901684358E+04  0.18396299517E+04  0.80582889681E+02 0.  0.
         13    1    3    3    0    0  0.46137188906E+02 -0.26200335544E+02  0.77460198533E+02  0.93889190749E+02  0.00000000000E+00 0. -1.
        -13    1    3    3    0    0  0.50998579578E+03 -0.23423988424E+03  0.39267583319E+03  0.68494389933E+03  0.00000000000E+00 0.  1.
          4    1    6    6  502    0 -0.10819397834E+03  0.80426080241E+02  0.31536280846E+03  0.34296937515E+03  0.00000000000E+00 0. -1.
          3    1    5    5  503    0 -0.12823593777E+02 -0.89171500646E+01  0.92753555039E+02  0.94059460423E+02  0.00000000000E+00 0. -1.
         -4    1    5    5    0  503 -0.79343789739E+02 -0.28365313285E+03  0.65812080615E+03  0.72102533397E+03  0.00000000000E+00 0.  1.
         -1    1    6    6    0  502 -0.35576162283E+03  0.47258442245E+03  0.13748056273E+04  0.14966605766E+04  0.00000000000E+00 0.  1.
<mgrwt>
<rscale>  0 0.18205188E+04</rscale>
<asrwt>0</asrwt>
<pdfrwt beam="1">  1        2 0.48805587E+00 0.18205188E+04</pdfrwt>
<pdfrwt beam="2">  1       -2 0.40182234E-01 0.18205188E+04</pdfrwt>
<totfact> 0.75045457E+00</totfact>
</mgrwt>
</event>
<event>
12    1  0.1494110E-007  0.1196096E+04  0.7818608E-02  0.9116281E-01
         -1   -1    0    0    0  501 -0.00000000000E+00  0.00000000000E+00  0.67456033615E+03  0.67456033615E+03  0.00000000000E+00 0.  1.
          1   -1    0    0  501    0  0.00000000000E+00 -0.00000000000E+00 -0.53021375000E+03  0.53021375000E+03  0.00000000000E+00 0. -1.
         23    2    1    2    0    0 -0.37299026658E+02  0.23389633999E+03  0.12109342715E+03  0.29286950917E+03  0.12251618690E+03 0.  0.
        254    2    1    2    0    0  0.37299026658E+02 -0.23389633999E+03  0.23253158999E+02  0.91190457698E+03  0.88030138751E+03 0.  0.
        -24    2    4    4    0    0  0.13211035435E+03  0.13753789283E+02 -0.38724207990E+03  0.41704286370E+03  0.79536213540E+02 0.  0.
         24    2    4    4    0    0 -0.94811327693E+02 -0.24765012927E+03  0.41049523890E+03  0.49486171328E+03  0.77858844851E+02 0.  0.
         13    1    3    3    0    0  0.17303080630E+02  0.22178118864E+02 -0.18310345766E+02  0.33563884127E+02  0.00000000000E+00 0. -1.
        -13    1    3    3    0    0 -0.54602107288E+02  0.21171822112E+03  0.13940377292E+03  0.25930562504E+03  0.00000000000E+00 0.  1.
          4    1    6    6  502    0 -0.31393800220E+02 -0.16804417741E+03  0.29470594406E+03  0.34069929515E+03  0.00000000000E+00 0. -1.
          3    1    5    5  503    0  0.13845930070E+03  0.26123247943E+02 -0.35100055680E+03  0.37822584907E+03  0.00000000000E+00 0. -1.
         -4    1    5    5    0  503 -0.63489463481E+01 -0.12369458660E+02 -0.36241523104E+02  0.38817014622E+02  0.00000000000E+00 0.  1.
         -3    1    6    6    0  502 -0.63417527473E+02 -0.79605951863E+02  0.11578929484E+03  0.15416241813E+03  0.00000000000E+00 0.  1.
<mgrwt>
<rscale>  0 0.11960956E+04</rscale>
<asrwt>0</asrwt>
<pdfrwt beam="1">  1        1 0.81571346E-01 0.11960956E+04</pdfrwt>
<pdfrwt beam="2">  1       -1 0.10377851E+00 0.11960956E+04</pdfrwt>
<totfact> 0.35395990E+01</totfact>
</mgrwt>
</event>
<event>
12    1  0.1494110E-007  0.1686429E+04  0.7818608E-02  0.8769142E-01
         -1   -1    0    0    0  501 -0.00000000000E+00  0.00000000000E+00  0.73560698711E+03  0.73560698711E+03  0.00000000000E+00 0.  1.
          1   -1    0    0  501    0  0.00000000000E+00 -0.00000000000E+00 -0.96656342329E+03  0.96656342329E+03  0.00000000000E+00 0. -1.
         23    2    1    2    0    0  0.46225947747E+03  0.30615484521E+03  0.13759311747E+03  0.57841355026E+03  0.90640804246E+02 0.  0.
        254    2    1    2    0    0 -0.46225947747E+03 -0.30615484521E+03 -0.36854955365E+03  0.11237568601E+04  0.90530994332E+03 0.  0.
        -24    2    4    4    0    0 -0.65839587438E+03 -0.16113070035E+03 -0.96540785221E+01  0.68252545539E+03  0.79369805502E+02 0.  0.
         24    2    4    4    0    0  0.19613639691E+03 -0.14502414485E+03 -0.35889547513E+03  0.44123140475E+03  0.79860513947E+02 0.  0.
         13    1    3    3    0    0  0.28433325079E+03  0.15046547806E+03  0.46445325135E+02  0.32502680784E+03  0.00000000000E+00 0.  1.
        -13    1    3    3    0    0  0.17792622668E+03  0.15568936714E+03  0.91147792336E+02  0.25338674241E+03  0.00000000000E+00 0. -1.
          4    1    6    6  502    0  0.12879558966E+03 -0.13806754448E+03 -0.27084585711E+03  0.33016424560E+03  0.00000000000E+00 0. -1.
          1    1    5    5  503    0 -0.59799397969E+03 -0.16859031898E+03 -0.14482498548E+02  0.62147344123E+03  0.00000000000E+00 0. -1.
         -2    1    5    5    0  503 -0.60401894693E+02  0.74596186239E+01  0.48284200259E+01  0.61052014156E+02  0.00000000000E+00 0.  1.
         -3    1    6    6    0  502  0.67340807253E+02 -0.69566003695E+01 -0.88049618018E+02  0.11106715916E+03  0.00000000000E+00 0.  1.
<mgrwt>
<rscale>  0 0.16864291E+04</rscale>
<asrwt>0</asrwt>
<pdfrwt beam="1">  1        1 0.14870206E+00 0.16864291E+04</pdfrwt>
<pdfrwt beam="2">  1       -1 0.11317031E+00 0.16864291E+04</pdfrwt>
<totfact> 0.10928361E+01</totfact>
</mgrwt>
</event>
<event>
12    1  0.1494110E-007  0.2000722E+04  0.7818608E-02  0.8606283E-01
         -1   -1    0    0    0  501 -0.00000000000E+00  0.00000000000E+00  0.32980163911E+03  0.32980163911E+03  0.00000000000E+00 0.  1.
          1   -1    0    0  501    0  0.00000000000E+00 -0.00000000000E+00 -0.30343158089E+04  0.30343158089E+04  0.00000000000E+00 0. -1.
         23    2    1    2    0    0  0.25888002426E+03  0.96631396558E+02  0.17064137860E+03  0.33730697110E+03  0.91109927583E+02 0.  0.
        254    2    1    2    0    0 -0.25888002426E+03 -0.96631396558E+02 -0.28751555484E+04  0.30268104770E+04  0.90482359713E+03 0.  0.
        -24    2    4    4    0    0  0.15294623442E+03  0.20967731385E+03 -0.19226335498E+04  0.19417659764E+04  0.81106189747E+02 0.  0.
         24    2    4    4    0    0 -0.41182625868E+03 -0.30630871041E+03 -0.95252199867E+03  0.10850445005E+04  0.81225099125E+02 0.  0.
         11    1    3    3    0    0  0.17225730264E+03  0.65114624624E+02  0.16103095773E+03  0.24462923374E+03  0.00000000000E+00 0.  1.
        -11    1    3    3    0    0  0.86622721616E+02  0.31516771934E+02  0.96104208684E+01  0.92677737362E+02  0.00000000000E+00 0. -1.
          4    1    6    6  502    0 -0.32944223633E+03 -0.20168352966E+03 -0.72114244106E+03  0.81807997990E+03  0.00000000000E+00 0. -1.
          1    1    5    5  503    0  0.98137709258E+01  0.23394615265E+02 -0.73196037366E+02  0.77467915999E+02  0.00000000000E+00 0. -1.
         -2    1    5    5    0  503  0.14313246349E+03  0.18628269858E+03 -0.18494375124E+04  0.18642980604E+04  0.00000000000E+00 0.  1.
         -3    1    6    6    0  502 -0.82384022351E+02 -0.10462518075E+03 -0.23137955761E+03  0.26696452061E+03  0.00000000000E+00 0.  1.
<mgrwt>
<rscale>  0 0.20007222E+04</rscale>
<asrwt>0</asrwt>
<pdfrwt beam="1">  1        1 0.46681782E+00 0.20007222E+04</pdfrwt>
<pdfrwt beam="2">  1       -1 0.50738713E-01 0.20007222E+04</pdfrwt>
<totfact> 0.20466180E+00</totfact>
</mgrwt>
</event>
<event>
12    1  0.1494110E-007  0.2090308E+04  0.7818608E-02  0.8565525E-01
          2   -1    0    0  501    0  0.00000000000E+00  0.00000000000E+00  0.29775458094E+04  0.29775458094E+04  0.00000000000E+00 0. -1.
         -2   -1    0    0    0  501 -0.00000000000E+00 -0.00000000000E+00 -0.36686162634E+03  0.36686162634E+03  0.00000000000E+00 0.  1.
         23    2    1    2    0    0  0.50132058065E+03  0.54615224266E+03  0.38983667969E+03  0.84234080783E+03  0.89223331910E+02 0.  0.
        254    2    1    2    0    0 -0.50132058065E+03 -0.54615224266E+03  0.22208475034E+04  0.25020666279E+04  0.88236567277E+03 0.  0.
        -24    2    4    4    0    0 -0.16531265658E+03 -0.29399121798E+03  0.13161287443E+03  0.36926131862E+03  0.72614475431E+02 0.  0.
         24    2    4    4    0    0 -0.33600792408E+03 -0.25216102468E+03  0.20892346289E+04  0.21328053093E+04  0.86432893662E+02 0.  0.
         11    1    3    3    0    0  0.44875655772E+03  0.52313422901E+03  0.35655502826E+03  0.77600474086E+03  0.00000000000E+00 0.  1.
        -11    1    3    3    0    0  0.52564022930E+02  0.23018013646E+02  0.33281651429E+02  0.66336066967E+02  0.00000000000E+00 0. -1.
          2    1    6    6  502    0 -0.23650440668E+02  0.51158583861E+01  0.11183782092E+03  0.11442558079E+03  0.00000000000E+00 0. -1.
          3    1    5    5  503    0 -0.11040470902E+03 -0.12889611772E+03  0.81055601657E+02  0.18807822707E+03  0.00000000000E+00 0. -1.
         -4    1    5    5    0  503 -0.54907947554E+02 -0.16509510026E+03  0.50557272770E+02  0.18118309156E+03  0.00000000000E+00 0.  1.
         -1    1    6    6    0  502 -0.31235748341E+03 -0.25727688306E+03  0.19773968080E+04  0.20183797285E+04  0.00000000000E+00 0.  1.
<mgrwt>
<rscale>  0 0.20903084E+04</rscale>
<asrwt>0</asrwt>
<pdfrwt beam="1">  1        2 0.45808395E+00 0.20903084E+04</pdfrwt>
<pdfrwt beam="2">  1       -2 0.56440252E-01 0.20903084E+04</pdfrwt>
<totfact> 0.48944394E+00</totfact>
</mgrwt>
</event>
<event>
12    1  0.1494110E-007  0.2205327E+04  0.7818608E-02  0.8516214E-01
          2   -1    0    0  501    0  0.00000000000E+00  0.00000000000E+00  0.18464134312E+04  0.18464134312E+04  0.00000000000E+00 0. -1.
         -2   -1    0    0    0  501 -0.00000000000E+00 -0.00000000000E+00 -0.65850200645E+03  0.65850200645E+03  0.00000000000E+00 0.  1.
         23    2    1    2    0    0  0.27767905712E+03 -0.86226232228E+03  0.31746991246E+03  0.96424698484E+03  0.91559441216E+02 0.  0.
        254    2    1    2    0    0 -0.27767905712E+03  0.86226232228E+03  0.87044151233E+03  0.15406684529E+04  0.89184577369E+03 0.  0.
        -24    2    4    4    0    0  0.16185607571E+03 -0.37340501978E+02  0.38063033247E+03  0.42304705846E+03  0.80608072463E+02 0.  0.
         24    2    4    4    0    0 -0.43953513283E+03  0.89960282425E+03  0.48981117986E+03  0.11176213944E+04  0.81769278342E+02 0.  0.
         13    1    3    3    0    0  0.25654193533E+03 -0.74329172084E+03  0.24619768862E+03  0.82395973733E+03  0.00000000000E+00 0.  1.
        -13    1    3    3    0    0  0.21137121791E+02 -0.11897060143E+03  0.71272223847E+02  0.14028724751E+03  0.00000000000E+00 0. -1.
          2    1    6    6  502    0 -0.36212145654E+02  0.34934294210E+02  0.28776295784E+02  0.57963778378E+02  0.00000000000E+00 0. -1.
          1    1    5    5  503    0 -0.92914344295E+01 -0.46097949937E+01  0.22505661136E+02  0.24780753556E+02  0.00000000000E+00 0. -1.
         -2    1    5    5    0  503  0.17114751014E+03 -0.32730706984E+02  0.35812467134E+03  0.39826630491E+03  0.00000000000E+00 0.  1.
         -1    1    6    6    0  502 -0.40332298718E+03  0.86466853005E+03  0.46103488408E+03  0.10596576160E+04  0.00000000000E+00 0.  1.
<mgrwt>
<rscale>  0 0.22053271E+04</rscale>
<asrwt>0</asrwt>
<pdfrwt beam="1">  1        2 0.28406360E+00 0.22053271E+04</pdfrwt>
<pdfrwt beam="2">  1       -2 0.10130800E+00 0.22053271E+04</pdfrwt>
<totfact> 0.59498811E+00</totfact>
</mgrwt>
</event>
<event>
12    1  0.1494110E-007  0.1498220E+04  0.7818608E-02  0.8885637E-01
          1   -1    0    0  501    0  0.00000000000E+00  0.00000000000E+00  0.89099731570E+03  0.89099731570E+03  0.00000000000E+00 0. -1.
         -1   -1    0    0    0  501 -0.00000000000E+00 -0.00000000000E+00 -0.62981759854E+03  0.62981759854E+03  0.00000000000E+00 0.  1.
         23    2    1    2    0    0 -0.26076001743E+03  0.55784348467E+02 -0.28354638516E+03  0.39985048760E+03  0.91510544058E+02 0.  0.
        254    2    1    2    0    0  0.26076001743E+03 -0.55784348467E+02  0.54472610231E+03  0.11209644266E+04  0.94272320382E+03 0.  0.
        -24    2    4    4    0    0 -0.31456256107E+03  0.61125770933E+02  0.20821834841E+02  0.33024109331E+03  0.77069229968E+02 0.  0.
         24    2    4    4    0    0  0.57532257849E+03 -0.11691011940E+03  0.52390426747E+03  0.79072333333E+03  0.78125943554E+02 0.  0.
         11    1    3    3    0    0 -0.11537704177E+02 -0.91608616079E+01 -0.50196361032E+02  0.52313618341E+02  0.00000000000E+00 0. -1.
        -11    1    3    3    0    0 -0.24922231325E+03  0.64945210075E+02 -0.23335002413E+03  0.34753686926E+03  0.00000000000E+00 0.  1.
          4    1    6    6  502    0  0.38996045485E+03 -0.88078024366E+02  0.30773503604E+03  0.50450743020E+03  0.00000000000E+00 0. -1.
          3    1    5    5  503    0 -0.16921287131E+02  0.50897514889E+01  0.20902851315E+02  0.27370873598E+02  0.00000000000E+00 0. -1.
         -4    1    5    5    0  503 -0.29764127394E+03  0.56036019444E+02 -0.81016474037E-01  0.30287021971E+03  0.00000000000E+00 0.  1.
         -3    1    6    6    0  502  0.18536212364E+03 -0.28832095033E+02  0.21616923143E+03  0.28621590313E+03  0.00000000000E+00 0.  1.
<mgrwt>
<rscale>  0 0.14982200E+04</rscale>
<asrwt>0</asrwt>
<pdfrwt beam="1">  1        1 0.13707651E+00 0.14982200E+04</pdfrwt>
<pdfrwt beam="2">  1       -1 0.96895015E-01 0.14982200E+04</pdfrwt>
<totfact> 0.18345370E+01</totfact>
</mgrwt>
</event>
<event>
12    1  0.1494110E-007  0.3978523E+04  0.7818608E-02  0.8008893E-01
          2   -1    0    0  501    0  0.00000000000E+00  0.00000000000E+00  0.14667223374E+04  0.14667223374E+04  0.00000000000E+00 0. -1.
         -2   -1    0    0    0  501 -0.00000000000E+00 -0.00000000000E+00 -0.26979619162E+04  0.26979619162E+04  0.00000000000E+00 0.  1.
         23    2    1    2    0    0 -0.11179498183E+04 -0.52284073727E+03  0.90637144885E+03  0.15359196167E+04  0.11985671793E+03 0.  0.
        254    2    1    2    0    0  0.11179498183E+04  0.52284073727E+03 -0.21376110277E+04  0.26287646369E+04  0.90434969858E+03 0.  0.
        -24    2    4    4    0    0  0.18771436662E+03 -0.85083122634E+02 -0.10454150274E+04  0.10684756866E+04  0.79195277593E+02 0.  0.
         24    2    4    4    0    0  0.93023545173E+03  0.60792385990E+03 -0.10921960003E+04  0.15602889503E+04  0.81854079429E+02 0.  0.
         13    1    3    3    0    0 -0.35888809659E+03 -0.12203414197E+03  0.23318996309E+03  0.44505118421E+03  0.00000000000E+00 0.  1.
        -13    1    3    3    0    0 -0.75906172176E+03 -0.40080659529E+03  0.67318148576E+03  0.10908684325E+04  0.00000000000E+00 0. -1.
          2    1    6    6  502    0  0.49282080388E+03  0.34468621346E+03 -0.53995425962E+03  0.80822740176E+03  0.00000000000E+00 0. -1.
          1    1    5    5  503    0  0.50772299367E+02  0.33153178415E+01 -0.15132473695E+03  0.15964959671E+03  0.00000000000E+00 0. -1.
         -2    1    5    5    0  503  0.13694206725E+03 -0.88398440476E+02 -0.89409029049E+03  0.90882608986E+03  0.00000000000E+00 0.  1.
         -1    1    6    6    0  502  0.43741464786E+03  0.26323764644E+03 -0.55224174069E+03  0.75206154856E+03  0.00000000000E+00 0.  1.
<mgrwt>
<rscale>  0 0.39785228E+04</rscale>
<asrwt>0</asrwt>
<pdfrwt beam="1">  1        2 0.22564959E+00 0.39785228E+04</pdfrwt>
<pdfrwt beam="2">  1       -2 0.41507106E+00 0.39785228E+04</pdfrwt>
<totfact> 0.61879860E-02</totfact>
</mgrwt>
</event>
<event>
12    1  0.1494110E-007  0.1222645E+04  0.7818608E-02  0.9093264E-01
          2   -1    0    0  501    0  0.00000000000E+00  0.00000000000E+00  0.11910003113E+04  0.11910003113E+04  0.00000000000E+00 0. -1.
         -2   -1    0    0    0  501 -0.00000000000E+00 -0.00000000000E+00 -0.31378237286E+03  0.31378237286E+03  0.00000000000E+00 0.  1.
         23    2    1    2    0    0  0.51078089663E+02 -0.40271037820E+02 -0.99487221966E+02  0.15409255572E+03  0.98061616661E+02 0.  0.
        254    2    1    2    0    0 -0.51078089663E+02  0.40271037820E+02  0.97670516038E+03  0.13506901284E+04  0.93068798474E+03 0.  0.
        -24    2    4    4    0    0 -0.14007378443E+03 -0.41465609616E+03  0.34455775571E+03  0.56269978249E+03  0.79690997157E+02 0.  0.
         24    2    4    4    0    0  0.88995694765E+02  0.45492713398E+03  0.63214740467E+03  0.78799034592E+03  0.80246576908E+02 0.  0.
         13    1    3    3    0    0 -0.29679513073E+02 -0.83419940033E+01 -0.26508155594E+02  0.40658881849E+02  0.00000000000E+00 0. -1.
        -13    1    3    3    0    0  0.80757602736E+02 -0.31929043817E+02 -0.72979066371E+02  0.11343367387E+03  0.00000000000E+00 0.  1.
          4    1    6    6  502    0  0.98572045770E+02  0.32827836794E+03  0.44204805043E+03  0.55936536714E+03  0.00000000000E+00 0. -1.
          1    1    5    5  503    0 -0.71866905406E+02 -0.19794197511E+03  0.21595526546E+03  0.30163314520E+03  0.00000000000E+00 0. -1.
         -2    1    5    5    0  503 -0.68206879022E+02 -0.21671412105E+03  0.12860249026E+03  0.26106663730E+03  0.00000000000E+00 0.  1.
         -3    1    6    6    0  502 -0.95763510051E+01  0.12664876604E+03  0.19009935424E+03  0.22862497878E+03  0.00000000000E+00 0.  1.
<mgrwt>
<rscale>  0 0.12226445E+04</rscale>
<asrwt>0</asrwt>
<pdfrwt beam="1">  1        2 0.18323082E+00 0.12226445E+04</pdfrwt>
<pdfrwt beam="2">  1       -2 0.48274212E-01 0.12226445E+04</pdfrwt>
<totfact> 0.76781665E+01</totfact>
</mgrwt>
</event>
<event>
12    1  0.1494110E-007  0.1297077E+04  0.7818608E-02  0.9031886E-01
          1   -1    0    0  501    0  0.00000000000E+00  0.00000000000E+00  0.49987326638E+03  0.49987326638E+03  0.00000000000E+00 0. -1.
         -1   -1    0    0    0  501 -0.00000000000E+00 -0.00000000000E+00 -0.84141763056E+03  0.84141763056E+03  0.00000000000E+00 0.  1.
         23    2    1    2    0    0 -0.31973471262E+03  0.49429950918E+02 -0.17234999898E+02  0.33567498557E+03  0.87789772819E+02 0.  0.
        254    2    1    2    0    0  0.31973471262E+03 -0.49429950918E+02 -0.32430936428E+03  0.10056159114E+04  0.89521684017E+03 0.  0.
        -24    2    4    4    0    0  0.58189672126E+03 -0.15877388465E+03 -0.36109495907E+03  0.70778324797E+03  0.82186470799E+02 0.  0.
         24    2    4    4    0    0 -0.26216200864E+03  0.10934393374E+03  0.36785594788E+02  0.29783266339E+03  0.81646192693E+02 0.  0.
         13    1    3    3    0    0 -0.31742612413E+03  0.33750922629E+02 -0.14146062752E+02  0.31952868440E+03  0.00000000000E+00 0. -1.
        -13    1    3    3    0    0 -0.23085884908E+01  0.15679028289E+02 -0.30889371453E+01  0.16146301174E+02  0.00000000000E+00 0.  1.
          4    1    6    6  502    0 -0.52176301031E+02 -0.38694503571E+01 -0.13492170390E+02  0.54031265922E+02  0.00000000000E+00 0. -1.
          1    1    5    5  503    0  0.28297800353E+03 -0.57569994859E+02 -0.21499600188E+03  0.36001963227E+03  0.00000000000E+00 0. -1.
         -2    1    5    5    0  503  0.29891871773E+03 -0.10120388979E+03 -0.14609895719E+03  0.34776361571E+03  0.00000000000E+00 0.  1.
         -3    1    6    6    0  502 -0.20998570761E+03  0.11321338409E+03  0.50277765178E+02  0.24380139747E+03  0.00000000000E+00 0.  1.
<mgrwt>
<rscale>  0 0.12970770E+04</rscale>
<asrwt>0</asrwt>
<pdfrwt beam="1">  1        1 0.76903580E-01 0.12970770E+04</pdfrwt>
<pdfrwt beam="2">  1       -1 0.12944887E+00 0.12970770E+04</pdfrwt>
<totfact> 0.22342697E+01</totfact>
</mgrwt>
</event>
<event>
12    1  0.1494110E-007  0.1704552E+04  0.7818608E-02  0.8758773E-01
          1   -1    0    0  501    0  0.00000000000E+00  0.00000000000E+00  0.85061564888E+03  0.85061564888E+03  0.00000000000E+00 0. -1.
         -1   -1    0    0    0  501 -0.00000000000E+00 -0.00000000000E+00 -0.85393945582E+03  0.85393945582E+03  0.00000000000E+00 0.  1.
         23    2    1    2    0    0  0.33871764281E+03  0.51348289234E+03 -0.63523287960E+01  0.62240153607E+03  0.94599142414E+02 0.  0.
        254    2    1    2    0    0 -0.33871764281E+03 -0.51348289234E+03  0.30285218562E+01  0.10821535686E+04  0.89031053676E+03 0.  0.
        -24    2    4    4    0    0 -0.54158195268E+03 -0.41083921032E+02  0.84137639408E+02  0.55547243354E+03  0.80446143586E+02 0.  0.
         24    2    4    4    0    0  0.20286430987E+03 -0.47239897131E+03 -0.81109117552E+02  0.52668113508E+03  0.80620176091E+02 0.  0.
         13    1    3    3    0    0  0.76749169772E+02  0.18147894081E+03 -0.27559379497E+02  0.19895869022E+03  0.00000000000E+00 0.  1.
        -13    1    3    3    0    0  0.26196847304E+03  0.33200395153E+03  0.21207050701E+02  0.42344284584E+03  0.00000000000E+00 0. -1.
          2    1    6    6  502    0  0.20247430310E+02 -0.94425455458E+02  0.10133685750E+02  0.97102094001E+02  0.00000000000E+00 0. -1.
          1    1    5    5  503    0 -0.34634169396E+00 -0.26959162170E+01 -0.49163526916E+01  0.56176899706E+01  0.00000000000E+00 0. -1.
         -2    1    5    5    0  503 -0.54123561099E+03 -0.38388004815E+02  0.89053992100E+02  0.54985474357E+03  0.00000000000E+00 0.  1.
         -1    1    6    6    0  502  0.18261687956E+03 -0.37797351585E+03 -0.91242803302E+02  0.42957904108E+03  0.00000000000E+00 0.  1.
<mgrwt>
<rscale>  0 0.17045519E+04</rscale>
<asrwt>0</asrwt>
<pdfrwt beam="1">  1        1 0.13086395E+00 0.17045519E+04</pdfrwt>
<pdfrwt beam="2">  1       -1 0.13137530E+00 0.17045519E+04</pdfrwt>
<totfact> 0.93979508E+00</totfact>
</mgrwt>
</event>
<event>
12    1  0.1494110E-007  0.1028546E+04  0.7818608E-02  0.9277779E-01
         -2   -1    0    0    0  501 -0.00000000000E+00  0.00000000000E+00  0.38304029096E+03  0.38304029096E+03  0.00000000000E+00 0.  1.
          2   -1    0    0  501    0  0.00000000000E+00 -0.00000000000E+00 -0.69046701033E+03  0.69046701033E+03  0.00000000000E+00 0. -1.
         23    2    1    2    0    0  0.15119586822E+02 -0.73267324012E+02 -0.62736886823E+02  0.13227509796E+03  0.89241704929E+02 0.  0.
        254    2    1    2    0    0 -0.15119586822E+02  0.73267324012E+02 -0.24468983254E+03  0.94123220334E+03  0.90578598122E+03 0.  0.
        -24    2    4    4    0    0 -0.11881322225E+03 -0.25618977497E+03  0.21310917948E+03  0.36297720117E+03  0.81161219886E+02 0.  0.
         24    2    4    4    0    0  0.10369363543E+03  0.32945709898E+03 -0.45779901203E+03  0.57825500216E+03  0.74192735610E+02 0.  0.
         11    1    3    3    0    0  0.19971108300E+02  0.39434057382E+01  0.12884640847E+02  0.24091691209E+02  0.00000000000E+00 0.  1.
        -11    1    3    3    0    0 -0.48515214779E+01 -0.77210729750E+02 -0.75621527670E+02  0.10818340675E+03  0.00000000000E+00 0. -1.
          4    1    6    6  502    0  0.69293302781E+02  0.15268454699E+03 -0.27180344309E+03  0.31936068070E+03  0.00000000000E+00 0. -1.
          3    1    5    5  503    0 -0.79939733366E+02 -0.84643328640E+02  0.10309665530E+03  0.15551133202E+03  0.00000000000E+00 0. -1.
         -4    1    5    5    0  503 -0.38873488887E+02 -0.17154644633E+03  0.11001252419E+03  0.20746586915E+03  0.00000000000E+00 0.  1.
         -3    1    6    6    0  502  0.34400332650E+02  0.17677255199E+03 -0.18599556893E+03  0.25889432146E+03  0.00000000000E+00 0.  1.
<mgrwt>
<rscale>  0 0.10285459E+04</rscale>
<asrwt>0</asrwt>
<pdfrwt beam="1">  1        2 0.10622569E+00 0.10285459E+04</pdfrwt>
<pdfrwt beam="2">  1       -2 0.58929276E-01 0.10285459E+04</pdfrwt>
<totfact> 0.11186772E+02</totfact>
</mgrwt>
</event>
<event>
12    1  0.1494110E-007  0.1327021E+04  0.7818608E-02  0.9008407E-01
          1   -1    0    0  501    0  0.00000000000E+00  0.00000000000E+00  0.51955077952E+03  0.51955077952E+03  0.00000000000E+00 0. -1.
         -1   -1    0    0    0  501 -0.00000000000E+00 -0.00000000000E+00 -0.84735982895E+03  0.84735982895E+03  0.00000000000E+00 0.  1.
         23    2    1    2    0    0  0.12553864962E+03  0.11034665344E+03 -0.40516578009E+03  0.44725112038E+03  0.89094999022E+02 0.  0.
        254    2    1    2    0    0 -0.12553864962E+03 -0.11034665344E+03  0.77356730661E+02  0.91965948809E+03  0.90102895280E+03 0.  0.
        -24    2    4    4    0    0  0.17839910288E+03 -0.19863450063E+03  0.38179945901E+03  0.47283970348E+03  0.80775327544E+02 0.  0.
         24    2    4    4    0    0 -0.30393775250E+03  0.88287847190E+02 -0.30444272835E+03  0.44681978461E+03  0.82399294376E+02 0.  0.
         13    1    3    3    0    0  0.25356169939E+01  0.17911304102E+02 -0.13611505847E+03  0.13731188336E+03  0.00000000000E+00 0.  1.
        -13    1    3    3    0    0  0.12300303263E+03  0.92435349340E+02 -0.26905072162E+03  0.30993923702E+03  0.00000000000E+00 0. -1.
          4    1    6    6  502    0 -0.29959118759E+03  0.93746475914E+02 -0.27749399453E+03  0.41898233665E+03  0.00000000000E+00 0. -1.
          3    1    5    5  503    0  0.12337430870E+03 -0.81563361108E+02  0.22938435255E+03  0.27293036313E+03  0.00000000000E+00 0. -1.
         -4    1    5    5    0  503  0.55024794181E+02 -0.11707113952E+03  0.15241510646E+03  0.19990934036E+03  0.00000000000E+00 0.  1.
         -1    1    6    6    0  502 -0.43465649154E+01 -0.54586287243E+01 -0.26948733823E+02  0.27837447957E+02  0.00000000000E+00 0.  1.
<mgrwt>
<rscale>  0 0.13270214E+04</rscale>
<asrwt>0</asrwt>
<pdfrwt beam="1">  1        1 0.79930890E-01 0.13270214E+04</pdfrwt>
<pdfrwt beam="2">  1       -1 0.13036305E+00 0.13270214E+04</pdfrwt>
<totfact> 0.20755333E+01</totfact>
</mgrwt>
</event>
<event>
12    1  0.1494110E-007  0.2925661E+04  0.7818608E-02  0.8265283E-01
         -1   -1    0    0    0  501 -0.00000000000E+00  0.00000000000E+00  0.13603743419E+04  0.13603743419E+04  0.00000000000E+00 0.  1.
          1   -1    0    0  501    0  0.00000000000E+00 -0.00000000000E+00 -0.15730028044E+04  0.15730028044E+04  0.00000000000E+00 0. -1.
         23    2    1    2    0    0 -0.13015713831E+04 -0.22174014029E+03 -0.12512211392E+03  0.13293456141E+04  0.90815544451E+02 0.  0.
        254    2    1    2    0    0  0.13015713831E+04  0.22174014029E+03 -0.87506348504E+02  0.16040315322E+04  0.90664383319E+03 0.  0.
        -24    2    4    4    0    0  0.52618402903E+03 -0.29180314603E+03 -0.25012429447E+03  0.65646724031E+03  0.79802045602E+02 0.  0.
         24    2    4    4    0    0  0.77538735407E+03  0.51354328632E+03  0.16261794596E+03  0.94756429192E+03  0.80506119005E+02 0.  0.
         11    1    3    3    0    0 -0.72209291128E+03 -0.80720328761E+02 -0.86203365621E+02  0.73168638381E+03  0.00000000000E+00 0.  1.
        -11    1    3    3    0    0 -0.57947847181E+03 -0.14101981153E+03 -0.38918748296E+02  0.59765923025E+03  0.00000000000E+00 0. -1.
          4    1    6    6  502    0  0.49304592378E+03  0.33266614993E+03  0.14273191631E+03  0.61166449153E+03  0.00000000000E+00 0. -1.
          1    1    5    5  503    0  0.31760578619E+03 -0.13312451039E+03 -0.12886220288E+03  0.36769693773E+03  0.00000000000E+00 0. -1.
         -2    1    5    5    0  503  0.20857824284E+03 -0.15867863565E+03 -0.12126209159E+03  0.28877030258E+03  0.00000000000E+00 0.  1.
         -3    1    6    6    0  502  0.28234143029E+03  0.18087713639E+03  0.19886029654E+02  0.33589980039E+03  0.00000000000E+00 0.  1.
<mgrwt>
<rscale>  0 0.29256607E+04</rscale>
<asrwt>0</asrwt>
<pdfrwt beam="1">  1        1 0.24200043E+00 0.29256607E+04</pdfrwt>
<pdfrwt beam="2">  1       -1 0.20928836E+00 0.29256607E+04</pdfrwt>
<totfact> 0.64848287E-01</totfact>
</mgrwt>
</event>
<event>
12    1  0.1494110E-007  0.1790732E+04  0.7818608E-02  0.8711243E-01
         -3   -1    0    0    0  501 -0.00000000000E+00  0.00000000000E+00  0.12559792883E+04  0.12559792883E+04  0.00000000000E+00 0.  1.
          3   -1    0    0  501    0  0.00000000000E+00 -0.00000000000E+00 -0.63829125228E+03  0.63829125228E+03  0.00000000000E+00 0. -1.
         23    2    1    2    0    0  0.63521303598E+03 -0.65130881708E+01  0.28429741167E+02  0.64231051359E+03  0.90645045556E+02 0.  0.
        254    2    1    2    0    0 -0.63521303598E+03  0.65130881708E+01  0.58925829487E+03  0.12519600270E+04  0.90368166395E+03 0.  0.
        -24    2    4    4    0    0  0.38596239304E+02  0.33734853125E+03  0.22212752750E+03  0.41245976352E+03  0.74085874686E+02 0.  0.
         24    2    4    4    0    0 -0.67380927529E+03 -0.33083544307E+03  0.36713076738E+03  0.83950026350E+03  0.80651486012E+02 0.  0.
         11    1    3    3    0    0  0.13236116146E+03  0.32991666559E+02 -0.76129841580E+01  0.13662314831E+03  0.00000000000E+00 0. -1.
        -11    1    3    3    0    0  0.50285187452E+03 -0.39504754730E+02  0.36042725325E+02  0.50568736528E+03  0.00000000000E+00 0.  1.
          4    1    6    6  502    0 -0.50972654090E+03 -0.26104648487E+03  0.24226407775E+03  0.62181854036E+03  0.00000000000E+00 0. -1.
          3    1    5    5  503    0  0.12242586711E+02  0.25176949955E+03  0.19563501482E+03  0.31907807956E+03  0.00000000000E+00 0. -1.
         -4    1    5    5    0  503  0.26353652594E+02  0.85579031698E+02  0.26492512682E+02  0.93381683962E+02  0.00000000000E+00 0.  1.
         -3    1    6    6    0  502 -0.16408273439E+03 -0.69788958202E+02  0.12486668962E+03  0.21768172314E+03  0.00000000000E+00 0.  1.
<mgrwt>
<rscale>  0 0.17907324E+04</rscale>
<asrwt>0</asrwt>
<pdfrwt beam="1">  1        3 0.98198655E-01 0.17907324E+04</pdfrwt>
<pdfrwt beam="2">  1       -3 0.19322758E+00 0.17907324E+04</pdfrwt>
<totfact> 0.36495484E-01</totfact>
</mgrwt>
</event>
<event>
12    1  0.1494110E-007  0.2461352E+04  0.7818608E-02  0.8416885E-01
         -2   -1    0    0    0  501 -0.00000000000E+00  0.00000000000E+00  0.11666870026E+04  0.11666870026E+04  0.00000000000E+00 0.  1.
          2   -1    0    0  501    0  0.00000000000E+00 -0.00000000000E+00 -0.12981750068E+04  0.12981750068E+04  0.00000000000E+00 0. -1.
         23    2    1    2    0    0 -0.11386169401E+03  0.26498688116E+02  0.10059960883E+04  0.10155525338E+04  0.75180804511E+02 0.  0.
        254    2    1    2    0    0  0.11386169401E+03 -0.26498688116E+02 -0.11374840925E+04  0.14493094757E+04  0.89048370543E+03 0.  0.
        -24    2    4    4    0    0  0.48343253261E+02 -0.19138521402E+03 -0.12197686462E+04  0.12382584702E+04  0.80517814395E+02 0.  0.
         24    2    4    4    0    0  0.65518440745E+02  0.16488652591E+03  0.82284553661E+02  0.21105100549E+03  0.79319270318E+02 0.  0.
         11    1    3    3    0    0 -0.79309309124E+01  0.30102225359E+02  0.16576912517E+03  0.16866667275E+03  0.00000000000E+00 0. -1.
        -11    1    3    3    0    0 -0.10593076309E+03 -0.36035372429E+01  0.84022696311E+03  0.84688586102E+03  0.00000000000E+00 0.  1.
          2    1    6    6  502    0  0.19126035391E+02  0.10856316370E+03  0.83146124019E+02  0.13807622417E+03  0.00000000000E+00 0. -1.
          3    1    5    5  503    0  0.33405551793E+01 -0.15317252767E+03 -0.93020074293E+03  0.94273347490E+03  0.00000000000E+00 0. -1.
         -2    1    5    5    0  503  0.45002698082E+02 -0.38212686359E+02 -0.28956790325E+03  0.29552499526E+03  0.00000000000E+00 0.  1.
         -1    1    6    6    0  502  0.46392405354E+02  0.56323362211E+02 -0.86157035816E+00  0.72974781320E+02  0.00000000000E+00 0.  1.
<mgrwt>
<rscale>  0 0.24613524E+04</rscale>
<asrwt>0</asrwt>
<pdfrwt beam="1">  1        2 0.19971923E+00 0.24613524E+04</pdfrwt>
<pdfrwt beam="2">  1       -2 0.17949031E+00 0.24613524E+04</pdfrwt>
<totfact> 0.27107028E+00</totfact>
</mgrwt>
</event>
<event>
12    1  0.1494110E-007  0.1475710E+04  0.7818608E-02  0.8900768E-01
         -4   -1    0    0    0  501 -0.00000000000E+00  0.00000000000E+00  0.11374826358E+04  0.11374826358E+04  0.00000000000E+00 0.  1.
          4   -1    0    0  501    0  0.00000000000E+00 -0.00000000000E+00 -0.47862703645E+03  0.47862703645E+03  0.00000000000E+00 0. -1.
         23    2    1    2    0    0  0.28811506702E+03  0.35198844118E+03  0.12914703449E+03  0.48134985306E+03  0.90069806002E+02 0.  0.
        254    2    1    2    0    0 -0.28811506702E+03 -0.35198844118E+03  0.52970856485E+03  0.11347598192E+04  0.89452922198E+03 0.  0.
        -24    2    4    4    0    0 -0.54387140973E+03 -0.30398969297E+03  0.11460151308E+03  0.63831119508E+03  0.78114218965E+02 0.  0.
         24    2    4    4    0    0  0.25575634271E+03 -0.47998748211E+02  0.41510705177E+03  0.49644862410E+03  0.80200905735E+02 0.  0.
         13    1    3    3    0    0  0.25934033511E+03  0.26866866620E+03  0.85927028355E+02  0.38317582885E+03  0.00000000000E+00 0. -1.
        -13    1    3    3    0    0  0.28774731913E+02  0.83319774982E+02  0.43220006132E+02  0.98174024211E+02  0.00000000000E+00 0.  1.
          4    1    6    6  502    0  0.42627517058E+02 -0.27198347871E+01  0.24661149036E+02  0.49322155099E+02  0.00000000000E+00 0. -1.
          3    1    5    5  503    0 -0.32728342456E+02 -0.62248456575E+01  0.21054271244E+02  0.39410346877E+02  0.00000000000E+00 0. -1.
         -4    1    5    5    0  503 -0.51114306728E+03 -0.29776484731E+03  0.93547241841E+02  0.59890084820E+03  0.00000000000E+00 0.  1.
         -3    1    6    6    0  502  0.21312882565E+03 -0.45278913424E+02  0.39044590273E+03  0.44712646900E+03  0.00000000000E+00 0.  1.
<mgrwt>
<rscale>  0 0.14757099E+04</rscale>
<asrwt>0</asrwt>
<pdfrwt beam="1">  1        4 0.73634929E-01 0.14757099E+04</pdfrwt>
<pdfrwt beam="2">  1       -4 0.17499733E+00 0.14757099E+04</pdfrwt>
<totfact> 0.63087095E-01</totfact>
</mgrwt>
</event>
<event>
12    1  0.1638043E-007  0.1948418E+04  0.7818608E-02  0.8631124E-01
          2   -1    0    0  501    0  0.00000000000E+00  0.00000000000E+00  0.23501602088E+04  0.23501602088E+04  0.00000000000E+00 0. -1.
         -2   -1    0    0    0  501 -0.00000000000E+00 -0.00000000000E+00 -0.40383752470E+03  0.40383752470E+03  0.00000000000E+00 0.  1.
         23    2    1    2    0    0  0.61926225777E+03  0.16715539493E+03  0.13566359232E+04  0.15034615338E+04  0.92243621830E+02 0.  0.
        254    2    1    2    0    0 -0.61926225777E+03 -0.16715539493E+03  0.58968676097E+03  0.12505361997E+04  0.89704160478E+03 0.  0.
        -24    2    4    4    0    0  0.50241340359E+01  0.24500322837E+03  0.39876352543E+03  0.47424834248E+03  0.76467753302E+02 0.  0.
         24    2    4    4    0    0 -0.62428639181E+03 -0.41215862330E+03  0.19092323554E+03  0.77628785721E+03  0.81011885674E+02 0.  0.
         11    1    3    3    0    0  0.42753543411E+03  0.11913913590E+03  0.83476987971E+03  0.94542129931E+03  0.00000000000E+00 0. -1.
        -11    1    3    3    0    0  0.19172682366E+03  0.48016259027E+02  0.52186604346E+03  0.55804023454E+03  0.00000000000E+00 0.  1.
          4    1    6    6  502    0 -0.56636339854E+03 -0.37332510685E+03  0.14765673732E+03  0.69422017162E+03  0.00000000000E+00 0. -1.
          1    1    5    5  503    0  0.21108363562E+02  0.23594525995E+03  0.35531997729E+03  0.42704568253E+03  0.00000000000E+00 0. -1.
         -2    1    5    5    0  503 -0.16084229526E+02  0.90579684240E+01  0.43443548146E+02  0.47202659956E+02  0.00000000000E+00 0.  1.
         -3    1    6    6    0  502 -0.57922993269E+02 -0.38833516448E+02  0.43266498221E+02  0.82067685585E+02  0.00000000000E+00 0.  1.
<mgrwt>
<rscale>  0 0.19484177E+04</rscale>
<asrwt>0</asrwt>
<pdfrwt beam="1">  1        2 0.36156310E+00 0.19484177E+04</pdfrwt>
<pdfrwt beam="2">  1       -2 0.62128851E-01 0.19484177E+04</pdfrwt>
<totfact> 0.95281387E+00</totfact>
</mgrwt>
</event>
<event>
12    1  0.1494110E-007  0.2234517E+04  0.7818608E-02  0.8504197E-01
         -2   -1    0    0    0  501 -0.00000000000E+00  0.00000000000E+00  0.97088497648E+03  0.97088497648E+03  0.00000000000E+00 0. -1.
          2   -1    0    0  501    0  0.00000000000E+00 -0.00000000000E+00 -0.12857001148E+04  0.12857001148E+04  0.00000000000E+00 0.  1.
         23    2    1    2    0    0 -0.63968714639E+02  0.14752087250E+03  0.78588401755E+03  0.80737050496E+03  0.91537090663E+02 0.  0.
        254    2    1    2    0    0  0.63968714639E+02 -0.14752087250E+03 -0.11006991558E+04  0.14492145863E+04  0.92888636614E+03 0.  0.
        -24    2    4    4    0    0  0.37833298205E+03  0.21169055275E+03 -0.66482851904E+03  0.79772889967E+03  0.80160477799E+02 0.  0.
         24    2    4    4    0    0 -0.31436426741E+03 -0.35921142525E+03 -0.43587063678E+03  0.65148568662E+03  0.81195118138E+02 0.  0.
         13    1    3    3    0    0 -0.18018239611E+02  0.13550505053E+03  0.54808309081E+03  0.56487286190E+03  0.00000000000E+00 0. -1.
        -13    1    3    3    0    0 -0.45950475028E+02  0.12015821970E+02  0.23780092674E+03  0.24249764306E+03  0.00000000000E+00 0.  1.
          2    1    6    6  502    0 -0.52502834841E+02 -0.81490032322E+02 -0.13102293999E+03  0.16298522583E+03  0.00000000000E+00 0. -1.
          3    1    5    5  503    0  0.39402479912E+02  0.51523859849E+02 -0.11971944151E+03  0.13616169885E+03  0.00000000000E+00 0. -1.
         -4    1    5    5    0  503  0.33893050214E+03  0.16016669290E+03 -0.54510907753E+03  0.66156720082E+03  0.00000000000E+00 0.  1.
         -1    1    6    6    0  502 -0.26186143257E+03 -0.27772139293E+03 -0.30484769679E+03  0.48850046079E+03  0.00000000000E+00 0.  1.
<mgrwt>
<rscale>  0 0.22345173E+04</rscale>
<asrwt>0</asrwt>
<pdfrwt beam="1">  1        2 0.19780002E+00 0.22345173E+04</pdfrwt>
<pdfrwt beam="2">  1       -2 0.14936692E+00 0.22345173E+04</pdfrwt>
<totfact> 0.46548775E+00</totfact>
</mgrwt>
</event>
<event>
12    1  0.1494110E-007  0.1938818E+04  0.7818608E-02  0.8635772E-01
          2   -1    0    0  501    0  0.00000000000E+00  0.00000000000E+00  0.17474428254E+04  0.17474428254E+04  0.00000000000E+00 0.  1.
         -2   -1    0    0    0  501 -0.00000000000E+00 -0.00000000000E+00 -0.53778814590E+03  0.53778814590E+03  0.00000000000E+00 0. -1.
         23    2    1    2    0    0 -0.53817964632E+03 -0.34472804458E+02 -0.14667166284E+03  0.56886428830E+03  0.10615222967E+03 0.  0.
        254    2    1    2    0    0  0.53817964632E+03  0.34472804458E+02  0.13563263423E+04  0.17163666829E+04  0.90303252298E+03 0.  0.
        -24    2    4    4    0    0  0.59456717261E+03 -0.61823063408E+02  0.14366641398E+04  0.15582620668E+04  0.82732123417E+02 0.  0.
         24    2    4    4    0    0 -0.56387526291E+02  0.96295867866E+02 -0.80337797502E+02  0.15810461617E+03  0.78041403492E+02 0.  0.
         11    1    3    3    0    0 -0.12550093855E+03  0.36215331389E+02 -0.26657349169E+02  0.13331410304E+03  0.00000000000E+00 0.  1.
        -11    1    3    3    0    0 -0.41267870777E+03 -0.70688135847E+02 -0.12001431367E+03  0.43555018527E+03  0.00000000000E+00 0. -1.
          2    1    6    6  502    0 -0.11804238942E+02 -0.94664661142E+01  0.40282337915E+01  0.15658247193E+02  0.00000000000E+00 0. -1.
          3    1    5    5  503    0  0.87047702116E+02 -0.10035894965E+02  0.29634311373E+03  0.30902631390E+03  0.00000000000E+00 0. -1.
         -2    1    5    5    0  503  0.50751947050E+03 -0.51787168443E+02  0.11403210261E+04  0.12492357529E+04  0.00000000000E+00 0.  1.
         -3    1    6    6    0  502 -0.44583287349E+02  0.10576233398E+03 -0.84366031293E+02  0.14244636898E+03  0.00000000000E+00 0.  1.
<mgrwt>
<rscale>  0 0.19388182E+04</rscale>
<asrwt>0</asrwt>
<pdfrwt beam="1">  1        2 0.26883735E+00 0.19388182E+04</pdfrwt>
<pdfrwt beam="2">  1       -2 0.82736639E-01 0.19388182E+04</pdfrwt>
<totfact> 0.11038217E+01</totfact>
</mgrwt>
</event>
<event>
12    1  0.1526663E-007  0.1350979E+04  0.7818608E-02  0.8990087E-01
         -1   -1    0    0    0  501 -0.00000000000E+00  0.00000000000E+00  0.50041576990E+03  0.50041576990E+03  0.00000000000E+00 0.  1.
          1   -1    0    0  501    0  0.00000000000E+00 -0.00000000000E+00 -0.91181384690E+03  0.91181384690E+03  0.00000000000E+00 0. -1.
         23    2    1    2    0    0 -0.21979063470E+03 -0.29227965777E+02  0.18482294922E+03  0.30229587212E+03  0.89783487645E+02 0.  0.
        254    2    1    2    0    0  0.21979063470E+03  0.29227965777E+02 -0.59622102622E+03  0.11099337447E+04  0.90956649476E+03 0.  0.
        -24    2    4    4    0    0  0.32555302511E+03 -0.35320516095E+03 -0.48946199214E+03  0.69103633628E+03  0.84967749351E+02 0.  0.
         24    2    4    4    0    0 -0.10576239041E+03  0.38243312673E+03 -0.10675903408E+03  0.41889740841E+03  0.81466359736E+02 0.  0.
         13    1    3    3    0    0 -0.49201887965E+02  0.59680084172E+01  0.17397892578E+01  0.49593041552E+02  0.00000000000E+00 0. -1.
        -13    1    3    3    0    0 -0.17058874674E+03 -0.35195974194E+02  0.18308315996E+03  0.25270283056E+03  0.00000000000E+00 0.  1.
          4    1    6    6  502    0 -0.27809459922E+02  0.87288264567E+02  0.98041716013E+01  0.92134298570E+02  0.00000000000E+00 0. -1.
          1    1    5    5  503    0  0.43183338443E+02 -0.36241557232E+02 -0.10076539379E+03  0.11546391547E+03  0.00000000000E+00 0. -1.
         -2    1    5    5    0  503  0.28236968666E+03 -0.31696360372E+03 -0.38869659835E+03  0.57557242081E+03  0.00000000000E+00 0.  1.
         -3    1    6    6    0  502 -0.77952930485E+02  0.29514486216E+03 -0.11656320568E+03  0.32676310984E+03  0.00000000000E+00 0.  1.
<mgrwt>
<rscale>  0 0.13509789E+04</rscale>
<asrwt>0</asrwt>
<pdfrwt beam="1">  1        1 0.14027905E+00 0.13509789E+04</pdfrwt>
<pdfrwt beam="2">  1       -1 0.76987042E-01 0.13509789E+04</pdfrwt>
<totfact> 0.29483846E+01</totfact>
</mgrwt>
</event>
<event>
12    1  0.1494110E-007  0.1088434E+04  0.7818608E-02  0.9216538E-01
         -2   -1    0    0    0  501 -0.00000000000E+00  0.00000000000E+00  0.18811332463E+03  0.18811332463E+03  0.00000000000E+00 0.  1.
          2   -1    0    0  501    0  0.00000000000E+00 -0.00000000000E+00 -0.15744356960E+04  0.15744356960E+04  0.00000000000E+00 0. -1.
         23    2    1    2    0    0 -0.16102626380E+02 -0.27893727816E+02 -0.41425456051E+03  0.42501315173E+03  0.89397894915E+02 0.  0.
        254    2    1    2    0    0  0.16102626380E+02  0.27893727816E+02 -0.97206781088E+03  0.13375358689E+04  0.91817700748E+03 0.  0.
        -24    2    4    4    0    0 -0.21384450720E+03 -0.16517321488E+03  0.34586163747E+02  0.28389621347E+03  0.79932428489E+02 0.  0.
         24    2    4    4    0    0  0.22994713358E+03  0.19306694270E+03 -0.10066539746E+04  0.10536396555E+04  0.81570646131E+02 0.  0.
         13    1    3    3    0    0 -0.18272626068E+02 -0.29869698889E+02 -0.41843931844E+03  0.41990183495E+03  0.00000000000E+00 0. -1.
        -13    1    3    3    0    0  0.21699996887E+01  0.19759710726E+01  0.41847579318E+01  0.51113167850E+01  0.00000000000E+00 0.  1.
          4    1    6    6  502    0  0.22559205369E+03  0.17281030573E+03 -0.97682206319E+03  0.10173182981E+04  0.00000000000E+00 0. -1.
          1    1    5    5  503    0 -0.67994427610E+02 -0.27053270411E+02  0.39109171845E+02  0.82973784705E+02  0.00000000000E+00 0. -1.
         -2    1    5    5    0  503 -0.14585007959E+03 -0.13811994447E+03 -0.45230080981E+01  0.20092242876E+03  0.00000000000E+00 0.  1.
         -1    1    6    6    0  502  0.43550798861E+01  0.20256636972E+02 -0.29831911438E+02  0.36321357385E+02  0.00000000000E+00 0.  1.
<mgrwt>
<rscale>  0 0.10884343E+04</rscale>
<asrwt>0</asrwt>
<pdfrwt beam="1">  1        2 0.24222087E+00 0.10884343E+04</pdfrwt>
<pdfrwt beam="2">  1       -2 0.28940512E-01 0.10884343E+04</pdfrwt>
<totfact> 0.12549347E+02</totfact>
</mgrwt>
</event>
<event>
12    1  0.1494110E-007  0.2849112E+04  0.7818608E-02  0.8288181E-01
         -2   -1    0    0    0  501 -0.00000000000E+00  0.00000000000E+00  0.80772345887E+03  0.80772345887E+03  0.00000000000E+00 0.  1.
          2   -1    0    0  501    0  0.00000000000E+00 -0.00000000000E+00 -0.25124438060E+04  0.25124438060E+04  0.00000000000E+00 0. -1.
         23    2    1    2    0    0  0.44147924278E+03  0.10326183641E+04 -0.25166873574E+02  0.11269745700E+04  0.90739750488E+02 0.  0.
        254    2    1    2    0    0 -0.44147924278E+03 -0.10326183641E+04 -0.16795534736E+04  0.21931926948E+04  0.85322313524E+03 0.  0.
        -24    2    4    4    0    0 -0.30219460085E+03 -0.26417940966E+02 -0.75390508770E+03  0.81659328275E+03  0.80201145798E+02 0.  0.
         24    2    4    4    0    0 -0.13928464193E+03 -0.10062004231E+04 -0.92564838587E+03  0.13765994121E+04  0.79759038116E+02 0.  0.
         13    1    3    3    0    0  0.34325508675E+02  0.56160298785E+02 -0.20780012279E+02  0.69021943002E+02  0.00000000000E+00 0. -1.
        -13    1    3    3    0    0  0.40715373410E+03  0.97645806530E+03 -0.43868612949E+01  0.10579526270E+04  0.00000000000E+00 0.  1.
          4    1    6    6  502    0 -0.12356147746E+03 -0.89961450169E+03 -0.85856061472E+03  0.12496799668E+04  0.00000000000E+00 0. -1.
          1    1    5    5  503    0 -0.39465598219E+02  0.21189540494E+02 -0.79430370859E+02  0.91190536153E+02  0.00000000000E+00 0. -1.
         -2    1    5    5    0  503 -0.26272900263E+03 -0.47607481460E+02 -0.67447471684E+03  0.72540274660E+03  0.00000000000E+00 0.  1.
         -3    1    6    6    0  502 -0.15723164469E+02 -0.10658592143E+03 -0.67087771154E+02  0.12691944526E+03  0.00000000000E+00 0.  1.
<mgrwt>
<rscale>  0 0.28491120E+04</rscale>
<asrwt>0</asrwt>
<pdfrwt beam="1">  1        2 0.38652981E+00 0.28491120E+04</pdfrwt>
<pdfrwt beam="2">  1       -2 0.12426515E+00 0.28491120E+04</pdfrwt>
<totfact> 0.14435927E+00</totfact>
</mgrwt>
</event>
<event>
12    1  0.1494110E-007  0.1804227E+04  0.7818608E-02  0.8704055E-01
          1   -1    0    0  501    0  0.00000000000E+00  0.00000000000E+00  0.22113824158E+04  0.22113824158E+04  0.00000000000E+00 0. -1.
         -1   -1    0    0    0  501 -0.00000000000E+00 -0.00000000000E+00 -0.36800923657E+03  0.36800923657E+03  0.00000000000E+00 0.  1.
         23    2    1    2    0    0 -0.52056672603E+03  0.42325359753E+03  0.70784402638E+03  0.97934245526E+03  0.89079486577E+02 0.  0.
        254    2    1    2    0    0  0.52056672603E+03 -0.42325359753E+03  0.11355291529E+04  0.16000491972E+04  0.90586845191E+03 0.  0.
        -24    2    4    4    0    0 -0.19262717850E+03 -0.31710447788E+03  0.54746464262E+03  0.66615943848E+03  0.79939869726E+02 0.  0.
         24    2    4    4    0    0  0.71319390453E+03 -0.10614911965E+03  0.58806451028E+03  0.93388975868E+03  0.80106379586E+02 0.  0.
         11    1    3    3    0    0 -0.23244768965E+03  0.13334164221E+03  0.28849955918E+03  0.39375616518E+03  0.00000000000E+00 0.  1.
        -11    1    3    3    0    0 -0.28811903638E+03  0.28991195532E+03  0.41934446720E+03  0.58558629008E+03  0.00000000000E+00 0. -1.
          2    1    6    6  502    0  0.14500005111E+03 -0.74886841749E+00  0.87538409483E+02  0.16937694282E+03  0.00000000000E+00 0. -1.
          3    1    5    5  503    0 -0.10209802238E+02 -0.69206163523E+02  0.12829526949E+03  0.14612805790E+03  0.00000000000E+00 0. -1.
         -4    1    5    5    0  503 -0.18241737626E+03 -0.24789831436E+03  0.41916937313E+03  0.52003138058E+03  0.00000000000E+00 0.  1.
         -1    1    6    6    0  502  0.56819385342E+03 -0.10540025123E+03  0.50052610080E+03  0.76451281585E+03  0.00000000000E+00 0.  1.
<mgrwt>
<rscale>  0 0.18042274E+04</rscale>
<asrwt>0</asrwt>
<pdfrwt beam="1">  1        1 0.34021267E+00 0.18042274E+04</pdfrwt>
<pdfrwt beam="2">  1       -1 0.56616807E-01 0.18042274E+04</pdfrwt>
<totfact> 0.63762629E+00</totfact>
</mgrwt>
</event>
<event>
12    1  0.1494110E-007  0.1865270E+04  0.7818608E-02  0.8672339E-01
         -2   -1    0    0    0  501 -0.00000000000E+00  0.00000000000E+00  0.49097681192E+03  0.49097681192E+03  0.00000000000E+00 0.  1.
          2   -1    0    0  501    0  0.00000000000E+00 -0.00000000000E+00 -0.17715874681E+04  0.17715874681E+04  0.00000000000E+00 0. -1.
         23    2    1    2    0    0 -0.20262838923E+01 -0.45436189117E+03  0.16253011237E+03  0.49659602386E+03  0.11722943105E+03 0.  0.
        254    2    1    2    0    0  0.20262838923E+01  0.45436189117E+03 -0.14431407685E+04  0.17659682561E+04  0.91079073881E+03 0.  0.
        -24    2    4    4    0    0 -0.42812400519E+01 -0.18014062574E+03 -0.91670155785E+03  0.93764699661E+03  0.79819609341E+02 0.  0.
         24    2    4    4    0    0  0.63075239443E+01  0.63450251691E+03 -0.52643921066E+03  0.82832125951E+03  0.79653233480E+02 0.  0.
         11    1    3    3    0    0  0.44962496169E+02 -0.36948817683E+03  0.13073598040E+03  0.39450606516E+03  0.00000000000E+00 0.  1.
        -11    1    3    3    0    0 -0.46988780061E+02 -0.84873714341E+02  0.31794131972E+02  0.10208995869E+03  0.00000000000E+00 0. -1.
          4    1    6    6  502    0 -0.17450306131E+02  0.35275536650E+03 -0.33554502186E+03  0.48716662803E+03  0.00000000000E+00 0. -1.
          3    1    5    5  503    0 -0.45533906366E+01 -0.33921604274E+01 -0.19918528292E+01  0.60172748273E+01  0.00000000000E+00 0. -1.
         -4    1    5    5    0  503  0.27215058460E+00 -0.17674846531E+03 -0.91470970502E+03  0.93162972178E+03  0.00000000000E+00 0.  1.
         -3    1    6    6    0  502  0.23757830075E+02  0.28174715042E+03 -0.19089418881E+03  0.34115463148E+03  0.00000000000E+00 0.  1.
<mgrwt>
<rscale>  0 0.18652703E+04</rscale>
<asrwt>0</asrwt>
<pdfrwt beam="1">  1        2 0.27255191E+00 0.18652703E+04</pdfrwt>
<pdfrwt beam="2">  1       -2 0.75534896E-01 0.18652703E+04</pdfrwt>
<totfact> 0.13207643E+01</totfact>
</mgrwt>
</event>
<event>
12    1  0.1494110E-007  0.1193852E+04  0.7818608E-02  0.9118255E-01
          2   -1    0    0  501    0  0.00000000000E+00  0.00000000000E+00  0.19517921634E+04  0.19517921634E+04  0.00000000000E+00 0. -1.
         -2   -1    0    0    0  501 -0.00000000000E+00 -0.00000000000E+00 -0.18256072336E+03  0.18256072336E+03  0.00000000000E+00 0.  1.
         23    2    1    2    0    0 -0.57922440705E+02  0.23368046160E+03  0.29447400531E+03  0.39109733587E+03  0.90997906829E+02 0.  0.
        254    2    1    2    0    0  0.57922440705E+02 -0.23368046160E+03  0.14747574347E+04  0.17432555509E+04  0.89781337545E+03 0.  0.
        -24    2    4    4    0    0  0.43030371435E+03 -0.26630439520E+03  0.10715768642E+04  0.11875389412E+04  0.76762253953E+02 0.  0.
         24    2    4    4    0    0 -0.37238127364E+03  0.32623933600E+02  0.40318057054E+03  0.55571660964E+03  0.80834669302E+02 0.  0.
         13    1    3    3    0    0 -0.23944497828E+02  0.15166563707E+03  0.24590434410E+03  0.28990472726E+03  0.00000000000E+00 0. -1.
        -13    1    3    3    0    0 -0.33977942877E+02  0.82014824538E+02  0.48569661212E+02  0.10119260861E+03  0.00000000000E+00 0.  1.
          4    1    6    6  502    0 -0.37172799087E+03  0.37440926497E+02  0.40454020476E+03  0.55066895631E+03  0.00000000000E+00 0. -1.
          3    1    5    5  503    0  0.28774286310E+03 -0.15853006661E+03  0.76709839884E+03  0.83448648329E+03  0.00000000000E+00 0. -1.
         -4    1    5    5    0  503  0.14256085125E+03 -0.10777432860E+03  0.30447846534E+03  0.35305245796E+03  0.00000000000E+00 0.  1.
         -3    1    6    6    0  502 -0.65328277468E+00 -0.48169928973E+01 -0.13596342174E+01  0.50476533321E+01  0.00000000000E+00 0.  1.
<mgrwt>
<rscale>  0 0.11938519E+04</rscale>
<asrwt>0</asrwt>
<pdfrwt beam="1">  1        2 0.30027570E+00 0.11938519E+04</pdfrwt>
<pdfrwt beam="2">  1       -2 0.28086267E-01 0.11938519E+04</pdfrwt>
<totfact> 0.81401208E+01</totfact>
</mgrwt>
</event>
<event>
12    1  0.1494110E-007  0.2156214E+04  0.7818608E-02  0.8536877E-01
          2   -1    0    0  501    0  0.00000000000E+00  0.00000000000E+00  0.33320264636E+04  0.33320264636E+04  0.00000000000E+00 0. -1.
         -2   -1    0    0    0  501 -0.00000000000E+00 -0.00000000000E+00 -0.34883132006E+03  0.34883132006E+03  0.00000000000E+00 0.  1.
         23    2    1    2    0    0  0.58088055973E+03  0.61257981272E+03  0.77126753923E+03  0.11469146376E+04  0.88788046545E+02 0.  0.
        254    2    1    2    0    0 -0.58088055973E+03 -0.61257981272E+03  0.22119276043E+04  0.25339431461E+04  0.90308797426E+03 0.  0.
        -24    2    4    4    0    0  0.13432268356E+03 -0.47669427394E+03  0.83538687579E+03  0.97473694287E+03  0.83431777087E+02 0.  0.
         24    2    4    4    0    0 -0.71520324329E+03 -0.13588553878E+03  0.13765407286E+04  0.15592062032E+04  0.79240444187E+02 0.  0.
         13    1    3    3    0    0  0.24519289249E+03  0.21587244076E+03  0.25537889400E+03  0.41465509127E+03  0.00000000000E+00 0. -1.
        -13    1    3    3    0    0  0.33568766724E+03  0.39670737196E+03  0.51588864523E+03  0.73225954632E+03  0.00000000000E+00 0.  1.
          2    1    6    6  502    0 -0.25086946216E+03 -0.27759791167E+02  0.40965681700E+03  0.48117024094E+03  0.00000000000E+00 0. -1.
          3    1    5    5  503    0  0.81302519800E+02 -0.17882829753E+03  0.38408641640E+03  0.43140704096E+03  0.00000000000E+00 0. -1.
         -2    1    5    5    0  503  0.53020163761E+02 -0.29786597641E+03  0.45130045938E+03  0.54332990191E+03  0.00000000000E+00 0.  1.
         -1    1    6    6    0  502 -0.46433378113E+03 -0.10812574761E+03  0.96688391156E+03  0.10780359623E+04  0.00000000000E+00 0.  1.
<mgrwt>
<rscale>  0 0.21562145E+04</rscale>
<asrwt>0</asrwt>
<pdfrwt beam="1">  1        2 0.51261944E+00 0.21562145E+04</pdfrwt>
<pdfrwt beam="2">  1       -2 0.53666359E-01 0.21562145E+04</pdfrwt>
<totfact> 0.31910669E+00</totfact>
</mgrwt>
</event>
<event>
12    1  0.1494110E-007  0.1488986E+04  0.7818608E-02  0.8891810E-01
         -2   -1    0    0    0  501 -0.00000000000E+00  0.00000000000E+00  0.32275122753E+03  0.32275122753E+03  0.00000000000E+00 0. -1.
          2   -1    0    0  501    0  0.00000000000E+00 -0.00000000000E+00 -0.17173289032E+04  0.17173289032E+04  0.00000000000E+00 0.  1.
         23    2    1    2    0    0  0.17440251726E+03  0.81861226319E+02  0.13674734163E+03  0.25283867109E+03  0.90055870190E+02 0.  0.
        254    2    1    2    0    0 -0.17440251726E+03 -0.81861226319E+02 -0.15313250173E+04  0.17872414597E+04  0.90119821797E+03 0.  0.
        -24    2    4    4    0    0 -0.46662196333E+03 -0.57942133185E+02 -0.42153942869E+03  0.63670842688E+03  0.81294424499E+02 0.  0.
         24    2    4    4    0    0  0.29221944608E+03 -0.23919093134E+02 -0.11097855886E+04  0.11505330328E+04  0.78344617594E+02 0.  0.
         11    1    3    3    0    0  0.83422488923E+02  0.60851622080E+00  0.24189588035E+02  0.86860912494E+02  0.00000000000E+00 0.  1.
        -11    1    3    3    0    0  0.90980028333E+02  0.81252710098E+02  0.11255775360E+03  0.16597775859E+03  0.00000000000E+00 0. -1.
          4    1    6    6  502    0  0.20623167050E+03 -0.16603710231E+02 -0.63165425205E+03  0.66467607092E+03  0.00000000000E+00 0. -1.
          1    1    5    5  503    0 -0.39990082809E+03 -0.37971981819E+02 -0.39129210795E+03  0.56077808218E+03  0.00000000000E+00 0. -1.
         -2    1    5    5    0  503 -0.66721135244E+02 -0.19970151366E+02 -0.30247320735E+02  0.75930344694E+02  0.00000000000E+00 0.  1.
         -3    1    6    6    0  502  0.85987775578E+02 -0.73153829031E+01 -0.47813133658E+03  0.48585696187E+03  0.00000000000E+00 0.  1.
<mgrwt>
<rscale>  0 0.14889862E+04</rscale>
<asrwt>0</asrwt>
<pdfrwt beam="1">  1        2 0.26420445E+00 0.14889862E+04</pdfrwt>
<pdfrwt beam="2">  1       -2 0.49654035E-01 0.14889862E+04</pdfrwt>
<totfact> 0.35595713E+01</totfact>
</mgrwt>
</event>
<event>
12    1  0.1494110E-007  0.1262827E+04  0.7818608E-02  0.9059575E-01
          2   -1    0    0  501    0  0.00000000000E+00  0.00000000000E+00  0.24786633028E+04  0.24786633028E+04  0.00000000000E+00 0. -1.
         -2   -1    0    0    0  501 -0.00000000000E+00 -0.00000000000E+00 -0.16084595311E+03  0.16084595311E+03  0.00000000000E+00 0.  1.
         23    2    1    2    0    0 -0.30271520040E+02 -0.30272073942E+03  0.43850299552E+03  0.54137405602E+03  0.90800773412E+02 0.  0.
        254    2    1    2    0    0  0.30271520040E+02  0.30272073942E+03  0.18793143542E+04  0.20981351999E+04  0.88192554348E+03 0.  0.
        -24    2    4    4    0    0 -0.41797532733E+03  0.14898829783E+03  0.91860737139E+03  0.10235121441E+04  0.82684455435E+02 0.  0.
         24    2    4    4    0    0  0.44824684737E+03  0.15373244159E+03  0.96070698282E+03  0.10746230558E+04  0.85427779643E+02 0.  0.
         11    1    3    3    0    0 -0.14240946045E+02 -0.10954963581E+03  0.23856235370E+03  0.26289907541E+03  0.00000000000E+00 0. -1.
        -11    1    3    3    0    0 -0.16030573996E+02 -0.19317110362E+03  0.19994064182E+03  0.27847498061E+03  0.00000000000E+00 0.  1.
          2    1    6    6  502    0  0.33773356808E+03  0.75465433077E+02  0.69602167354E+03  0.77730635185E+03  0.00000000000E+00 0. -1.
          3    1    5    5  503    0 -0.37305331292E+03  0.13996654961E+03  0.75600686544E+03  0.85457930579E+03  0.00000000000E+00 0. -1.
         -4    1    5    5    0  503 -0.44922014410E+02  0.90217482245E+01  0.16260050595E+03  0.16893283830E+03  0.00000000000E+00 0.  1.
         -1    1    6    6    0  502  0.11051327929E+03  0.78267008514E+02  0.26468530928E+03  0.29731670399E+03  0.00000000000E+00 0.  1.
<mgrwt>
<rscale>  0 0.12628269E+04</rscale>
<asrwt>0</asrwt>
<pdfrwt beam="1">  1        2 0.38133279E+00 0.12628269E+04</pdfrwt>
<pdfrwt beam="2">  1       -2 0.24745533E-01 0.12628269E+04</pdfrwt>
<totfact> 0.51697303E+01</totfact>
</mgrwt>
</event>
<event>
12    1  0.1494110E-007  0.1863597E+04  0.7818608E-02  0.8673192E-01
         -1   -1    0    0    0  501 -0.00000000000E+00  0.00000000000E+00  0.44611683620E+04  0.44611683620E+04  0.00000000000E+00 0.  1.
          1   -1    0    0  501    0  0.00000000000E+00 -0.00000000000E+00 -0.19462348408E+03  0.19462348408E+03  0.00000000000E+00 0. -1.
         23    2    1    2    0    0 -0.44616090827E+03  0.43370276566E+02  0.30550042802E+04  0.30892476268E+04  0.97258473308E+02 0.  0.
        254    2    1    2    0    0  0.44616090827E+03 -0.43370276566E+02  0.12115405978E+04  0.15665442193E+04  0.88616569226E+03 0.  0.
        -24    2    4    4    0    0  0.52165559916E+02  0.36388262384E+03  0.26361768965E+03  0.45925233509E+03  0.79288154291E+02 0.  0.
         24    2    4    4    0    0  0.39399534835E+03 -0.40725290041E+03  0.94792290812E+03  0.11072918842E+04  0.80313247808E+02 0.  0.
         11    1    3    3    0    0  0.29048161285E+01 -0.62514801463E+01  0.46747615420E+02  0.47253132259E+02  0.00000000000E+00 0. -1.
        -11    1    3    3    0    0 -0.44906572439E+03  0.49621756712E+02  0.30082566647E+04  0.30419944945E+04  0.00000000000E+00 0.  1.
          4    1    6    6  502    0  0.34549267982E+03 -0.37941975665E+03  0.81511886592E+03  0.96319432573E+03  0.00000000000E+00 0. -1.
          3    1    5    5  503    0  0.56763388703E+02  0.28024734631E+03  0.23692345993E+03  0.37133998341E+03  0.00000000000E+00 0. -1.
         -4    1    5    5    0  503 -0.45978287866E+01  0.83635277534E+02  0.26694229716E+02  0.87912351680E+02  0.00000000000E+00 0.  1.
         -3    1    6    6    0  502  0.48502668534E+02 -0.27833143762E+02  0.13280404220E+03  0.14409755852E+03  0.00000000000E+00 0.  1.
<mgrwt>
<rscale>  0 0.18635967E+04</rscale>
<asrwt>0</asrwt>
<pdfrwt beam="1">  1        1 0.29942078E-01 0.18635967E+04</pdfrwt>
<pdfrwt beam="2">  1       -1 0.68633352E+00 0.18635967E+04</pdfrwt>
<totfact> 0.31752433E-02</totfact>
</mgrwt>
</event>
<event>
12    1  0.1494110E-007  0.1247733E+04  0.7818608E-02  0.9072072E-01
         -1   -1    0    0    0  501 -0.00000000000E+00  0.00000000000E+00  0.52486341663E+03  0.52486341663E+03  0.00000000000E+00 0.  1.
          1   -1    0    0  501    0  0.00000000000E+00 -0.00000000000E+00 -0.74154382676E+03  0.74154382676E+03  0.00000000000E+00 0. -1.
         23    2    1    2    0    0 -0.13348165031E+03  0.14973572857E+03  0.13387830266E+03  0.26081147746E+03  0.99303008364E+02 0.  0.
        254    2    1    2    0    0  0.13348165031E+03 -0.14973572857E+03 -0.35055871280E+03  0.10055957659E+04  0.92091980865E+03 0.  0.
        -24    2    4    4    0    0 -0.30088343698E+03 -0.27808290286E+03  0.15912068866E+02  0.41737893398E+03  0.78045096504E+02 0.  0.
         24    2    4    4    0    0  0.43436508729E+03  0.12834717428E+03 -0.36647078166E+03  0.58821683195E+03  0.80945545733E+02 0.  0.
         11    1    3    3    0    0 -0.10270196995E+03  0.15377669241E+03  0.13622588350E+03  0.22967903060E+03  0.00000000000E+00 0.  1.
        -11    1    3    3    0    0 -0.30779680363E+02 -0.40409638400E+01 -0.23475808350E+01  0.31132446865E+02  0.00000000000E+00 0. -1.
          2    1    6    6  502    0  0.20265023616E+03  0.29460025161E+02 -0.20005925354E+03  0.28628432759E+03  0.00000000000E+00 0. -1.
          3    1    5    5  503    0 -0.69450540904E+02 -0.32832805179E+02  0.22697399131E+02  0.80103324869E+02  0.00000000000E+00 0. -1.
         -4    1    5    5    0  503 -0.23143289607E+03 -0.24525009768E+03 -0.67853302651E+01  0.33727560911E+03  0.00000000000E+00 0.  1.
         -1    1    6    6    0  502  0.23171485112E+03  0.98887149123E+02 -0.16641152812E+03  0.30193250435E+03  0.00000000000E+00 0.  1.
<mgrwt>
<rscale>  0 0.12477327E+04</rscale>
<asrwt>0</asrwt>
<pdfrwt beam="1">  1        1 0.11408367E+00 0.12477327E+04</pdfrwt>
<pdfrwt beam="2">  1       -1 0.80748218E-01 0.12477327E+04</pdfrwt>
<totfact> 0.37618069E+01</totfact>
</mgrwt>
</event>
<event>
12    1  0.1494110E-007  0.2174116E+04  0.7818608E-02  0.8529280E-01
         -2   -1    0    0    0  501 -0.00000000000E+00  0.00000000000E+00  0.75025514527E+03  0.75025514527E+03  0.00000000000E+00 0.  1.
          2   -1    0    0  501    0  0.00000000000E+00 -0.00000000000E+00 -0.15750570448E+04  0.15750570448E+04  0.00000000000E+00 0. -1.
         23    2    1    2    0    0 -0.61954584094E+03  0.46668732891E+03 -0.82613767291E+03  0.11369356136E+04  0.92114184001E+02 0.  0.
        254    2    1    2    0    0  0.61954584094E+03 -0.46668732891E+03  0.13357733635E+01  0.11883765765E+04  0.90033493282E+03 0.  0.
        -24    2    4    4    0    0 -0.76106277773E+02 -0.13825353197E+03 -0.30837887280E+03  0.35533566802E+03  0.79118285852E+02 0.  0.
         24    2    4    4    0    0  0.69565211872E+03 -0.32843379694E+03  0.30971464616E+03  0.83304090847E+03  0.78951655411E+02 0.  0.
         11    1    3    3    0    0 -0.23612751354E+03  0.23150379604E+03 -0.37248421987E+03  0.49809106024E+03  0.00000000000E+00 0.  1.
        -11    1    3    3    0    0 -0.38341832740E+03  0.23518353287E+03 -0.45365345304E+03  0.63884455337E+03  0.00000000000E+00 0. -1.
          4    1    6    6  502    0  0.18527331650E+03 -0.51050970972E+02  0.67652026960E+02  0.20373806761E+03  0.00000000000E+00 0. -1.
          3    1    5    5  503    0 -0.51048081420E+02 -0.13261663705E+03 -0.20929675903E+03  0.25297867969E+03  0.00000000000E+00 0. -1.
         -4    1    5    5    0  503 -0.25058196354E+02 -0.56368949165E+01 -0.99082113771E+02  0.10235698832E+03  0.00000000000E+00 0.  1.
         -3    1    6    6    0  502  0.51037880222E+03 -0.27738282597E+03  0.24206261920E+03  0.62930284086E+03  0.00000000000E+00 0.  1.
<mgrwt>
<rscale>  0 0.21741156E+04</rscale>
<asrwt>0</asrwt>
<pdfrwt beam="1">  1        2 0.24231647E+00 0.21741156E+04</pdfrwt>
<pdfrwt beam="2">  1       -2 0.11542387E+00 0.21741156E+04</pdfrwt>
<totfact> 0.61654612E+00</totfact>
</mgrwt>
</event>
<event>
12    1  0.1494110E-007  0.1171241E+04  0.7818608E-02  0.9138408E-01
         -2   -1    0    0    0  501 -0.00000000000E+00  0.00000000000E+00  0.34118275782E+03  0.34118275782E+03  0.00000000000E+00 0.  1.
          2   -1    0    0  501    0  0.00000000000E+00 -0.00000000000E+00 -0.10051845719E+04  0.10051845719E+04  0.00000000000E+00 0. -1.
         23    2    1    2    0    0 -0.45947070684E+02 -0.18509398593E+03 -0.28649687914E+03  0.35433755140E+03  0.84283578769E+02 0.  0.
        254    2    1    2    0    0  0.45947070684E+02  0.18509398593E+03 -0.37750493496E+03  0.99202977834E+03  0.89735287833E+03 0.  0.
        -24    2    4    4    0    0  0.29589558265E+03 -0.23414461537E+03 -0.29095977695E+02  0.38708763537E+03  0.81316448531E+02 0.  0.
         24    2    4    4    0    0 -0.24994851197E+03  0.41923860129E+03 -0.34840895727E+03  0.60494214297E+03  0.79567150163E+02 0.  0.
         13    1    3    3    0    0 -0.30036518260E+02 -0.99587639710E+02 -0.22481049417E+03  0.24770879819E+03  0.00000000000E+00 0. -1.
        -13    1    3    3    0    0 -0.15910552424E+02 -0.85506346217E+02 -0.61686384966E+02  0.10662875321E+03  0.00000000000E+00 0.  1.
          2    1    6    6  502    0 -0.14276673754E+03  0.19161543388E+03 -0.20810706447E+03  0.31687121379E+03  0.00000000000E+00 0. -1.
          3    1    5    5  503    0  0.16498009880E+03 -0.96650661915E+02 -0.45449222916E+02  0.19653349667E+03  0.00000000000E+00 0. -1.
         -4    1    5    5    0  503  0.13091548385E+03 -0.13749395345E+03  0.16353245221E+02  0.19055413870E+03  0.00000000000E+00 0.  1.
         -1    1    6    6    0  502 -0.10718177443E+03  0.22762316741E+03 -0.14030189280E+03  0.28807092918E+03  0.00000000000E+00 0.  1.
<mgrwt>
<rscale>  0 0.11712415E+04</rscale>
<asrwt>0</asrwt>
<pdfrwt beam="1">  1        2 0.15464378E+00 0.11712415E+04</pdfrwt>
<pdfrwt beam="2">  1       -2 0.52489655E-01 0.11712415E+04</pdfrwt>
<totfact> 0.84622694E+01</totfact>
</mgrwt>
</event>
<event>
12    1  0.1494110E-007  0.1315589E+04  0.7818608E-02  0.9017294E-01
          2   -1    0    0  501    0  0.00000000000E+00  0.00000000000E+00  0.17658109487E+04  0.17658109487E+04  0.00000000000E+00 0.  1.
         -2   -1    0    0    0  501 -0.00000000000E+00 -0.00000000000E+00 -0.24503955394E+03  0.24503955394E+03  0.00000000000E+00 0. -1.
         23    2    1    2    0    0 -0.73225594238E+02 -0.11297159217E+03  0.90496450608E+03  0.91937523013E+03  0.90363091074E+02 0.  0.
        254    2    1    2    0    0  0.73225594238E+02  0.11297159217E+03  0.61580688869E+03  0.10914752725E+04  0.89105307255E+03 0.  0.
        -24    2    4    4    0    0 -0.35021793953E+03  0.11447483780E+03  0.53166553066E+03  0.65193879000E+03  0.81233341404E+02 0.  0.
         24    2    4    4    0    0  0.42344353377E+03 -0.15032456340E+01  0.84141358037E+02  0.43953648253E+03  0.82497668462E+02 0.  0.
         13    1    3    3    0    0 -0.37891015271E+02 -0.11354952817E+03  0.56273217690E+03  0.57532315033E+03  0.00000000000E+00 0.  1.
        -13    1    3    3    0    0 -0.35334578967E+02  0.57793600571E+00  0.34223232919E+03  0.34405207981E+03  0.00000000000E+00 0. -1.
          2    1    6    6  502    0  0.24986333252E+03 -0.19655825858E+02  0.86061037663E+02  0.26499912950E+03  0.00000000000E+00 0. -1.
          1    1    5    5  503    0 -0.34869975073E+03  0.11870369493E+03  0.50594858844E+03  0.62583229182E+03  0.00000000000E+00 0. -1.
         -2    1    5    5    0  503 -0.15181888055E+01 -0.42288571258E+01  0.25716942221E+02  0.26106498177E+02  0.00000000000E+00 0.  1.
         -1    1    6    6    0  502  0.17358020125E+03  0.18152580224E+02 -0.19196796262E+01  0.17453735303E+03  0.00000000000E+00 0.  1.
<mgrwt>
<rscale>  0 0.13155889E+04</rscale>
<asrwt>0</asrwt>
<pdfrwt beam="1">  1        2 0.27166321E+00 0.13155889E+04</pdfrwt>
<pdfrwt beam="2">  1       -2 0.37698394E-01 0.13155889E+04</pdfrwt>
<totfact> 0.58595559E+01</totfact>
</mgrwt>
</event>
<event>
12    1  0.1714311E-007  0.1677157E+04  0.7818608E-02  0.8774501E-01
         -1   -1    0    0    0  501 -0.00000000000E+00  0.00000000000E+00  0.92420499984E+03  0.92420499984E+03  0.00000000000E+00 0.  1.
          1   -1    0    0  501    0  0.00000000000E+00 -0.00000000000E+00 -0.76088519486E+03  0.76088519486E+03  0.00000000000E+00 0. -1.
         23    2    1    2    0    0  0.58978627640E+03  0.24636425255E+02 -0.17214290767E+01  0.59793829262E+03  0.95249321157E+02 0.  0.
        254    2    1    2    0    0 -0.58978627640E+03 -0.24636425255E+02  0.16504123406E+03  0.10871519021E+04  0.89788966136E+03 0.  0.
        -24    2    4    4    0    0  0.68549248857E+02 -0.12655361026E+03  0.35378939911E+03  0.39017661155E+03  0.79724735757E+02 0.  0.
         24    2    4    4    0    0 -0.65833552526E+03  0.10191718500E+03 -0.18874816505E+03  0.69697529053E+03  0.79723957345E+02 0.  0.
         11    1    3    3    0    0  0.16154930724E+03 -0.10452314819E+02  0.38455522038E+02  0.16639187699E+03  0.00000000000E+00 0. -1.
        -11    1    3    3    0    0  0.42823696917E+03  0.35088740075E+02 -0.40176951114E+02  0.43154641563E+03  0.00000000000E+00 0.  1.
          4    1    6    6  502    0 -0.18764359773E+02  0.16376191543E+02 -0.13525891947E+02  0.28341323189E+02  0.00000000000E+00 0. -1.
          3    1    5    5  503    0  0.17361457996E+02  0.86494796668E+01  0.32279761651E+02  0.37659218453E+02  0.00000000000E+00 0. -1.
         -4    1    5    5    0  503  0.51187790862E+02 -0.13520308992E+03  0.32150963746E+03  0.35251739310E+03  0.00000000000E+00 0.  1.
         -3    1    6    6    0  502 -0.63957116549E+03  0.85540993459E+02 -0.17522227310E+03  0.66863396734E+03  0.00000000000E+00 0.  1.
<mgrwt>
<rscale>  0 0.16771570E+04</rscale>
<asrwt>0</asrwt>
<pdfrwt beam="1">  1        1 0.11705926E+00 0.16771570E+04</pdfrwt>
<pdfrwt beam="2">  1       -1 0.14218538E+00 0.16771570E+04</pdfrwt>
<totfact> 0.91889360E+00</totfact>
</mgrwt>
</event>
<event>
12    1  0.1494110E-007  0.1312377E+04  0.7818608E-02  0.9019808E-01
         -1   -1    0    0    0  501 -0.00000000000E+00  0.00000000000E+00  0.55717140036E+03  0.55717140036E+03  0.00000000000E+00 0.  1.
          1   -1    0    0  501    0  0.00000000000E+00 -0.00000000000E+00 -0.77280189880E+03  0.77280189880E+03  0.00000000000E+00 0. -1.
         23    2    1    2    0    0 -0.28853058354E+03  0.61877412566E+02  0.10400729607E+03  0.33306291216E+03  0.11416949678E+03 0.  0.
        254    2    1    2    0    0  0.28853058354E+03 -0.61877412566E+02 -0.31963779451E+03  0.99691038700E+03  0.89698566779E+03 0.  0.
        -24    2    4    4    0    0  0.23756932985E+03  0.27654729322E+03  0.15723295930E+03  0.40473211130E+03  0.78538439967E+02 0.  0.
         24    2    4    4    0    0  0.50961253687E+02 -0.33842470579E+03 -0.47687075381E+03  0.59217827571E+03  0.78364938068E+02 0.  0.
         13    1    3    3    0    0 -0.20045708500E+03  0.46955674429E+02  0.12558819463E+03  0.24116441055E+03  0.00000000000E+00 0.  1.
        -13    1    3    3    0    0 -0.88073498542E+02  0.14921738136E+02 -0.21580898560E+02  0.91898501604E+02  0.00000000000E+00 0. -1.
          2    1    6    6  502    0  0.51823639163E+02 -0.14894944272E+03 -0.17320014091E+03  0.23424328138E+03  0.00000000000E+00 0. -1.
          3    1    5    5  503    0  0.16414822511E+03  0.23964209879E+03  0.12919276025E+03  0.31790524472E+03  0.00000000000E+00 0. -1.
         -4    1    5    5    0  503  0.73421104736E+02  0.36905194429E+02  0.28040199052E+02  0.86826866576E+02  0.00000000000E+00 0.  1.
         -1    1    6    6    0  502 -0.86238547618E+00 -0.18947526307E+03 -0.30367061290E+03  0.35793499432E+03  0.00000000000E+00 0.  1.
<mgrwt>
<rscale>  0 0.13123766E+04</rscale>
<asrwt>0</asrwt>
<pdfrwt beam="1">  1        1 0.11889260E+00 0.13123766E+04</pdfrwt>
<pdfrwt beam="2">  1       -1 0.85718678E-01 0.13123766E+04</pdfrwt>
<totfact> 0.30844868E+01</totfact>
</mgrwt>
</event>
<event>
12    1  0.1494110E-007  0.1549799E+04  0.7818608E-02  0.8851996E-01
          1   -1    0    0  501    0  0.00000000000E+00  0.00000000000E+00  0.64996442290E+03  0.64996442290E+03  0.00000000000E+00 0. -1.
         -1   -1    0    0    0  501 -0.00000000000E+00 -0.00000000000E+00 -0.92384971500E+03  0.92384971500E+03  0.00000000000E+00 0.  1.
         23    2    1    2    0    0 -0.28033164245E+03  0.32641617333E+02 -0.51687736075E+03  0.59562550678E+03  0.89197720434E+02 0.  0.
        254    2    1    2    0    0  0.28033164245E+03 -0.32641617333E+02  0.24299206865E+03  0.97818863112E+03  0.90452006483E+03 0.  0.
        -24    2    4    4    0    0  0.20279494681E+03 -0.45887083200E+03  0.14025717909E+03  0.52686816550E+03  0.78928807262E+02 0.  0.
         24    2    4    4    0    0  0.77536695641E+02  0.42622921466E+03  0.10273488955E+03  0.45132046562E+03  0.73840521100E+02 0.  0.
         11    1    3    3    0    0 -0.85269186613E+02 -0.29557589097E+02 -0.18136148217E+03  0.20257460964E+03  0.00000000000E+00 0. -1.
        -11    1    3    3    0    0 -0.19506245584E+03  0.62199206430E+02 -0.33551587858E+03  0.39305089713E+03  0.00000000000E+00 0.  1.
          4    1    6    6  502    0  0.44974881824E+02  0.81831025670E+02  0.26873807975E+02  0.97166137683E+02  0.00000000000E+00 0. -1.
          1    1    5    5  503    0  0.23430013523E+02 -0.16591892358E+02 -0.22037450191E+01  0.28794320929E+02  0.00000000000E+00 0. -1.
         -2    1    5    5    0  503  0.17936493329E+03 -0.44227893964E+03  0.14246092411E+03  0.49807384457E+03  0.00000000000E+00 0.  1.
         -3    1    6    6    0  502  0.32561813817E+02  0.34439818899E+03  0.75861081579E+02  0.35415432794E+03  0.00000000000E+00 0.  1.
<mgrwt>
<rscale>  0 0.15497993E+04</rscale>
<asrwt>0</asrwt>
<pdfrwt beam="1">  1        1 0.99994527E-01 0.15497993E+04</pdfrwt>
<pdfrwt beam="2">  1       -1 0.14213072E+00 0.15497993E+04</pdfrwt>
<totfact> 0.11823685E+01</totfact>
</mgrwt>
</event>
<event>
12    1  0.1494110E-007  0.2178188E+04  0.7818608E-02  0.8527562E-01
         -2   -1    0    0    0  501 -0.00000000000E+00  0.00000000000E+00  0.10589935858E+04  0.10589935858E+04  0.00000000000E+00 0.  1.
          2   -1    0    0  501    0  0.00000000000E+00 -0.00000000000E+00 -0.11200503213E+04  0.11200503213E+04  0.00000000000E+00 0. -1.
         23    2    1    2    0    0  0.18887358142E+03  0.62664641897E+03 -0.63999587528E+03  0.91989350278E+03  0.90831557861E+02 0.  0.
        254    2    1    2    0    0 -0.18887358142E+03 -0.62664641897E+03  0.57893913984E+03  0.12591504043E+04  0.90660368899E+03 0.  0.
        -24    2    4    4    0    0 -0.45725125889E+02 -0.80724889255E+03  0.60758158203E+03  0.10145429126E+04  0.80002381140E+02 0.  0.
         24    2    4    4    0    0 -0.14314845553E+03  0.18060247358E+03 -0.28642442197E+02  0.24460749174E+03  0.76835549937E+02 0.  0.
         11    1    3    3    0    0  0.45052532343E+02  0.11525097782E+03 -0.17219594079E+03  0.21204707162E+03  0.00000000000E+00 0.  1.
        -11    1    3    3    0    0  0.14382104908E+03  0.51139544115E+03 -0.46779993450E+03  0.70784643115E+03  0.00000000000E+00 0. -1.
          2    1    6    6  502    0 -0.13715531497E+03  0.17909688115E+03 -0.42394235645E+02  0.22953114054E+03  0.00000000000E+00 0. -1.
          3    1    5    5  503    0 -0.23490523227E+02 -0.50925583478E+03  0.43006962506E+03  0.66697315713E+03  0.00000000000E+00 0. -1.
         -4    1    5    5    0  503 -0.22234602662E+02 -0.29799305777E+03  0.17751195697E+03  0.34756975545E+03  0.00000000000E+00 0.  1.
         -1    1    6    6    0  502 -0.59931405607E+01  0.15055924325E+01  0.13751793448E+02  0.15076351196E+02  0.00000000000E+00 0.  1.
<mgrwt>
<rscale>  0 0.21781883E+04</rscale>
<asrwt>0</asrwt>
<pdfrwt beam="1">  1        2 0.17231543E+00 0.21781883E+04</pdfrwt>
<pdfrwt beam="2">  1       -2 0.16292209E+00 0.21781883E+04</pdfrwt>
<totfact> 0.46482205E+00</totfact>
</mgrwt>
</event>
<event>
12    1  0.1494110E-007  0.1641301E+04  0.7818608E-02  0.8795569E-01
         -2   -1    0    0    0  501 -0.00000000000E+00  0.00000000000E+00  0.10520047583E+04  0.10520047583E+04  0.00000000000E+00 0. -1.
          2   -1    0    0  501    0  0.00000000000E+00 -0.00000000000E+00 -0.64017527688E+03  0.64017527688E+03  0.00000000000E+00 0.  1.
         23    2    1    2    0    0 -0.23198794141E+01  0.55364791968E+03  0.62473850111E+01  0.56102868297E+03  0.90458567802E+02 0.  0.
        254    2    1    2    0    0  0.23198794141E+01 -0.55364791968E+03  0.40558209643E+03  0.11311513522E+04  0.89915245864E+03 0.  0.
        -24    2    4    4    0    0  0.30425737029E+03 -0.37090558105E+02 -0.10958729742E+03  0.33751870058E+03  0.89225784430E+02 0.  0.
         24    2    4    4    0    0 -0.30193749087E+03 -0.51655736157E+03  0.51516939385E+03  0.79363265164E+03  0.80346283065E+02 0.  0.
         11    1    3    3    0    0  0.73685929346E+01  0.42887543310E+03  0.41686388729E+02  0.43095961329E+03  0.00000000000E+00 0. -1.
        -11    1    3    3    0    0 -0.96884723487E+01  0.12477248658E+03 -0.35439003718E+02  0.13006906968E+03  0.00000000000E+00 0.  1.
          4    1    6    6  502    0 -0.13555725177E+03 -0.19794405294E+03  0.16035174415E+03  0.28856593433E+03  0.00000000000E+00 0. -1.
          3    1    5    5  503    0  0.22560882942E+03 -0.24188310569E+02 -0.37353682475E+02  0.22995589985E+03  0.00000000000E+00 0. -1.
         -4    1    5    5    0  503  0.78648540871E+02 -0.12902247536E+02 -0.72233614949E+02  0.10756280073E+03  0.00000000000E+00 0.  1.
         -3    1    6    6    0  502 -0.16638023911E+03 -0.31861330863E+03  0.35481764970E+03  0.50506671731E+03  0.00000000000E+00 0.  1.
<mgrwt>
<rscale>  0 0.16413012E+04</rscale>
<asrwt>0</asrwt>
<pdfrwt beam="1">  1        2 0.98488504E-01 0.16413012E+04</pdfrwt>
<pdfrwt beam="2">  1       -2 0.16184689E+00 0.16413012E+04</pdfrwt>
<totfact> 0.10683334E+01</totfact>
</mgrwt>
</event>
<event>
12    1  0.1494110E-007  0.1653764E+04  0.7818608E-02  0.8788183E-01
         -1   -1    0    0    0  501 -0.00000000000E+00  0.00000000000E+00  0.15495599628E+04  0.15495599628E+04  0.00000000000E+00 0.  1.
          1   -1    0    0  501    0  0.00000000000E+00 -0.00000000000E+00 -0.44124376561E+03  0.44124376561E+03  0.00000000000E+00 0. -1.
         23    2    1    2    0    0 -0.17730637458E+03 -0.50222826602E+03  0.66887532157E+03  0.86000212808E+03  0.92404993610E+02 0.  0.
        254    2    1    2    0    0  0.17730637458E+03  0.50222826602E+03  0.43944087567E+03  0.11308016004E+04  0.89550722751E+03 0.  0.
        -24    2    4    4    0    0 -0.24280894641E+03  0.46493736579E+03  0.45780393621E+03  0.70078872550E+03  0.79984093511E+02 0.  0.
         24    2    4    4    0    0  0.42011532100E+03  0.37290900231E+02 -0.18363060546E+02  0.43001287486E+03  0.81770265859E+02 0.  0.
         13    1    3    3    0    0 -0.72195448078E+02 -0.11549665618E+03  0.12865632345E+03  0.18736090808E+03  0.00000000000E+00 0. -1.
        -13    1    3    3    0    0 -0.10511092650E+03 -0.38673160984E+03  0.54021899812E+03  0.67264122001E+03  0.00000000000E+00 0.  1.
          2    1    6    6  502    0  0.34882932522E+03  0.13481272746E+01 -0.37516030982E+01  0.34885210348E+03  0.00000000000E+00 0. -1.
          3    1    5    5  503    0 -0.85288384650E+02  0.23526502054E+03  0.18765816706E+03  0.31279278462E+03  0.00000000000E+00 0. -1.
         -4    1    5    5    0  503 -0.15752056176E+03  0.22967234525E+03  0.27014576915E+03  0.38799594088E+03  0.00000000000E+00 0.  1.
         -1    1    6    6    0  502  0.71285995776E+02  0.35942772957E+02 -0.14611457448E+02  0.81160771376E+02  0.00000000000E+00 0.  1.
<mgrwt>
<rscale>  0 0.16537638E+04</rscale>
<asrwt>0</asrwt>
<pdfrwt beam="1">  1        1 0.67883657E-01 0.16537638E+04</pdfrwt>
<pdfrwt beam="2">  1       -1 0.23839384E+00 0.16537638E+04</pdfrwt>
<totfact> 0.41734361E+00</totfact>
</mgrwt>
</event>
<event>
12    1  0.1494110E-007  0.1638425E+04  0.7818608E-02  0.8797284E-01
         -1   -1    0    0    0  501 -0.00000000000E+00  0.00000000000E+00  0.43493101024E+03  0.43493101024E+03  0.00000000000E+00 0.  1.
          1   -1    0    0  501    0  0.00000000000E+00 -0.00000000000E+00 -0.15430245314E+04  0.15430245314E+04  0.00000000000E+00 0. -1.
         23    2    1    2    0    0 -0.10085385386E+03 -0.55021244068E+03 -0.27516798855E+03  0.63141184424E+03  0.10029090393E+03 0.  0.
        254    2    1    2    0    0  0.10085385386E+03  0.55021244068E+03 -0.83292553262E+03  0.13465436974E+04  0.89805888251E+03 0.  0.
        -24    2    4    4    0    0 -0.15472429155E+03  0.25275814655E+03 -0.89125122085E+03  0.94254184262E+03  0.78930978591E+02 0.  0.
         24    2    4    4    0    0  0.25557814541E+03  0.29745429413E+03  0.58325688232E+02  0.40400185479E+03  0.77565245167E+02 0.  0.
         11    1    3    3    0    0 -0.96751921284E+02 -0.42368411311E+03 -0.16936877946E+03  0.46642785662E+03  0.00000000000E+00 0.  1.
        -11    1    3    3    0    0 -0.41019325753E+01 -0.12652832757E+03 -0.10579920909E+03  0.16498398763E+03  0.00000000000E+00 0. -1.
          2    1    6    6  502    0  0.14549246924E+03  0.21894051145E+03  0.55963669073E+02  0.26876558265E+03  0.00000000000E+00 0. -1.
          1    1    5    5  503    0 -0.13405175648E+03  0.16435098820E+03 -0.68767083395E+03  0.71963344600E+03  0.00000000000E+00 0. -1.
         -2    1    5    5    0  503 -0.20672535078E+02  0.88407158347E+02 -0.20358038690E+03  0.22290839662E+03  0.00000000000E+00 0.  1.
         -1    1    6    6    0  502  0.11008567617E+03  0.78513782683E+02  0.23620191592E+01  0.13523627214E+03  0.00000000000E+00 0.  1.
<mgrwt>
<rscale>  0 0.16384251E+04</rscale>
<asrwt>0</asrwt>
<pdfrwt beam="1">  1        1 0.23738839E+00 0.16384251E+04</pdfrwt>
<pdfrwt beam="2">  1       -1 0.66912463E-01 0.16384251E+04</pdfrwt>
<totfact> 0.13218813E+01</totfact>
</mgrwt>
</event>
<event>
12    1  0.1494110E-007  0.1836806E+04  0.7818608E-02  0.8686968E-01
         -1   -1    0    0    0  501 -0.00000000000E+00  0.00000000000E+00  0.49923151642E+03  0.49923151642E+03  0.00000000000E+00 0.  1.
          1   -1    0    0  501    0  0.00000000000E+00 -0.00000000000E+00 -0.16895241293E+04  0.16895241293E+04  0.00000000000E+00 0. -1.
         23    2    1    2    0    0  0.51386114737E+03 -0.26576381229E+03 -0.91395093185E+03  0.10857117081E+04  0.93701251892E+02 0.  0.
        254    2    1    2    0    0 -0.51386114737E+03  0.26576381229E+03 -0.27634168102E+03  0.11030439376E+04  0.89758426953E+03 0.  0.
        -24    2    4    4    0    0 -0.67327910285E+03  0.91660029019E+01 -0.37571787069E+03  0.77522707097E+03  0.80151901167E+02 0.  0.
         24    2    4    4    0    0  0.15941795549E+03  0.25659780939E+03  0.99376189676E+02  0.32781686662E+03  0.79572298276E+02 0.  0.
         13    1    3    3    0    0  0.25221537666E+03 -0.15784838488E+03 -0.54231190457E+03  0.61857166980E+03  0.00000000000E+00 0. -1.
        -13    1    3    3    0    0  0.26164577071E+03 -0.10791542741E+03 -0.37163902728E+03  0.46714003832E+03  0.00000000000E+00 0.  1.
          4    1    6    6  502    0  0.99821728779E+01 -0.48978677173E+01  0.21084566936E+01  0.11317176024E+02  0.00000000000E+00 0. -1.
          1    1    5    5  503    0 -0.71420657122E+02  0.11974086333E+02 -0.16360215294E+02  0.74242478755E+02  0.00000000000E+00 0. -1.
         -2    1    5    5    0  503 -0.60185844573E+03 -0.28080834312E+01 -0.35935765540E+03  0.70098459222E+03  0.00000000000E+00 0.  1.
         -1    1    6    6    0  502  0.14943578261E+03  0.26149567711E+03  0.97267732983E+02  0.31649969060E+03  0.00000000000E+00 0.  1.
<mgrwt>
<rscale>  0 0.18368056E+04</rscale>
<asrwt>0</asrwt>
<pdfrwt beam="1">  1        1 0.25992679E+00 0.18368056E+04</pdfrwt>
<pdfrwt beam="2">  1       -1 0.76804847E-01 0.18368056E+04</pdfrwt>
<totfact> 0.77506303E+00</totfact>
</mgrwt>
</event>
<event>
12    1  0.1494110E-007  0.1607396E+04  0.7818608E-02  0.8816018E-01
         -2   -1    0    0    0  501 -0.00000000000E+00  0.00000000000E+00  0.11620921257E+04  0.11620921257E+04  0.00000000000E+00 0.  1.
          2   -1    0    0  501    0  0.00000000000E+00 -0.00000000000E+00 -0.55583380301E+03  0.55583380301E+03  0.00000000000E+00 0. -1.
         23    2    1    2    0    0 -0.25503674618E+03 -0.39679824618E+03 -0.92972981313E+02  0.48932609424E+03  0.91123329510E+02 0.  0.
        254    2    1    2    0    0  0.25503674618E+03  0.39679824618E+03  0.69923130405E+03  0.12285998345E+04  0.89333115176E+03 0.  0.
        -24    2    4    4    0    0  0.22090877282E+02  0.57173899405E+03  0.14234263797E+03  0.59505751933E+03  0.80365045607E+02 0.  0.
         24    2    4    4    0    0  0.23294586890E+03 -0.17494074787E+03  0.55688866609E+03  0.63354231518E+03  0.79892650490E+02 0.  0.
         13    1    3    3    0    0 -0.26073908942E+03 -0.37027786746E+03 -0.92366822526E+02  0.46219281884E+03  0.00000000000E+00 0. -1.
        -13    1    3    3    0    0  0.57023432389E+01 -0.26520378717E+02 -0.60615878666E+00  0.27133275405E+02  0.00000000000E+00 0.  1.
          2    1    6    6  502    0  0.69578850522E+02 -0.20452088645E+02  0.18834282421E+03  0.20182300117E+03  0.00000000000E+00 0. -1.
          3    1    5    5  503    0  0.11928472598E+02  0.56383855064E+03  0.13383348688E+03  0.57962712312E+03  0.00000000000E+00 0. -1.
         -4    1    5    5    0  503  0.10162404684E+02  0.79004434054E+01  0.85091510840E+01  0.15430396208E+02  0.00000000000E+00 0.  1.
         -1    1    6    6    0  502  0.16336701837E+03 -0.15448865922E+03  0.36854584187E+03  0.43171931400E+03  0.00000000000E+00 0.  1.
<mgrwt>
<rscale>  0 0.16073955E+04</rscale>
<asrwt>0</asrwt>
<pdfrwt beam="1">  1        2 0.85512893E-01 0.16073955E+04</pdfrwt>
<pdfrwt beam="2">  1       -2 0.17878340E+00 0.16073955E+04</pdfrwt>
<totfact> 0.96233746E+00</totfact>
</mgrwt>
</event>
<event>
12    1  0.1701763E-007  0.1293729E+04  0.7818608E-02  0.9034553E-01
         -1   -1    0    0    0  501 -0.00000000000E+00  0.00000000000E+00  0.31410718012E+03  0.31410718012E+03  0.00000000000E+00 0.  1.
          1   -1    0    0  501    0  0.00000000000E+00 -0.00000000000E+00 -0.13321360868E+04  0.13321360868E+04  0.00000000000E+00 0. -1.
         23    2    1    2    0    0 -0.15633119419E+03  0.35184818507E+02  0.91896546712E+02  0.20474003123E+03  0.88295477586E+02 0.  0.
        254    2    1    2    0    0  0.15633119419E+03 -0.35184818507E+02 -0.11099254534E+04  0.14415032357E+04  0.90571499527E+03 0.  0.
        -24    2    4    4    0    0  0.43401632177E+03  0.19594105502E+03 -0.88447714548E+03  0.10075885790E+04  0.78561180957E+02 0.  0.
         24    2    4    4    0    0 -0.27768512758E+03 -0.23112587352E+03 -0.22544830791E+03  0.43391465663E+03  0.83227340468E+02 0.  0.
         13    1    3    3    0    0  0.94796803433E+01 -0.64581023281E+01  0.98136999886E+01  0.15095699141E+02  0.00000000000E+00 0. -1.
        -13    1    3    3    0    0 -0.16581087453E+03  0.41642920836E+02  0.82082846724E+02  0.18964433209E+03  0.00000000000E+00 0.  1.
          4    1    6    6  502    0  0.73118815879E+00  0.41752969406E+01  0.15164553136E+01  0.45019304064E+01  0.00000000000E+00 0. -1.
          1    1    5    5  503    0  0.18244522690E+01  0.47747581720E+01 -0.36154908881E+02  0.36514440676E+02  0.00000000000E+00 0. -1.
         -2    1    5    5    0  503  0.43219186950E+03  0.19116629684E+03 -0.84832223660E+03  0.97107413837E+03  0.00000000000E+00 0.  1.
         -3    1    6    6    0  502 -0.27841631574E+03 -0.23530117046E+03 -0.22696476323E+03  0.42941272622E+03  0.00000000000E+00 0.  1.
<mgrwt>
<rscale>  0 0.12937287E+04</rscale>
<asrwt>0</asrwt>
<pdfrwt beam="1">  1        1 0.20494401E+00 0.12937287E+04</pdfrwt>
<pdfrwt beam="2">  1       -1 0.48324182E-01 0.12937287E+04</pdfrwt>
<totfact> 0.36113081E+01</totfact>
</mgrwt>
</event>
<event>
12    1  0.1494110E-007  0.2108089E+04  0.7818608E-02  0.8557689E-01
          2   -1    0    0  501    0  0.00000000000E+00  0.00000000000E+00  0.22971317844E+04  0.22971317844E+04  0.00000000000E+00 0.  1.
         -2   -1    0    0    0  501 -0.00000000000E+00 -0.00000000000E+00 -0.48365077254E+03  0.48365077254E+03  0.00000000000E+00 0. -1.
         23    2    1    2    0    0 -0.64401165802E+02 -0.14195919438E+03  0.18534386912E+04  0.18622548902E+04  0.91969402200E+02 0.  0.
        254    2    1    2    0    0  0.64401165802E+02  0.14195919438E+03 -0.39957679349E+02  0.91852766675E+03  0.90432103560E+03 0.  0.
        -24    2    4    4    0    0  0.27772764565E+03  0.44964302307E+03 -0.92571628827E+01  0.53477555076E+03  0.81164655269E+02 0.  0.
         24    2    4    4    0    0 -0.21332647985E+03 -0.30768382870E+03 -0.30700516466E+02  0.38375211600E+03  0.78394128438E+02 0.  0.
         13    1    3    3    0    0 -0.57769490616E+02 -0.33776936576E+02  0.49564167340E+03  0.50013884463E+03  0.00000000000E+00 0. -1.
        -13    1    3    3    0    0 -0.66316751855E+01 -0.10818225780E+03  0.13577970178E+04  0.13621160456E+04  0.00000000000E+00 0.  1.
          2    1    6    6  502    0 -0.17327646793E+03 -0.27195158593E+03 -0.50798255750E+02  0.32643967623E+03  0.00000000000E+00 0. -1.
          1    1    5    5  503    0  0.12672542346E+03  0.22205134304E+03 -0.44063593837E+02  0.25943733771E+03  0.00000000000E+00 0. -1.
         -2    1    5    5    0  503  0.15100222219E+03  0.22759168004E+03  0.34806430954E+02  0.27533821305E+03  0.00000000000E+00 0.  1.
         -1    1    6    6    0  502 -0.40050011919E+02 -0.35732242765E+02  0.20097739284E+02  0.57312439767E+02  0.00000000000E+00 0.  1.
<mgrwt>
<rscale>  0 0.21080888E+04</rscale>
<asrwt>0</asrwt>
<pdfrwt beam="1">  1        2 0.35340488E+00 0.21080888E+04</pdfrwt>
<pdfrwt beam="2">  1       -2 0.74407813E-01 0.21080888E+04</pdfrwt>
<totfact> 0.68107522E+00</totfact>
</mgrwt>
</event>
<event>
12    1  0.1494110E-007  0.1720322E+04  0.7818608E-02  0.8749858E-01
          2   -1    0    0  501    0  0.00000000000E+00  0.00000000000E+00  0.15480341075E+04  0.15480341075E+04  0.00000000000E+00 0. -1.
         -2   -1    0    0    0  501 -0.00000000000E+00 -0.00000000000E+00 -0.47794588425E+03  0.47794588425E+03  0.00000000000E+00 0.  1.
         23    2    1    2    0    0  0.25719646280E+03  0.18165427554E+03  0.90682473934E+03  0.96424617723E+03  0.91056499680E+02 0.  0.
        254    2    1    2    0    0 -0.25719646280E+03 -0.18165427554E+03  0.16326348387E+03  0.10617338145E+04  0.10007374438E+04 0.  0.
        -24    2    4    4    0    0 -0.32030021746E+03 -0.56071873168E+03  0.16024084858E+03  0.66920290951E+03  0.71816983998E+02 0.  0.
         24    2    4    4    0    0  0.63103754666E+02  0.37906445614E+03  0.30226352921E+01  0.39253090496E+03  0.79996432810E+02 0.  0.
         13    1    3    3    0    0  0.13722401311E+03  0.12499116987E+03  0.63814095825E+03  0.66458792114E+03  0.00000000000E+00 0. -1.
        -13    1    3    3    0    0  0.11997244969E+03  0.56663105663E+02  0.26868378109E+03  0.29965825610E+03  0.00000000000E+00 0.  1.
          2    1    6    6  502    0  0.24213403404E+02  0.66708444592E+02  0.29063879624E+02  0.76687773361E+02  0.00000000000E+00 0. -1.
          1    1    5    5  503    0 -0.55759032656E+02 -0.81345026163E+02  0.50469296718E+02  0.11078462400E+03  0.00000000000E+00 0. -1.
         -2    1    5    5    0  503 -0.26454118481E+03 -0.47937370551E+03  0.10977155186E+03  0.55841828551E+03  0.00000000000E+00 0.  1.
         -1    1    6    6    0  502  0.38890351262E+02  0.31235601155E+03 -0.26041244332E+02  0.31584313160E+03  0.00000000000E+00 0.  1.
<mgrwt>
<rscale>  0 0.17203215E+04</rscale>
<asrwt>0</asrwt>
<pdfrwt beam="1">  1        2 0.23815909E+00 0.17203215E+04</pdfrwt>
<pdfrwt beam="2">  1       -2 0.73530137E-01 0.17203215E+04</pdfrwt>
<totfact> 0.18902280E+01</totfact>
</mgrwt>
</event>
<event>
12    1  0.1494110E-007  0.1098549E+04  0.7818608E-02  0.9206607E-01
          3   -1    0    0  501    0  0.00000000000E+00  0.00000000000E+00  0.14643003033E+03  0.14643003033E+03  0.00000000000E+00 0. -1.
         -3   -1    0    0    0  501 -0.00000000000E+00 -0.00000000000E+00 -0.20603881643E+04  0.20603881643E+04  0.00000000000E+00 0.  1.
         23    2    1    2    0    0 -0.11764165172E+03 -0.64447957027E+02 -0.13032609266E+03  0.20822092965E+03  0.91531239110E+02 0.  0.
        254    2    1    2    0    0  0.11764165172E+03  0.64447957027E+02 -0.17836320413E+04  0.19985972650E+04  0.89165838267E+03 0.  0.
        -24    2    4    4    0    0 -0.24032998432E+03 -0.26664003728E+03 -0.47990320477E+03  0.60453513649E+03  0.79374016294E+02 0.  0.
         24    2    4    4    0    0  0.35797163604E+03  0.33108799431E+03 -0.13037288366E+04  0.13940621285E+04  0.77054439427E+02 0.  0.
         13    1    3    3    0    0 -0.26760128510E+02  0.14217452200E+02 -0.64298185980E+02  0.71080919699E+02  0.00000000000E+00 0.  1.
        -13    1    3    3    0    0 -0.90881523209E+02 -0.78665409226E+02 -0.66027906683E+02  0.13714000996E+03  0.00000000000E+00 0. -1.
          4    1    6    6  502    0  0.68783072297E+02  0.10213396290E+03 -0.37826188863E+03  0.39779959000E+03  0.00000000000E+00 0. -1.
          1    1    5    5  503    0 -0.40678323642E+02 -0.42583549472E+02 -0.13538146519E+03  0.14763544905E+03  0.00000000000E+00 0. -1.
         -2    1    5    5    0  503 -0.19965166068E+03 -0.22405648781E+03 -0.34452173958E+03  0.45689968745E+03  0.00000000000E+00 0.  1.
         -3    1    6    6    0  502  0.28918856375E+03  0.22895403141E+03 -0.92546694792E+03  0.99626253849E+03  0.00000000000E+00 0.  1.
<mgrwt>
<rscale>  0 0.10985494E+04</rscale>
<asrwt>0</asrwt>
<pdfrwt beam="1">  1        3 0.22527696E-01 0.10985494E+04</pdfrwt>
<pdfrwt beam="2">  1       -3 0.31698281E+00 0.10985494E+04</pdfrwt>
<totfact> 0.14915250E+00</totfact>
</mgrwt>
</event>
<event>
12    1  0.1494110E-007  0.1728871E+04  0.7818608E-02  0.8745068E-01
         -2   -1    0    0    0  501 -0.00000000000E+00  0.00000000000E+00  0.16242871832E+04  0.16242871832E+04  0.00000000000E+00 0.  1.
          2   -1    0    0  501    0  0.00000000000E+00 -0.00000000000E+00 -0.46004697759E+03  0.46004697759E+03  0.00000000000E+00 0. -1.
         23    2    1    2    0    0 -0.10461627416E+03  0.86730130404E+02 -0.30989117036E+03  0.34945957640E+03  0.87308520400E+02 0.  0.
        254    2    1    2    0    0  0.10461627416E+03 -0.86730130404E+02  0.14741313760E+04  0.17348745844E+04  0.90457715515E+03 0.  0.
        -24    2    4    4    0    0 -0.23227239577E+03 -0.23005598004E+03  0.16903079282E+03  0.37719875641E+03  0.82651516210E+02 0.  0.
         24    2    4    4    0    0  0.33688866993E+03  0.14332584963E+03  0.13051005832E+04  0.13576758280E+04  0.77200043038E+02 0.  0.
         11    1    3    3    0    0 -0.57395032100E+02  0.96947058968E+02 -0.20330485766E+03  0.23243447915E+03  0.00000000000E+00 0.  1.
        -11    1    3    3    0    0 -0.47221242059E+02 -0.10216928564E+02 -0.10658631270E+03  0.11702509725E+03  0.00000000000E+00 0. -1.
          4    1    6    6  502    0  0.25416849000E+03  0.12851385294E+03  0.90154259465E+03  0.94546098897E+03  0.00000000000E+00 0. -1.
          1    1    5    5  503    0 -0.23414892344E+03 -0.22146865926E+03  0.14849114627E+03  0.35485730358E+03  0.00000000000E+00 0. -1.
         -2    1    5    5    0  503  0.18765276743E+01 -0.85873207815E+01  0.20539646555E+02  0.22341452838E+02  0.00000000000E+00 0.  1.
         -3    1    6    6    0  502  0.82720179928E+02  0.14811996694E+02  0.40355798853E+03  0.41221483903E+03  0.00000000000E+00 0.  1.
<mgrwt>
<rscale>  0 0.17288706E+04</rscale>
<asrwt>0</asrwt>
<pdfrwt beam="1">  1        2 0.70776459E-01 0.17288706E+04</pdfrwt>
<pdfrwt beam="2">  1       -2 0.24989033E+00 0.17288706E+04</pdfrwt>
<totfact> 0.41434893E+00</totfact>
</mgrwt>
</event>
<event>
12    1  0.1494110E-007  0.1547232E+04  0.7818608E-02  0.8853638E-01
          1   -1    0    0  501    0  0.00000000000E+00  0.00000000000E+00  0.16416579223E+04  0.16416579223E+04  0.00000000000E+00 0. -1.
         -1   -1    0    0    0  501 -0.00000000000E+00 -0.00000000000E+00 -0.36455926400E+03  0.36455926400E+03  0.00000000000E+00 0.  1.
         23    2    1    2    0    0  0.13931145735E+03  0.45412816142E+03  0.64433885593E+03  0.80565004869E+03  0.90881079185E+02 0.  0.
        254    2    1    2    0    0 -0.13931145735E+03 -0.45412816142E+03  0.63275980239E+03  0.12005671376E+04  0.90295980825E+03 0.  0.
        -24    2    4    4    0    0  0.95523752668E+02 -0.66836775616E+03  0.33648337028E+03  0.75862373876E+03  0.80303634615E+02 0.  0.
         24    2    4    4    0    0 -0.23483521001E+03  0.21423959474E+03  0.29627643211E+03  0.44194339888E+03  0.80548518152E+02 0.  0.
         13    1    3    3    0    0  0.79029842553E+02  0.16300183075E+03  0.30270045000E+03  0.35276461738E+03  0.00000000000E+00 0. -1.
        -13    1    3    3    0    0  0.60281614793E+02  0.29112633067E+03  0.34163840592E+03  0.45288543131E+03  0.00000000000E+00 0.  1.
          2    1    6    6  502    0 -0.50985307461E+02  0.61733093680E+02  0.12332004885E+03  0.14703166625E+03  0.00000000000E+00 0. -1.
          1    1    5    5  503    0  0.29762251629E+02 -0.25579225951E+03  0.85969345539E+02  0.27148885800E+03  0.00000000000E+00 0. -1.
         -2    1    5    5    0  503  0.65761501039E+02 -0.41257549665E+03  0.25051402474E+03  0.48713488075E+03  0.00000000000E+00 0.  1.
         -1    1    6    6    0  502 -0.18384990255E+03  0.15250650106E+03  0.17295638326E+03  0.29491173263E+03  0.00000000000E+00 0.  1.
<mgrwt>
<rscale>  0 0.15472319E+04</rscale>
<asrwt>0</asrwt>
<pdfrwt beam="1">  1        1 0.25256275E+00 0.15472319E+04</pdfrwt>
<pdfrwt beam="2">  1       -1 0.56086041E-01 0.15472319E+04</pdfrwt>
<totfact> 0.16192994E+01</totfact>
</mgrwt>
</event>
<event>
12    1  0.1494110E-007  0.2155760E+04  0.7818608E-02  0.8537071E-01
         -2   -1    0    0    0  501 -0.00000000000E+00  0.00000000000E+00  0.17762420419E+04  0.17762420419E+04  0.00000000000E+00 0.  1.
          2   -1    0    0  501    0  0.00000000000E+00 -0.00000000000E+00 -0.65409193586E+03  0.65409193586E+03  0.00000000000E+00 0. -1.
         23    2    1    2    0    0 -0.53772274847E+01 -0.85435636950E+03  0.68931442767E+03  0.11016218552E+04  0.91992450237E+02 0.  0.
        254    2    1    2    0    0  0.53772274847E+01  0.85435636950E+03  0.43283567836E+03  0.13287121226E+04  0.92096441819E+03 0.  0.
        -24    2    4    4    0    0  0.48802351863E+02 -0.18750921785E+03  0.81782707423E+02  0.22548871135E+03  0.81334933369E+02 0.  0.
         24    2    4    4    0    0 -0.43425124378E+02  0.10418655873E+04  0.35105297094E+03  0.11032234112E+04  0.80585750378E+02 0.  0.
         11    1    3    3    0    0 -0.24971134360E+01 -0.17014360969E+03  0.92443634159E+02  0.19365151430E+03  0.00000000000E+00 0. -1.
        -11    1    3    3    0    0 -0.28801140487E+01 -0.68421275980E+03  0.59687079351E+03  0.90797034086E+03  0.00000000000E+00 0.  1.
          4    1    6    6  502    0 -0.10238534844E+02  0.11589111977E+03  0.13675549513E+02  0.11714350128E+03  0.00000000000E+00 0. -1.
          3    1    5    5  503    0  0.66840227872E+02 -0.10966310126E+03  0.35928526710E+02  0.13335843007E+03  0.00000000000E+00 0. -1.
         -4    1    5    5    0  503 -0.18037876009E+02 -0.77846116596E+02  0.45854180713E+02  0.92130281281E+02  0.00000000000E+00 0.  1.
         -3    1    6    6    0  502 -0.33186589535E+02  0.92597446758E+03  0.33737742142E+03  0.98607990996E+03  0.00000000000E+00 0.  1.
<mgrwt>
<rscale>  0 0.21557603E+04</rscale>
<asrwt>0</asrwt>
<pdfrwt beam="1">  1        2 0.10062953E+00 0.21557603E+04</pdfrwt>
<pdfrwt beam="2">  1       -2 0.27326800E+00 0.21557603E+04</pdfrwt>
<totfact> 0.18947680E+00</totfact>
</mgrwt>
</event>
<event>
12    1  0.1494110E-007  0.2419600E+04  0.7818608E-02  0.8432202E-01
         -1   -1    0    0    0  501 -0.00000000000E+00  0.00000000000E+00  0.17598715536E+04  0.17598715536E+04  0.00000000000E+00 0.  1.
          1   -1    0    0  501    0  0.00000000000E+00 -0.00000000000E+00 -0.83166045592E+03  0.83166045592E+03  0.00000000000E+00 0. -1.
         23    2    1    2    0    0  0.37120691122E+03  0.52668005189E+03 -0.46962172187E+03  0.80334315959E+03  0.98128601342E+02 0.  0.
        254    2    1    2    0    0 -0.37120691122E+03 -0.52668005189E+03  0.13978328195E+04  0.17881888499E+04  0.91021773417E+03 0.  0.
        -24    2    4    4    0    0  0.13209896842E+03  0.18447689470E+03  0.28857799341E+03  0.37544606038E+03  0.78744040028E+02 0.  0.
         24    2    4    4    0    0 -0.50330587964E+03 -0.71115694659E+03  0.11092548261E+04  0.14127427895E+04  0.79592141122E+02 0.  0.
         11    1    3    3    0    0  0.24222855622E+03  0.40060983179E+03 -0.37403754002E+03  0.59922198902E+03  0.00000000000E+00 0. -1.
        -11    1    3    3    0    0  0.12897835500E+03  0.12607022010E+03 -0.95584181849E+02  0.20412117057E+03  0.00000000000E+00 0.  1.
          2    1    6    6  502    0 -0.11777210830E+03 -0.21176960441E+03  0.26975847703E+03  0.36261035669E+03  0.00000000000E+00 0. -1.
          1    1    5    5  503    0  0.38106429799E+02  0.92062076827E+02  0.17533267266E+03  0.20166574346E+03  0.00000000000E+00 0. -1.
         -2    1    5    5    0  503  0.93992538622E+02  0.92414817872E+02  0.11324532075E+03  0.17378031693E+03  0.00000000000E+00 0.  1.
         -1    1    6    6    0  502 -0.38553377134E+03 -0.49938734218E+03  0.83949634909E+03  0.10501324328E+04  0.00000000000E+00 0.  1.
<mgrwt>
<rscale>  0 0.24195996E+04</rscale>
<asrwt>0</asrwt>
<pdfrwt beam="1">  1        1 0.12794776E+00 0.24195996E+04</pdfrwt>
<pdfrwt beam="2">  1       -1 0.27074947E+00 0.24195996E+04</pdfrwt>
<totfact> 0.94890461E-01</totfact>
</mgrwt>
</event>
<event>
12    1  0.1494110E-007  0.1375756E+04  0.7818608E-02  0.8971557E-01
          2   -1    0    0  501    0  0.00000000000E+00  0.00000000000E+00  0.17756923624E+04  0.17756923624E+04  0.00000000000E+00 0. -1.
         -2   -1    0    0    0  501 -0.00000000000E+00 -0.00000000000E+00 -0.26647416426E+03  0.26647416426E+03  0.00000000000E+00 0.  1.
         23    2    1    2    0    0 -0.65946650860E+02  0.19158728702E+03 -0.55009764791E+02  0.22884856102E+03  0.91054600933E+02 0.  0.
        254    2    1    2    0    0  0.65946650860E+02 -0.19158728702E+03  0.15642279630E+04  0.18133179657E+04  0.89457155958E+03 0.  0.
        -24    2    4    4    0    0  0.46589250371E+03 -0.61775296865E+02  0.67916769234E+03  0.83016166891E+03  0.83830960245E+02 0.  0.
         24    2    4    4    0    0 -0.39994585285E+03 -0.12981199016E+03  0.88506027063E+03  0.98315629677E+03  0.80354111402E+02 0.  0.
         13    1    3    3    0    0 -0.67891499452E+02  0.20118975824E+03 -0.52259688954E+02  0.21867247108E+03  0.00000000000E+00 0. -1.
        -13    1    3    3    0    0  0.19448485919E+01 -0.96024712143E+01 -0.27500758374E+01  0.10176089945E+02  0.00000000000E+00 0.  1.
          2    1    6    6  502    0 -0.38819765723E+03 -0.13986850339E+03  0.85238442955E+03  0.94700572071E+03  0.00000000000E+00 0. -1.
          3    1    5    5  503    0  0.21540465646E+03 -0.20481884012E+02  0.38462987209E+03  0.44131486730E+03  0.00000000000E+00 0. -1.
         -4    1    5    5    0  503  0.25048784725E+03 -0.41293412853E+02  0.29453782025E+03  0.38884680161E+03  0.00000000000E+00 0.  1.
         -1    1    6    6    0  502 -0.11748195616E+02  0.10056513232E+02  0.32675841086E+02  0.36150576057E+02  0.00000000000E+00 0.  1.
<mgrwt>
<rscale>  0 0.13757560E+04</rscale>
<asrwt>0</asrwt>
<pdfrwt beam="1">  1        2 0.27318343E+00 0.13757560E+04</pdfrwt>
<pdfrwt beam="2">  1       -2 0.40996026E-01 0.13757560E+04</pdfrwt>
<totfact> 0.48906100E+01</totfact>
</mgrwt>
</event>
<event>
12    1  0.1494110E-007  0.1128263E+04  0.7818608E-02  0.9178075E-01
          2   -1    0    0  501    0  0.00000000000E+00  0.00000000000E+00  0.30101184747E+03  0.30101184747E+03  0.00000000000E+00 0.  1.
         -2   -1    0    0    0  501 -0.00000000000E+00 -0.00000000000E+00 -0.10572476668E+04  0.10572476668E+04  0.00000000000E+00 0. -1.
         23    2    1    2    0    0 -0.15731724646E+03  0.72112418735E+02 -0.58787567026E+02  0.21303009278E+03  0.10943914028E+03 0.  0.
        254    2    1    2    0    0  0.15731724646E+03 -0.72112418735E+02 -0.69744825229E+03  0.11452294215E+04  0.89172161923E+03 0.  0.
        -24    2    4    4    0    0  0.28705202275E+03 -0.37215026863E+03 -0.14306279065E+03  0.49778982147E+03  0.80206346916E+02 0.  0.
         24    2    4    4    0    0 -0.12973477629E+03  0.30003784990E+03 -0.55438546164E+03  0.64743960000E+03  0.70576001688E+02 0.  0.
         11    1    3    3    0    0 -0.32509505290E+02 -0.18009460044E+02 -0.45156133579E+02  0.58483202589E+02  0.00000000000E+00 0. -1.
        -11    1    3    3    0    0 -0.12480774117E+03  0.90121878779E+02 -0.13631433447E+02  0.15454689019E+03  0.00000000000E+00 0.  1.
          2    1    6    6  502    0 -0.12731423306E+03  0.26618327296E+03 -0.45389007563E+03  0.54136738865E+03  0.00000000000E+00 0. -1.
          3    1    5    5  503    0  0.26322271594E+03 -0.32238879388E+03 -0.14951907381E+03  0.44224052962E+03  0.00000000000E+00 0. -1.
         -4    1    5    5    0  503  0.23829306807E+02 -0.49761474759E+02  0.64562831661E+01  0.55549291853E+02  0.00000000000E+00 0.  1.
         -1    1    6    6    0  502 -0.24205432290E+01  0.33854576935E+02 -0.10049538602E+03  0.10607221134E+03  0.00000000000E+00 0.  1.
<mgrwt>
<rscale>  0 0.11282625E+04</rscale>
<asrwt>0</asrwt>
<pdfrwt beam="1">  1        2 0.46309515E-01 0.11282625E+04</pdfrwt>
<pdfrwt beam="2">  1       -2 0.16265349E+00 0.11282625E+04</pdfrwt>
<totfact> 0.26078141E+01</totfact>
</mgrwt>
</event>
<event>
12    1  0.1494110E-007  0.2014385E+04  0.7818608E-02  0.8599924E-01
          1   -1    0    0  501    0  0.00000000000E+00  0.00000000000E+00  0.24035956143E+04  0.24035956143E+04  0.00000000000E+00 0. -1.
         -1   -1    0    0    0  501 -0.00000000000E+00 -0.00000000000E+00 -0.42204987005E+03  0.42204987005E+03  0.00000000000E+00 0.  1.
         23    2    1    2    0    0  0.77802763803E+03 -0.20813776627E+03  0.81983994967E+03  0.11530107184E+04  0.92993754615E+02 0.  0.
        254    2    1    2    0    0 -0.77802763803E+03  0.20813776627E+03  0.11617057946E+04  0.16726347660E+04  0.89414672834E+03 0.  0.
        -24    2    4    4    0    0 -0.68377741293E+03  0.34493656370E+02  0.12617819995E+04  0.14378014901E+04  0.80236823310E+02 0.  0.
         24    2    4    4    0    0 -0.94250225106E+02  0.17364410990E+03 -0.10007620492E+03  0.23483327588E+03  0.78077133844E+02 0.  0.
         13    1    3    3    0    0  0.10924677268E+03 -0.63572095031E+02  0.13491051715E+03  0.18487053915E+03  0.00000000000E+00 0. -1.
        -13    1    3    3    0    0  0.66878086535E+03 -0.14456567124E+03  0.68492943252E+03  0.96814017926E+03  0.00000000000E+00 0.  1.
          2    1    6    6  502    0  0.13592067704E+02  0.13985163476E+02 -0.12741317477E+02  0.23295284350E+02  0.00000000000E+00 0. -1.
          1    1    5    5  503    0 -0.13040171331E+03  0.37720782975E+01  0.31139919845E+03  0.33762152805E+03  0.00000000000E+00 0. -1.
         -2    1    5    5    0  503 -0.55337569962E+03  0.30721578072E+02  0.95038280108E+03  0.11001799620E+04  0.00000000000E+00 0.  1.
         -1    1    6    6    0  502 -0.10784229281E+03  0.15965894643E+03 -0.87334887447E+02  0.21153799152E+03  0.00000000000E+00 0.  1.
<mgrwt>
<rscale>  0 0.20143855E+04</rscale>
<asrwt>0</asrwt>
<pdfrwt beam="1">  1        1 0.36978393E+00 0.20143855E+04</pdfrwt>
<pdfrwt beam="2">  1       -1 0.64930751E-01 0.20143855E+04</pdfrwt>
<totfact> 0.35206441E+00</totfact>
</mgrwt>
</event>
<event>
12    1  0.1676953E-007  0.3323465E+04  0.7818608E-02  0.8156950E-01
          3   -1    0    0  501    0  0.00000000000E+00  0.00000000000E+00  0.21027405189E+04  0.21027405189E+04  0.00000000000E+00 0. -1.
         -3   -1    0    0    0  501 -0.00000000000E+00 -0.00000000000E+00 -0.13132173611E+04  0.13132173611E+04  0.00000000000E+00 0.  1.
         23    2    1    2    0    0 -0.13212650163E+04  0.46446898564E+03  0.10325914823E+04  0.17424266311E+04  0.91283697848E+02 0.  0.
        254    2    1    2    0    0  0.13212650163E+04 -0.46446898564E+03 -0.24306832451E+03  0.16735312489E+04  0.88326210642E+03 0.  0.
        -24    2    4    4    0    0  0.10099962939E+04 -0.29148949318E+03  0.22696197799E+03  0.10783486065E+04  0.79153896917E+02 0.  0.
         24    2    4    4    0    0  0.31126872242E+03 -0.17297949246E+03 -0.47003030250E+03  0.59518264236E+03  0.80645955464E+02 0.  0.
         11    1    3    3    0    0 -0.13007027081E+04  0.44717314189E+03  0.10219515303E+04  0.17135274389E+04  0.00000000000E+00 0. -1.
        -11    1    3    3    0    0 -0.20562308215E+02  0.17295843749E+02  0.10639952046E+02  0.28899192197E+02  0.00000000000E+00 0.  1.
          4    1    6    6  502    0  0.19916426517E+03 -0.12083260349E+03 -0.36474774313E+03  0.43279075626E+03  0.00000000000E+00 0. -1.
          1    1    5    5  503    0  0.69512284082E+03 -0.19742617118E+03  0.11835532966E+03  0.73224370325E+03  0.00000000000E+00 0. -1.
         -2    1    5    5    0  503  0.31487345307E+03 -0.94063322007E+02  0.10860664834E+03  0.34610490326E+03  0.00000000000E+00 0.  1.
         -3    1    6    6    0  502  0.11210445725E+03 -0.52146888967E+02 -0.10528255937E+03  0.16239188610E+03  0.00000000000E+00 0.  1.
<mgrwt>
<rscale>  0 0.33234653E+04</rscale>
<asrwt>0</asrwt>
<pdfrwt beam="1">  1        3 0.32349854E+00 0.33234653E+04</pdfrwt>
<pdfrwt beam="2">  1       -3 0.20203344E+00 0.33234653E+04</pdfrwt>
<totfact> 0.88128391E-03</totfact>
</mgrwt>
</event>
<event>
12    1  0.1494110E-007  0.2641579E+04  0.7818608E-02  0.8354213E-01
          2   -1    0    0  501    0  0.00000000000E+00  0.00000000000E+00  0.32992693399E+04  0.32992693399E+04  0.00000000000E+00 0.  1.
         -2   -1    0    0    0  501 -0.00000000000E+00 -0.00000000000E+00 -0.52874874061E+03  0.52874874061E+03  0.00000000000E+00 0. -1.
         23    2    1    2    0    0 -0.34286180516E+03  0.10900844882E+04  0.15515738598E+04  0.19310426805E+04  0.12532351137E+03 0.  0.
        254    2    1    2    0    0  0.34286180516E+03 -0.10900844882E+04  0.12189467395E+04  0.18969754000E+04  0.89824612757E+03 0.  0.
        -24    2    4    4    0    0  0.48969463524E+03 -0.10474764994E+04  0.70886476063E+03  0.13584673366E+04  0.77048057511E+02 0.  0.
         24    2    4    4    0    0 -0.14683283007E+03 -0.42607988865E+02  0.51008197886E+03  0.53850806346E+03  0.80199679261E+02 0.  0.
         13    1    3    3    0    0 -0.58593138769E+02  0.12665034958E+03  0.25726056045E+03  0.29267125401E+03  0.00000000000E+00 0. -1.
        -13    1    3    3    0    0 -0.28426866639E+03  0.96343413864E+03  0.12943132994E+04  0.16383714265E+04  0.00000000000E+00 0.  1.
          2    1    6    6  502    0 -0.54347555785E+02 -0.38937396137E+01  0.30954795324E+03  0.31430678228E+03  0.00000000000E+00 0. -1.
          1    1    5    5  503    0  0.12834788679E+02 -0.92063401029E+01  0.14723278237E+02  0.21593133644E+02  0.00000000000E+00 0. -1.
         -2    1    5    5    0  503  0.47685984656E+03 -0.10382701593E+04  0.69414148239E+03  0.13368742029E+04  0.00000000000E+00 0.  1.
         -1    1    6    6    0  502 -0.92485274288E+02 -0.38714249251E+02  0.20053402562E+03  0.22420128119E+03  0.00000000000E+00 0.  1.
<mgrwt>
<rscale>  0 0.26415787E+04</rscale>
<asrwt>0</asrwt>
<pdfrwt beam="1">  1        2 0.50757989E+00 0.26415787E+04</pdfrwt>
<pdfrwt beam="2">  1       -2 0.81345962E-01 0.26415787E+04</pdfrwt>
<totfact> 0.13087946E+00</totfact>
</mgrwt>
</event>
<event>
12    1  0.1494110E-007  0.1334326E+04  0.7818608E-02  0.9002779E-01
          2   -1    0    0  501    0  0.00000000000E+00  0.00000000000E+00  0.77047001866E+03  0.77047001866E+03  0.00000000000E+00 0. -1.
         -2   -1    0    0    0  501 -0.00000000000E+00 -0.00000000000E+00 -0.57770748217E+03  0.57770748217E+03  0.00000000000E+00 0.  1.
         23    2    1    2    0    0 -0.22079399418E+03 -0.16390764901E+03  0.28564042028E+03  0.40655828106E+03  0.89908180574E+02 0.  0.
        254    2    1    2    0    0  0.22079399418E+03  0.16390764901E+03 -0.92877883780E+02  0.94161921977E+03  0.89577047757E+03 0.  0.
        -24    2    4    4    0    0  0.92645932692E+02  0.42816565874E+03  0.22721832902E+03  0.49985587884E+03  0.79489813173E+02 0.  0.
         24    2    4    4    0    0  0.12814806149E+03 -0.26425800974E+03 -0.32009621280E+03  0.44176334093E+03  0.80243645073E+02 0.  0.
         11    1    3    3    0    0 -0.98004886147E+01  0.48518274048E+01  0.39782637708E+02  0.41258309093E+02  0.00000000000E+00 0.  1.
        -11    1    3    3    0    0 -0.21099350556E+03 -0.16875947641E+03  0.24585778257E+03  0.36529997197E+03  0.00000000000E+00 0. -1.
          4    1    6    6  502    0 -0.43652698577E+01 -0.13644438708E+02 -0.19809944406E+00  0.14327090841E+02  0.00000000000E+00 0. -1.
          3    1    5    5  503    0  0.22036133284E+01  0.12235045792E+01  0.13840919030E+02  0.14068543449E+02  0.00000000000E+00 0. -1.
         -4    1    5    5    0  503  0.90442319364E+02  0.42694215417E+03  0.21337740998E+03  0.48578733539E+03  0.00000000000E+00 0.  1.
         -3    1    6    6    0  502  0.13251333134E+03 -0.25061357103E+03 -0.31989811335E+03  0.42743625009E+03  0.00000000000E+00 0.  1.
<mgrwt>
<rscale>  0 0.13343257E+04</rscale>
<asrwt>0</asrwt>
<pdfrwt beam="1">  1        2 0.11853385E+00 0.13343257E+04</pdfrwt>
<pdfrwt beam="2">  1       -2 0.88878074E-01 0.13343257E+04</pdfrwt>
<totfact> 0.38525401E+01</totfact>
</mgrwt>
</event>
<event>
12    1  0.1494110E-007  0.2435817E+04  0.7818608E-02  0.8426215E-01
         -2   -1    0    0    0  501 -0.00000000000E+00  0.00000000000E+00  0.68896808515E+03  0.68896808515E+03  0.00000000000E+00 0. -1.
          2   -1    0    0  501    0  0.00000000000E+00 -0.00000000000E+00 -0.21529321625E+04  0.21529321625E+04  0.00000000000E+00 0.  1.
         23    2    1    2    0    0 -0.66636079529E+03  0.59865541972E+03 -0.12678766148E+04  0.15551152552E+04  0.91909332803E+02 0.  0.
        254    2    1    2    0    0  0.66636079529E+03 -0.59865541972E+03 -0.19608746251E+03  0.12867849924E+04  0.90274044040E+03 0.  0.
        -24    2    4    4    0    0  0.51609956415E+02 -0.21609363953E+03  0.31727739381E+03  0.39555561231E+03  0.80244932321E+02 0.  0.
         24    2    4    4    0    0  0.61475083888E+03 -0.38256178019E+03 -0.51336485631E+03  0.89122938012E+03  0.80462554847E+02 0.  0.
         13    1    3    3    0    0 -0.64786917354E+03  0.57388980836E+03 -0.12465882639E+04  0.15175856740E+04  0.00000000000E+00 0.  1.
        -13    1    3    3    0    0 -0.18491621755E+02  0.24765611366E+02 -0.21288350916E+02  0.37529581215E+02  0.00000000000E+00 0. -1.
          4    1    6    6  502    0  0.28114258513E+03 -0.13040336415E+03 -0.20349624061E+03  0.37075181793E+03  0.00000000000E+00 0. -1.
          3    1    5    5  503    0  0.94489259600E+01 -0.18130119874E+03  0.24524493169E+03  0.30513027281E+03  0.00000000000E+00 0. -1.
         -4    1    5    5    0  503  0.42161030455E+02 -0.34792440796E+02  0.72032462112E+02  0.90425339499E+02  0.00000000000E+00 0.  1.
         -3    1    6    6    0  502  0.33360825375E+03 -0.25215841604E+03 -0.30986861570E+03  0.52047756219E+03  0.00000000000E+00 0.  1.
<mgrwt>
<rscale>  0 0.24358174E+04</rscale>
<asrwt>0</asrwt>
<pdfrwt beam="1">  1        2 0.33122033E+00 0.24358174E+04</pdfrwt>
<pdfrwt beam="2">  1       -2 0.10599509E+00 0.24358174E+04</pdfrwt>
<totfact> 0.35355577E+00</totfact>
</mgrwt>
</event>
<event>
12    1  0.1494110E-007  0.1773473E+04  0.7818608E-02  0.8720535E-01
         -2   -1    0    0    0  501 -0.00000000000E+00  0.00000000000E+00  0.21049037551E+03  0.21049037551E+03  0.00000000000E+00 0.  1.
          2   -1    0    0  501    0  0.00000000000E+00 -0.00000000000E+00 -0.37355706655E+04  0.37355706655E+04  0.00000000000E+00 0. -1.
         23    2    1    2    0    0 -0.21956511604E+02 -0.39510634195E+03 -0.24425253036E+04  0.24761172284E+04  0.92927713425E+02 0.  0.
        254    2    1    2    0    0  0.21956511604E+02  0.39510634195E+03 -0.10825549864E+04  0.14699438127E+04  0.91226005284E+03 0.  0.
        -24    2    4    4    0    0  0.38981696770E+03  0.20050504961E+03 -0.90797156038E+03  0.10113737895E+04  0.79404309860E+02 0.  0.
         24    2    4    4    0    0 -0.36786045610E+03  0.19460129234E+03 -0.17458342602E+03  0.45857002317E+03  0.81339506825E+02 0.  0.
         13    1    3    3    0    0  0.12592513726E+02 -0.20276305597E+03 -0.14869841955E+04  0.15007975965E+04  0.00000000000E+00 0. -1.
        -13    1    3    3    0    0 -0.34549025329E+02 -0.19234328598E+03 -0.95554110816E+03  0.97531963181E+03  0.00000000000E+00 0.  1.
          2    1    6    6  502    0 -0.32220835035E+03  0.17420132987E+03 -0.12214721888E+03  0.38611431914E+03  0.00000000000E+00 0. -1.
          1    1    5    5  503    0  0.33081758944E+03  0.13523410508E+03 -0.71918161754E+03  0.80308825148E+03  0.00000000000E+00 0. -1.
         -2    1    5    5    0  503  0.58999378264E+02  0.65270944531E+02 -0.18878994284E+03  0.20828553803E+03  0.00000000000E+00 0.  1.
         -1    1    6    6    0  502 -0.45652105747E+02  0.20399962468E+02 -0.52436207137E+02  0.72455704032E+02  0.00000000000E+00 0.  1.
<mgrwt>
<rscale>  0 0.17734731E+04</rscale>
<asrwt>0</asrwt>
<pdfrwt beam="1">  1        2 0.57470320E+00 0.17734731E+04</pdfrwt>
<pdfrwt beam="2">  1       -2 0.32383134E-01 0.17734731E+04</pdfrwt>
<totfact> 0.46687805E+00</totfact>
</mgrwt>
</event>
<event>
12    1  0.1494110E-007  0.1232708E+04  0.7818608E-02  0.9084699E-01
         -2   -1    0    0    0  501 -0.00000000000E+00  0.00000000000E+00  0.19424066824E+03  0.19424066824E+03  0.00000000000E+00 0.  1.
          2   -1    0    0  501    0  0.00000000000E+00 -0.00000000000E+00 -0.19557820077E+04  0.19557820077E+04  0.00000000000E+00 0. -1.
         23    2    1    2    0    0  0.63244655930E+02 -0.13619866262E+03 -0.13957049551E+02  0.17739341803E+03  0.93400553127E+02 0.  0.
        254    2    1    2    0    0 -0.63244655930E+02  0.13619866262E+03 -0.17475842899E+04  0.19726292579E+04  0.90258815451E+03 0.  0.
        -24    2    4    4    0    0 -0.42984623131E+03  0.24079595005E+03 -0.12096868335E+04  0.13086312782E+04  0.80144339251E+02 0.  0.
         24    2    4    4    0    0  0.36660157538E+03 -0.10459728743E+03 -0.53789745645E+03  0.66399797972E+03  0.78881783718E+02 0.  0.
         11    1    3    3    0    0  0.36091099022E+02 -0.11789497114E+03 -0.45981401643E+02  0.13159058076E+03  0.00000000000E+00 0. -1.
        -11    1    3    3    0    0  0.27153556908E+02 -0.18303691478E+02  0.32024352091E+02  0.45802837263E+02  0.00000000000E+00 0.  1.
          4    1    6    6  502    0  0.31890891083E+03 -0.80181776923E+02 -0.41175313055E+03  0.52694653550E+03  0.00000000000E+00 0. -1.
          1    1    5    5  503    0 -0.26427210446E+03  0.14622907518E+03 -0.84034434076E+03  0.89297329114E+03  0.00000000000E+00 0. -1.
         -2    1    5    5    0  503 -0.16557412685E+03  0.94566874869E+02 -0.36934249271E+03  0.41565798708E+03  0.00000000000E+00 0.  1.
         -3    1    6    6    0  502  0.47692664555E+02 -0.24415510512E+02 -0.12614432590E+03  0.13705144422E+03  0.00000000000E+00 0.  1.
<mgrwt>
<rscale>  0 0.12327082E+04</rscale>
<asrwt>0</asrwt>
<pdfrwt beam="1">  1        2 0.30088955E+00 0.12327082E+04</pdfrwt>
<pdfrwt beam="2">  1       -2 0.29883178E-01 0.12327082E+04</pdfrwt>
<totfact> 0.71977878E+01</totfact>
</mgrwt>
</event>
<event>
12    1  0.1494110E-007  0.1854830E+04  0.7818608E-02  0.8677673E-01
          2   -1    0    0  501    0  0.00000000000E+00  0.00000000000E+00  0.34615314303E+04  0.34615314303E+04  0.00000000000E+00 0. -1.
         -2   -1    0    0    0  501 -0.00000000000E+00 -0.00000000000E+00 -0.24847332109E+03  0.24847332109E+03  0.00000000000E+00 0.  1.
         23    2    1    2    0    0 -0.20387849802E+03  0.41520178513E+02  0.24763161991E+04  0.24867552929E+04  0.92301687618E+02 0.  0.
        254    2    1    2    0    0  0.20387849802E+03 -0.41520178513E+02  0.73674191011E+03  0.12232494585E+04  0.95407558844E+03 0.  0.
        -24    2    4    4    0    0  0.10506052006E+03 -0.67452331308E+02  0.95679559610E+03  0.96829256103E+03  0.80902046643E+02 0.  0.
         24    2    4    4    0    0  0.98817977964E+02  0.25932152795E+02 -0.22005368600E+03  0.25495689748E+03  0.78370437882E+02 0.  0.
         11    1    3    3    0    0 -0.49141276315E+02  0.11168482703E+02  0.26013597255E+03  0.26497230847E+03  0.00000000000E+00 0.  1.
        -11    1    3    3    0    0 -0.15473722171E+03  0.30351695810E+02  0.22161802266E+04  0.22217829844E+04  0.00000000000E+00 0. -1.
          2    1    6    6  502    0  0.28251564032E+02  0.34082121254E+02 -0.34046725068E+02  0.55847303850E+02  0.00000000000E+00 0. -1.
          1    1    5    5  503    0  0.47559656492E+01  0.15755861795E+02  0.16789099566E+03  0.16869574035E+03  0.00000000000E+00 0. -1.
         -2    1    5    5    0  503  0.10030455441E+03 -0.83208193102E+02  0.78890460045E+03  0.79959682068E+03  0.00000000000E+00 0.  1.
         -1    1    6    6    0  502  0.70566413932E+02 -0.81499684596E+01 -0.18600696093E+03  0.19910959363E+03  0.00000000000E+00 0.  1.
<mgrwt>
<rscale>  0 0.18548296E+04</rscale>
<asrwt>0</asrwt>
<pdfrwt beam="1">  1        2 0.53254326E+00 0.18548296E+04</pdfrwt>
<pdfrwt beam="2">  1       -2 0.38226667E-01 0.18548296E+04</pdfrwt>
<totfact> 0.52895610E+00</totfact>
</mgrwt>
</event>
<event>
12    1  0.1494110E-007  0.3056621E+04  0.7818608E-02  0.8227745E-01
          2   -1    0    0  501    0  0.00000000000E+00  0.00000000000E+00  0.14211358570E+04  0.14211358570E+04  0.00000000000E+00 0. -1.
         -2   -1    0    0    0  501 -0.00000000000E+00 -0.00000000000E+00 -0.16435678433E+04  0.16435678433E+04  0.00000000000E+00 0.  1.
         23    2    1    2    0    0  0.13657429564E+04  0.98337676112E+02  0.15402170001E+03  0.13809206873E+04  0.91077654404E+02 0.  0.
        254    2    1    2    0    0 -0.13657429564E+04 -0.98337676112E+02 -0.37645368624E+03  0.16837830130E+04  0.90470090948E+03 0.  0.
        -24    2    4    4    0    0 -0.14053952750E+03 -0.20449183244E+03  0.19224484550E+03  0.32646923520E+03  0.89754178643E+02 0.  0.
         24    2    4    4    0    0 -0.12252034289E+04  0.10615415633E+03 -0.56869853174E+03  0.13573137778E+04  0.80563791047E+02 0.  0.
         13    1    3    3    0    0  0.11075975495E+04  0.82759034318E+02  0.16051644717E+03  0.11222240950E+04  0.00000000000E+00 0. -1.
        -13    1    3    3    0    0  0.25814540682E+03  0.15578641795E+02 -0.64947471512E+01  0.25869659233E+03  0.00000000000E+00 0.  1.
          4    1    6    6  502    0 -0.11051192952E+04  0.11731634619E+03 -0.50135477096E+03  0.12191834923E+04  0.00000000000E+00 0. -1.
          1    1    5    5  503    0 -0.14004839028E+03 -0.20716648666E+03  0.19874508441E+03  0.31942309464E+03  0.00000000000E+00 0. -1.
         -2    1    5    5    0  503 -0.49113722268E+00  0.26746542124E+01 -0.65002389077E+01  0.70461405595E+01  0.00000000000E+00 0.  1.
         -3    1    6    6    0  502 -0.12008413370E+03 -0.11162189856E+02 -0.67343760782E+02  0.13813028547E+03  0.00000000000E+00 0.  1.
<mgrwt>
<rscale>  0 0.30566211E+04</rscale>
<asrwt>0</asrwt>
<pdfrwt beam="1">  1        2 0.21863629E+00 0.30566211E+04</pdfrwt>
<pdfrwt beam="2">  1       -2 0.25285659E+00 0.30566211E+04</pdfrwt>
<totfact> 0.74002997E-01</totfact>
</mgrwt>
</event>
<event>
12    1  0.1494110E-007  0.1715711E+04  0.7818608E-02  0.8752454E-01
         -1   -1    0    0    0  501 -0.00000000000E+00  0.00000000000E+00  0.93008853261E+03  0.93008853261E+03  0.00000000000E+00 0.  1.
          1   -1    0    0  501    0  0.00000000000E+00 -0.00000000000E+00 -0.79123206849E+03  0.79123206849E+03  0.00000000000E+00 0. -1.
         23    2    1    2    0    0  0.54850317804E+03 -0.17703633610E+03 -0.16557890846E+03  0.60743991853E+03  0.96795036466E+02 0.  0.
        254    2    1    2    0    0 -0.54850317804E+03  0.17703633610E+03  0.30443537258E+03  0.11138806826E+04  0.90324508207E+03 0.  0.
        -24    2    4    4    0    0  0.80563349813E+02  0.28522719465E+03 -0.13441128138E+03  0.33519278931E+03  0.80267101266E+02 0.  0.
         24    2    4    4    0    0 -0.62906652785E+03 -0.10819085855E+03  0.43884665396E+03  0.77868789325E+03  0.79614640987E+02 0.  0.
         13    1    3    3    0    0  0.20194501721E+03 -0.79729823654E+02 -0.10941079167E+03  0.24312415777E+03  0.00000000000E+00 0.  1.
        -13    1    3    3    0    0  0.34655816083E+03 -0.97306512444E+02 -0.56168116793E+02  0.36431576077E+03  0.00000000000E+00 0. -1.
          4    1    6    6  502    0 -0.60698625662E+03 -0.92730355685E+02  0.43232050507E+03  0.75095422876E+03  0.00000000000E+00 0. -1.
          1    1    5    5  503    0  0.60894010275E+02  0.24079419589E+03 -0.77124639167E+02  0.26007332664E+03  0.00000000000E+00 0. -1.
         -2    1    5    5    0  503  0.19669339538E+02  0.44432998758E+02 -0.57286642217E+02  0.75119462677E+02  0.00000000000E+00 0.  1.
         -3    1    6    6    0  502 -0.22080271235E+02 -0.15460502864E+02  0.65261488936E+01  0.27733664489E+02  0.00000000000E+00 0.  1.
<mgrwt>
<rscale>  0 0.17157108E+04</rscale>
<asrwt>0</asrwt>
<pdfrwt beam="1">  1        1 0.12172801E+00 0.17157108E+04</pdfrwt>
<pdfrwt beam="2">  1       -1 0.14309054E+00 0.17157108E+04</pdfrwt>
<totfact> 0.84649371E+00</totfact>
</mgrwt>
</event>
<event>
12    1  0.1494110E-007  0.1508745E+04  0.7818608E-02  0.8878658E-01
         -2   -1    0    0    0  501 -0.00000000000E+00  0.00000000000E+00  0.51798268066E+03  0.51798268066E+03  0.00000000000E+00 0.  1.
          2   -1    0    0  501    0  0.00000000000E+00 -0.00000000000E+00 -0.10986423890E+04  0.10986423890E+04  0.00000000000E+00 0. -1.
         23    2    1    2    0    0 -0.20753999569E+03 -0.16267973048E+03 -0.61767173793E+03  0.67739064982E+03  0.88329904921E+02 0.  0.
        254    2    1    2    0    0  0.20753999569E+03  0.16267973048E+03  0.37012029604E+02  0.93923441983E+03  0.90069631982E+03 0.  0.
        -24    2    4    4    0    0  0.16533527380E+03 -0.19121845046E+03 -0.32842479032E+03  0.42359740541E+03  0.87588072309E+02 0.  0.
         24    2    4    4    0    0  0.42204721893E+02  0.35389818094E+03  0.36543681993E+03  0.51563701442E+03  0.72885528481E+02 0.  0.
         11    1    3    3    0    0 -0.13781153381E+03 -0.99388263985E+02 -0.49087422632E+03  0.51944927754E+03  0.00000000000E+00 0. -1.
        -11    1    3    3    0    0 -0.69728461881E+02 -0.63291466492E+02 -0.12679751161E+03  0.15794137228E+03  0.00000000000E+00 0.  1.
          2    1    6    6  502    0 -0.18059034809E+02  0.39897742515E+02  0.37911993256E+02  0.57924760065E+02  0.00000000000E+00 0. -1.
          1    1    5    5  503    0  0.87734822464E+02 -0.72403530779E+02 -0.85664627171E+02  0.14240118922E+03  0.00000000000E+00 0. -1.
         -2    1    5    5    0  503  0.77600451332E+02 -0.11881491968E+03 -0.24276016315E+03  0.28119621619E+03  0.00000000000E+00 0.  1.
         -3    1    6    6    0  502  0.60263756702E+02  0.31400043842E+03  0.32752482667E+03  0.45771225436E+03  0.00000000000E+00 0.  1.
<mgrwt>
<rscale>  0 0.15087448E+04</rscale>
<asrwt>0</asrwt>
<pdfrwt beam="1">  1        2 0.16902190E+00 0.15087448E+04</pdfrwt>
<pdfrwt beam="2">  1       -2 0.79689644E-01 0.15087448E+04</pdfrwt>
<totfact> 0.29395632E+01</totfact>
</mgrwt>
</event>
<event>
12    1  0.1494110E-007  0.2536144E+04  0.7818608E-02  0.8390221E-01
          1   -1    0    0  501    0  0.00000000000E+00  0.00000000000E+00  0.31665907924E+04  0.31665907924E+04  0.00000000000E+00 0. -1.
         -1   -1    0    0    0  501 -0.00000000000E+00 -0.00000000000E+00 -0.50780381955E+03  0.50780381955E+03  0.00000000000E+00 0.  1.
         23    2    1    2    0    0 -0.82814539862E+03 -0.23846179717E+03  0.15616846646E+03  0.88038878230E+03  0.89481775275E+02 0.  0.
        254    2    1    2    0    0  0.82814539862E+03  0.23846179717E+03  0.25026185064E+04  0.27940058296E+04  0.89480744163E+03 0.  0.
        -24    2    4    4    0    0 -0.30824336198E+02 -0.23701151086E+03  0.41154447454E+03  0.48259782248E+03  0.80045035790E+02 0.  0.
         24    2    4    4    0    0  0.85896973482E+03  0.47547330803E+03  0.20910740318E+04  0.23114080072E+04  0.78182459282E+02 0.  0.
         11    1    3    3    0    0 -0.16500620847E+03 -0.11489246128E+02  0.35460255382E+02  0.16916406629E+03  0.00000000000E+00 0. -1.
        -11    1    3    3    0    0 -0.66313919015E+03 -0.22697255105E+03  0.12070821108E+03  0.71122471601E+03  0.00000000000E+00 0.  1.
          2    1    6    6  502    0  0.74371194657E+03  0.38929867831E+03  0.18285077822E+04  0.20119894707E+04  0.00000000000E+00 0. -1.
          1    1    5    5  503    0 -0.22284589730E+02 -0.21848726484E+03  0.40578037768E+03  0.46140112998E+03  0.00000000000E+00 0. -1.
         -2    1    5    5    0  503 -0.85397464675E+01 -0.18524246018E+02  0.57640968616E+01  0.21196692499E+02  0.00000000000E+00 0.  1.
         -1    1    6    6    0  502  0.11525778825E+03  0.86174629723E+02  0.26256624959E+03  0.29941853648E+03  0.00000000000E+00 0.  1.
<mgrwt>
<rscale>  0 0.25361442E+04</rscale>
<asrwt>0</asrwt>
<pdfrwt beam="1">  1        1 0.48716780E+00 0.25361442E+04</pdfrwt>
<pdfrwt beam="2">  1       -1 0.78123667E-01 0.25361442E+04</pdfrwt>
<totfact> 0.65431949E-01</totfact>
</mgrwt>
</event>
<event>
12    1  0.1494110E-007  0.1382372E+04  0.7818608E-02  0.8966678E-01
         -3   -1    0    0    0  501 -0.00000000000E+00  0.00000000000E+00  0.57605607266E+03  0.57605607266E+03  0.00000000000E+00 0.  1.
          3   -1    0    0  501    0  0.00000000000E+00 -0.00000000000E+00 -0.82932613148E+03  0.82932613148E+03  0.00000000000E+00 0. -1.
         23    2    1    2    0    0 -0.24959266780E+03  0.14097564811E+03 -0.36205555243E+03  0.47074095613E+03  0.91335598487E+02 0.  0.
        254    2    1    2    0    0  0.24959266780E+03 -0.14097564811E+03  0.10878549361E+03  0.93464124801E+03  0.88292091700E+03 0.  0.
        -24    2    4    4    0    0 -0.29493967573E+03  0.18579522218E+02 -0.10298240924E+03  0.32359146085E+03  0.82288796078E+02 0.  0.
         24    2    4    4    0    0  0.54453234353E+03 -0.15955517033E+03  0.21176790285E+03  0.61104978716E+03  0.81011555824E+02 0.  0.
         11    1    3    3    0    0 -0.65675455267E+01 -0.16219275521E+01 -0.49357493841E+02  0.49818927141E+02  0.00000000000E+00 0.  1.
        -11    1    3    3    0    0 -0.24302512228E+03  0.14259757566E+03 -0.31269805859E+03  0.42092202899E+03  0.00000000000E+00 0. -1.
          2    1    6    6  502    0 -0.64037188075E+00  0.37537519776E+01  0.30409991474E+01  0.48732336153E+01  0.00000000000E+00 0. -1.
          1    1    5    5  503    0 -0.82930889260E+02 -0.15221117072E+02 -0.62905302723E+02  0.10519644437E+03  0.00000000000E+00 0. -1.
         -4    1    5    5    0  503 -0.21200878647E+03  0.33800639290E+02 -0.40077106518E+02  0.21839501648E+03  0.00000000000E+00 0.  1.
         -1    1    6    6    0  502  0.54517271541E+03 -0.16330892230E+03  0.20872690371E+03  0.60617655354E+03  0.00000000000E+00 0.  1.
<mgrwt>
<rscale>  0 0.13823724E+04</rscale>
<asrwt>0</asrwt>
<pdfrwt beam="1">  1        3 0.12758864E+00 0.13823724E+04</pdfrwt>
<pdfrwt beam="2">  1       -3 0.88624011E-01 0.13823724E+04</pdfrwt>
<totfact> 0.14365347E+00</totfact>
</mgrwt>
</event>
<event>
12    1  0.1494110E-007  0.1109851E+04  0.7818608E-02  0.9195643E-01
         -3   -1    0    0    0  501 -0.00000000000E+00  0.00000000000E+00  0.50424949490E+03  0.50424949490E+03  0.00000000000E+00 0.  1.
          3   -1    0    0  501    0  0.00000000000E+00 -0.00000000000E+00 -0.61069477382E+03  0.61069477382E+03  0.00000000000E+00 0. -1.
         23    2    1    2    0    0 -0.67659919135E+02  0.10241882986E+03  0.86616122264E+02  0.17702556889E+03  0.93638763546E+02 0.  0.
        254    2    1    2    0    0  0.67659919135E+02 -0.10241882986E+03 -0.19306140118E+03  0.93791869983E+03  0.90958853417E+03 0.  0.
        -24    2    4    4    0    0 -0.24452241583E+03  0.12653508034E+03 -0.40069386312E+03  0.49248737791E+03  0.78650537537E+02 0.  0.
         24    2    4    4    0    0  0.31218233497E+03 -0.22895391020E+03  0.20763246194E+03  0.44543132192E+03  0.73621464493E+02 0.  0.
         11    1    3    3    0    0  0.10621029565E+02 -0.72217392036E+01  0.26610680576E+02  0.29548064350E+02  0.00000000000E+00 0. -1.
        -11    1    3    3    0    0 -0.78280948699E+02  0.10964056906E+03  0.60005441688E+02  0.14747750454E+03  0.00000000000E+00 0.  1.
          4    1    6    6  502    0 -0.14527221726E+00  0.41682131634E+01  0.36442001599E+01  0.55385286673E+01  0.00000000000E+00 0. -1.
          3    1    5    5  503    0  0.34954087883E+01 -0.42128401121E+01 -0.12366495977E+02  0.13523909463E+02  0.00000000000E+00 0. -1.
         -4    1    5    5    0  503 -0.24801782462E+03  0.13074792045E+03 -0.38832736714E+03  0.47896346845E+03  0.00000000000E+00 0.  1.
         -3    1    6    6    0  502  0.31232760718E+03 -0.23312212336E+03  0.20398826178E+03  0.43989279325E+03  0.00000000000E+00 0.  1.
<mgrwt>
<rscale>  0 0.11098514E+04</rscale>
<asrwt>0</asrwt>
<pdfrwt beam="1">  1        3 0.93953042E-01 0.11098514E+04</pdfrwt>
<pdfrwt beam="2">  1       -3 0.77576846E-01 0.11098514E+04</pdfrwt>
<totfact> 0.40952426E+00</totfact>
</mgrwt>
</event>
<event>
12    1  0.1494110E-007  0.3764670E+04  0.7818608E-02  0.8053779E-01
          2   -1    0    0  501    0  0.00000000000E+00  0.00000000000E+00  0.45269624613E+04  0.45269624613E+04  0.00000000000E+00 0. -1.
         -2   -1    0    0    0  501 -0.00000000000E+00 -0.00000000000E+00 -0.78268506220E+03  0.78268506220E+03  0.00000000000E+00 0.  1.
         23    2    1    2    0    0 -0.12710273121E+04  0.67714645184E+03  0.30628411095E+03  0.14751820384E+04  0.91183028430E+02 0.  0.
        254    2    1    2    0    0  0.12710273121E+04 -0.67714645184E+03  0.34379932882E+04  0.38344654851E+04  0.89960544769E+03 0.  0.
        -24    2    4    4    0    0  0.97736062711E+03 -0.29964504532E+03  0.30362204663E+04  0.32046999632E+04  0.80288140672E+02 0.  0.
         24    2    4    4    0    0  0.29366668495E+03 -0.37750140652E+03  0.40177282190E+03  0.62976552191E+03  0.80223303312E+02 0.  0.
         13    1    3    3    0    0 -0.82464953488E+03  0.48811932148E+03  0.20385803919E+03  0.97972722097E+03  0.00000000000E+00 0.  1.
        -13    1    3    3    0    0 -0.44637777718E+03  0.18902713036E+03  0.10242607176E+03  0.49545481746E+03  0.00000000000E+00 0. -1.
          2    1    6    6  502    0  0.57023831221E+02 -0.67184149228E+02  0.11787871018E+03  0.14717614463E+03  0.00000000000E+00 0. -1.
          3    1    5    5  503    0  0.19308286626E+03 -0.29091472159E+02  0.61932076041E+03  0.64937316796E+03  0.00000000000E+00 0. -1.
         -4    1    5    5    0  503  0.78427776085E+03 -0.27055357316E+03  0.24168997059E+04  0.25553267952E+04  0.00000000000E+00 0.  1.
         -1    1    6    6    0  502  0.23664285373E+03 -0.31031725729E+03  0.28389411173E+03  0.48258937728E+03  0.00000000000E+00 0.  1.
<mgrwt>
<rscale>  0 0.37646704E+04</rscale>
<asrwt>0</asrwt>
<pdfrwt beam="1">  1        2 0.69645574E+00 0.37646704E+04</pdfrwt>
<pdfrwt beam="2">  1       -2 0.12041309E+00 0.37646704E+04</pdfrwt>
<totfact> 0.48702476E-02</totfact>
</mgrwt>
</event>
<event>
12    1  0.1494110E-007  0.1948753E+04  0.7818608E-02  0.8630962E-01
         -1   -1    0    0    0  501 -0.00000000000E+00  0.00000000000E+00  0.11567439589E+04  0.11567439589E+04  0.00000000000E+00 0.  1.
          1   -1    0    0  501    0  0.00000000000E+00 -0.00000000000E+00 -0.82076071604E+03  0.82076071604E+03  0.00000000000E+00 0. -1.
         23    2    1    2    0    0  0.25478722309E+03 -0.28107097991E+03 -0.53297901476E+03  0.66238808429E+03  0.10379749150E+03 0.  0.
        254    2    1    2    0    0 -0.25478722309E+03  0.28107097991E+03  0.86896225759E+03  0.13151165906E+04  0.91132805127E+03 0.  0.
        -24    2    4    4    0    0 -0.35919611088E+03  0.14492070419E+03 -0.30200784264E+02  0.39628352278E+03  0.78132493141E+02 0.  0.
         24    2    4    4    0    0  0.10440888779E+03  0.13615027572E+03  0.89916304186E+03  0.91883306785E+03  0.79510485474E+02 0.  0.
         13    1    3    3    0    0  0.12513184631E+03 -0.11304229802E+03 -0.15574830667E+03  0.22955190074E+03  0.00000000000E+00 0. -1.
        -13    1    3    3    0    0  0.12965537678E+03 -0.16802868189E+03 -0.37723070809E+03  0.43283618355E+03  0.00000000000E+00 0.  1.
          2    1    6    6  502    0  0.89193782911E+02  0.12362291856E+03  0.87227579026E+03  0.88549602550E+03  0.00000000000E+00 0. -1.
          3    1    5    5  503    0 -0.17405538894E+03  0.28555434593E+02 -0.96302746245E+01  0.17664493611E+03  0.00000000000E+00 0. -1.
         -4    1    5    5    0  503 -0.18514072194E+03  0.11636526959E+03 -0.20570509640E+02  0.21963858667E+03  0.00000000000E+00 0.  1.
         -1    1    6    6    0  502  0.15215104883E+02  0.12527357165E+02  0.26887251601E+02  0.33337042353E+02  0.00000000000E+00 0.  1.
<mgrwt>
<rscale>  0 0.19487534E+04</rscale>
<asrwt>0</asrwt>
<pdfrwt beam="1">  1        1 0.12627088E+00 0.19487534E+04</pdfrwt>
<pdfrwt beam="2">  1       -1 0.17796061E+00 0.19487534E+04</pdfrwt>
<totfact> 0.42544289E+00</totfact>
</mgrwt>
</event>
<event>
12    1  0.1494110E-007  0.2459640E+04  0.7818608E-02  0.8417507E-01
          1   -1    0    0  501    0  0.00000000000E+00  0.00000000000E+00  0.83277358322E+03  0.83277358322E+03  0.00000000000E+00 0. -1.
         -1   -1    0    0    0  501 -0.00000000000E+00 -0.00000000000E+00 -0.18161689938E+04  0.18161689938E+04  0.00000000000E+00 0.  1.
         23    2    1    2    0    0 -0.80286902290E+03  0.67538789291E+03 -0.61634567046E+03  0.12202841465E+04  0.91999668115E+02 0.  0.
        254    2    1    2    0    0  0.80286902290E+03 -0.67538789291E+03 -0.36704974015E+03  0.14286584305E+04  0.89754772885E+03 0.  0.
        -24    2    4    4    0    0  0.92889983141E+03 -0.67489296914E+03 -0.14687590323E+03  0.11603096426E+04  0.80065717573E+02 0.  0.
         24    2    4    4    0    0 -0.12603080851E+03 -0.49492377637E+00 -0.22017383692E+03  0.26834878795E+03  0.87467387567E+02 0.  0.
         11    1    3    3    0    0 -0.43718910649E+03  0.37110757354E+03 -0.38964885117E+03  0.69331188739E+03  0.00000000000E+00 0.  1.
        -11    1    3    3    0    0 -0.36567991641E+03  0.30428031937E+03 -0.22669681929E+03  0.52697225913E+03  0.00000000000E+00 0. -1.
          2    1    6    6  502    0 -0.68443522556E+02 -0.27954166279E+02 -0.17557757159E+03  0.19050835897E+03  0.00000000000E+00 0. -1.
          1    1    5    5  503    0  0.78748629484E+03 -0.58275172022E+03 -0.97763888235E+02  0.98452628701E+03  0.00000000000E+00 0. -1.
         -2    1    5    5    0  503  0.14141353657E+03 -0.92141248919E+02 -0.49112014991E+02  0.17578335557E+03  0.00000000000E+00 0.  1.
         -1    1    6    6    0  502 -0.57587285954E+02  0.27459242503E+02 -0.44596265327E+02  0.77840428978E+02  0.00000000000E+00 0.  1.
<mgrwt>
<rscale>  0 0.24596403E+04</rscale>
<asrwt>0</asrwt>
<pdfrwt beam="1">  1        1 0.12811902E+00 0.24596403E+04</pdfrwt>
<pdfrwt beam="2">  1       -1 0.27941061E+00 0.24596403E+04</pdfrwt>
<totfact> 0.82918850E-01</totfact>
</mgrwt>
</event>
<event>
12    1  0.1494110E-007  0.2139685E+04  0.7818608E-02  0.8543960E-01
          1   -1    0    0  501    0  0.00000000000E+00  0.00000000000E+00  0.26369673390E+04  0.26369673390E+04  0.00000000000E+00 0. -1.
         -1   -1    0    0    0  501 -0.00000000000E+00 -0.00000000000E+00 -0.43404529374E+03  0.43404529374E+03  0.00000000000E+00 0.  1.
         23    2    1    2    0    0 -0.31537130398E+03  0.39823942368E+03  0.19316435833E+04  0.19994156926E+04  0.91446601924E+02 0.  0.
        254    2    1    2    0    0  0.31537130398E+03 -0.39823942368E+03  0.27127846195E+03  0.10715969401E+04  0.90370033763E+03 0.  0.
        -24    2    4    4    0    0  0.25598748740E+03  0.23336197489E+03  0.24539958658E+03  0.43204533861E+03  0.80341847682E+02 0.  0.
         24    2    4    4    0    0  0.59383816579E+02 -0.63160139857E+03  0.25878875367E+02  0.63955160152E+03  0.76875031479E+02 0.  0.
         11    1    3    3    0    0 -0.26879125267E+03  0.32188731672E+03  0.14449915858E+04  0.15046131946E+04  0.00000000000E+00 0. -1.
        -11    1    3    3    0    0 -0.46580051306E+02  0.76352106964E+02  0.48665199748E+03  0.49480249804E+03  0.00000000000E+00 0.  1.
          4    1    6    6  502    0  0.66513987918E+02 -0.34799793372E+03  0.32467938776E+02  0.35578201122E+03  0.00000000000E+00 0. -1.
          1    1    5    5  503    0  0.90800508234E+02  0.11969298924E+03  0.70449170696E+02  0.16593441361E+03  0.00000000000E+00 0. -1.
         -2    1    5    5    0  503  0.16518697916E+03  0.11366898565E+03  0.17495041589E+03  0.26611092500E+03  0.00000000000E+00 0.  1.
         -3    1    6    6    0  502 -0.71301713385E+01 -0.28360346485E+03 -0.65890634085E+01  0.28376959030E+03  0.00000000000E+00 0.  1.
<mgrwt>
<rscale>  0 0.21396853E+04</rscale>
<asrwt>0</asrwt>
<pdfrwt beam="1">  1        1 0.40568727E+00 0.21396853E+04</pdfrwt>
<pdfrwt beam="2">  1       -1 0.66776201E-01 0.21396853E+04</pdfrwt>
<totfact> 0.22644002E+00</totfact>
</mgrwt>
</event>
<event>
12    1  0.1494110E-007  0.2219675E+04  0.7818608E-02  0.8510283E-01
         -2   -1    0    0    0  501 -0.00000000000E+00  0.00000000000E+00  0.33263116917E+03  0.33263116917E+03  0.00000000000E+00 0.  1.
          2   -1    0    0  501    0  0.00000000000E+00 -0.00000000000E+00 -0.37030179984E+04  0.37030179984E+04  0.00000000000E+00 0. -1.
         23    2    1    2    0    0  0.30121728791E+02  0.29366034830E+03  0.18250653090E+03  0.35863500582E+03  0.90369878128E+02 0.  0.
        254    2    1    2    0    0 -0.30121728791E+02 -0.29366034830E+03 -0.35528933602E+04  0.36770141618E+04  0.90013232283E+03 0.  0.
        -24    2    4    4    0    0 -0.20493881834E+03 -0.47171845089E+02 -0.17591996270E+03  0.28555517936E+03  0.79804918076E+02 0.  0.
         24    2    4    4    0    0  0.17481708955E+03 -0.24648850321E+03 -0.33769733975E+04  0.33914589824E+04  0.82018932752E+02 0.  0.
         11    1    3    3    0    0 -0.46478263025E+01  0.12064045704E+03  0.27669756923E+02  0.12386015345E+03  0.00000000000E+00 0. -1.
        -11    1    3    3    0    0  0.34769555093E+02  0.17301989126E+03  0.15483677397E+03  0.23477485237E+03  0.00000000000E+00 0.  1.
          2    1    6    6  502    0  0.10496472816E+03 -0.86170976713E+02 -0.16891398712E+04  0.16945903740E+04  0.00000000000E+00 0. -1.
          1    1    5    5  503    0 -0.85261378810E+02 -0.56724313995E+02 -0.10215242105E+03  0.14464531669E+03  0.00000000000E+00 0. -1.
         -2    1    5    5    0  503 -0.11967743953E+03  0.95524689061E+01 -0.73767541651E+02  0.14090986267E+03  0.00000000000E+00 0.  1.
         -1    1    6    6    0  502  0.69852361390E+02 -0.16031752649E+03 -0.16878335263E+04  0.16968686084E+04  0.00000000000E+00 0.  1.
<mgrwt>
<rscale>  0 0.22196749E+04</rscale>
<asrwt>0</asrwt>
<pdfrwt beam="1">  1        2 0.56969510E+00 0.22196749E+04</pdfrwt>
<pdfrwt beam="2">  1       -2 0.51174024E-01 0.22196749E+04</pdfrwt>
<totfact> 0.19211304E+00</totfact>
</mgrwt>
</event>
<event>
12    1  0.1494110E-007  0.1223725E+04  0.7818608E-02  0.9092340E-01
         -3   -1    0    0    0  501 -0.00000000000E+00  0.00000000000E+00  0.45609312422E+03  0.45609312422E+03  0.00000000000E+00 0.  1.
          3   -1    0    0  501    0  0.00000000000E+00 -0.00000000000E+00 -0.82083150687E+03  0.82083150687E+03  0.00000000000E+00 0. -1.
         23    2    1    2    0    0  0.32960939061E+02 -0.16735126884E+03  0.14208280273E+03  0.23957299631E+03  0.90082334805E+02 0.  0.
        254    2    1    2    0    0 -0.32960939061E+02  0.16735126884E+03 -0.50682118538E+03  0.10373516348E+04  0.88889697353E+03 0.  0.
        -24    2    4    4    0    0  0.23010028777E+03  0.41336268289E+02  0.16688175110E+03  0.29867219934E+03  0.81858013029E+02 0.  0.
         24    2    4    4    0    0 -0.26306122683E+03  0.12601500055E+03 -0.67370293648E+03  0.73867943545E+03  0.81796529938E+02 0.  0.
         13    1    3    3    0    0  0.13060316999E+02  0.43002167210E+01 -0.28455670490E+01  0.14041402914E+02  0.00000000000E+00 0. -1.
        -13    1    3    3    0    0  0.19900622062E+02 -0.17165148556E+03  0.14492836978E+03  0.22553159340E+03  0.00000000000E+00 0.  1.
          2    1    6    6  502    0 -0.21473127759E+03  0.68955604236E+02 -0.54515138652E+03  0.58996138107E+03  0.00000000000E+00 0. -1.
          1    1    5    5  503    0  0.21868995414E+03  0.19917881789E+02  0.13211760819E+03  0.25627539962E+03  0.00000000000E+00 0. -1.
         -2    1    5    5    0  503  0.11410333632E+02  0.21418386500E+02  0.34764142909E+02  0.42396799715E+02  0.00000000000E+00 0.  1.
         -1    1    6    6    0  502 -0.48329949242E+02  0.57059396311E+02 -0.12855154996E+03  0.14871805438E+03  0.00000000000E+00 0.  1.
<mgrwt>
<rscale>  0 0.12237248E+04</rscale>
<asrwt>0</asrwt>
<pdfrwt beam="1">  1        3 0.12628177E+00 0.12237248E+04</pdfrwt>
<pdfrwt beam="2">  1       -3 0.70168173E-01 0.12237248E+04</pdfrwt>
<totfact> 0.25054281E+00</totfact>
</mgrwt>
</event>
<event>
12    1  0.1494110E-007  0.1986696E+04  0.7818608E-02  0.8612866E-01
          1   -1    0    0  501    0  0.00000000000E+00  0.00000000000E+00  0.29827841435E+04  0.29827841435E+04  0.00000000000E+00 0. -1.
         -1   -1    0    0    0  501 -0.00000000000E+00 -0.00000000000E+00 -0.33081191621E+03  0.33081191621E+03  0.00000000000E+00 0.  1.
         23    2    1    2    0    0 -0.62984487763E+03 -0.38391491949E+03  0.67332812658E+03  0.10028065588E+04  0.90305000664E+02 0.  0.
        254    2    1    2    0    0  0.62984487763E+03  0.38391491949E+03  0.19786441007E+04  0.23107895008E+04  0.93841377053E+03 0.  0.
        -24    2    4    4    0    0  0.68996072743E+03  0.54954583870E+03  0.19105473412E+04  0.21058188738E+04  0.78965511445E+02 0.  0.
         24    2    4    4    0    0 -0.60115849802E+02 -0.16563091921E+03  0.68096759521E+02  0.20497062708E+03  0.79550440050E+02 0.  0.
         11    1    3    3    0    0 -0.42456409883E+03 -0.28896293366E+03  0.51037278808E+03  0.72404049187E+03  0.00000000000E+00 0.  1.
        -11    1    3    3    0    0 -0.20528077880E+03 -0.94951985828E+02  0.16295533850E+03  0.27876606698E+03  0.00000000000E+00 0. -1.
          2    1    6    6  502    0 -0.16874095599E+02 -0.13912915713E+03  0.35141776103E+02  0.14448737624E+03  0.00000000000E+00 0. -1.
          1    1    5    5  503    0  0.27121418152E+03  0.26584181148E+03  0.81249516823E+03  0.89687089338E+03  0.00000000000E+00 0. -1.
         -2    1    5    5    0  503  0.41874654591E+03  0.28370402723E+03  0.10980521729E+04  0.12089479804E+04  0.00000000000E+00 0.  1.
         -1    1    6    6    0  502 -0.43241754202E+02 -0.26501762085E+02  0.32954983418E+02  0.60483250840E+02  0.00000000000E+00 0.  1.
<mgrwt>
<rscale>  0 0.19866963E+04</rscale>
<asrwt>0</asrwt>
<pdfrwt beam="1">  1        1 0.45888985E+00 0.19866963E+04</pdfrwt>
<pdfrwt beam="2">  1       -1 0.50894143E-01 0.19866963E+04</pdfrwt>
<totfact> 0.22214762E+00</totfact>
</mgrwt>
</event>
<event>
12    1  0.1494110E-007  0.1368020E+04  0.7818608E-02  0.8977298E-01
         -1   -1    0    0    0  501 -0.00000000000E+00  0.00000000000E+00  0.41207855783E+03  0.41207855783E+03  0.00000000000E+00 0.  1.
          1   -1    0    0  501    0  0.00000000000E+00 -0.00000000000E+00 -0.11353890115E+04  0.11353890115E+04  0.00000000000E+00 0. -1.
         23    2    1    2    0    0 -0.26540818973E+03  0.33800039017E+02  0.12484382798E+03  0.30906223484E+03  0.91375783487E+02 0.  0.
        254    2    1    2    0    0  0.26540818973E+03 -0.33800039017E+02 -0.84815428161E+03  0.12384053344E+04  0.86179936014E+03 0.  0.
        -24    2    4    4    0    0  0.53636320136E+03 -0.19158124147E+03 -0.48598126630E+03  0.75265634795E+03  0.76973573760E+02 0.  0.
         24    2    4    4    0    0 -0.27095501163E+03  0.15778120245E+03 -0.36217301531E+03  0.48574898649E+03  0.80444133922E+02 0.  0.
         11    1    3    3    0    0 -0.68276122943E+02 -0.52444535593E+01 -0.68114841000E+01  0.68815184174E+02  0.00000000000E+00 0. -1.
        -11    1    3    3    0    0 -0.19713206679E+03  0.39044492577E+02  0.13165531208E+03  0.24024705067E+03  0.00000000000E+00 0.  1.
          4    1    6    6  502    0 -0.16523712745E+03  0.10410609348E+03 -0.28044377779E+03  0.34174566491E+03  0.00000000000E+00 0. -1.
          3    1    5    5  503    0  0.27538239504E+03 -0.12398369438E+03 -0.21745635038E+03  0.37214873947E+03  0.00000000000E+00 0. -1.
         -4    1    5    5    0  503  0.26098080632E+03 -0.67597547097E+02 -0.26852491592E+03  0.38050760848E+03  0.00000000000E+00 0.  1.
         -3    1    6    6    0  502 -0.10571788418E+03  0.53675108974E+02 -0.81729237521E+02  0.14400332158E+03  0.00000000000E+00 0.  1.
<mgrwt>
<rscale>  0 0.13680197E+04</rscale>
<asrwt>0</asrwt>
<pdfrwt beam="1">  1        1 0.17467523E+00 0.13680197E+04</pdfrwt>
<pdfrwt beam="2">  1       -1 0.63396702E-01 0.13680197E+04</pdfrwt>
<totfact> 0.29420726E+01</totfact>
</mgrwt>
</event>
<event>
12    1  0.1494110E-007  0.1419576E+04  0.7818608E-02  0.8939769E-01
          2   -1    0    0  501    0  0.00000000000E+00  0.00000000000E+00  0.36907391009E+04  0.36907391009E+04  0.00000000000E+00 0. -1.
         -2   -1    0    0    0  501 -0.00000000000E+00 -0.00000000000E+00 -0.13650346971E+03  0.13650346971E+03  0.00000000000E+00 0.  1.
         23    2    1    2    0    0 -0.40418819967E+03 -0.12115877491E+03  0.10112884654E+04  0.10988158911E+04  0.81513513887E+02 0.  0.
        254    2    1    2    0    0  0.40418819967E+03  0.12115877491E+03  0.25429471658E+04  0.27284266795E+04  0.89425069618E+03 0.  0.
        -24    2    4    4    0    0  0.22823924381E+03  0.36332048956E+03  0.22806913325E+04  0.23219665155E+04  0.76685162062E+02 0.  0.
         24    2    4    4    0    0  0.17594895586E+03 -0.24216171465E+03  0.26225583329E+03  0.40646016401E+03  0.82652354624E+02 0.  0.
         13    1    3    3    0    0 -0.19486505239E+03 -0.56655900852E+02  0.38299660309E+03  0.43343820520E+03  0.00000000000E+00 0.  1.
        -13    1    3    3    0    0 -0.20932314728E+03 -0.64502874058E+02  0.62829186227E+03  0.66537768594E+03  0.00000000000E+00 0. -1.
          2    1    6    6  502    0 -0.77553014528E+01 -0.16252966281E+02  0.25294105992E+02  0.31049885853E+02  0.00000000000E+00 0. -1.
          3    1    5    5  503    0  0.65911778278E+02  0.75838607492E+02  0.39416963610E+03  0.40677457999E+03  0.00000000000E+00 0. -1.
         -4    1    5    5    0  503  0.16232746553E+03  0.28748188207E+03  0.18865216964E+04  0.19151919355E+04  0.00000000000E+00 0.  1.
         -1    1    6    6    0  502  0.18370425731E+03 -0.22590874837E+03  0.23696172730E+03  0.37541027816E+03  0.00000000000E+00 0.  1.
<mgrwt>
<rscale>  0 0.14195756E+04</rscale>
<asrwt>0</asrwt>
<pdfrwt beam="1">  1        2 0.56780594E+00 0.14195756E+04</pdfrwt>
<pdfrwt beam="2">  1       -2 0.21000537E-01 0.14195756E+04</pdfrwt>
<totfact> 0.11533812E+01</totfact>
</mgrwt>
</event>
<event>
12    1  0.1494110E-007  0.2244186E+04  0.7818608E-02  0.8500259E-01
         -1   -1    0    0    0  501 -0.00000000000E+00  0.00000000000E+00  0.14028479978E+04  0.14028479978E+04  0.00000000000E+00 0.  1.
          1   -1    0    0  501    0  0.00000000000E+00 -0.00000000000E+00 -0.89752574089E+03  0.89752574089E+03  0.00000000000E+00 0. -1.
         23    2    1    2    0    0  0.37681667575E+03 -0.19084899946E+03  0.10683529974E+04  0.11516652715E+04  0.80874116514E+02 0.  0.
        254    2    1    2    0    0 -0.37681667575E+03  0.19084899946E+03 -0.56303074055E+03  0.11487084672E+04  0.90780690681E+03 0.  0.
        -24    2    4    4    0    0  0.15688155062E+03  0.20152176312E+03 -0.54678310279E+03  0.60873338603E+03  0.79760465352E+02 0.  0.
         24    2    4    4    0    0 -0.53369822637E+03 -0.10672763667E+02 -0.16247637753E+02  0.53997508115E+03  0.79758371467E+02 0.  0.
         11    1    3    3    0    0  0.23207609591E+03 -0.75707648132E+02  0.56863979762E+03  0.61882322332E+03  0.00000000000E+00 0.  1.
        -11    1    3    3    0    0  0.14474057984E+03 -0.11514135132E+03  0.49971319980E+03  0.53284204817E+03  0.00000000000E+00 0. -1.
          2    1    6    6  502    0 -0.22602611808E+03 -0.25797324495E+02 -0.40134579346E+02  0.23100669355E+03  0.00000000000E+00 0. -1.
          3    1    5    5  503    0  0.15428408436E+03  0.20649036653E+03 -0.50909822655E+03  0.57063373054E+03  0.00000000000E+00 0. -1.
         -4    1    5    5    0  503  0.25974662531E+01 -0.49686034093E+01 -0.37684876244E+02  0.38099655488E+02  0.00000000000E+00 0.  1.
         -1    1    6    6    0  502 -0.30767210829E+03  0.15124560828E+02  0.23886941592E+02  0.30896838760E+03  0.00000000000E+00 0.  1.
<mgrwt>
<rscale>  0 0.22441855E+04</rscale>
<asrwt>0</asrwt>
<pdfrwt beam="1">  1        1 0.13808088E+00 0.22441855E+04</pdfrwt>
<pdfrwt beam="2">  1       -1 0.21582277E+00 0.22441855E+04</pdfrwt>
<totfact> 0.19492749E+00</totfact>
</mgrwt>
</event>
<event>
12    1  0.1689744E-007  0.1955542E+04  0.7818608E-02  0.8627693E-01
          2   -1    0    0  501    0  0.00000000000E+00  0.00000000000E+00  0.28719617978E+04  0.28719617978E+04  0.00000000000E+00 0. -1.
         -2   -1    0    0    0  501 -0.00000000000E+00 -0.00000000000E+00 -0.33288596698E+03  0.33288596698E+03  0.00000000000E+00 0.  1.
         23    2    1    2    0    0 -0.24199616241E+03  0.57606638116E+03  0.25520245190E+03  0.68275170376E+03  0.10299019087E+03 0.  0.
        254    2    1    2    0    0  0.24199616241E+03 -0.57606638116E+03  0.22838733789E+04  0.25220960610E+04  0.86860595891E+03 0.  0.
        -24    2    4    4    0    0 -0.28866715918E+03 -0.26263734629E+03  0.12934132588E+04  0.13530869251E+04  0.74961753478E+02 0.  0.
         24    2    4    4    0    0  0.53066332160E+03 -0.31342903487E+03  0.99046012015E+03  0.11690091359E+04  0.75695372414E+02 0.  0.
         11    1    3    3    0    0 -0.22003336254E+02  0.31775613937E+02 -0.78563458535E+01  0.39440570706E+02  0.00000000000E+00 0. -1.
        -11    1    3    3    0    0 -0.21999282616E+03  0.54429076722E+03  0.26305879775E+03  0.64331113306E+03  0.00000000000E+00 0.  1.
          4    1    6    6  502    0  0.80706676745E+02 -0.77619360726E+02  0.15477058440E+03  0.19102949151E+03  0.00000000000E+00 0. -1.
          1    1    5    5  503    0  0.40053237620E+01 -0.86555300084E+01  0.40954808000E+02  0.42050649418E+02  0.00000000000E+00 0. -1.
         -2    1    5    5    0  503 -0.29267248295E+03 -0.25398181628E+03  0.12524584508E+04  0.13110362757E+04  0.00000000000E+00 0.  1.
         -3    1    6    6    0  502  0.44995664485E+03 -0.23580967414E+03  0.83568953575E+03  0.97797964438E+03  0.00000000000E+00 0.  1.
<mgrwt>
<rscale>  0 0.19555416E+04</rscale>
<asrwt>0</asrwt>
<pdfrwt beam="1">  1        2 0.44184026E+00 0.19555416E+04</pdfrwt>
<pdfrwt beam="2">  1       -2 0.51213228E-01 0.19555416E+04</pdfrwt>
<totfact> 0.70366801E+00</totfact>
</mgrwt>
</event>
<event>
12    1  0.1494110E-007  0.2408663E+04  0.7818608E-02  0.8436267E-01
         -3   -1    0    0    0  501 -0.00000000000E+00  0.00000000000E+00  0.55089533460E+03  0.55089533460E+03  0.00000000000E+00 0.  1.
          3   -1    0    0  501    0  0.00000000000E+00 -0.00000000000E+00 -0.26328316012E+04  0.26328316012E+04  0.00000000000E+00 0. -1.
         23    2    1    2    0    0  0.53557614930E+02 -0.99676192662E+03 -0.52745199911E+03  0.11326293064E+04  0.90778730437E+02 0.  0.
        254    2    1    2    0    0 -0.53557614930E+02  0.99676192662E+03 -0.15544842675E+04  0.20510976294E+04  0.89116630938E+03 0.  0.
        -24    2    4    4    0    0  0.31689444052E+03  0.59093537115E+03 -0.12432042511E+04  0.14147982752E+04  0.80440352722E+02 0.  0.
         24    2    4    4    0    0 -0.37045205545E+03  0.40582655547E+03 -0.31128001639E+03  0.63629935417E+03  0.77792679583E+02 0.  0.
         11    1    3    3    0    0  0.68713899986E+02 -0.91830973741E+03 -0.50172982837E+03  0.10486883210E+04  0.00000000000E+00 0.  1.
        -11    1    3    3    0    0 -0.15156285057E+02 -0.78452189205E+02 -0.25722170745E+02  0.83940985433E+02  0.00000000000E+00 0. -1.
          4    1    6    6  502    0 -0.11824237844E+03  0.11208938667E+03 -0.13179909541E+03  0.20956214403E+03  0.00000000000E+00 0. -1.
          1    1    5    5  503    0  0.56858755260E+02  0.82710315095E+02 -0.13536139716E+03  0.16851297313E+03  0.00000000000E+00 0. -1.
         -2    1    5    5    0  503  0.26003568526E+03  0.50822505605E+03 -0.11078428539E+04  0.12462853021E+04  0.00000000000E+00 0.  1.
         -3    1    6    6    0  502 -0.25220967701E+03  0.29373716880E+03 -0.17948092099E+03  0.42673721013E+03  0.00000000000E+00 0.  1.
<mgrwt>
<rscale>  0 0.24086632E+04</rscale>
<asrwt>0</asrwt>
<pdfrwt beam="1">  1        3 0.40505101E+00 0.24086632E+04</pdfrwt>
<pdfrwt beam="2">  1       -3 0.84753130E-01 0.24086632E+04</pdfrwt>
<totfact> 0.31339252E-02</totfact>
</mgrwt>
</event>
<event>
12    1  0.1494110E-007  0.1321510E+04  0.7818608E-02  0.9012679E-01
         -1   -1    0    0    0  501 -0.00000000000E+00  0.00000000000E+00  0.43565313331E+03  0.43565313331E+03  0.00000000000E+00 0.  1.
          1   -1    0    0  501    0  0.00000000000E+00 -0.00000000000E+00 -0.10021672210E+04  0.10021672210E+04  0.00000000000E+00 0. -1.
         23    2    1    2    0    0 -0.16019333271E+03 -0.20741712046E+02  0.18196981978E+03  0.25995831992E+03  0.91505138219E+02 0.  0.
        254    2    1    2    0    0  0.16019333271E+03  0.20741712046E+02 -0.74848390748E+03  0.11778620344E+04  0.89500764795E+03 0.  0.
        -24    2    4    4    0    0  0.12237289099E+03  0.11674049032E+03 -0.93350675621E+03  0.95205526030E+03  0.79817844165E+02 0.  0.
         24    2    4    4    0    0  0.37820441719E+02 -0.95998778270E+02  0.18502284873E+03  0.22580677411E+03  0.78160689871E+02 0.  0.
         11    1    3    3    0    0 -0.61822387848E+01 -0.42002052696E+00 -0.10759617972E+02  0.12416355042E+02  0.00000000000E+00 0. -1.
        -11    1    3    3    0    0 -0.15401109392E+03 -0.20321691519E+02  0.19272943775E+03  0.24754196488E+03  0.00000000000E+00 0.  1.
          2    1    6    6  502    0  0.60020642288E+02 -0.86495188787E+02  0.15174198197E+03  0.18468763975E+03  0.00000000000E+00 0. -1.
          1    1    5    5  503    0  0.11343224719E+03  0.11485078541E+03 -0.92671631612E+03  0.94067035043E+03  0.00000000000E+00 0. -1.
         -2    1    5    5    0  503  0.89406437998E+01  0.18897049078E+01 -0.67904400917E+01  0.11384909874E+02  0.00000000000E+00 0.  1.
         -1    1    6    6    0  502 -0.22200200569E+02 -0.95035894830E+01  0.33280866757E+02  0.41119134360E+02  0.00000000000E+00 0.  1.
<mgrwt>
<rscale>  0 0.13215102E+04</rscale>
<asrwt>0</asrwt>
<pdfrwt beam="1">  1        1 0.15417957E+00 0.13215102E+04</pdfrwt>
<pdfrwt beam="2">  1       -1 0.67023560E-01 0.13215102E+04</pdfrwt>
<totfact> 0.33345231E+01</totfact>
</mgrwt>
</event>
<event>
12    1  0.1494110E-007  0.1544114E+04  0.7818608E-02  0.8855636E-01
         -2   -1    0    0    0  501 -0.00000000000E+00  0.00000000000E+00  0.27443212169E+03  0.27443212169E+03  0.00000000000E+00 0.  1.
          2   -1    0    0  501    0  0.00000000000E+00 -0.00000000000E+00 -0.21720191089E+04  0.21720191089E+04  0.00000000000E+00 0. -1.
         23    2    1    2    0    0 -0.48502038751E+03  0.14004429116E+03 -0.61111766554E+03  0.79790062616E+03  0.91232824655E+02 0.  0.
        254    2    1    2    0    0  0.48502038751E+03 -0.14004429116E+03 -0.12864693217E+04  0.16485506045E+04  0.89880954601E+03 0.  0.
        -24    2    4    4    0    0 -0.84275088243E+02  0.84551994185E+02  0.69408017171E+02  0.15885304074E+03  0.78520605490E+02 0.  0.
         24    2    4    4    0    0  0.56929547576E+03 -0.22459628535E+03 -0.13558773389E+04  0.14896975637E+04  0.79086302061E+02 0.  0.
         11    1    3    3    0    0 -0.42388785149E+03  0.14970377549E+03 -0.55619709403E+03  0.71515546453E+03  0.00000000000E+00 0.  1.
        -11    1    3    3    0    0 -0.61132536022E+02 -0.96594843242E+01 -0.54920571512E+02  0.82745161630E+02  0.00000000000E+00 0. -1.
          2    1    6    6  502    0  0.40168361904E+03 -0.14191277278E+03 -0.85912503901E+03  0.95894984099E+03  0.00000000000E+00 0. -1.
          1    1    5    5  503    0 -0.26508607890E+02 -0.11675251435E+02  0.48300960192E+01  0.29365755837E+02  0.00000000000E+00 0. -1.
         -2    1    5    5    0  503 -0.57766480353E+02  0.96227245620E+02  0.64577921152E+02  0.12948728491E+03  0.00000000000E+00 0.  1.
         -1    1    6    6    0  502  0.16761185672E+03 -0.82683512569E+02 -0.49675229985E+03  0.53074772272E+03  0.00000000000E+00 0.  1.
<mgrwt>
<rscale>  0 0.15441137E+04</rscale>
<asrwt>0</asrwt>
<pdfrwt beam="1">  1        2 0.33415679E+00 0.15441137E+04</pdfrwt>
<pdfrwt beam="2">  1       -2 0.42220326E-01 0.15441137E+04</pdfrwt>
<totfact> 0.27439107E+01</totfact>
</mgrwt>
</event>
<event>
12    1  0.1494110E-007  0.1162369E+04  0.7818608E-02  0.9146448E-01
          2   -1    0    0  501    0  0.00000000000E+00  0.00000000000E+00  0.17535967534E+04  0.17535967534E+04  0.00000000000E+00 0. -1.
         -2   -1    0    0    0  501 -0.00000000000E+00 -0.00000000000E+00 -0.19261860643E+03  0.19261860643E+03  0.00000000000E+00 0.  1.
         23    2    1    2    0    0 -0.15793164993E+03  0.15970556800E+03  0.24188379081E+03  0.34204340649E+03  0.89652937307E+02 0.  0.
        254    2    1    2    0    0  0.15793164993E+03 -0.15970556800E+03  0.13190943561E+04  0.16041719533E+04  0.88482171136E+03 0.  0.
        -24    2    4    4    0    0  0.79110234726E+02  0.14234706041E+03 -0.57809274557E+02  0.19003175060E+03  0.79050864401E+02 0.  0.
         24    2    4    4    0    0  0.78821415208E+02 -0.30205262841E+03  0.13769036307E+04  0.14141402027E+04  0.80500303651E+02 0.  0.
         11    1    3    3    0    0 -0.28784242711E+02  0.41641746437E+02  0.10088075529E+02  0.51617215565E+02  0.00000000000E+00 0. -1.
        -11    1    3    3    0    0 -0.12914740722E+03  0.11806382156E+03  0.23179571528E+03  0.29042619093E+03  0.00000000000E+00 0.  1.
          4    1    6    6  502    0  0.76767712974E+01 -0.47216849045E+02  0.36901087659E+03  0.37209863033E+03  0.00000000000E+00 0. -1.
          1    1    5    5  503    0  0.49727173875E+02  0.19368220852E+02 -0.27386787811E+02  0.59982963808E+02  0.00000000000E+00 0. -1.
         -2    1    5    5    0  503  0.29383060851E+02  0.12297883956E+03 -0.30422486746E+02  0.13004878679E+03  0.00000000000E+00 0.  1.
         -3    1    6    6    0  502  0.71144643910E+02 -0.25483577937E+03  0.10078927541E+04  0.10420415724E+04  0.00000000000E+00 0.  1.
<mgrwt>
<rscale>  0 0.11623689E+04</rscale>
<asrwt>0</asrwt>
<pdfrwt beam="1">  1        2 0.26978411E+00 0.11623689E+04</pdfrwt>
<pdfrwt beam="2">  1       -2 0.29633633E-01 0.11623689E+04</pdfrwt>
<totfact> 0.95035191E+01</totfact>
</mgrwt>
</event>
<event>
12    1  0.1494110E-007  0.2845039E+04  0.7818608E-02  0.8289420E-01
         -1   -1    0    0    0  501 -0.00000000000E+00  0.00000000000E+00  0.86241159854E+03  0.86241159854E+03  0.00000000000E+00 0.  1.
          1   -1    0    0  501    0  0.00000000000E+00 -0.00000000000E+00 -0.23463987065E+04  0.23463987065E+04  0.00000000000E+00 0. -1.
         23    2    1    2    0    0  0.64990149645E+03 -0.38609327845E+03 -0.18326089521E+04  0.19844720038E+04  0.90739119521E+02 0.  0.
        254    2    1    2    0    0 -0.64990149645E+03  0.38609327845E+03  0.34862184406E+03  0.12243383013E+04  0.89779012645E+03 0.  0.
        -24    2    4    4    0    0  0.20513830877E+03  0.11917445151E+03 -0.20256464386E+02  0.25228958064E+03  0.83399235809E+02 0.  0.
         24    2    4    4    0    0 -0.85503980521E+03  0.26691882695E+03  0.36887830845E+03  0.97204872067E+03  0.80428727697E+02 0.  0.
         11    1    3    3    0    0  0.15950418967E+02 -0.14216629285E+02 -0.10280497041E+03  0.10500185881E+03  0.00000000000E+00 0.  1.
        -11    1    3    3    0    0  0.63395107748E+03 -0.37187664917E+03 -0.17298039817E+04  0.18794701450E+04  0.00000000000E+00 0. -1.
          4    1    6    6  502    0 -0.55508104937E+02  0.36017729272E+02  0.15732128690E+02  0.68014163295E+02  0.00000000000E+00 0. -1.
          1    1    5    5  503    0  0.85334141668E+02  0.17416899690E+02 -0.36157461302E+02  0.94300721825E+02  0.00000000000E+00 0. -1.
         -2    1    5    5    0  503  0.11980416710E+03  0.10175755182E+03  0.15900996916E+02  0.15798885881E+03  0.00000000000E+00 0.  1.
         -3    1    6    6    0  502 -0.79953170028E+03  0.23090109767E+03  0.35314617976E+03  0.90403455738E+03  0.00000000000E+00 0.  1.
<mgrwt>
<rscale>  0 0.28450388E+04</rscale>
<asrwt>0</asrwt>
<pdfrwt beam="1">  1        1 0.36098442E+00 0.28450388E+04</pdfrwt>
<pdfrwt beam="2">  1       -1 0.13267871E+00 0.28450388E+04</pdfrwt>
<totfact> 0.71802928E-01</totfact>
</mgrwt>
</event>
<event>
12    1  0.1494110E-007  0.2770060E+04  0.7818608E-02  0.8312624E-01
          2   -1    0    0  501    0  0.00000000000E+00  0.00000000000E+00  0.17832368861E+04  0.17832368861E+04  0.00000000000E+00 0. -1.
         -2   -1    0    0    0  501 -0.00000000000E+00 -0.00000000000E+00 -0.10757446386E+04  0.10757446386E+04  0.00000000000E+00 0.  1.
         23    2    1    2    0    0 -0.86234225736E+03 -0.84328992106E+03  0.60931624859E+03  0.13545048571E+04  0.92978801058E+02 0.  0.
        254    2    1    2    0    0  0.86234225736E+03  0.84328992106E+03  0.98175998983E+02  0.15044766676E+04  0.89389006968E+03 0.  0.
        -24    2    4    4    0    0  0.40523030025E+03  0.47461604764E+03 -0.38683391749E+03  0.73848105042E+03  0.79005020022E+02 0.  0.
         24    2    4    4    0    0  0.45711195711E+03  0.36867387342E+03  0.48500991648E+03  0.76599561714E+03  0.81503988386E+02 0.  0.
         13    1    3    3    0    0 -0.69819347656E+03 -0.72903489001E+03  0.51932395689E+03  0.11351930998E+04  0.00000000000E+00 0. -1.
        -13    1    3    3    0    0 -0.16414878080E+03 -0.11425503105E+03  0.89992291695E+02  0.21931175737E+03  0.00000000000E+00 0.  1.
          2    1    6    6  502    0  0.12611046232E+03  0.10278625191E+03  0.18363172731E+03  0.24533543071E+03  0.00000000000E+00 0. -1.
          1    1    5    5  503    0  0.15406783344E+03  0.15097472518E+03 -0.96176269716E+02  0.23617819501E+03  0.00000000000E+00 0. -1.
         -2    1    5    5    0  503  0.25116246682E+03  0.32364132246E+03 -0.29065764778E+03  0.50230285541E+03  0.00000000000E+00 0.  1.
         -1    1    6    6    0  502  0.33100149478E+03  0.26588762151E+03  0.30137818917E+03  0.52066018642E+03  0.00000000000E+00 0.  1.
<mgrwt>
<rscale>  0 0.27700596E+04</rscale>
<asrwt>0</asrwt>
<pdfrwt beam="1">  1        2 0.27434414E+00 0.27700596E+04</pdfrwt>
<pdfrwt beam="2">  1       -2 0.16549917E+00 0.27700596E+04</pdfrwt>
<totfact> 0.17658341E+00</totfact>
</mgrwt>
</event>
<event>
12    1  0.1494110E-007  0.2010444E+04  0.7818608E-02  0.8601753E-01
         -2   -1    0    0    0  501 -0.00000000000E+00  0.00000000000E+00  0.63305110993E+03  0.63305110993E+03  0.00000000000E+00 0. -1.
          2   -1    0    0  501    0  0.00000000000E+00 -0.00000000000E+00 -0.15961926090E+04  0.15961926090E+04  0.00000000000E+00 0.  1.
         23    2    1    2    0    0  0.59633518707E+03  0.15922643600E+03 -0.94127283186E+03  0.11292894818E+04  0.91276921573E+02 0.  0.
        254    2    1    2    0    0 -0.59633518707E+03 -0.15922643600E+03 -0.21868667180E+02  0.10999542371E+04  0.91019359035E+03 0.  0.
        -24    2    4    4    0    0 -0.24192813382E+03  0.23840604768E+03  0.30943545505E+03  0.46758013564E+03  0.86684582866E+02 0.  0.
         24    2    4    4    0    0 -0.35440705325E+03 -0.39763248368E+03 -0.33130412223E+03  0.63237410148E+03  0.80116361309E+02 0.  0.
         13    1    3    3    0    0  0.94857030735E+02  0.24912219032E+02 -0.95482194989E+02  0.13687704153E+03  0.00000000000E+00 0. -1.
        -13    1    3    3    0    0  0.50147815633E+03  0.13431421697E+03 -0.84579063687E+03  0.99241244025E+03  0.00000000000E+00 0.  1.
          4    1    6    6  502    0 -0.10446558592E+03 -0.17495042010E+03 -0.13197006417E+03  0.24276903833E+03  0.00000000000E+00 0. -1.
          1    1    5    5  503    0 -0.92371563377E+02  0.40634266948E+02  0.69399802961E+02  0.12247441374E+03  0.00000000000E+00 0. -1.
         -2    1    5    5    0  503 -0.14955657044E+03  0.19777178073E+03  0.24003565209E+03  0.34510572190E+03  0.00000000000E+00 0.  1.
         -3    1    6    6    0  502 -0.24994146733E+03 -0.22268206358E+03 -0.19933405806E+03  0.38960506315E+03  0.00000000000E+00 0.  1.
<mgrwt>
<rscale>  0 0.20104442E+04</rscale>
<asrwt>0</asrwt>
<pdfrwt beam="1">  1        2 0.24556809E+00 0.20104442E+04</pdfrwt>
<pdfrwt beam="2">  1       -2 0.97392480E-01 0.20104442E+04</pdfrwt>
<totfact> 0.91466970E+00</totfact>
</mgrwt>
</event>
<event>
12    1  0.1494110E-007  0.1362426E+04  0.7818608E-02  0.8981474E-01
          2   -1    0    0  501    0  0.00000000000E+00  0.00000000000E+00  0.13136003913E+04  0.13136003913E+04  0.00000000000E+00 0.  1.
         -2   -1    0    0    0  501 -0.00000000000E+00 -0.00000000000E+00 -0.35326684569E+03  0.35326684569E+03  0.00000000000E+00 0. -1.
         23    2    1    2    0    0 -0.39282791551E+02  0.27576426066E+03 -0.12271004144E+02  0.29368946986E+03  0.92270591157E+02 0.  0.
        254    2    1    2    0    0  0.39282791551E+02 -0.27576426066E+03  0.97260454974E+03  0.13731777671E+04  0.92847644276E+03 0.  0.
        -24    2    4    4    0    0 -0.10920109812E+03 -0.16986056104E+03  0.11101820914E+04  0.11311961803E+04  0.79517496236E+02 0.  0.
         24    2    4    4    0    0  0.14848388967E+03 -0.10590369962E+03 -0.13757754165E+03  0.24198158684E+03  0.79777498846E+02 0.  0.
         13    1    3    3    0    0  0.72999726108E+01  0.11942454666E+02  0.19398854459E+02  0.23921274587E+02  0.00000000000E+00 0.  1.
        -13    1    3    3    0    0 -0.46582764162E+02  0.26382180599E+03 -0.31669858603E+02  0.26976819527E+03  0.00000000000E+00 0. -1.
          2    1    6    6  502    0  0.59691254780E+02 -0.58584307779E+02 -0.17723517628E+02  0.85494386320E+02  0.00000000000E+00 0. -1.
          3    1    5    5  503    0 -0.51704445753E+02 -0.72373576180E+02  0.29268391970E+03  0.30590057386E+03  0.00000000000E+00 0. -1.
         -4    1    5    5    0  503 -0.57496652365E+02 -0.97486984859E+02  0.81749817169E+03  0.82529560641E+03  0.00000000000E+00 0.  1.
         -1    1    6    6    0  502  0.88792634889E+02 -0.47319391841E+02 -0.11985402402E+03  0.15648720052E+03  0.00000000000E+00 0.  1.
<mgrwt>
<rscale>  0 0.13624265E+04</rscale>
<asrwt>0</asrwt>
<pdfrwt beam="1">  1        2 0.20209237E+00 0.13624265E+04</pdfrwt>
<pdfrwt beam="2">  1       -2 0.54348746E-01 0.13624265E+04</pdfrwt>
<totfact> 0.50477480E+01</totfact>
</mgrwt>
</event>
<event>
12    1  0.1494110E-007  0.2812578E+04  0.7818608E-02  0.8299374E-01
         -1   -1    0    0    0  501 -0.00000000000E+00  0.00000000000E+00  0.71783816159E+03  0.71783816159E+03  0.00000000000E+00 0.  1.
          1   -1    0    0  501    0  0.00000000000E+00 -0.00000000000E+00 -0.27550062035E+04  0.27550062035E+04  0.00000000000E+00 0. -1.
         23    2    1    2    0    0 -0.11070717978E+04 -0.59030780955E+03 -0.10651935861E+04  0.16483897348E+04  0.92087276626E+02 0.  0.
        254    2    1    2    0    0  0.11070717978E+04  0.59030780955E+03 -0.97197445586E+03  0.18244546303E+04  0.89990503918E+03 0.  0.
        -24    2    4    4    0    0  0.10004379999E+04  0.20198730257E+03 -0.97513380967E+03  0.14138718787E+04  0.80452971460E+02 0.  0.
         24    2    4    4    0    0  0.10663379796E+03  0.38832050698E+03  0.31593538141E+01  0.41058275158E+03  0.80028940812E+02 0.  0.
         11    1    3    3    0    0 -0.70521483213E+03 -0.37828160982E+03 -0.62070160549E+03  0.10127662212E+04  0.00000000000E+00 0. -1.
        -11    1    3    3    0    0 -0.40185696570E+03 -0.21202619974E+03 -0.44449198058E+03  0.63562351361E+03  0.00000000000E+00 0.  1.
          4    1    6    6  502    0  0.88243015592E+02  0.37844814625E+03  0.96630081178E+01  0.38871995437E+03  0.00000000000E+00 0. -1.
          3    1    5    5  503    0  0.57985538760E+03  0.14160709411E+03 -0.61286070423E+03  0.85550165542E+03  0.00000000000E+00 0. -1.
         -4    1    5    5    0  503  0.42058261227E+03  0.60380208455E+02 -0.36227310544E+03  0.55837022328E+03  0.00000000000E+00 0.  1.
         -3    1    6    6    0  502  0.18390782365E+02  0.98723607333E+01 -0.65036543038E+01  0.21862797208E+02  0.00000000000E+00 0.  1.
<mgrwt>
<rscale>  0 0.28125779E+04</rscale>
<asrwt>0</asrwt>
<pdfrwt beam="1">  1        1 0.42384712E+00 0.28125779E+04</pdfrwt>
<pdfrwt beam="2">  1       -1 0.11043664E+00 0.28125779E+04</pdfrwt>
<totfact> 0.58626950E-01</totfact>
</mgrwt>
</event>
<event>
12    1  0.1494110E-007  0.1306850E+04  0.7818608E-02  0.9024150E-01
         -1   -1    0    0    0  501 -0.00000000000E+00  0.00000000000E+00  0.46588060194E+03  0.46588060194E+03  0.00000000000E+00 0.  1.
          1   -1    0    0  501    0  0.00000000000E+00 -0.00000000000E+00 -0.91646774716E+03  0.91646774716E+03  0.00000000000E+00 0. -1.
         23    2    1    2    0    0  0.14109260106E+03  0.73188008923E+02 -0.39979228713E+03  0.43596941298E+03  0.70511342940E+02 0.  0.
        254    2    1    2    0    0 -0.14109260106E+03 -0.73188008923E+02 -0.50794858092E+02  0.94637893612E+03  0.93155212758E+03 0.  0.
        -24    2    4    4    0    0 -0.24408538553E+03  0.12834298703E+03 -0.41781746016E+03  0.50765107887E+03  0.84193765319E+02 0.  0.
         24    2    4    4    0    0  0.10299278447E+03 -0.20153099595E+03  0.36702260207E+03  0.43872785725E+03  0.80958546884E+02 0.  0.
         11    1    3    3    0    0  0.59314121036E+02  0.10857845281E+02 -0.80837760301E+02  0.10085039043E+03  0.00000000000E+00 0.  1.
        -11    1    3    3    0    0  0.81778480021E+02  0.62330163642E+02 -0.31895452683E+03  0.33511902255E+03  0.00000000000E+00 0. -1.
          4    1    6    6  502    0  0.25706415566E+00  0.11656766220E+01 -0.37064174214E+01  0.38938944604E+01  0.00000000000E+00 0. -1.
          1    1    5    5  503    0 -0.49568607845E+02  0.40370008734E+02 -0.16382161909E+03  0.17585308462E+03  0.00000000000E+00 0. -1.
         -2    1    5    5    0  503 -0.19451677768E+03  0.87972978292E+02 -0.25399584107E+03  0.33179799426E+03  0.00000000000E+00 0.  1.
         -3    1    6    6    0  502  0.10273572032E+03 -0.20269667257E+03  0.37072901949E+03  0.43483396279E+03  0.00000000000E+00 0.  1.
<mgrwt>
<rscale>  0 0.13068505E+04</rscale>
<asrwt>0</asrwt>
<pdfrwt beam="1">  1        1 0.14099504E+00 0.13068505E+04</pdfrwt>
<pdfrwt beam="2">  1       -1 0.71673939E-01 0.13068505E+04</pdfrwt>
<totfact> 0.34050138E+01</totfact>
</mgrwt>
</event>
<event>
12    1  0.1494110E-007  0.1256139E+04  0.7818608E-02  0.9065089E-01
         -1   -1    0    0    0  501 -0.00000000000E+00  0.00000000000E+00  0.47644768405E+03  0.47644768405E+03  0.00000000000E+00 0.  1.
          1   -1    0    0  501    0  0.00000000000E+00 -0.00000000000E+00 -0.82794282472E+03  0.82794282472E+03  0.00000000000E+00 0. -1.
         23    2    1    2    0    0  0.98679902902E+02  0.16798696295E+03 -0.33083339138E+03  0.39459247420E+03  0.91077686005E+02 0.  0.
        254    2    1    2    0    0 -0.98679902902E+02 -0.16798696295E+03 -0.20661749290E+02  0.90979803457E+03  0.88845270717E+03 0.  0.
        -24    2    4    4    0    0 -0.40790748088E+03  0.11424983467E+03 -0.16213356385E+03  0.46059235472E+03  0.80102977588E+02 0.  0.
         24    2    4    4    0    0  0.30922757798E+03 -0.28223679762E+03  0.14147181456E+03  0.44920567985E+03  0.80573963447E+02 0.  0.
         13    1    3    3    0    0  0.12677946850E+02  0.84442964971E+02 -0.19812233498E+03  0.21574013138E+03  0.00000000000E+00 0. -1.
        -13    1    3    3    0    0  0.86001956052E+02  0.83543997977E+02 -0.13271105640E+03  0.17885234283E+03  0.00000000000E+00 0.  1.
          2    1    6    6  502    0  0.12355463733E+03 -0.11834877399E+03  0.99789604401E+02  0.19806601389E+03  0.00000000000E+00 0. -1.
          3    1    5    5  503    0 -0.18490266998E+03  0.27976812207E+02 -0.10607849782E+03  0.21499848159E+03  0.00000000000E+00 0. -1.
         -4    1    5    5    0  503 -0.22300481090E+03  0.86273022467E+02 -0.56055066027E+02  0.24559387312E+03  0.00000000000E+00 0.  1.
         -1    1    6    6    0  502  0.18567294065E+03 -0.16388802363E+03  0.41682210157E+02  0.25113966597E+03  0.00000000000E+00 0.  1.
<mgrwt>
<rscale>  0 0.12561392E+04</rscale>
<asrwt>0</asrwt>
<pdfrwt beam="1">  1        1 0.12737582E+00 0.12561392E+04</pdfrwt>
<pdfrwt beam="2">  1       -1 0.73299644E-01 0.12561392E+04</pdfrwt>
<totfact> 0.38676292E+01</totfact>
</mgrwt>
</event>
<event>
12    1  0.1494110E-007  0.1239792E+04  0.7818608E-02  0.9078722E-01
          1   -1    0    0  501    0  0.00000000000E+00  0.00000000000E+00  0.18028504198E+04  0.18028504198E+04  0.00000000000E+00 0. -1.
         -1   -1    0    0    0  501 -0.00000000000E+00 -0.00000000000E+00 -0.21314645828E+03  0.21314645828E+03  0.00000000000E+00 0.  1.
         23    2    1    2    0    0  0.25325140322E+03  0.10396753811E+03  0.41834182219E+03  0.50829797410E+03  0.91713837921E+02 0.  0.
        254    2    1    2    0    0 -0.25325140322E+03 -0.10396753811E+03  0.11713621393E+04  0.15076989040E+04  0.90891209774E+03 0.  0.
        -24    2    4    4    0    0 -0.47350476758E+03  0.23728469038E+03  0.65878367188E+03  0.84887991636E+03  0.78040994668E+02 0.  0.
         24    2    4    4    0    0  0.22025336436E+03 -0.34125222848E+03  0.51257846746E+03  0.65881898764E+03  0.79631307984E+02 0.  0.
         11    1    3    3    0    0  0.25220371718E+03  0.81920703954E+02  0.37058465865E+03  0.45568707017E+03  0.00000000000E+00 0.  1.
        -11    1    3    3    0    0  0.10476860371E+01  0.22046834154E+02  0.47757163548E+02  0.52610903931E+02  0.00000000000E+00 0. -1.
          4    1    6    6  502    0  0.16076149047E+02 -0.81420240169E+01  0.58294324062E+01  0.18939836469E+02  0.00000000000E+00 0. -1.
          3    1    5    5  503    0 -0.42056873039E+02  0.23114934293E+01  0.34354571998E+02  0.54354026427E+02  0.00000000000E+00 0. -1.
         -4    1    5    5    0  503 -0.43144789454E+03  0.23497319695E+03  0.62442909988E+03  0.79452588993E+03  0.00000000000E+00 0.  1.
         -3    1    6    6    0  502  0.20417721531E+03 -0.33311020447E+03  0.50674903505E+03  0.63987915117E+03  0.00000000000E+00 0.  1.
<mgrwt>
<rscale>  0 0.12397922E+04</rscale>
<asrwt>0</asrwt>
<pdfrwt beam="1">  1        1 0.27736159E+00 0.12397922E+04</pdfrwt>
<pdfrwt beam="2">  1       -1 0.32791764E-01 0.12397922E+04</pdfrwt>
<totfact> 0.34919034E+01</totfact>
</mgrwt>
</event>
<event>
12    1  0.1494110E-007  0.1917752E+04  0.7818608E-02  0.8646070E-01
         -2   -1    0    0    0  501 -0.00000000000E+00  0.00000000000E+00  0.57617665856E+03  0.57617665856E+03  0.00000000000E+00 0.  1.
          2   -1    0    0  501    0  0.00000000000E+00 -0.00000000000E+00 -0.15957666550E+04  0.15957666550E+04  0.00000000000E+00 0. -1.
         23    2    1    2    0    0  0.16632281562E+03 -0.20717572290E+03 -0.11906541054E+04  0.12233632763E+04  0.91517473382E+02 0.  0.
        254    2    1    2    0    0 -0.16632281562E+03  0.20717572290E+03  0.17106410898E+03  0.94858003724E+03  0.89440264898E+03 0.  0.
        -24    2    4    4    0    0  0.86831334814E+02  0.41797664389E+03  0.35632841787E+03  0.56224698505E+03  0.83111823858E+02 0.  0.
         24    2    4    4    0    0 -0.25315415044E+03 -0.21080092099E+03 -0.18526430889E+03  0.38633305219E+03  0.80039433372E+02 0.  0.
         13    1    3    3    0    0  0.16599579197E+03 -0.21292006900E+03 -0.11045259526E+04  0.11370431561E+04  0.00000000000E+00 0. -1.
        -13    1    3    3    0    0  0.32702365270E+00  0.57443460961E+01 -0.86128152792E+02  0.86320120250E+02  0.00000000000E+00 0.  1.
          2    1    6    6  502    0 -0.22088956650E+02  0.19287149824E+01 -0.10066410596E+01  0.22195839105E+02  0.00000000000E+00 0. -1.
          3    1    5    5  503    0  0.78190946144E+02  0.21509484172E+03  0.15584320125E+03  0.27688755546E+03  0.00000000000E+00 0. -1.
         -4    1    5    5    0  503  0.86403886698E+01  0.20288180217E+03  0.20048521662E+03  0.28535942958E+03  0.00000000000E+00 0.  1.
         -1    1    6    6    0  502 -0.23106519379E+03 -0.21272963597E+03 -0.18425766783E+03  0.36413721309E+03  0.00000000000E+00 0.  1.
<mgrwt>
<rscale>  0 0.19177523E+04</rscale>
<asrwt>0</asrwt>
<pdfrwt beam="1">  1        2 0.24550256E+00 0.19177523E+04</pdfrwt>
<pdfrwt beam="2">  1       -2 0.88642563E-01 0.19177523E+04</pdfrwt>
<totfact> 0.11477829E+01</totfact>
</mgrwt>
</event>
<event>
12    1  0.1494110E-007  0.2352128E+04  0.7818608E-02  0.8457647E-01
         -2   -1    0    0    0  501 -0.00000000000E+00  0.00000000000E+00  0.77884867596E+03  0.77884867596E+03  0.00000000000E+00 0.  1.
          2   -1    0    0  501    0  0.00000000000E+00 -0.00000000000E+00 -0.17758606365E+04  0.17758606365E+04  0.00000000000E+00 0. -1.
         23    2    1    2    0    0 -0.18454202791E+03  0.65650803124E+03 -0.12337491672E+04  0.14126726044E+04  0.91914766826E+02 0.  0.
        254    2    1    2    0    0  0.18454202791E+03 -0.65650803124E+03  0.23673720668E+03  0.11420367081E+04  0.88495467819E+03 0.  0.
        -24    2    4    4    0    0 -0.12564180806E+03 -0.76447326652E+03  0.18611879896E+03  0.80050439779E+03  0.77212980695E+02 0.  0.
         24    2    4    4    0    0  0.31018383598E+03  0.10796523529E+03  0.50618407719E+02  0.34153231030E+03  0.78813651421E+02 0.  0.
         13    1    3    3    0    0 -0.15137297984E+03  0.55213795018E+03 -0.95888288256E+03  0.11167929430E+04  0.00000000000E+00 0.  1.
        -13    1    3    3    0    0 -0.33169048077E+02  0.10437008106E+03 -0.27486628466E+03  0.29587966137E+03  0.00000000000E+00 0. -1.
          4    1    6    6  502    0  0.25031613913E+03  0.11576278359E+03  0.54156498648E+02  0.28105536451E+03  0.00000000000E+00 0. -1.
          1    1    5    5  503    0 -0.40607449320E+02 -0.45237114767E+03  0.12761443259E+03  0.47177755732E+03  0.00000000000E+00 0. -1.
         -2    1    5    5    0  503 -0.85034358744E+02 -0.31210211885E+03  0.58504366370E+02  0.32872684047E+03  0.00000000000E+00 0.  1.
         -3    1    6    6    0  502  0.59867696849E+02 -0.77975483044E+01 -0.35380909287E+01  0.60476945798E+02  0.00000000000E+00 0.  1.
<mgrwt>
<rscale>  0 0.23521281E+04</rscale>
<asrwt>0</asrwt>
<pdfrwt beam="1">  1        2 0.27320933E+00 0.23521281E+04</pdfrwt>
<pdfrwt beam="2">  1       -2 0.11982287E+00 0.23521281E+04</pdfrwt>
<totfact> 0.42821201E+00</totfact>
</mgrwt>
</event>
<event>
12    1  0.1494110E-007  0.1523945E+04  0.7818608E-02  0.8868684E-01
          2   -1    0    0  501    0  0.00000000000E+00  0.00000000000E+00  0.42880336790E+03  0.42880336790E+03  0.00000000000E+00 0.  1.
         -2   -1    0    0    0  501 -0.00000000000E+00 -0.00000000000E+00 -0.13540048060E+04  0.13540048060E+04  0.00000000000E+00 0. -1.
         23    2    1    2    0    0  0.33962807003E+03  0.31921380344E+02  0.10854602944E+03  0.36947871187E+03  0.91466264518E+02 0.  0.
        254    2    1    2    0    0 -0.33962807003E+03 -0.31921380344E+02 -0.10337474676E+04  0.14133294621E+04  0.90138789716E+03 0.  0.
        -24    2    4    4    0    0 -0.24769085963E+03 -0.22528955779E+03 -0.11181253191E+04  0.11701737482E+04  0.83643439950E+02 0.  0.
         24    2    4    4    0    0 -0.91937210393E+02  0.19336817745E+03  0.84377851486E+02  0.24315571386E+03  0.78494437115E+02 0.  0.
         11    1    3    3    0    0  0.31645451026E+02  0.10436871101E+02  0.42076912377E+02  0.53673358421E+02  0.00000000000E+00 0. -1.
        -11    1    3    3    0    0  0.30798261900E+03  0.21484509243E+02  0.66469117065E+02  0.31580535345E+03  0.00000000000E+00 0.  1.
          4    1    6    6  502    0 -0.86696467476E+01  0.69386488842E+01 -0.12871013255E+02  0.16999135427E+02  0.00000000000E+00 0. -1.
          3    1    5    5  503    0 -0.57515730420E+02 -0.42816143793E+02 -0.37250796656E+03  0.37934610393E+03  0.00000000000E+00 0. -1.
         -4    1    5    5    0  503 -0.19017512921E+03 -0.18247341400E+03 -0.74561735251E+03  0.79082764428E+03  0.00000000000E+00 0.  1.
         -3    1    6    6    0  502 -0.83267563646E+02  0.18642952857E+03  0.97248864741E+02  0.22615657844E+03  0.00000000000E+00 0.  1.
<mgrwt>
<rscale>  0 0.15239446E+04</rscale>
<asrwt>0</asrwt>
<pdfrwt beam="1">  1        2 0.65969749E-01 0.15239446E+04</pdfrwt>
<pdfrwt beam="2">  1       -2 0.20830843E+00 0.15239446E+04</pdfrwt>
<totfact> 0.83149371E+00</totfact>
</mgrwt>
</event>
<event>
12    1  0.1494110E-007  0.1980960E+04  0.7818608E-02  0.8615575E-01
          2   -1    0    0  501    0  0.00000000000E+00  0.00000000000E+00  0.17855416357E+04  0.17855416357E+04  0.00000000000E+00 0. -1.
         -2   -1    0    0    0  501 -0.00000000000E+00 -0.00000000000E+00 -0.54944137532E+03  0.54944137532E+03  0.00000000000E+00 0.  1.
         23    2    1    2    0    0 -0.76465024436E+02 -0.77622778714E+03  0.54046601758E+03  0.95291082438E+03  0.86942771788E+02 0.  0.
        254    2    1    2    0    0  0.76465024436E+02  0.77622778714E+03  0.69563424275E+03  0.13820721866E+04  0.90434509551E+03 0.  0.
        -24    2    4    4    0    0 -0.29023572537E+03  0.72233523649E+02  0.45258312224E+03  0.54824755484E+03  0.79305993697E+02 0.  0.
         24    2    4    4    0    0  0.36670074981E+03  0.70399426349E+03  0.24305112051E+03  0.83382463175E+03  0.78181240642E+02 0.  0.
         13    1    3    3    0    0 -0.83399260925E+01 -0.39392961552E+03  0.23436448498E+03  0.45845044244E+03  0.00000000000E+00 0. -1.
        -13    1    3    3    0    0 -0.68125098343E+02 -0.38229817162E+03  0.30610153260E+03  0.49446038194E+03  0.00000000000E+00 0.  1.
          2    1    6    6  502    0  0.16090940952E+03  0.23045335194E+03  0.95047259045E+02  0.29670619634E+03  0.00000000000E+00 0. -1.
          3    1    5    5  503    0 -0.83496874113E+01  0.23384619939E+01  0.56156299033E+02  0.56821788123E+02  0.00000000000E+00 0. -1.
         -4    1    5    5    0  503 -0.28188603796E+03  0.69895061655E+02  0.39642682321E+03  0.49142576672E+03  0.00000000000E+00 0.  1.
         -1    1    6    6    0  502  0.20579134029E+03  0.47354091155E+03  0.14800386147E+03  0.53711843541E+03  0.00000000000E+00 0.  1.
<mgrwt>
<rscale>  0 0.19809598E+04</rscale>
<asrwt>0</asrwt>
<pdfrwt beam="1">  1        2 0.27469871E+00 0.19809598E+04</pdfrwt>
<pdfrwt beam="2">  1       -2 0.84529443E-01 0.19809598E+04</pdfrwt>
<totfact> 0.99795897E+00</totfact>
</mgrwt>
</event>
<event>
12    1  0.1494110E-007  0.1970746E+04  0.7818608E-02  0.8620421E-01
          2   -1    0    0  501    0  0.00000000000E+00  0.00000000000E+00  0.10234757603E+04  0.10234757603E+04  0.00000000000E+00 0. -1.
         -2   -1    0    0    0  501 -0.00000000000E+00 -0.00000000000E+00 -0.94868871571E+03  0.94868871571E+03  0.00000000000E+00 0.  1.
         23    2    1    2    0    0  0.12645065531E+02  0.12668368023E+03  0.80480296844E+03  0.82008376939E+03  0.92848900355E+02 0.  0.
        254    2    1    2    0    0 -0.12645065531E+02 -0.12668368023E+03 -0.73001592384E+03  0.11520807066E+04  0.88213267312E+03 0.  0.
        -24    2    4    4    0    0 -0.26015677928E+03  0.23954445335E+03 -0.57016955069E+03  0.67535111782E+03  0.77089045059E+02 0.  0.
         24    2    4    4    0    0  0.24751171375E+03 -0.36622813358E+03 -0.15984637315E+03  0.47672958881E+03  0.79593615096E+02 0.  0.
         11    1    3    3    0    0 -0.44990478776E+01 -0.14539623596E+02  0.69786091122E+02  0.71426469884E+02  0.00000000000E+00 0.  1.
        -11    1    3    3    0    0  0.17144113409E+02  0.14122330383E+03  0.73501687732E+03  0.74865729951E+03  0.00000000000E+00 0. -1.
          4    1    6    6  502    0  0.22956563101E+03 -0.35756326168E+03 -0.13709126994E+03  0.44648166965E+03  0.00000000000E+00 0. -1.
          3    1    5    5  503    0 -0.18883279322E+03  0.21474916626E+03 -0.43659043783E+03  0.52190635042E+03  0.00000000000E+00 0. -1.
         -4    1    5    5    0  503 -0.71323986058E+02  0.24795287090E+02 -0.13357911286E+03  0.15344476739E+03  0.00000000000E+00 0.  1.
         -3    1    6    6    0  502  0.17946082736E+02 -0.86648719041E+01 -0.22755103217E+02  0.30247919153E+02  0.00000000000E+00 0.  1.
<mgrwt>
<rscale>  0 0.19707460E+04</rscale>
<asrwt>0</asrwt>
<pdfrwt beam="1">  1        2 0.15745781E+00 0.19707460E+04</pdfrwt>
<pdfrwt beam="2">  1       -2 0.14595211E+00 0.19707460E+04</pdfrwt>
<totfact> 0.72976886E+00</totfact>
</mgrwt>
</event>
<event>
12    1  0.1494110E-007  0.1540184E+04  0.7818608E-02  0.8858162E-01
         -1   -1    0    0    0  501 -0.00000000000E+00  0.00000000000E+00  0.46676184686E+03  0.46676184686E+03  0.00000000000E+00 0.  1.
          1   -1    0    0  501    0  0.00000000000E+00 -0.00000000000E+00 -0.12705442038E+04  0.12705442038E+04  0.00000000000E+00 0. -1.
         23    2    1    2    0    0 -0.19946366600E+03  0.38107916774E+03 -0.20648043950E+02  0.44037148519E+03  0.92160822004E+02 0.  0.
        254    2    1    2    0    0  0.19946366600E+03 -0.38107916774E+03 -0.78313431298E+03  0.12969345654E+04  0.94007065094E+03 0.  0.
        -24    2    4    4    0    0  0.38583603162E+03 -0.54332201347E+03 -0.27311407837E+03  0.72457322569E+03  0.79666843546E+02 0.  0.
         24    2    4    4    0    0 -0.18637236563E+03  0.16224284573E+03 -0.51002023461E+03  0.57236133976E+03  0.80121556898E+02 0.  0.
         11    1    3    3    0    0 -0.13256566867E+03  0.28964339038E+03 -0.52146736027E+02  0.32277892152E+03  0.00000000000E+00 0.  1.
        -11    1    3    3    0    0 -0.66897997327E+02  0.91435777360E+02  0.31498692077E+02  0.11759256367E+03  0.00000000000E+00 0. -1.
          4    1    6    6  502    0 -0.15555591385E+03  0.16622198420E+03 -0.43055012219E+03  0.48703264581E+03  0.00000000000E+00 0. -1.
          1    1    5    5  503    0  0.34883460420E+03 -0.44308920316E+03 -0.23817911457E+03  0.61216248959E+03  0.00000000000E+00 0. -1.
         -2    1    5    5    0  503  0.37001427420E+02 -0.10023281031E+03 -0.34934963800E+02  0.11241073610E+03  0.00000000000E+00 0.  1.
         -3    1    6    6    0  502 -0.30816451778E+02 -0.39791384743E+01 -0.79470112426E+02  0.85328693956E+02  0.00000000000E+00 0.  1.
<mgrwt>
<rscale>  0 0.15401838E+04</rscale>
<asrwt>0</asrwt>
<pdfrwt beam="1">  1        1 0.19546834E+00 0.15401838E+04</pdfrwt>
<pdfrwt beam="2">  1       -1 0.71809515E-01 0.15401838E+04</pdfrwt>
<totfact> 0.17924070E+01</totfact>
</mgrwt>
</event>
<event>
12    1  0.1494110E-007  0.1783927E+04  0.7818608E-02  0.8714894E-01
         -2   -1    0    0    0  501 -0.00000000000E+00  0.00000000000E+00  0.33461962161E+03  0.33461962161E+03  0.00000000000E+00 0. -1.
          2   -1    0    0  501    0  0.00000000000E+00 -0.00000000000E+00 -0.23776209840E+04  0.23776209840E+04  0.00000000000E+00 0.  1.
         23    2    1    2    0    0 -0.16916850815E+03 -0.28018468498E+02  0.19993073570E+03  0.28015401037E+03  0.95451305512E+02 0.  0.
        254    2    1    2    0    0  0.16916850815E+03  0.28018468498E+02 -0.22429320981E+04  0.24320865953E+04  0.92460683069E+03 0.  0.
        -24    2    4    4    0    0  0.45133337494E+03  0.15721325257E+03 -0.19070032085E+04  0.19677725262E+04  0.83962226061E+02 0.  0.
         24    2    4    4    0    0 -0.28216486679E+03 -0.12919478408E+03 -0.33592888957E+03  0.46431406904E+03  0.80193712855E+02 0.  0.
         13    1    3    3    0    0 -0.77635544672E+02  0.34539959917E+01  0.27538434196E+02  0.82447396822E+02  0.00000000000E+00 0.  1.
        -13    1    3    3    0    0 -0.91532963478E+02 -0.31472464489E+02  0.17239230150E+03  0.19770661355E+03  0.00000000000E+00 0. -1.
          2    1    6    6  502    0 -0.10341726764E+03 -0.87508252859E+02 -0.16516823674E+03  0.21361969009E+03  0.00000000000E+00 0. -1.
          1    1    5    5  503    0  0.34337832462E+01 -0.40834084101E+00 -0.11248237848E+01  0.36363220664E+01  0.00000000000E+00 0. -1.
         -2    1    5    5    0  503  0.44789959169E+03  0.15762159341E+03 -0.19058783848E+04  0.19641362041E+04  0.00000000000E+00 0.  1.
         -1    1    6    6    0  502 -0.17874759915E+03 -0.41686531217E+02 -0.17076065283E+03  0.25069437896E+03  0.00000000000E+00 0.  1.
<mgrwt>
<rscale>  0 0.17839267E+04</rscale>
<asrwt>0</asrwt>
<pdfrwt beam="1">  1        2 0.36578785E+00 0.17839267E+04</pdfrwt>
<pdfrwt beam="2">  1       -2 0.51479941E-01 0.17839267E+04</pdfrwt>
<totfact> 0.13808389E+01</totfact>
</mgrwt>
</event>
<event>
12    1  0.1494110E-007  0.1559104E+04  0.7818608E-02  0.8846073E-01
          2   -1    0    0  501    0  0.00000000000E+00  0.00000000000E+00  0.12330215194E+04  0.12330215194E+04  0.00000000000E+00 0. -1.
         -2   -1    0    0    0  501 -0.00000000000E+00 -0.00000000000E+00 -0.49285553185E+03  0.49285553185E+03  0.00000000000E+00 0.  1.
         23    2    1    2    0    0 -0.25579852662E+02  0.33526320381E+03 -0.15580244334E+03  0.38179507297E+03  0.91854949261E+02 0.  0.
        254    2    1    2    0    0  0.25579852662E+02 -0.33526320381E+03  0.89596843088E+03  0.13440819783E+04  0.94379086164E+03 0.  0.
        -24    2    4    4    0    0 -0.21189605653E+03 -0.59690492567E+03  0.61962210782E+03  0.88980080564E+03  0.81354091143E+02 0.  0.
         24    2    4    4    0    0  0.23747590920E+03  0.26164172186E+03  0.27634632306E+03  0.45428117265E+03  0.71783671435E+02 0.  0.
         13    1    3    3    0    0  0.31916096282E+02  0.17729363128E+03 -0.88600722840E+02  0.20075297503E+03  0.00000000000E+00 0.  1.
        -13    1    3    3    0    0 -0.57495948943E+02  0.15796957253E+03 -0.67201720497E+02  0.18104209794E+03  0.00000000000E+00 0. -1.
          2    1    6    6  502    0  0.37625572930E+02  0.10937951656E+02  0.39796835271E+02  0.55848998401E+02  0.00000000000E+00 0. -1.
          1    1    5    5  503    0 -0.85964559212E+02 -0.20220483706E+03  0.26675047868E+03  0.34559010322E+03  0.00000000000E+00 0. -1.
         -2    1    5    5    0  503 -0.12593149732E+03 -0.39470008861E+03  0.35287162914E+03  0.54421070241E+03  0.00000000000E+00 0.  1.
         -1    1    6    6    0  502  0.19985033627E+03  0.25070377021E+03  0.23654948779E+03  0.39843217424E+03  0.00000000000E+00 0.  1.
<mgrwt>
<rscale>  0 0.15591042E+04</rscale>
<asrwt>0</asrwt>
<pdfrwt beam="1">  1        2 0.18969562E+00 0.15591042E+04</pdfrwt>
<pdfrwt beam="2">  1       -2 0.75823928E-01 0.15591042E+04</pdfrwt>
<totfact> 0.27139946E+01</totfact>
</mgrwt>
</event>
<event>
12    1  0.1494110E-007  0.1131559E+04  0.7818608E-02  0.9174967E-01
         -2   -1    0    0    0  501 -0.00000000000E+00  0.00000000000E+00  0.18238814727E+04  0.18238814727E+04  0.00000000000E+00 0.  1.
          2   -1    0    0  501    0  0.00000000000E+00 -0.00000000000E+00 -0.17550831695E+03  0.17550831695E+03  0.00000000000E+00 0. -1.
         23    2    1    2    0    0 -0.16004425895E+03 -0.17658516517E+02  0.50508044310E+03  0.53829807907E+03  0.93448273965E+02 0.  0.
        254    2    1    2    0    0  0.16004425895E+03  0.17658516517E+02  0.11432927126E+04  0.14610917106E+04  0.89540201690E+03 0.  0.
        -24    2    4    4    0    0 -0.12705251262E+03 -0.33803437119E+03  0.22716582739E+03  0.43398978745E+03  0.79581690160E+02 0.  0.
         24    2    4    4    0    0  0.28709677156E+03  0.35569288771E+03  0.91612688525E+03  0.10271019231E+04  0.81901794697E+02 0.  0.
         13    1    3    3    0    0 -0.65086827902E+01 -0.20396627948E+02  0.19301376939E+02  0.28825831038E+02  0.00000000000E+00 0. -1.
        -13    1    3    3    0    0 -0.15353557615E+03  0.27381114314E+01  0.48577906616E+03  0.50947224803E+03  0.00000000000E+00 0.  1.
          4    1    6    6  502    0  0.20375474623E+03  0.19667792590E+03  0.51770423120E+03  0.59009819026E+03  0.00000000000E+00 0. -1.
          3    1    5    5  503    0 -0.15179246893E+00 -0.11802852324E+02 -0.61552761131E+01  0.13312317153E+02  0.00000000000E+00 0. -1.
         -4    1    5    5    0  503 -0.12690072015E+03 -0.32623151887E+03  0.23332110351E+03  0.42067747030E+03  0.00000000000E+00 0.  1.
         -3    1    6    6    0  502  0.83342025335E+02  0.15901496181E+03  0.39842265405E+03  0.43700373285E+03  0.00000000000E+00 0.  1.
<mgrwt>
<rscale>  0 0.11315589E+04</rscale>
<asrwt>0</asrwt>
<pdfrwt beam="1">  1        2 0.27001281E-01 0.11315589E+04</pdfrwt>
<pdfrwt beam="2">  1       -2 0.28059714E+00 0.11315589E+04</pdfrwt>
<totfact> 0.83731871E+00</totfact>
</mgrwt>
</event>
<event>
12    1  0.1494110E-007  0.2118560E+04  0.7818608E-02  0.8553111E-01
          1   -1    0    0  501    0  0.00000000000E+00  0.00000000000E+00  0.72092139385E+03  0.72092139385E+03  0.00000000000E+00 0. -1.
         -1   -1    0    0    0  501 -0.00000000000E+00 -0.00000000000E+00 -0.15564439412E+04  0.15564439412E+04  0.00000000000E+00 0.  1.
         23    2    1    2    0    0 -0.22068794496E+03  0.51008867362E+03  0.37310208797E+03  0.67585462930E+03  0.93170209249E+02 0.  0.
        254    2    1    2    0    0  0.22068794496E+03 -0.51008867362E+03 -0.12086246353E+04  0.16015107057E+04  0.89172271896E+03 0.  0.
        -24    2    4    4    0    0  0.19665096544E+03  0.42296639073E+02 -0.97051732767E+03  0.99440038405E+03  0.80421593006E+02 0.  0.
         24    2    4    4    0    0  0.24036979521E+02 -0.55238531269E+03 -0.23810730764E+03  0.60711032168E+03  0.78616427512E+02 0.  0.
         13    1    3    3    0    0 -0.17818308775E+03  0.36831012803E+03  0.31694038704E+03  0.51754494695E+03  0.00000000000E+00 0.  1.
        -13    1    3    3    0    0 -0.42504857217E+02  0.14177854559E+03  0.56161700925E+02  0.15830968235E+03  0.00000000000E+00 0. -1.
          4    1    6    6  502    0 -0.15027217013E+02 -0.17447945301E+03 -0.44437916221E+02  0.18067546920E+03  0.00000000000E+00 0. -1.
          3    1    5    5  503    0  0.75999408883E+02 -0.18850541750E+02 -0.43988208698E+03  0.44679693768E+03  0.00000000000E+00 0. -1.
         -4    1    5    5    0  503  0.12065155656E+03  0.61147180823E+02 -0.53063524068E+03  0.54760344637E+03  0.00000000000E+00 0.  1.
         -3    1    6    6    0  502  0.39064196534E+02 -0.37790585968E+03 -0.19366939142E+03  0.42643485248E+03  0.00000000000E+00 0.  1.
<mgrwt>
<rscale>  0 0.21185596E+04</rscale>
<asrwt>0</asrwt>
<pdfrwt beam="1">  1        1 0.11091098E+00 0.21185596E+04</pdfrwt>
<pdfrwt beam="2">  1       -1 0.23945291E+00 0.21185596E+04</pdfrwt>
<totfact> 0.19546284E+00</totfact>
</mgrwt>
</event>
<event>
12    1  0.1494110E-007  0.1311455E+04  0.7818608E-02  0.9020530E-01
         -1   -1    0    0    0  501 -0.00000000000E+00  0.00000000000E+00  0.25382982364E+03  0.25382982364E+03  0.00000000000E+00 0.  1.
          1   -1    0    0  501    0  0.00000000000E+00 -0.00000000000E+00 -0.16939635943E+04  0.16939635943E+04  0.00000000000E+00 0. -1.
         23    2    1    2    0    0  0.31402041662E+03 -0.11938404125E+02 -0.22282914205E+03  0.39516944030E+03  0.88060845217E+02 0.  0.
        254    2    1    2    0    0 -0.31402041662E+03  0.11938404125E+02 -0.12173046286E+04  0.15526239776E+04  0.91107590768E+03 0.  0.
        -24    2    4    4    0    0 -0.25492948146E+03 -0.42724876618E+03 -0.54319092010E+03  0.74194453133E+03  0.88852479845E+02 0.  0.
         24    2    4    4    0    0 -0.59090935151E+02  0.43918717030E+03 -0.67411370851E+03  0.81067944631E+03  0.79967265056E+02 0.  0.
         11    1    3    3    0    0  0.22728710564E+03 -0.46394187579E+02 -0.17294662291E+03  0.28934820443E+03  0.00000000000E+00 0. -1.
        -11    1    3    3    0    0  0.86733310980E+02  0.34455783454E+02 -0.49882519136E+02  0.10582123588E+03  0.00000000000E+00 0.  1.
          4    1    6    6  502    0 -0.55479619306E+02  0.15347637271E+03 -0.21518883307E+03  0.27007261804E+03  0.00000000000E+00 0. -1.
          3    1    5    5  503    0 -0.56097576844E+02 -0.39827673931E+02 -0.92085351821E+02  0.11494735212E+03  0.00000000000E+00 0. -1.
         -4    1    5    5    0  503 -0.19883190462E+03 -0.38742109225E+03 -0.45110556828E+03  0.62699717922E+03  0.00000000000E+00 0.  1.
         -3    1    6    6    0  502 -0.36113158451E+01  0.28571079759E+03 -0.45892487544E+03  0.54060682826E+03  0.00000000000E+00 0.  1.
<mgrwt>
<rscale>  0 0.13114549E+04</rscale>
<asrwt>0</asrwt>
<pdfrwt beam="1">  1        1 0.26060978E+00 0.13114549E+04</pdfrwt>
<pdfrwt beam="2">  1       -1 0.39050743E-01 0.13114549E+04</pdfrwt>
<totfact> 0.30067020E+01</totfact>
</mgrwt>
</event>
<event>
12    1  0.1494110E-007  0.1559107E+04  0.7818608E-02  0.8846071E-01
         -1   -1    0    0    0  501 -0.00000000000E+00  0.00000000000E+00  0.24357260847E+03  0.24357260847E+03  0.00000000000E+00 0.  1.
          1   -1    0    0  501    0  0.00000000000E+00 -0.00000000000E+00 -0.24949603261E+04  0.24949603261E+04  0.00000000000E+00 0. -1.
         23    2    1    2    0    0 -0.19527582175E+03 -0.43369047549E+03 -0.59765634878E+03  0.76885640918E+03  0.87903308315E+02 0.  0.
        254    2    1    2    0    0  0.19527582175E+03  0.43369047549E+03 -0.16537313689E+04  0.19696765254E+04  0.95842480105E+03 0.  0.
        -24    2    4    4    0    0 -0.10440905808E+03  0.66567701551E+03 -0.98677531143E+03  0.11979795985E+04  0.86037565880E+02 0.  0.
         24    2    4    4    0    0  0.29968487983E+03 -0.23198654002E+03 -0.66695605745E+03  0.77169692693E+03  0.84005848159E+02 0.  0.
         13    1    3    3    0    0 -0.10384178530E+03 -0.19140171807E+03 -0.33846612713E+03  0.40246372914E+03  0.00000000000E+00 0.  1.
        -13    1    3    3    0    0 -0.91434036456E+02 -0.24228875742E+03 -0.25919022165E+03  0.36639268004E+03  0.00000000000E+00 0. -1.
          2    1    6    6  502    0  0.34597881735E+02 -0.17916917926E+01 -0.38263898513E+02  0.51617337295E+02  0.00000000000E+00 0. -1.
          3    1    5    5  503    0 -0.50916109057E+02  0.12682753118E+03 -0.17220076194E+03  0.21984261470E+03  0.00000000000E+00 0. -1.
         -4    1    5    5    0  503 -0.53492949018E+02  0.53884948433E+03 -0.81457454949E+03  0.97813698378E+03  0.00000000000E+00 0.  1.
         -1    1    6    6    0  502  0.26508699809E+03 -0.23019484823E+03 -0.62869215893E+03  0.72007958964E+03  0.00000000000E+00 0.  1.
<mgrwt>
<rscale>  0 0.15591074E+04</rscale>
<asrwt>0</asrwt>
<pdfrwt beam="1">  1        1 0.38384002E+00 0.15591074E+04</pdfrwt>
<pdfrwt beam="2">  1       -1 0.37472712E-01 0.15591074E+04</pdfrwt>
<totfact> 0.90403719E+00</totfact>
</mgrwt>
</event>
<event>
12    1  0.1494110E-007  0.1986539E+04  0.7818608E-02  0.8612940E-01
         -2   -1    0    0    0  501 -0.00000000000E+00  0.00000000000E+00  0.24990286815E+03  0.24990286815E+03  0.00000000000E+00 0.  1.
          2   -1    0    0  501    0  0.00000000000E+00 -0.00000000000E+00 -0.39478711987E+04  0.39478711987E+04  0.00000000000E+00 0. -1.
         23    2    1    2    0    0  0.54583388857E+03 -0.54786164000E+03 -0.12726095506E+04  0.14919648882E+04  0.91307988061E+02 0.  0.
        254    2    1    2    0    0 -0.54583388857E+03  0.54786164000E+03 -0.24253587800E+04  0.27058091787E+04  0.91703385413E+03 0.  0.
        -24    2    4    4    0    0 -0.32519806193E+03 -0.11641001668E+03 -0.29236174883E+03  0.45949839960E+03  0.79739046854E+02 0.  0.
         24    2    4    4    0    0 -0.22063582664E+03  0.66427165668E+03 -0.21329970311E+04  0.22463107791E+04  0.79364851782E+02 0.  0.
         11    1    3    3    0    0  0.21721616413E+03 -0.26965689347E+03 -0.51576834472E+03  0.62122032128E+03  0.00000000000E+00 0.  1.
        -11    1    3    3    0    0  0.32861772444E+03 -0.27820474653E+03 -0.75684120589E+03  0.87074456687E+03  0.00000000000E+00 0. -1.
          4    1    6    6  502    0 -0.11035315790E+03  0.30642779251E+03 -0.11166682280E+04  0.11631954878E+04  0.00000000000E+00 0. -1.
          1    1    5    5  503    0 -0.11727476291E+03 -0.57500304905E+01 -0.11783622790E+03  0.16634845798E+03  0.00000000000E+00 0. -1.
         -2    1    5    5    0  503 -0.20792329902E+03 -0.11065998619E+03 -0.17452552094E+03  0.29314994163E+03  0.00000000000E+00 0.  1.
         -3    1    6    6    0  502 -0.11028266875E+03  0.35784386417E+03 -0.10163288031E+04  0.10831152913E+04  0.00000000000E+00 0.  1.
<mgrwt>
<rscale>  0 0.19865390E+04</rscale>
<asrwt>0</asrwt>
<pdfrwt beam="1">  1        2 0.60736476E+00 0.19865390E+04</pdfrwt>
<pdfrwt beam="2">  1       -2 0.38446598E-01 0.19865390E+04</pdfrwt>
<totfact> 0.22621439E+00</totfact>
</mgrwt>
</event>
<event>
12    1  0.1494110E-007  0.2372068E+04  0.7818608E-02  0.8450035E-01
         -1   -1    0    0    0  501 -0.00000000000E+00  0.00000000000E+00  0.62338591079E+03  0.62338591079E+03  0.00000000000E+00 0.  1.
          1   -1    0    0  501    0  0.00000000000E+00 -0.00000000000E+00 -0.22565106713E+04  0.22565106713E+04  0.00000000000E+00 0. -1.
         23    2    1    2    0    0  0.39239391214E+03 -0.27472465324E+03  0.38337250672E+03  0.62037951480E+03  0.91921956519E+02 0.  0.
        254    2    1    2    0    0 -0.39239391214E+03  0.27472465324E+03 -0.20164972672E+04  0.22595170673E+04  0.89983861401E+03 0.  0.
        -24    2    4    4    0    0 -0.56923597865E+03  0.34187481131E+03 -0.19189811439E+04  0.20321738907E+04  0.79587092724E+02 0.  0.
         24    2    4    4    0    0  0.17684206651E+03 -0.67150158078E+02 -0.97516123274E+02  0.22734317656E+03  0.79957897748E+02 0.  0.
         11    1    3    3    0    0  0.95646579904E+02 -0.35848974935E+02  0.11824137068E+03  0.15625120476E+03  0.00000000000E+00 0. -1.
        -11    1    3    3    0    0  0.29674733223E+03 -0.23887567830E+03  0.26513113605E+03  0.46412831003E+03  0.00000000000E+00 0.  1.
          4    1    6    6  502    0  0.42183325697E+02 -0.34327215014E+02 -0.65420428182E+02  0.85074221013E+02  0.00000000000E+00 0. -1.
          1    1    5    5  503    0 -0.34766387378E+03  0.16295411253E+03 -0.10961545593E+04  0.11614555652E+04  0.00000000000E+00 0. -1.
         -2    1    5    5    0  503 -0.22157210487E+03  0.17892069879E+03 -0.82282658457E+03  0.87071832552E+03  0.00000000000E+00 0.  1.
         -3    1    6    6    0  502  0.13465874081E+03 -0.32822943064E+02 -0.32095695092E+02  0.14226895555E+03  0.00000000000E+00 0.  1.
<mgrwt>
<rscale>  0 0.23720683E+04</rscale>
<asrwt>0</asrwt>
<pdfrwt beam="1">  1        1 0.34715548E+00 0.23720683E+04</pdfrwt>
<pdfrwt beam="2">  1       -1 0.95905526E-01 0.23720683E+04</pdfrwt>
<totfact> 0.18762081E+00</totfact>
</mgrwt>
</event>
<event>
12    1  0.1494110E-007  0.1224226E+04  0.7818608E-02  0.9091912E-01
         -2   -1    0    0    0  501 -0.00000000000E+00  0.00000000000E+00  0.18939204061E+03  0.18939204061E+03  0.00000000000E+00 0.  1.
          2   -1    0    0  501    0  0.00000000000E+00 -0.00000000000E+00 -0.19783440125E+04  0.19783440125E+04  0.00000000000E+00 0. -1.
         23    2    1    2    0    0 -0.88533007037E+02 -0.15260099297E+03 -0.74428024646E+03  0.77089627241E+03  0.95931335579E+02 0.  0.
        254    2    1    2    0    0  0.88533007037E+02  0.15260099297E+03 -0.10446717254E+04  0.13968397807E+04  0.91032807417E+03 0.  0.
        -24    2    4    4    0    0 -0.36221685982E+03  0.46587049717E+02 -0.76181460369E+03  0.84869300686E+03  0.80913056751E+02 0.  0.
         24    2    4    4    0    0  0.45074986686E+03  0.10601394325E+03 -0.28285712172E+03  0.54814677381E+03  0.77732462305E+02 0.  0.
         11    1    3    3    0    0 -0.67266952637E+02 -0.25868502518E+02 -0.24944433172E+03  0.25964686974E+03  0.00000000000E+00 0.  1.
        -11    1    3    3    0    0 -0.21266054400E+02 -0.12673249045E+03 -0.49483591474E+03  0.51124940266E+03  0.00000000000E+00 0. -1.
          4    1    6    6  502    0  0.82273468717E+02  0.29772171782E+02 -0.21784497134E+02  0.90165792753E+02  0.00000000000E+00 0. -1.
          1    1    5    5  503    0 -0.19905245147E+03 -0.14056185292E+02 -0.38632022507E+03  0.43481348999E+03  0.00000000000E+00 0. -1.
         -2    1    5    5    0  503 -0.16316440835E+03  0.60643235010E+02 -0.37549437863E+03  0.41387951687E+03  0.00000000000E+00 0.  1.
         -3    1    6    6    0  502  0.36847639814E+03  0.76241771473E+02 -0.26107262458E+03  0.45798098106E+03  0.00000000000E+00 0.  1.
<mgrwt>
<rscale>  0 0.12242265E+04</rscale>
<asrwt>0</asrwt>
<pdfrwt beam="1">  1        2 0.30436063E+00 0.12242265E+04</pdfrwt>
<pdfrwt beam="2">  1       -2 0.29137236E-01 0.12242265E+04</pdfrwt>
<totfact> 0.73354861E+01</totfact>
</mgrwt>
</event>
<event>
12    1  0.1494110E-007  0.1359301E+04  0.7818608E-02  0.8983817E-01
          2   -1    0    0  501    0  0.00000000000E+00  0.00000000000E+00  0.17347572130E+04  0.17347572130E+04  0.00000000000E+00 0. -1.
         -2   -1    0    0    0  501 -0.00000000000E+00 -0.00000000000E+00 -0.26627629555E+03  0.26627629555E+03  0.00000000000E+00 0.  1.
         23    2    1    2    0    0 -0.36959921937E+03  0.10740845512E+02  0.29203098794E+03  0.47957379892E+03  0.89386699051E+02 0.  0.
        254    2    1    2    0    0  0.36959921937E+03 -0.10740845512E+02  0.11764499295E+04  0.15214597096E+04  0.89111517925E+03 0.  0.
        -24    2    4    4    0    0  0.41467718871E+03  0.31493133052E+03  0.36061803210E+03  0.63829461681E+03  0.78966695450E+02 0.  0.
         24    2    4    4    0    0 -0.45077969342E+02 -0.32567217603E+03  0.81583189742E+03  0.88316509283E+03  0.79400924373E+02 0.  0.
         13    1    3    3    0    0 -0.33557449662E+03  0.16413457098E+02  0.22550979619E+03  0.40464096744E+03  0.00000000000E+00 0.  1.
        -13    1    3    3    0    0 -0.34024722754E+02 -0.56726115861E+01  0.66521191758E+02  0.74932831480E+02  0.00000000000E+00 0. -1.
          4    1    6    6  502    0 -0.26343642391E+02 -0.45666371905E+02  0.19221863330E+03  0.19931735500E+03  0.00000000000E+00 0. -1.
          1    1    5    5  503    0  0.89124230579E+01 -0.47106406254E+01  0.80163711222E+01  0.12879581741E+02  0.00000000000E+00 0. -1.
         -2    1    5    5    0  503  0.40576476565E+03  0.31964197115E+03  0.35260166097E+03  0.62541503507E+03  0.00000000000E+00 0.  1.
         -3    1    6    6    0  502 -0.18734326952E+02 -0.28000580413E+03  0.62361326412E+03  0.68384773783E+03  0.00000000000E+00 0.  1.
<mgrwt>
<rscale>  0 0.13593009E+04</rscale>
<asrwt>0</asrwt>
<pdfrwt beam="1">  1        2 0.26688572E+00 0.13593009E+04</pdfrwt>
<pdfrwt beam="2">  1       -2 0.40965585E-01 0.13593009E+04</pdfrwt>
<totfact> 0.51667667E+01</totfact>
</mgrwt>
</event>
<event>
12    1  0.1494110E-007  0.1400089E+04  0.7818608E-02  0.8953754E-01
          2   -1    0    0  501    0  0.00000000000E+00  0.00000000000E+00  0.16092301363E+04  0.16092301363E+04  0.00000000000E+00 0. -1.
         -2   -1    0    0    0  501 -0.00000000000E+00 -0.00000000000E+00 -0.30453203575E+03  0.30453203575E+03  0.00000000000E+00 0.  1.
         23    2    1    2    0    0 -0.38475413330E+03 -0.10351921210E+03  0.46210356619E+03  0.61666227568E+03  0.89334685306E+02 0.  0.
        254    2    1    2    0    0  0.38475413330E+03  0.10351921210E+03  0.84259453437E+03  0.12970998964E+04  0.90208127208E+03 0.  0.
        -24    2    4    4    0    0 -0.79573190131E+02  0.36274055112E+03  0.12439483007E+03  0.39979943289E+03  0.80330024117E+02 0.  0.
         24    2    4    4    0    0  0.46432732343E+03 -0.25922133903E+03  0.71819970430E+03  0.89730046348E+03  0.80881027485E+02 0.  0.
         13    1    3    3    0    0 -0.19817476281E+03 -0.62716888891E+02  0.30636915135E+03  0.37022790503E+03  0.00000000000E+00 0. -1.
        -13    1    3    3    0    0 -0.18657937049E+03 -0.40802323206E+02  0.15573441484E+03  0.24643437065E+03  0.00000000000E+00 0.  1.
          4    1    6    6  502    0  0.39092783554E+02 -0.37857231692E+02  0.11134366628E+03  0.12393073767E+03  0.00000000000E+00 0. -1.
          3    1    5    5  503    0 -0.88479095312E+01  0.20509922554E+03  0.87306519414E+02  0.22308385453E+03  0.00000000000E+00 0. -1.
         -4    1    5    5    0  503 -0.70725280600E+02  0.15764132559E+03  0.37088310654E+02  0.17671557836E+03  0.00000000000E+00 0.  1.
         -3    1    6    6    0  502  0.42523453988E+03 -0.22136410733E+03  0.60685603801E+03  0.77336972581E+03  0.00000000000E+00 0.  1.
<mgrwt>
<rscale>  0 0.14000888E+04</rscale>
<asrwt>0</asrwt>
<pdfrwt beam="1">  1        2 0.24757386E+00 0.14000888E+04</pdfrwt>
<pdfrwt beam="2">  1       -2 0.46851084E-01 0.14000888E+04</pdfrwt>
<totfact> 0.46310936E+01</totfact>
</mgrwt>
</event>
<event>
12    1  0.1494110E-007  0.2374492E+04  0.7818608E-02  0.8449116E-01
          2   -1    0    0  501    0  0.00000000000E+00  0.00000000000E+00  0.18569368331E+04  0.18569368331E+04  0.00000000000E+00 0. -1.
         -2   -1    0    0    0  501 -0.00000000000E+00 -0.00000000000E+00 -0.75907409323E+03  0.75907409323E+03  0.00000000000E+00 0.  1.
         23    2    1    2    0    0 -0.27728346209E+03 -0.46774543096E+03 -0.47349040011E+03  0.72663445408E+03  0.90180731502E+02 0.  0.
        254    2    1    2    0    0  0.27728346209E+03  0.46774543096E+03  0.15713531400E+04  0.18893764723E+04  0.89717381638E+03 0.  0.
        -24    2    4    4    0    0 -0.24169823587E+03 -0.97351396109E+02  0.33577576304E+03  0.43272691195E+03  0.81313502817E+02 0.  0.
         24    2    4    4    0    0  0.51898169796E+03  0.56509682707E+03  0.12355773770E+04  0.14566495603E+04  0.80622951440E+02 0.  0.
         13    1    3    3    0    0 -0.27156779238E+03 -0.43333912471E+03 -0.41529641513E+03  0.65878902183E+03  0.00000000000E+00 0.  1.
        -13    1    3    3    0    0 -0.57156697109E+01 -0.34406306249E+02 -0.58193984984E+02  0.67845432258E+02  0.00000000000E+00 0. -1.
          4    1    6    6  502    0  0.41992150077E+03  0.42441631379E+03  0.90942249071E+03  0.10878936257E+04  0.00000000000E+00 0. -1.
          1    1    5    5  503    0 -0.21947688861E+03 -0.90891314105E+02  0.25415088743E+03  0.34788505170E+03  0.00000000000E+00 0. -1.
         -2    1    5    5    0  503 -0.22221347252E+02 -0.64600820039E+01  0.81624875608E+02  0.84841860253E+02  0.00000000000E+00 0.  1.
         -3    1    6    6    0  502  0.99060197187E+02  0.14068051327E+03  0.32615488627E+03  0.36875593462E+03  0.00000000000E+00 0.  1.
<mgrwt>
<rscale>  0 0.23744916E+04</rscale>
<asrwt>0</asrwt>
<pdfrwt beam="1">  1        2 0.28568259E+00 0.23744916E+04</pdfrwt>
<pdfrwt beam="2">  1       -2 0.11678063E+00 0.23744916E+04</pdfrwt>
<totfact> 0.41058689E+00</totfact>
</mgrwt>
</event>
<event>
12    1  0.1494110E-007  0.2636529E+04  0.7818608E-02  0.8355898E-01
          1   -1    0    0  501    0  0.00000000000E+00  0.00000000000E+00  0.21191294888E+04  0.21191294888E+04  0.00000000000E+00 0. -1.
         -1   -1    0    0    0  501 -0.00000000000E+00 -0.00000000000E+00 -0.82006369954E+03  0.82006369954E+03  0.00000000000E+00 0.  1.
         23    2    1    2    0    0  0.66721947294E+03  0.65111955084E+03 -0.20195974729E+03  0.95819407939E+03  0.90607172488E+02 0.  0.
        254    2    1    2    0    0 -0.66721947294E+03 -0.65111955084E+03  0.15010255366E+04  0.19809991090E+04  0.89562342185E+03 0.  0.
        -24    2    4    4    0    0 -0.46196487555E+03 -0.93070256176E+02  0.12355797752E+04  0.13248204843E+04  0.80114392745E+02 0.  0.
         24    2    4    4    0    0 -0.20525459739E+03 -0.55804929466E+03  0.26544576139E+03  0.65617862469E+03  0.80996729828E+02 0.  0.
         11    1    3    3    0    0  0.10325558440E+03  0.96486482296E+02 -0.64501893415E+02  0.15534429899E+03  0.00000000000E+00 0. -1.
        -11    1    3    3    0    0  0.56396388854E+03  0.55463306854E+03 -0.13745785388E+03  0.80284978040E+03  0.00000000000E+00 0.  1.
          2    1    6    6  502    0 -0.13579136794E+03 -0.44927065035E+03  0.22798852345E+03  0.52178748519E+03  0.00000000000E+00 0. -1.
          1    1    5    5  503    0 -0.34460070705E+03 -0.60643620841E+02  0.81414771944E+03  0.88615111866E+03  0.00000000000E+00 0. -1.
         -2    1    5    5    0  503 -0.11736416850E+03 -0.32426635335E+02  0.42143205573E+03  0.43866936561E+03  0.00000000000E+00 0.  1.
         -1    1    6    6    0  502 -0.69463229449E+02 -0.10877864431E+03  0.37457237944E+02  0.13439113950E+03  0.00000000000E+00 0.  1.
<mgrwt>
<rscale>  0 0.26365289E+04</rscale>
<asrwt>0</asrwt>
<pdfrwt beam="1">  1        1 0.32601992E+00 0.26365289E+04</pdfrwt>
<pdfrwt beam="2">  1       -1 0.12616365E+00 0.26365289E+04</pdfrwt>
<totfact> 0.11871135E+00</totfact>
</mgrwt>
</event>
<event>
12    1  0.1494110E-007  0.3695866E+04  0.7818608E-02  0.8068879E-01
         -2   -1    0    0    0  501 -0.00000000000E+00  0.00000000000E+00  0.92461101875E+03  0.92461101875E+03  0.00000000000E+00 0. -1.
          2   -1    0    0  501    0  0.00000000000E+00 -0.00000000000E+00 -0.36932899840E+04  0.36932899840E+04  0.00000000000E+00 0.  1.
         23    2    1    2    0    0 -0.41120736682E+03  0.15514009419E+04 -0.21954446854E+04  0.27209348107E+04  0.87020091753E+02 0.  0.
        254    2    1    2    0    0  0.41120736682E+03 -0.15514009419E+04 -0.57323427979E+03  0.18969661920E+04  0.83303470089E+03 0.  0.
        -24    2    4    4    0    0 -0.19333623890E+03 -0.86373082028E+03 -0.30174123085E+03  0.93916148414E+03  0.86986732967E+02 0.  0.
         24    2    4    4    0    0  0.60454360573E+03 -0.68767012164E+03 -0.27149304893E+03  0.95780470785E+03  0.72926095012E+02 0.  0.
         13    1    3    3    0    0 -0.63341126883E+02  0.37936446922E+03 -0.54095026594E+03  0.66374444561E+03  0.00000000000E+00 0. -1.
        -13    1    3    3    0    0 -0.34786623994E+03  0.11720364727E+04 -0.16544944195E+04  0.20571903651E+04  0.00000000000E+00 0.  1.
          2    1    6    6  502    0  0.47475990633E+03 -0.57362987606E+03 -0.23881893320E+03  0.78197358409E+03  0.00000000000E+00 0. -1.
          1    1    5    5  503    0 -0.18393354227E+03 -0.77281159071E+03 -0.29537801216E+03  0.84753611886E+03  0.00000000000E+00 0. -1.
         -2    1    5    5    0  503 -0.94026966332E+01 -0.90919229569E+02 -0.63632186955E+01  0.91625365274E+02  0.00000000000E+00 0.  1.
         -1    1    6    6    0  502  0.12978369940E+03 -0.11404024558E+03 -0.32674115736E+02  0.17583112375E+03  0.00000000000E+00 0.  1.
<mgrwt>
<rscale>  0 0.36958661E+04</rscale>
<asrwt>0</asrwt>
<pdfrwt beam="1">  1        2 0.56819845E+00 0.36958661E+04</pdfrwt>
<pdfrwt beam="2">  1       -2 0.14224785E+00 0.36958661E+04</pdfrwt>
<totfact> 0.16413590E-01</totfact>
</mgrwt>
</event>
<event>
12    1  0.1494110E-007  0.1684391E+04  0.7818608E-02  0.8770317E-01
         -1   -1    0    0    0  501 -0.00000000000E+00  0.00000000000E+00  0.72991032777E+03  0.72991032777E+03  0.00000000000E+00 0.  1.
          1   -1    0    0  501    0  0.00000000000E+00 -0.00000000000E+00 -0.97175397064E+03  0.97175397064E+03  0.00000000000E+00 0. -1.
         23    2    1    2    0    0 -0.75521813828E+02  0.55371304218E+03 -0.35518148552E+03  0.66797210852E+03  0.87927087137E+02 0.  0.
        254    2    1    2    0    0  0.75521813828E+02 -0.55371304218E+03  0.11333784265E+03  0.10336921899E+04  0.86219046587E+03 0.  0.
        -24    2    4    4    0    0  0.41385050755E+03 -0.22690217614E+03 -0.13325214764E+03  0.49682445088E+03  0.79508238626E+02 0.  0.
         24    2    4    4    0    0 -0.33832869372E+03 -0.32681086605E+03  0.24658999029E+03  0.53686773902E+03  0.78413638695E+02 0.  0.
         11    1    3    3    0    0 -0.63031073678E+01  0.94757669507E+02 -0.24501263938E+02  0.98076791482E+02  0.00000000000E+00 0.  1.
        -11    1    3    3    0    0 -0.69218706461E+02  0.45895537267E+03 -0.33068022158E+03  0.56989531703E+03  0.00000000000E+00 0. -1.
          4    1    6    6  502    0 -0.29994086756E+03 -0.26017533783E+03  0.18355931782E+03  0.43743542793E+03  0.00000000000E+00 0. -1.
          3    1    5    5  503    0  0.37937873485E+03 -0.22148145718E+03 -0.10436671001E+03  0.45152482821E+03  0.00000000000E+00 0. -1.
         -4    1    5    5    0  503  0.34471772698E+02 -0.54207189523E+01 -0.28885437632E+02  0.45299622670E+02  0.00000000000E+00 0.  1.
         -3    1    6    6    0  502 -0.38387826157E+02 -0.66635528212E+02  0.63030672468E+02  0.99432311091E+02  0.00000000000E+00 0.  1.
<mgrwt>
<rscale>  0 0.16843910E+04</rscale>
<asrwt>0</asrwt>
<pdfrwt beam="1">  1        1 0.14950061E+00 0.16843910E+04</pdfrwt>
<pdfrwt beam="2">  1       -1 0.11229390E+00 0.16843910E+04</pdfrwt>
<totfact> 0.11029838E+01</totfact>
</mgrwt>
</event>
<event>
12    1  0.1494110E-007  0.2180389E+04  0.7818608E-02  0.8526635E-01
          2   -1    0    0  501    0  0.00000000000E+00  0.00000000000E+00  0.19182281545E+04  0.19182281545E+04  0.00000000000E+00 0. -1.
         -2   -1    0    0    0  501 -0.00000000000E+00 -0.00000000000E+00 -0.61959445908E+03  0.61959445908E+03  0.00000000000E+00 0.  1.
         23    2    1    2    0    0 -0.68142019186E+03  0.48867174175E+03  0.91061247857E+03  0.12414502604E+04  0.94075043817E+02 0.  0.
        254    2    1    2    0    0  0.68142019186E+03 -0.48867174175E+03  0.38802121686E+03  0.12963723532E+04  0.90933341757E+03 0.  0.
        -24    2    4    4    0    0 -0.66481399217E+02 -0.37029256688E+03  0.37035627979E+03  0.53452312475E+03  0.83754614113E+02 0.  0.
         24    2    4    4    0    0  0.74790159108E+03 -0.11837917487E+03  0.17664937071E+02  0.76184922844E+03  0.82047412466E+02 0.  0.
         11    1    3    3    0    0 -0.47758460986E+03  0.33188171409E+03  0.69192209766E+03  0.90387428382E+03  0.00000000000E+00 0.  1.
        -11    1    3    3    0    0 -0.20383558200E+03  0.15679002767E+03  0.21869038091E+03  0.33757597658E+03  0.00000000000E+00 0. -1.
          4    1    6    6  502    0  0.18875521966E+03 -0.57011154655E+02  0.28590954253E+02  0.19923917127E+03  0.00000000000E+00 0. -1.
          3    1    5    5  503    0 -0.76315931688E+02 -0.19375722447E+03  0.21192547106E+03  0.29711679312E+03  0.00000000000E+00 0. -1.
         -4    1    5    5    0  503  0.98345324703E+01 -0.17653534241E+03  0.15843080872E+03  0.23740633163E+03  0.00000000000E+00 0.  1.
         -3    1    6    6    0  502  0.55914637142E+03 -0.61368020217E+02 -0.10926017182E+02  0.56261005717E+03  0.00000000000E+00 0.  1.
<mgrwt>
<rscale>  0 0.21803885E+04</rscale>
<asrwt>0</asrwt>
<pdfrwt beam="1">  1        2 0.29511202E+00 0.21803885E+04</pdfrwt>
<pdfrwt beam="2">  1       -2 0.95322225E-01 0.21803885E+04</pdfrwt>
<totfact> 0.62796618E+00</totfact>
</mgrwt>
</event>
<event>
12    1  0.1494110E-007  0.1451848E+04  0.7818608E-02  0.8917121E-01
          1   -1    0    0  501    0  0.00000000000E+00  0.00000000000E+00  0.25562531388E+03  0.25562531388E+03  0.00000000000E+00 0. -1.
         -1   -1    0    0    0  501 -0.00000000000E+00 -0.00000000000E+00 -0.20614759539E+04  0.20614759539E+04  0.00000000000E+00 0.  1.
         23    2    1    2    0    0  0.31649064717E+03  0.23474766461E+03 -0.25024292094E+03  0.47576784420E+03  0.91982206462E+02 0.  0.
        254    2    1    2    0    0 -0.31649064717E+03 -0.23474766461E+03 -0.15556077191E+04  0.18413334236E+04  0.90295105369E+03 0.  0.
        -24    2    4    4    0    0  0.29197963835E+03 -0.21458759472E+03 -0.60974951161E+03  0.71360741389E+03  0.78365357317E+02 0.  0.
         24    2    4    4    0    0 -0.60847028552E+03 -0.20160069886E+02 -0.94585820745E+03  0.11277260097E+04  0.80471656739E+02 0.  0.
         13    1    3    3    0    0  0.30095004691E+03  0.22252675995E+03 -0.20581668147E+03  0.42714118977E+03  0.00000000000E+00 0. -1.
        -13    1    3    3    0    0  0.15540600264E+02  0.12220904660E+02 -0.44426239472E+02  0.48626654429E+02  0.00000000000E+00 0.  1.
          4    1    6    6  502    0 -0.78929183770E+02  0.21554780407E+02 -0.15046245575E+03  0.17126988994E+03  0.00000000000E+00 0. -1.
          1    1    5    5  503    0  0.20905820572E+03 -0.19149109097E+03 -0.44296691188E+03  0.52592191086E+03  0.00000000000E+00 0. -1.
         -2    1    5    5    0  503  0.82921432628E+02 -0.23096503753E+02 -0.16678259973E+03  0.18768550303E+03  0.00000000000E+00 0.  1.
         -3    1    6    6    0  502 -0.52954110175E+03 -0.41714850293E+02 -0.79539575170E+03  0.95645611975E+03  0.00000000000E+00 0.  1.
<mgrwt>
<rscale>  0 0.14518477E+04</rscale>
<asrwt>0</asrwt>
<pdfrwt beam="1">  1        1 0.39326972E-01 0.14518477E+04</pdfrwt>
<pdfrwt beam="2">  1       -1 0.31715014E+00 0.14518477E+04</pdfrwt>
<totfact> 0.26905059E+00</totfact>
</mgrwt>
</event>
<event>
12    1  0.1494110E-007  0.2108099E+04  0.7818608E-02  0.8557684E-01
          1   -1    0    0  501    0  0.00000000000E+00  0.00000000000E+00  0.25527737587E+04  0.25527737587E+04  0.00000000000E+00 0. -1.
         -1   -1    0    0    0  501 -0.00000000000E+00 -0.00000000000E+00 -0.43522101005E+03  0.43522101005E+03  0.00000000000E+00 0.  1.
         23    2    1    2    0    0  0.41008397416E+02  0.73803616669E+03  0.24167479609E+03  0.78288394401E+03  0.90119313816E+02 0.  0.
        254    2    1    2    0    0 -0.41008397416E+02 -0.73803616669E+03  0.18758779525E+04  0.22051108247E+04  0.89286985863E+03 0.  0.
        -24    2    4    4    0    0  0.98986099628E+02 -0.78206726953E+03  0.18775587782E+04  0.20378504424E+04  0.78612963401E+02 0.  0.
         24    2    4    4    0    0 -0.13999449704E+03  0.44031102843E+02 -0.16808256582E+01  0.16726038232E+03  0.80224766110E+02 0.  0.
         11    1    3    3    0    0  0.28139727975E+02  0.83354697222E+02  0.47033713086E+02  0.99759811578E+02  0.00000000000E+00 0. -1.
        -11    1    3    3    0    0  0.12868669441E+02  0.65468146947E+03  0.19464108300E+03  0.68312413243E+03  0.00000000000E+00 0.  1.
          2    1    6    6  502    0 -0.22471898960E+02  0.53475406035E+01  0.31594791918E+02  0.39138386651E+02  0.00000000000E+00 0. -1.
          3    1    5    5  503    0  0.55989931304E+02 -0.22545713464E+03  0.49353218985E+03  0.54547210230E+03  0.00000000000E+00 0. -1.
         -4    1    5    5    0  503  0.42996168324E+02 -0.55661013489E+03  0.13840265883E+04  0.14923783401E+04  0.00000000000E+00 0.  1.
         -1    1    6    6    0  502 -0.11752259808E+03  0.38683562239E+02 -0.33275617576E+02  0.12812199566E+03  0.00000000000E+00 0.  1.
<mgrwt>
<rscale>  0 0.21080994E+04</rscale>
<asrwt>0</asrwt>
<pdfrwt beam="1">  1        1 0.39273442E+00 0.21080994E+04</pdfrwt>
<pdfrwt beam="2">  1       -1 0.66957080E-01 0.21080994E+04</pdfrwt>
<totfact> 0.25860600E+00</totfact>
</mgrwt>
</event>
<event>
12    1  0.1494110E-007  0.1701008E+04  0.7818608E-02  0.8760790E-01
          2   -1    0    0  501    0  0.00000000000E+00  0.00000000000E+00  0.27331248391E+04  0.27331248391E+04  0.00000000000E+00 0. -1.
         -2   -1    0    0    0  501 -0.00000000000E+00 -0.00000000000E+00 -0.26466297332E+03  0.26466297332E+03  0.00000000000E+00 0.  1.
         23    2    1    2    0    0  0.58192155375E+03 -0.11166487078E+03  0.10484115123E+04  0.12078169244E+04  0.92483975555E+02 0.  0.
        254    2    1    2    0    0 -0.58192155375E+03  0.11166487078E+03  0.14200503535E+04  0.17899708880E+04  0.91452229901E+03 0.  0.
        -24    2    4    4    0    0 -0.17508143141E+03 -0.42417675726E+02 -0.90071300713E+02  0.21631705865E+03  0.78914281409E+02 0.  0.
         24    2    4    4    0    0 -0.40684012233E+03  0.15408254650E+03  0.15101216542E+04  0.15736538294E+04  0.81600538453E+02 0.  0.
         11    1    3    3    0    0  0.46673586687E+03 -0.69479481545E+02  0.76251828125E+03  0.89671840453E+03  0.00000000000E+00 0. -1.
        -11    1    3    3    0    0  0.11518568687E+03 -0.42185389234E+02  0.28589323100E+03  0.31109851986E+03  0.00000000000E+00 0.  1.
          4    1    6    6  502    0 -0.51994658005E+02  0.12810454459E+02  0.29833298635E+03  0.30310084617E+03  0.00000000000E+00 0. -1.
          1    1    5    5  503    0 -0.43311465150E+02  0.14614750194E+02  0.19921696333E+01  0.45754154746E+02  0.00000000000E+00 0. -1.
         -2    1    5    5    0  503 -0.13176996626E+03 -0.57032425920E+02 -0.92063470346E+02  0.17056290390E+03  0.00000000000E+00 0.  1.
         -3    1    6    6    0  502 -0.35484546433E+03  0.14127209205E+03  0.12117886679E+04  0.12705529832E+04  0.00000000000E+00 0.  1.
<mgrwt>
<rscale>  0 0.17010079E+04</rscale>
<asrwt>0</asrwt>
<pdfrwt beam="1">  1        2 0.42048073E+00 0.17010079E+04</pdfrwt>
<pdfrwt beam="2">  1       -2 0.40717382E-01 0.17010079E+04</pdfrwt>
<totfact> 0.13827745E+01</totfact>
</mgrwt>
</event>
<event>
12    1  0.1494110E-007  0.1220128E+04  0.7818608E-02  0.9095419E-01
          4   -1    0    0  501    0  0.00000000000E+00  0.00000000000E+00  0.20555959109E+03  0.20555959109E+03  0.00000000000E+00 0. -1.
         -4   -1    0    0    0  501 -0.00000000000E+00 -0.00000000000E+00 -0.18105591918E+04  0.18105591918E+04  0.00000000000E+00 0.  1.
         23    2    1    2    0    0  0.22709014131E+02 -0.26955565098E+02 -0.81019860964E+03  0.81596326923E+03  0.90177424325E+02 0.  0.
        254    2    1    2    0    0 -0.22709014131E+02  0.26955565098E+02 -0.79480099105E+03  0.12001555136E+04  0.89856682542E+03 0.  0.
        -24    2    4    4    0    0 -0.13037388455E+03  0.43945942419E+03 -0.41733953148E+03  0.62531401113E+03  0.81996296830E+02 0.  0.
         24    2    4    4    0    0  0.10766487042E+03 -0.41250385909E+03 -0.37746145957E+03  0.57484150252E+03  0.78831728803E+02 0.  0.
         13    1    3    3    0    0 -0.17306578589E+02  0.26047760530E+01 -0.34635943303E+02  0.38806585643E+02  0.00000000000E+00 0. -1.
        -13    1    3    3    0    0  0.40015592720E+02 -0.29560341151E+02 -0.77556266634E+03  0.77715668359E+03  0.00000000000E+00 0.  1.
          2    1    6    6  502    0  0.11597136290E+03 -0.33766361935E+03 -0.29460258260E+03  0.46287877303E+03  0.00000000000E+00 0. -1.
          1    1    5    5  503    0 -0.20507956545E+02  0.20052905705E+03 -0.20262517885E+03  0.28581364927E+03  0.00000000000E+00 0. -1.
         -2    1    5    5    0  503 -0.10986592801E+03  0.23893036714E+03 -0.21471435264E+03  0.33950036187E+03  0.00000000000E+00 0.  1.
         -1    1    6    6    0  502 -0.83064924785E+01 -0.74840239743E+02 -0.82858876961E+02  0.11196272948E+03  0.00000000000E+00 0.  1.
<mgrwt>
<rscale>  0 0.12201275E+04</rscale>
<asrwt>0</asrwt>
<pdfrwt beam="1">  1        4 0.31624551E-01 0.12201275E+04</pdfrwt>
<pdfrwt beam="2">  1       -4 0.27854758E+00 0.12201275E+04</pdfrwt>
<totfact> 0.81005665E-01</totfact>
</mgrwt>
</event>
<event>
12    1  0.1494110E-007  0.1088369E+04  0.7818608E-02  0.9216603E-01
         -2   -1    0    0    0  501 -0.00000000000E+00  0.00000000000E+00  0.40655016668E+03  0.40655016668E+03  0.00000000000E+00 0.  1.
          2   -1    0    0  501    0  0.00000000000E+00 -0.00000000000E+00 -0.72841378167E+03  0.72841378167E+03  0.00000000000E+00 0. -1.
         23    2    1    2    0    0  0.31768026246E+01  0.51081532537E+02  0.99223016043E+02  0.14376797655E+03  0.90579297455E+02 0.  0.
        254    2    1    2    0    0 -0.31768026246E+01 -0.51081532537E+02 -0.42108663104E+03  0.99119597179E+03  0.89584378583E+03 0.  0.
        -24    2    4    4    0    0 -0.90155908632E+02 -0.45753904881E+03 -0.19415316312E+03  0.51091818683E+03  0.76628153049E+02 0.  0.
         24    2    4    4    0    0  0.86979106007E+02  0.40645751627E+03 -0.22693346792E+03  0.48027778496E+03  0.79967958903E+02 0.  0.
         11    1    3    3    0    0  0.31556231442E+01  0.32948572169E+02 -0.87874759372E+01  0.34245964707E+02  0.00000000000E+00 0. -1.
        -11    1    3    3    0    0  0.21179480453E-01  0.18132960368E+02  0.10801049198E+03  0.10952201184E+03  0.00000000000E+00 0.  1.
          2    1    6    6  502    0  0.86174423285E+02  0.27669569616E+03 -0.18537554880E+03  0.34402126911E+03  0.00000000000E+00 0. -1.
          1    1    5    5  503    0 -0.50852921952E+02 -0.98172084951E+02 -0.55733693007E+02  0.12381446794E+03  0.00000000000E+00 0. -1.
         -2    1    5    5    0  503 -0.39302986679E+02 -0.35936696386E+03 -0.13841947011E+03  0.38710371889E+03  0.00000000000E+00 0.  1.
         -1    1    6    6    0  502  0.80468272178E+00  0.12976182011E+03 -0.41557919120E+02  0.13625651586E+03  0.00000000000E+00 0.  1.
<mgrwt>
<rscale>  0 0.10883690E+04</rscale>
<asrwt>0</asrwt>
<pdfrwt beam="1">  1        2 0.11206366E+00 0.10883690E+04</pdfrwt>
<pdfrwt beam="2">  1       -2 0.62546180E-01 0.10883690E+04</pdfrwt>
<totfact> 0.91777564E+01</totfact>
</mgrwt>
</event>
<event>
12    1  0.1494110E-007  0.1494629E+04  0.7818608E-02  0.8888032E-01
          2   -1    0    0  501    0  0.00000000000E+00  0.00000000000E+00  0.72672149197E+03  0.72672149197E+03  0.00000000000E+00 0. -1.
         -2   -1    0    0    0  501 -0.00000000000E+00 -0.00000000000E+00 -0.76849143364E+03  0.76849143364E+03  0.00000000000E+00 0.  1.
         23    2    1    2    0    0 -0.30342536184E+03  0.35033630094E+03  0.27378691462E+02  0.47655017495E+03  0.10746163285E+03 0.  0.
        254    2    1    2    0    0  0.30342536184E+03 -0.35033630094E+03 -0.69148633126E+02  0.10186627507E+04  0.90448316301E+03 0.  0.
        -24    2    4    4    0    0 -0.67535474316E+02 -0.51036131552E+03 -0.23863001950E+03  0.57306492613E+03  0.80183606113E+02 0.  0.
         24    2    4    4    0    0  0.37096083615E+03  0.16002501458E+03  0.16948138637E+03  0.44559782453E+03  0.81323635247E+02 0.  0.
         13    1    3    3    0    0 -0.20270844026E+02  0.47386867279E+02 -0.27236792990E+02  0.58294641267E+02  0.00000000000E+00 0. -1.
        -13    1    3    3    0    0 -0.28315451781E+03  0.30294943366E+03  0.54615484452E+02  0.41825553368E+03  0.00000000000E+00 0.  1.
          4    1    6    6  502    0  0.25524754800E+03  0.14974260733E+03  0.12030515953E+03  0.31944872925E+03  0.00000000000E+00 0. -1.
          3    1    5    5  503    0 -0.58864643655E+02 -0.49217828115E+03 -0.24361036468E+03  0.55231378445E+03  0.00000000000E+00 0. -1.
         -4    1    5    5    0  503 -0.86708306601E+01 -0.18183034368E+02  0.49803451832E+01  0.20751141687E+02  0.00000000000E+00 0.  1.
         -3    1    6    6    0  502  0.11571328815E+03  0.10282407252E+02  0.49176226845E+02  0.12614909528E+03  0.00000000000E+00 0.  1.
<mgrwt>
<rscale>  0 0.14946294E+04</rscale>
<asrwt>0</asrwt>
<pdfrwt beam="1">  1        2 0.11180331E+00 0.14946294E+04</pdfrwt>
<pdfrwt beam="2">  1       -2 0.11822945E+00 0.14946294E+04</pdfrwt>
<totfact> 0.20799141E+01</totfact>
</mgrwt>
</event>
<event>
12    1  0.1494110E-007  0.2599746E+04  0.7818608E-02  0.8368287E-01
          2   -1    0    0  501    0  0.00000000000E+00  0.00000000000E+00  0.15789365296E+04  0.15789365296E+04  0.00000000000E+00 0. -1.
         -2   -1    0    0    0  501 -0.00000000000E+00 -0.00000000000E+00 -0.10701315779E+04  0.10701315779E+04  0.00000000000E+00 0.  1.
         23    2    1    2    0    0 -0.37640384777E+03  0.10783759645E+04  0.31988113994E+03  0.11897613147E+04  0.92916439274E+02 0.  0.
        254    2    1    2    0    0  0.37640384777E+03 -0.10783759645E+04  0.18892381180E+03  0.14593067929E+04  0.88843093799E+03 0.  0.
        -24    2    4    4    0    0  0.10667800226E+03  0.13906907579E+03 -0.19147581310E+02  0.19264600026E+03  0.77623756277E+02 0.  0.
         24    2    4    4    0    0  0.26972584552E+03 -0.12174450403E+04  0.20807139311E+03  0.12666607926E+04  0.78812441898E+02 0.  0.
         13    1    3    3    0    0 -0.10697870154E+03  0.30416128417E+03  0.47309003152E+02  0.32587830727E+03  0.00000000000E+00 0. -1.
        -13    1    3    3    0    0 -0.26942514623E+03  0.77421468035E+03  0.27257213679E+03  0.86388300738E+03  0.00000000000E+00 0.  1.
          2    1    6    6  502    0  0.60332322763E+02 -0.43954535289E+03  0.84712725379E+02  0.45168169352E+03  0.00000000000E+00 0. -1.
          3    1    5    5  503    0  0.87115347657E+02  0.51625703777E+02 -0.12503977978E+01  0.10127122287E+03  0.00000000000E+00 0. -1.
         -4    1    5    5    0  503  0.19562654598E+02  0.87443372012E+02 -0.17897183512E+02  0.91374777381E+02  0.00000000000E+00 0.  1.
         -1    1    6    6    0  502  0.20939352275E+03 -0.77789968742E+03  0.12335866773E+03  0.81497909909E+03  0.00000000000E+00 0.  1.
<mgrwt>
<rscale>  0 0.25997460E+04</rscale>
<asrwt>0</asrwt>
<pdfrwt beam="1">  1        2 0.24291331E+00 0.25997460E+04</pdfrwt>
<pdfrwt beam="2">  1       -2 0.16463563E+00 0.25997460E+04</pdfrwt>
<totfact> 0.23615243E+00</totfact>
</mgrwt>
</event>
<event>
12    1  0.1494110E-007  0.1363443E+04  0.7818608E-02  0.8980714E-01
          1   -1    0    0  501    0  0.00000000000E+00  0.00000000000E+00  0.18533150650E+04  0.18533150650E+04  0.00000000000E+00 0. -1.
         -1   -1    0    0    0  501 -0.00000000000E+00 -0.00000000000E+00 -0.25076382925E+03  0.25076382925E+03  0.00000000000E+00 0.  1.
         23    2    1    2    0    0 -0.22807060221E+03 -0.10776703071E+03  0.88149468229E+03  0.92148498067E+03  0.92042176179E+02 0.  0.
        254    2    1    2    0    0  0.22807060221E+03  0.10776703071E+03  0.72105655349E+03  0.11825939136E+04  0.90276014459E+03 0.  0.
        -24    2    4    4    0    0  0.48894593696E+03  0.15757253823E+02  0.11082369041E+03  0.50770510021E+03  0.78524888402E+02 0.  0.
         24    2    4    4    0    0 -0.26087533475E+03  0.92009776889E+02  0.61023286307E+03  0.67488881340E+03  0.81049515412E+02 0.  0.
         13    1    3    3    0    0 -0.12617590043E+03 -0.69429504847E+02  0.64866173236E+03  0.66445681351E+03  0.00000000000E+00 0. -1.
        -13    1    3    3    0    0 -0.10189470178E+03 -0.38337525864E+02  0.23283294993E+03  0.25702816716E+03  0.00000000000E+00 0.  1.
          2    1    6    6  502    0 -0.16042888276E+03  0.97334752833E+02  0.40104813126E+03  0.44277656229E+03  0.00000000000E+00 0. -1.
          3    1    5    5  503    0  0.37616227354E+03  0.31774183901E+02  0.57240658760E+02  0.38181690352E+03  0.00000000000E+00 0. -1.
         -4    1    5    5    0  503  0.11278366342E+03 -0.16016930078E+02  0.53583031653E+02  0.12588819669E+03  0.00000000000E+00 0.  1.
         -1    1    6    6    0  502 -0.10044645200E+03 -0.53249759440E+01  0.20918473182E+03  0.23211225111E+03  0.00000000000E+00 0.  1.
<mgrwt>
<rscale>  0 0.13634433E+04</rscale>
<asrwt>0</asrwt>
<pdfrwt beam="1">  1        1 0.28512539E+00 0.13634433E+04</pdfrwt>
<pdfrwt beam="2">  1       -1 0.38579052E-01 0.13634433E+04</pdfrwt>
<totfact> 0.23860017E+01</totfact>
</mgrwt>
</event>
<event>
12    1  0.1494110E-007  0.1664271E+04  0.7818608E-02  0.8782009E-01
         -2   -1    0    0    0  501 -0.00000000000E+00  0.00000000000E+00  0.22795118924E+03  0.22795118924E+03  0.00000000000E+00 0.  1.
          2   -1    0    0  501    0  0.00000000000E+00 -0.00000000000E+00 -0.30377077876E+04  0.30377077876E+04  0.00000000000E+00 0. -1.
         23    2    1    2    0    0  0.51714030847E+01  0.52127072454E+03 -0.49066013885E+03  0.72171658915E+03  0.91528965481E+02 0.  0.
        254    2    1    2    0    0 -0.51714030847E+01 -0.52127072454E+03 -0.23190964595E+04  0.25439423877E+04  0.90646818571E+03 0.  0.
        -24    2    4    4    0    0 -0.41631038209E+03 -0.13192279358E+03 -0.72526771960E+03  0.85054936309E+03  0.81871828231E+02 0.  0.
         24    2    4    4    0    0  0.41113897900E+03 -0.38934793096E+03 -0.15938287399E+04  0.16933930246E+04  0.81626051047E+02 0.  0.
         13    1    3    3    0    0  0.17217060173E+02  0.26986664087E+03 -0.19476067212E+03  0.33325088210E+03  0.00000000000E+00 0.  1.
        -13    1    3    3    0    0 -0.12045657088E+02  0.25140408367E+03 -0.29589946673E+03  0.38846570705E+03  0.00000000000E+00 0. -1.
          2    1    6    6  502    0  0.35991034053E+03 -0.35870002911E+03 -0.13528794257E+04  0.14451587818E+04  0.00000000000E+00 0. -1.
          3    1    5    5  503    0 -0.32610932635E+03 -0.69131211603E+02 -0.51919507731E+03  0.61700076617E+03  0.00000000000E+00 0. -1.
         -4    1    5    5    0  503 -0.90201055738E+02 -0.62791581972E+02 -0.20607264229E+03  0.23354859692E+03  0.00000000000E+00 0.  1.
         -1    1    6    6    0  502  0.51228638476E+02 -0.30647901859E+02 -0.24094931415E+03  0.24823424275E+03  0.00000000000E+00 0.  1.
<mgrwt>
<rscale>  0 0.16642705E+04</rscale>
<asrwt>0</asrwt>
<pdfrwt beam="1">  1        2 0.46733959E+00 0.16642705E+04</pdfrwt>
<pdfrwt beam="2">  1       -2 0.35069419E-01 0.16642705E+04</pdfrwt>
<totfact> 0.12071992E+01</totfact>
</mgrwt>
</event>
<event>
12    1  0.1494110E-007  0.1634937E+04  0.7818608E-02  0.8799368E-01
          1   -1    0    0  501    0  0.00000000000E+00  0.00000000000E+00  0.10873645855E+04  0.10873645855E+04  0.00000000000E+00 0. -1.
         -1   -1    0    0    0  501 -0.00000000000E+00 -0.00000000000E+00 -0.61456395615E+03  0.61456395615E+03  0.00000000000E+00 0.  1.
         23    2    1    2    0    0  0.27431876897E+03  0.48797907707E+03  0.12372085852E+03  0.58058213977E+03  0.91620977500E+02 0.  0.
        254    2    1    2    0    0 -0.27431876897E+03 -0.48797907707E+03  0.34907977081E+03  0.11213464019E+04  0.90674511297E+03 0.  0.
        -24    2    4    4    0    0 -0.45350140109E+03 -0.61404569769E+03  0.42311781516E+03  0.87651748230E+03  0.80861434731E+02 0.  0.
         24    2    4    4    0    0  0.17918263212E+03  0.12606662063E+03 -0.74038044348E+02  0.24482891955E+03  0.80376360622E+02 0.  0.
         11    1    3    3    0    0  0.25371775605E+03  0.41070483602E+03  0.13118721779E+03  0.50026117996E+03  0.00000000000E+00 0.  1.
        -11    1    3    3    0    0  0.20601012918E+02  0.77274241048E+02 -0.74663592759E+01  0.80320959803E+02  0.00000000000E+00 0. -1.
          2    1    6    6  502    0  0.21260989638E+02  0.41879023526E+02  0.85371345119E+01  0.47736411235E+02  0.00000000000E+00 0. -1.
          3    1    5    5  503    0 -0.82671075818E+02 -0.99608707038E+02  0.39433335073E+02  0.13531958177E+03  0.00000000000E+00 0. -1.
         -4    1    5    5    0  503 -0.37083032528E+03 -0.51443699066E+03  0.38368448008E+03  0.74119790053E+03  0.00000000000E+00 0.  1.
         -1    1    6    6    0  502  0.15792164248E+03  0.84187597101E+02 -0.82575178860E+02  0.19709250832E+03  0.00000000000E+00 0.  1.
<mgrwt>
<rscale>  0 0.16349374E+04</rscale>
<asrwt>0</asrwt>
<pdfrwt beam="1">  1        1 0.16728686E+00 0.16349374E+04</pdfrwt>
<pdfrwt beam="2">  1       -1 0.94548301E-01 0.16349374E+04</pdfrwt>
<totfact> 0.13423238E+01</totfact>
</mgrwt>
</event>
<event>
12    1  0.1494110E-007  0.1281320E+04  0.7818608E-02  0.9044511E-01
          1   -1    0    0  501    0  0.00000000000E+00  0.00000000000E+00  0.44132994308E+03  0.44132994308E+03  0.00000000000E+00 0. -1.
         -1   -1    0    0    0  501 -0.00000000000E+00 -0.00000000000E+00 -0.93001874201E+03  0.93001874201E+03  0.00000000000E+00 0.  1.
         23    2    1    2    0    0  0.72624751172E+02 -0.30302725932E+03 -0.14425131440E+03  0.35463016273E+03  0.88624128962E+02 0.  0.
        254    2    1    2    0    0 -0.72624751172E+02  0.30302725932E+03 -0.34443748454E+03  0.10167185224E+04  0.90442219045E+03 0.  0.
        -24    2    4    4    0    0 -0.36920615962E+03  0.41447907235E+03 -0.28645460576E+02  0.56183937318E+03  0.82078189111E+02 0.  0.
         24    2    4    4    0    0  0.29658140845E+03 -0.11145181303E+03 -0.31579202396E+03  0.45487914918E+03  0.82513026206E+02 0.  0.
         11    1    3    3    0    0 -0.12758894502E+02 -0.23517616451E+02  0.37754181412E+01  0.27020759697E+02  0.00000000000E+00 0. -1.
        -11    1    3    3    0    0  0.85383645675E+02 -0.27950964287E+03 -0.14802673254E+03  0.32760940303E+03  0.00000000000E+00 0.  1.
          4    1    6    6  502    0  0.20319374997E+03 -0.42682565167E+02 -0.16843602720E+03  0.26735780642E+03  0.00000000000E+00 0. -1.
          3    1    5    5  503    0 -0.19814453878E+03  0.19520343527E+03 -0.51195156503E+02  0.28281899413E+03  0.00000000000E+00 0. -1.
         -4    1    5    5    0  503 -0.17106162084E+03  0.21927563708E+03  0.22549695926E+02  0.27902037905E+03  0.00000000000E+00 0.  1.
         -3    1    6    6    0  502  0.93387658482E+02 -0.68769247860E+02 -0.14735599676E+03  0.18752134275E+03  0.00000000000E+00 0.  1.
<mgrwt>
<rscale>  0 0.12813198E+04</rscale>
<asrwt>0</asrwt>
<pdfrwt beam="1">  1        1 0.67896914E-01 0.12813198E+04</pdfrwt>
<pdfrwt beam="2">  1       -1 0.14307981E+00 0.12813198E+04</pdfrwt>
<totfact> 0.20477064E+01</totfact>
</mgrwt>
</event>
<event>
12    1  0.1494110E-007  0.2884946E+04  0.7818608E-02  0.8277371E-01
         -1   -1    0    0    0  501 -0.00000000000E+00  0.00000000000E+00  0.11968567458E+04  0.11968567458E+04  0.00000000000E+00 0.  1.
          1   -1    0    0  501    0  0.00000000000E+00 -0.00000000000E+00 -0.17384935230E+04  0.17384935230E+04  0.00000000000E+00 0. -1.
         23    2    1    2    0    0  0.93935669838E+03  0.70589554289E+03  0.31759976380E+03  0.12206070434E+04  0.91282091723E+02 0.  0.
        254    2    1    2    0    0 -0.93935669838E+03 -0.70589554289E+03 -0.85923654097E+03  0.17147432254E+04  0.90629872085E+03 0.  0.
        -24    2    4    4    0    0 -0.34368863506E+03 -0.78310939523E+03 -0.36662995221E+03  0.93391158628E+03  0.79944520506E+02 0.  0.
         24    2    4    4    0    0 -0.59566806333E+03  0.77213852343E+02 -0.49260658875E+03  0.78083163911E+03  0.79084617305E+02 0.  0.
         13    1    3    3    0    0  0.20646824985E+03  0.18725856366E+03  0.10568358527E+03  0.29810053347E+03  0.00000000000E+00 0.  1.
        -13    1    3    3    0    0  0.73288844853E+03  0.51863697923E+03  0.21191617853E+03  0.92250650997E+03  0.00000000000E+00 0. -1.
          4    1    6    6  502    0 -0.16552052322E+03  0.57244770522E+02 -0.14838019220E+03  0.22954452465E+03  0.00000000000E+00 0. -1.
          1    1    5    5  503    0 -0.23125502315E+03 -0.43593726432E+03 -0.19443628953E+03  0.53040140916E+03  0.00000000000E+00 0. -1.
         -2    1    5    5    0  503 -0.11243361190E+03 -0.34717213091E+03 -0.17219366268E+03  0.40351017712E+03  0.00000000000E+00 0.  1.
         -3    1    6    6    0  502 -0.43014754011E+03  0.19969081821E+02 -0.34422639656E+03  0.55128711447E+03  0.00000000000E+00 0.  1.
<mgrwt>
<rscale>  0 0.28849455E+04</rscale>
<asrwt>0</asrwt>
<pdfrwt beam="1">  1        1 0.26746054E+00 0.28849455E+04</pdfrwt>
<pdfrwt beam="2">  1       -1 0.18413181E+00 0.28849455E+04</pdfrwt>
<totfact> 0.74967627E-01</totfact>
</mgrwt>
</event>
<event>
12    1  0.1494110E-007  0.1706364E+04  0.7818608E-02  0.8757743E-01
         -2   -1    0    0    0  501 -0.00000000000E+00  0.00000000000E+00  0.41334094034E+03  0.41334094034E+03  0.00000000000E+00 0.  1.
          2   -1    0    0  501    0  0.00000000000E+00 -0.00000000000E+00 -0.17610631577E+04  0.17610631577E+04  0.00000000000E+00 0. -1.
         23    2    1    2    0    0 -0.66043807749E+03 -0.69732807201E+02 -0.61323329355E+03  0.90889560291E+03  0.94842111211E+02 0.  0.
        254    2    1    2    0    0  0.66043807749E+03  0.69732807201E+02 -0.73448892384E+03  0.12655084952E+04  0.78803340887E+03 0.  0.
        -24    2    4    4    0    0  0.23370275736E+03  0.39976712940E+03 -0.45056344546E+03  0.65116961574E+03  0.81140085805E+02 0.  0.
         24    2    4    4    0    0  0.42673532013E+03 -0.33003432220E+03 -0.28392547838E+03  0.61433887943E+03  0.75979564527E+02 0.  0.
         13    1    3    3    0    0 -0.64393381985E+03 -0.75766350752E+02 -0.61148208237E+03  0.89123601886E+03  0.00000000000E+00 0. -1.
        -13    1    3    3    0    0 -0.16504257647E+02  0.60335435516E+01 -0.17512111851E+01  0.17659584052E+02  0.00000000000E+00 0.  1.
          4    1    6    6  502    0  0.41836630799E+03 -0.32215040077E+03 -0.28880709735E+03  0.60184781121E+03  0.00000000000E+00 0. -1.
          1    1    5    5  503    0  0.18853148367E+03  0.37157464371E+03 -0.40548464386E+03  0.58140315839E+03  0.00000000000E+00 0. -1.
         -2    1    5    5    0  503  0.45171273697E+02  0.28192485697E+02 -0.45078801598E+02  0.69766457347E+02  0.00000000000E+00 0.  1.
         -3    1    6    6    0  502  0.83690121451E+01 -0.78839214391E+01  0.48816189755E+01  0.12491068224E+02  0.00000000000E+00 0.  1.
<mgrwt>
<rscale>  0 0.17063640E+04</rscale>
<asrwt>0</asrwt>
<pdfrwt beam="1">  1        2 0.27093280E+00 0.17063640E+04</pdfrwt>
<pdfrwt beam="2">  1       -2 0.63590913E-01 0.17063640E+04</pdfrwt>
<totfact> 0.19736541E+01</totfact>
</mgrwt>
</event>
<event>
12    1  0.1494110E-007  0.3274402E+04  0.7818608E-02  0.8169439E-01
          1   -1    0    0  501    0  0.00000000000E+00  0.00000000000E+00  0.95581946821E+03  0.95581946821E+03  0.00000000000E+00 0. -1.
         -1   -1    0    0    0  501 -0.00000000000E+00 -0.00000000000E+00 -0.28043239375E+04  0.28043239375E+04  0.00000000000E+00 0.  1.
         23    2    1    2    0    0 -0.12146818587E+04  0.47662990590E+03  0.23354039189E+02  0.13083048846E+04  0.92131291920E+02 0.  0.
        254    2    1    2    0    0  0.12146818587E+04 -0.47662990590E+03 -0.18718585085E+04  0.24518385211E+04  0.89723451378E+03 0.  0.
        -24    2    4    4    0    0  0.12739054749E+04 -0.60580549001E+03 -0.17444744870E+04  0.22448757814E+04  0.80253271534E+02 0.  0.
         24    2    4    4    0    0 -0.59223616180E+02  0.12917558411E+03 -0.12738402149E+03  0.20696273968E+03  0.80081948293E+02 0.  0.
         11    1    3    3    0    0 -0.29530782093E+03  0.86463606463E+02 -0.22393911149E+02  0.30851928887E+03  0.00000000000E+00 0.  1.
        -11    1    3    3    0    0 -0.91937403775E+03  0.39016629944E+03  0.45747950338E+02  0.99978559575E+03  0.00000000000E+00 0. -1.
          2    1    6    6  502    0 -0.51733650863E+02  0.11893518196E+03 -0.13874903090E+03  0.18992957041E+03  0.00000000000E+00 0. -1.
          1    1    5    5  503    0  0.10372122752E+04 -0.51604834334E+03 -0.14670228824E+04  0.18692970160E+04  0.00000000000E+00 0. -1.
         -2    1    5    5    0  503  0.23669319969E+03 -0.89757146665E+02 -0.27745160454E+03  0.37557876540E+03  0.00000000000E+00 0.  1.
         -3    1    6    6    0  502 -0.74899653168E+01  0.10240402147E+02  0.11365009411E+02  0.17033169273E+02  0.00000000000E+00 0.  1.
<mgrwt>
<rscale>  0 0.32744022E+04</rscale>
<asrwt>0</asrwt>
<pdfrwt beam="1">  1        1 0.14704915E+00 0.32744022E+04</pdfrwt>
<pdfrwt beam="2">  1       -1 0.43143445E+00 0.32744022E+04</pdfrwt>
<totfact> 0.59209550E-02</totfact>
</mgrwt>
</event>
<event>
12    1  0.1494110E-007  0.2697097E+04  0.7818608E-02  0.8335947E-01
         -2   -1    0    0    0  501 -0.00000000000E+00  0.00000000000E+00  0.66409921605E+03  0.66409921605E+03  0.00000000000E+00 0.  1.
          2   -1    0    0  501    0  0.00000000000E+00 -0.00000000000E+00 -0.27384211850E+04  0.27384211850E+04  0.00000000000E+00 0. -1.
         23    2    1    2    0    0  0.29365040566E+03 -0.11253773275E+04 -0.56258516071E+03  0.12957504091E+04  0.98804703768E+02 0.  0.
        254    2    1    2    0    0 -0.29365040566E+03  0.11253773275E+04 -0.15117368082E+04  0.21067699919E+04  0.89466582118E+03 0.  0.
        -24    2    4    4    0    0 -0.26212121762E+03  0.20029809478E+03 -0.97777660416E+03  0.10351663817E+04  0.81825978324E+02 0.  0.
         24    2    4    4    0    0 -0.31529188040E+02  0.92507923276E+03 -0.53396020405E+03  0.10716036102E+04  0.80343769739E+02 0.  0.
         11    1    3    3    0    0  0.75611344003E+02 -0.27412962208E+03 -0.18556241104E+03  0.33955490489E+03  0.00000000000E+00 0. -1.
        -11    1    3    3    0    0  0.21803906165E+03 -0.85124770546E+03 -0.37702274967E+03  0.95619550419E+03  0.00000000000E+00 0.  1.
          2    1    6    6  502    0 -0.11479917067E+02  0.57504769639E+03 -0.37525081370E+03  0.68674945562E+03  0.00000000000E+00 0. -1.
          1    1    5    5  503    0 -0.31443957298E+02 -0.33318777502E+01 -0.74981980749E+02  0.81376417327E+02  0.00000000000E+00 0. -1.
         -2    1    5    5    0  503 -0.23067726032E+03  0.20362997253E+03 -0.90279462341E+03  0.95378996440E+03  0.00000000000E+00 0.  1.
         -3    1    6    6    0  502 -0.20049270973E+02  0.35003153638E+03 -0.15870939035E+03  0.38485415460E+03  0.00000000000E+00 0.  1.
<mgrwt>
<rscale>  0 0.26970972E+04</rscale>
<asrwt>0</asrwt>
<pdfrwt beam="1">  1        2 0.42129557E+00 0.26970972E+04</pdfrwt>
<pdfrwt beam="2">  1       -2 0.10216911E+00 0.26970972E+04</pdfrwt>
<totfact> 0.17340716E+00</totfact>
</mgrwt>
</event>
<event>
12    1  0.1494110E-007  0.2025080E+04  0.7818608E-02  0.8594984E-01
          1   -1    0    0  501    0  0.00000000000E+00  0.00000000000E+00  0.71638911399E+03  0.71638911399E+03  0.00000000000E+00 0. -1.
         -1   -1    0    0    0  501 -0.00000000000E+00 -0.00000000000E+00 -0.14311179940E+04  0.14311179940E+04  0.00000000000E+00 0.  1.
         23    2    1    2    0    0 -0.53626649795E+03  0.56839341295E+03 -0.38565942060E+03  0.87607959099E+03  0.90163364698E+02 0.  0.
        254    2    1    2    0    0  0.53626649795E+03 -0.56839341295E+03 -0.32906945942E+03  0.12714275170E+04  0.94741141706E+03 0.  0.
        -24    2    4    4    0    0  0.78151983596E+03 -0.46793664844E+03 -0.11503176586E+03  0.92142887915E+03  0.77851854277E+02 0.  0.
         24    2    4    4    0    0 -0.24525333801E+03 -0.10045676451E+03 -0.21403769356E+03  0.34999863786E+03  0.80287924973E+02 0.  0.
         13    1    3    3    0    0 -0.41715672303E+03  0.48755159939E+03 -0.33190278042E+03  0.72241660369E+03  0.00000000000E+00 0. -1.
        -13    1    3    3    0    0 -0.11910977492E+03  0.80841813566E+02 -0.53756640184E+02  0.15366298730E+03  0.00000000000E+00 0.  1.
          4    1    6    6  502    0 -0.12333618970E+03 -0.65144553858E+02 -0.63976054579E+02  0.15345541420E+03  0.00000000000E+00 0. -1.
          3    1    5    5  503    0  0.76425064850E+03 -0.45513372867E+03 -0.12404897912E+03  0.89811687097E+03  0.00000000000E+00 0. -1.
         -4    1    5    5    0  503  0.17269187462E+02 -0.12802919775E+02  0.90172132555E+01  0.23312008178E+02  0.00000000000E+00 0.  1.
         -3    1    6    6    0  502 -0.12191714832E+03 -0.35312210653E+02 -0.15006163898E+03  0.19654322366E+03  0.00000000000E+00 0.  1.
<mgrwt>
<rscale>  0 0.20250801E+04</rscale>
<asrwt>0</asrwt>
<pdfrwt beam="1">  1        1 0.11021371E+00 0.20250801E+04</pdfrwt>
<pdfrwt beam="2">  1       -1 0.22017200E+00 0.20250801E+04</pdfrwt>
<totfact> 0.26713005E+00</totfact>
</mgrwt>
</event>
<event>
12    1  0.1705871E-007  0.2411452E+04  0.7818608E-02  0.8435228E-01
          2   -1    0    0  501    0  0.00000000000E+00  0.00000000000E+00  0.12490061685E+04  0.12490061685E+04  0.00000000000E+00 0.  1.
         -2   -1    0    0    0  501 -0.00000000000E+00 -0.00000000000E+00 -0.11639459451E+04  0.11639459451E+04  0.00000000000E+00 0. -1.
         23    2    1    2    0    0  0.76611908700E+03 -0.61958329553E+03 -0.25375575733E+03  0.10221577340E+04  0.97941478852E+02 0.  0.
        254    2    1    2    0    0 -0.76611908700E+03  0.61958329553E+03  0.33881598068E+03  0.13907943796E+04  0.92124417068E+03 0.  0.
        -24    2    4    4    0    0 -0.13262585034E+02  0.13583800699E+03 -0.26490424067E+03  0.30821492319E+03  0.78704014197E+02 0.  0.
         24    2    4    4    0    0 -0.75285650196E+03  0.48374528854E+03  0.60372022135E+03  0.10825794564E+04  0.81839825452E+02 0.  0.
         13    1    3    3    0    0  0.42391244775E+03 -0.35754896048E+03 -0.19138396040E+03  0.58666075614E+03  0.00000000000E+00 0.  1.
        -13    1    3    3    0    0  0.34220663925E+03 -0.26203433505E+03 -0.62371796930E+02  0.43549697788E+03  0.00000000000E+00 0. -1.
          4    1    6    6  502    0 -0.15020876250E+03  0.88915219459E+02  0.80820702881E+02  0.19235533420E+03  0.00000000000E+00 0. -1.
          1    1    5    5  503    0  0.12331938003E+02  0.15930543682E+02 -0.48724055367E+01  0.20726776224E+02  0.00000000000E+00 0. -1.
         -2    1    5    5    0  503 -0.25594523037E+02  0.11990746331E+03 -0.26003183513E+03  0.28748814697E+03  0.00000000000E+00 0.  1.
         -3    1    6    6    0  502 -0.60264773947E+03  0.39483006908E+03  0.52289951847E+03  0.89022412220E+03  0.00000000000E+00 0.  1.
<mgrwt>
<rscale>  0 0.24114524E+04</rscale>
<asrwt>0</asrwt>
<pdfrwt beam="1">  1        2 0.19215479E+00 0.24114524E+04</pdfrwt>
<pdfrwt beam="2">  1       -2 0.17906861E+00 0.24114524E+04</pdfrwt>
<totfact> 0.29285518E+00</totfact>
</mgrwt>
</event>
<event>
12    1  0.1494110E-007  0.1693696E+04  0.7818608E-02  0.8764968E-01
          2   -1    0    0  501    0  0.00000000000E+00  0.00000000000E+00  0.20544612676E+04  0.20544612676E+04  0.00000000000E+00 0. -1.
         -2   -1    0    0    0  501 -0.00000000000E+00 -0.00000000000E+00 -0.34907021901E+03  0.34907021901E+03  0.00000000000E+00 0.  1.
         23    2    1    2    0    0  0.34189990941E+02 -0.26819600236E+03  0.13742271803E+04  0.14037510760E+04  0.94438810676E+02 0.  0.
        254    2    1    2    0    0 -0.34189990941E+02  0.26819600236E+03  0.33116386824E+03  0.99978041063E+03  0.90376618142E+03 0.  0.
        -24    2    4    4    0    0 -0.33771104073E+03  0.27440215938E+03 -0.11230901914E+03  0.45634303166E+03  0.79311756190E+02 0.  0.
         24    2    4    4    0    0  0.30352104979E+03 -0.62061570161E+01  0.44347288738E+03  0.54343737896E+03  0.80575672298E+02 0.  0.
         13    1    3    3    0    0 -0.24018221483E+02 -0.41124291347E+02  0.15340788608E+03  0.16063020206E+03  0.00000000000E+00 0.  1.
        -13    1    3    3    0    0  0.58208212423E+02 -0.22707171101E+03  0.12208192942E+04  0.12431208739E+04  0.00000000000E+00 0. -1.
          2    1    6    6  502    0  0.14237043703E+03 -0.41747347834E+02  0.22820008723E+03  0.27219012143E+03  0.00000000000E+00 0. -1.
          3    1    5    5  503    0 -0.74240799005E+02  0.99797236954E+02 -0.50701371108E+02  0.13431981899E+03  0.00000000000E+00 0. -1.
         -4    1    5    5    0  503 -0.26347024172E+03  0.17460492242E+03 -0.61607648028E+02  0.32202321268E+03  0.00000000000E+00 0.  1.
         -1    1    6    6    0  502  0.16115061276E+03  0.35541190818E+02  0.21527280015E+03  0.27124725754E+03  0.00000000000E+00 0.  1.
<mgrwt>
<rscale>  0 0.16936957E+04</rscale>
<asrwt>0</asrwt>
<pdfrwt beam="1">  1        2 0.31607096E+00 0.16936957E+04</pdfrwt>
<pdfrwt beam="2">  1       -2 0.53703112E-01 0.16936957E+04</pdfrwt>
<totfact> 0.19381170E+01</totfact>
</mgrwt>
</event>
<event>
12    1  0.1494110E-007  0.1667468E+04  0.7818608E-02  0.8780139E-01
         -2   -1    0    0    0  501 -0.00000000000E+00  0.00000000000E+00  0.23061587239E+03  0.23061587239E+03  0.00000000000E+00 0.  1.
          2   -1    0    0  501    0  0.00000000000E+00 -0.00000000000E+00 -0.30141551427E+04  0.30141551427E+04  0.00000000000E+00 0. -1.
         23    2    1    2    0    0  0.17860771968E+03 -0.42879578651E+03 -0.29996505337E+03  0.56026897768E+03  0.90309191383E+02 0.  0.
        254    2    1    2    0    0 -0.17860771968E+03  0.42879578651E+03 -0.24835742169E+04  0.26845020374E+04  0.90699710792E+03 0.  0.
        -24    2    4    4    0    0 -0.13454227099E+03  0.68675916769E+03 -0.14014631162E+04  0.15684269191E+04  0.78258273581E+02 0.  0.
         24    2    4    4    0    0 -0.44065448685E+02 -0.25796338117E+03 -0.10821111007E+04  0.11160751183E+04  0.78564404147E+02 0.  0.
         13    1    3    3    0    0  0.18082161553E+03 -0.39329069147E+03 -0.29617475413E+03  0.52449357444E+03  0.00000000000E+00 0. -1.
        -13    1    3    3    0    0 -0.22138958546E+01 -0.35505095036E+02 -0.37902992326E+01  0.35775403236E+02  0.00000000000E+00 0.  1.
          4    1    6    6  502    0 -0.10677193134E+02 -0.19110325669E+03 -0.88038699457E+03  0.90095267211E+03  0.00000000000E+00 0. -1.
          1    1    5    5  503    0 -0.11882947438E+03  0.43443019394E+03 -0.93655457175E+03  0.10392230286E+04  0.00000000000E+00 0. -1.
         -2    1    5    5    0  503 -0.15712796614E+02  0.25232897375E+03 -0.46490854441E+03  0.52920389042E+03  0.00000000000E+00 0.  1.
         -3    1    6    6    0  502 -0.33388255551E+02 -0.66860124485E+02 -0.20172410615E+03  0.21512244620E+03  0.00000000000E+00 0.  1.
<mgrwt>
<rscale>  0 0.16674676E+04</rscale>
<asrwt>0</asrwt>
<pdfrwt beam="1">  1        2 0.46371616E+00 0.16674676E+04</pdfrwt>
<pdfrwt beam="2">  1       -2 0.35479367E-01 0.16674676E+04</pdfrwt>
<totfact> 0.12210444E+01</totfact>
</mgrwt>
</event>
<event>
12    1  0.1494110E-007  0.1541071E+04  0.7818608E-02  0.8857591E-01
         -2   -1    0    0    0  501 -0.00000000000E+00  0.00000000000E+00  0.30377150788E+03  0.30377150788E+03  0.00000000000E+00 0.  1.
          2   -1    0    0  501    0  0.00000000000E+00 -0.00000000000E+00 -0.19545125030E+04  0.19545125030E+04  0.00000000000E+00 0. -1.
         23    2    1    2    0    0  0.16455728824E+03  0.12073096870E+03 -0.12141507927E+04  0.12344051187E+04  0.89099841188E+02 0.  0.
        254    2    1    2    0    0 -0.16455728824E+03 -0.12073096870E+03 -0.43659020241E+03  0.10238788922E+04  0.90336145209E+03 0.  0.
        -24    2    4    4    0    0 -0.36866992760E+03 -0.21993806614E+03 -0.59268423413E+03  0.73610815156E+03  0.79311669743E+02 0.  0.
         24    2    4    4    0    0  0.20411263936E+03  0.99207097441E+02  0.15609403172E+03  0.28777074063E+03  0.83322474154E+02 0.  0.
         13    1    3    3    0    0  0.51812541560E+02 -0.66092523098E+01 -0.31717020081E+03  0.32144230892E+03  0.00000000000E+00 0.  1.
        -13    1    3    3    0    0  0.11274474668E+03  0.12734022101E+03 -0.89698059191E+03  0.91296280978E+03  0.00000000000E+00 0. -1.
          2    1    6    6  502    0  0.35713522121E+02  0.40099730385E+02  0.49994368317E+01  0.53929939810E+02  0.00000000000E+00 0. -1.
          3    1    5    5  503    0 -0.67708705677E+02 -0.50255858328E+02 -0.70181724786E+02  0.10970685765E+03  0.00000000000E+00 0. -1.
         -4    1    5    5    0  503 -0.30096122192E+03 -0.16968220781E+03 -0.52250250935E+03  0.62640129392E+03  0.00000000000E+00 0.  1.
         -1    1    6    6    0  502  0.16839911723E+03  0.59107367056E+02  0.15109459489E+03  0.23384080082E+03  0.00000000000E+00 0.  1.
<mgrwt>
<rscale>  0 0.15410713E+04</rscale>
<asrwt>0</asrwt>
<pdfrwt beam="1">  1        2 0.30069425E+00 0.15410713E+04</pdfrwt>
<pdfrwt beam="2">  1       -2 0.46734076E-01 0.15410713E+04</pdfrwt>
<totfact> 0.29614436E+01</totfact>
</mgrwt>
</event>
<event>
12    1  0.1494110E-007  0.2207217E+04  0.7818608E-02  0.8515430E-01
         -2   -1    0    0    0  501 -0.00000000000E+00  0.00000000000E+00  0.57276045651E+03  0.57276045651E+03  0.00000000000E+00 0.  1.
          2   -1    0    0  501    0  0.00000000000E+00 -0.00000000000E+00 -0.21264594380E+04  0.21264594380E+04  0.00000000000E+00 0. -1.
         23    2    1    2    0    0 -0.78331325050E+03 -0.22494771610E+03 -0.94118544883E+02  0.82548331675E+03  0.91560266287E+02 0.  0.
        254    2    1    2    0    0  0.78331325050E+03  0.22494771610E+03 -0.14595804366E+04  0.18737365777E+04  0.84636433553E+03 0.  0.
        -24    2    4    4    0    0  0.49942684379E+03 -0.28127951674E+03 -0.84818151069E+03  0.10270478663E+04  0.82886101028E+02 0.  0.
         24    2    4    4    0    0  0.28388640671E+03  0.50622723285E+03 -0.61139892588E+03  0.84668871142E+03  0.78839230673E+02 0.  0.
         13    1    3    3    0    0 -0.29476961808E+03 -0.12177009102E+03 -0.63753615411E+02  0.32524084351E+03  0.00000000000E+00 0.  1.
        -13    1    3    3    0    0 -0.48854363242E+03 -0.10317762508E+03 -0.30364929472E+02  0.50024247325E+03  0.00000000000E+00 0. -1.
          4    1    6    6  502    0  0.19541283258E+03  0.39308144849E+03 -0.42134403047E+03  0.60846527616E+03  0.00000000000E+00 0. -1.
          1    1    5    5  503    0  0.44586632221E+03 -0.22150878643E+03 -0.70807817197E+03  0.86558513005E+03  0.00000000000E+00 0. -1.
         -2    1    5    5    0  503  0.53560521584E+02 -0.59770730316E+02 -0.14010333872E+03  0.16146273625E+03  0.00000000000E+00 0.  1.
         -3    1    6    6    0  502  0.88473574129E+02  0.11314578435E+03 -0.19005489541E+03  0.23822343526E+03  0.00000000000E+00 0.  1.
<mgrwt>
<rscale>  0 0.22072171E+04</rscale>
<asrwt>0</asrwt>
<pdfrwt beam="1">  1        2 0.32714761E+00 0.22072171E+04</pdfrwt>
<pdfrwt beam="2">  1       -2 0.88116991E-01 0.22072171E+04</pdfrwt>
<totfact> 0.57553787E+00</totfact>
</mgrwt>
</event>
<event>
12    1  0.1494110E-007  0.1598301E+04  0.7818608E-02  0.8821593E-01
          2   -1    0    0  501    0  0.00000000000E+00  0.00000000000E+00  0.25497058803E+04  0.25497058803E+04  0.00000000000E+00 0.  1.
         -2   -1    0    0    0  501 -0.00000000000E+00 -0.00000000000E+00 -0.25047639864E+03  0.25047639864E+03  0.00000000000E+00 0. -1.
         23    2    1    2    0    0  0.53123596662E+03 -0.58443330310E+02  0.76100436019E+03  0.93438606286E+03  0.91227206200E+02 0.  0.
        254    2    1    2    0    0 -0.53123596662E+03  0.58443330310E+02  0.15382251214E+04  0.18657962161E+04  0.91073142064E+03 0.  0.
        -24    2    4    4    0    0 -0.48479717553E+03 -0.28622915310E+03  0.13447696054E+04  0.14600824686E+04  0.80499031339E+02 0.  0.
         24    2    4    4    0    0 -0.46438791083E+02  0.34467248341E+03  0.19345551610E+03  0.40571374750E+03  0.78885525034E+02 0.  0.
         11    1    3    3    0    0  0.23562707338E+03 -0.40786129252E+02  0.41491594859E+03  0.47889338108E+03  0.00000000000E+00 0.  1.
        -11    1    3    3    0    0  0.29560889323E+03 -0.17657201058E+02  0.34608841160E+03  0.45549268178E+03  0.00000000000E+00 0. -1.
          2    1    6    6  502    0 -0.14715455785E+02  0.14099607566E+02  0.28154508611E+02  0.34756581069E+02  0.00000000000E+00 0. -1.
          3    1    5    5  503    0 -0.50259614500E+02 -0.61686373126E+02  0.19251978029E+03  0.20831491373E+03  0.00000000000E+00 0. -1.
         -4    1    5    5    0  503 -0.43453756103E+03 -0.22454277998E+03  0.11522498251E+04  0.12517675548E+04  0.00000000000E+00 0.  1.
         -1    1    6    6    0  502 -0.31723335298E+02  0.33057287585E+03  0.16530100749E+03  0.37095716643E+03  0.00000000000E+00 0.  1.
<mgrwt>
<rscale>  0 0.15983005E+04</rscale>
<asrwt>0</asrwt>
<pdfrwt beam="1">  1        2 0.39226243E+00 0.15983005E+04</pdfrwt>
<pdfrwt beam="2">  1       -2 0.38534832E-01 0.15983005E+04</pdfrwt>
<totfact> 0.19919213E+01</totfact>
</mgrwt>
</event>
<event>
12    1  0.1494110E-007  0.2150455E+04  0.7818608E-02  0.8539338E-01
         -1   -1    0    0    0  501 -0.00000000000E+00  0.00000000000E+00  0.66233264731E+03  0.66233264731E+03  0.00000000000E+00 0.  1.
          1   -1    0    0  501    0  0.00000000000E+00 -0.00000000000E+00 -0.17455189183E+04  0.17455189183E+04  0.00000000000E+00 0. -1.
         23    2    1    2    0    0 -0.24922842873E+03  0.20651951957E+03  0.46409915909E+03  0.57257971729E+03  0.87717623868E+02 0.  0.
        254    2    1    2    0    0  0.24922842873E+03 -0.20651951957E+03 -0.15472854301E+04  0.18352718484E+04  0.93239767989E+03 0.  0.
        -24    2    4    4    0    0 -0.30782413858E+03 -0.12567900713E+03 -0.26518897548E+03  0.43287409707E+03  0.80646624685E+02 0.  0.
         24    2    4    4    0    0  0.55705256730E+03 -0.80840512439E+02 -0.12820964546E+04  0.14023977513E+04  0.78136947929E+02 0.  0.
         11    1    3    3    0    0 -0.80570169346E+02  0.12145010292E+03  0.22067404686E+03  0.26445928731E+03  0.00000000000E+00 0.  1.
        -11    1    3    3    0    0 -0.16865825938E+03  0.85069416640E+02  0.24342511223E+03  0.30812042998E+03  0.00000000000E+00 0. -1.
          4    1    6    6  502    0  0.46331684734E+03 -0.79450738866E+02 -0.99654267597E+03  0.11018494570E+04  0.00000000000E+00 0. -1.
          1    1    5    5  503    0 -0.29182552621E+03 -0.13712042824E+03 -0.24860564391E+03  0.40714729002E+03  0.00000000000E+00 0. -1.
         -2    1    5    5    0  503 -0.15998612370E+02  0.11441421115E+02 -0.16583331570E+02  0.25726807047E+02  0.00000000000E+00 0.  1.
         -3    1    6    6    0  502  0.93735719961E+02 -0.13897735735E+01 -0.28555377867E+03  0.30054829425E+03  0.00000000000E+00 0.  1.
<mgrwt>
<rscale>  0 0.21504550E+04</rscale>
<asrwt>0</asrwt>
<pdfrwt beam="1">  1        1 0.26854137E+00 0.21504550E+04</pdfrwt>
<pdfrwt beam="2">  1       -1 0.10189733E+00 0.21504550E+04</pdfrwt>
<totfact> 0.37080606E+00</totfact>
</mgrwt>
</event>
<event>
12    1  0.1728182E-007  0.2321776E+04  0.7818608E-02  0.8469384E-01
          2   -1    0    0  501    0  0.00000000000E+00  0.00000000000E+00  0.80164117317E+03  0.80164117317E+03  0.00000000000E+00 0. -1.
         -2   -1    0    0    0  501 -0.00000000000E+00 -0.00000000000E+00 -0.16811278501E+04  0.16811278501E+04  0.00000000000E+00 0.  1.
         23    2    1    2    0    0 -0.68447265095E+03  0.36342450124E+03 -0.10068290200E+04  0.12738388833E+04  0.91545874465E+02 0.  0.
        254    2    1    2    0    0  0.68447265095E+03 -0.36342450124E+03  0.12734234309E+03  0.12089301399E+04  0.91908423604E+03 0.  0.
        -24    2    4    4    0    0  0.23891421144E+03 -0.46948673475E+03  0.40307506121E+03  0.66834109754E+03  0.81929989332E+02 0.  0.
         24    2    4    4    0    0  0.44555843951E+03  0.10606223352E+03 -0.27573271813E+03  0.54058904241E+03  0.80227554668E+02 0.  0.
         11    1    3    3    0    0 -0.41495723426E+02  0.42556362116E+02 -0.10577326594E+03  0.12132981005E+03  0.00000000000E+00 0. -1.
        -11    1    3    3    0    0 -0.64297692752E+03  0.32086813912E+03 -0.90105575406E+03  0.11525090733E+04  0.00000000000E+00 0.  1.
          4    1    6    6  502    0  0.32326250539E+03  0.10711043260E+03 -0.22512753080E+03  0.40823240597E+03  0.00000000000E+00 0. -1.
          1    1    5    5  503    0  0.21398861484E+03 -0.45673796615E+03  0.38925802066E+03  0.63712047813E+03  0.00000000000E+00 0. -1.
         -2    1    5    5    0  503  0.24925596601E+02 -0.12748768608E+02  0.13817040552E+02  0.31220619413E+02  0.00000000000E+00 0.  1.
         -3    1    6    6    0  502  0.12229593412E+03 -0.10481990822E+01 -0.50605187327E+02  0.13235663644E+03  0.00000000000E+00 0.  1.
<mgrwt>
<rscale>  0 0.23217763E+04</rscale>
<asrwt>0</asrwt>
<pdfrwt beam="1">  1        2 0.12332941E+00 0.23217763E+04</pdfrwt>
<pdfrwt beam="2">  1       -2 0.25863505E+00 0.23217763E+04</pdfrwt>
<totfact> 0.17680402E+00</totfact>
</mgrwt>
</event>
<event>
12    1  0.1494110E-007  0.1969885E+04  0.7818608E-02  0.8620831E-01
          2   -1    0    0  501    0  0.00000000000E+00  0.00000000000E+00  0.27904117793E+04  0.27904117793E+04  0.00000000000E+00 0. -1.
         -2   -1    0    0    0  501 -0.00000000000E+00 -0.00000000000E+00 -0.34765888725E+03  0.34765888725E+03  0.00000000000E+00 0.  1.
         23    2    1    2    0    0  0.35643027714E+03  0.10442820509E+02 -0.13139480931E+03  0.39087890345E+03  0.91488394288E+02 0.  0.
        254    2    1    2    0    0 -0.35643027714E+03 -0.10442820509E+02  0.25741477013E+04  0.27471917631E+04  0.89088416745E+03 0.  0.
        -24    2    4    4    0    0 -0.10761353209E+03  0.24171954947E+03  0.22295769902E+04  0.22467146711E+04  0.81879453612E+02 0.  0.
         24    2    4    4    0    0 -0.24881674505E+03 -0.25216236998E+03  0.34457071113E+03  0.50047709202E+03  0.79074086912E+02 0.  0.
         13    1    3    3    0    0  0.30877353946E+03 -0.11320964181E+02 -0.13738254029E+03  0.33814675109E+03  0.00000000000E+00 0.  1.
        -13    1    3    3    0    0  0.47656737684E+02  0.21763784689E+02  0.59877309731E+01  0.52732152364E+02  0.00000000000E+00 0. -1.
          2    1    6    6  502    0 -0.19752000273E+03 -0.16227903817E+03  0.21074554419E+03  0.33130397237E+03  0.00000000000E+00 0. -1.
          1    1    5    5  503    0 -0.18335469046E+02  0.10704936677E+03  0.11494373344E+04  0.11545570328E+04  0.00000000000E+00 0. -1.
         -2    1    5    5    0  503 -0.89278063043E+02  0.13467018270E+03  0.10801396558E+04  0.10921576382E+04  0.00000000000E+00 0.  1.
         -1    1    6    6    0  502 -0.51296742324E+02 -0.89883331809E+02  0.13382516693E+03  0.16917311966E+03  0.00000000000E+00 0.  1.
<mgrwt>
<rscale>  0 0.19698847E+04</rscale>
<asrwt>0</asrwt>
<pdfrwt beam="1">  1        2 0.42929411E+00 0.19698847E+04</pdfrwt>
<pdfrwt beam="2">  1       -2 0.53485984E-01 0.19698847E+04</pdfrwt>
<totfact> 0.72019423E+00</totfact>
</mgrwt>
</event>
<event>
12    1  0.1494110E-007  0.1658513E+04  0.7818608E-02  0.8785386E-01
          1   -1    0    0  501    0  0.00000000000E+00  0.00000000000E+00  0.11767906918E+04  0.11767906918E+04  0.00000000000E+00 0. -1.
         -1   -1    0    0    0  501 -0.00000000000E+00 -0.00000000000E+00 -0.58435744958E+03  0.58435744958E+03  0.00000000000E+00 0.  1.
         23    2    1    2    0    0  0.30032881819E+03 -0.52752586953E+03  0.39420307086E+03  0.72956038654E+03  0.91549737727E+02 0.  0.
        254    2    1    2    0    0 -0.30032881819E+03  0.52752586953E+03  0.19823017134E+03  0.10315877548E+04  0.81018340701E+03 0.  0.
        -24    2    4    4    0    0 -0.25914947272E+03 -0.16266551837E+03  0.53274173095E+02  0.32085426254E+03  0.80565502503E+02 0.  0.
         24    2    4    4    0    0 -0.41179345469E+02  0.69019138790E+03  0.14495599825E+03  0.71073349228E+03  0.77909981400E+02 0.  0.
         11    1    3    3    0    0  0.10681762177E+03 -0.13502345240E+03  0.15045179550E+03  0.22864181548E+03  0.00000000000E+00 0.  1.
        -11    1    3    3    0    0  0.19351119642E+03 -0.39250241713E+03  0.24375127537E+03  0.50091857106E+03  0.00000000000E+00 0. -1.
          4    1    6    6  502    0 -0.47753830815E+02  0.59532882327E+03  0.10001183399E+03  0.60555693631E+03  0.00000000000E+00 0. -1.
          3    1    5    5  503    0 -0.16211798813E+03 -0.11970923244E+03  0.70191090047E+02  0.21339946469E+03  0.00000000000E+00 0. -1.
         -4    1    5    5    0  503 -0.97031484583E+02 -0.42956285928E+02 -0.16916916952E+02  0.10745479785E+03  0.00000000000E+00 0.  1.
         -3    1    6    6    0  502  0.65744853462E+01  0.94862564627E+02  0.44944164262E+02  0.10517655597E+03  0.00000000000E+00 0.  1.
<mgrwt>
<rscale>  0 0.16585131E+04</rscale>
<asrwt>0</asrwt>
<pdfrwt beam="1">  1        1 0.18104472E+00 0.16585131E+04</pdfrwt>
<pdfrwt beam="2">  1       -1 0.89901146E-01 0.16585131E+04</pdfrwt>
<totfact> 0.12851873E+01</totfact>
</mgrwt>
</event>
<event>
12    1  0.1494110E-007  0.3136660E+04  0.7818608E-02  0.8205748E-01
         -2   -1    0    0    0  501 -0.00000000000E+00  0.00000000000E+00  0.57150359609E+03  0.57150359609E+03  0.00000000000E+00 0. -1.
          2   -1    0    0  501    0  0.00000000000E+00 -0.00000000000E+00 -0.43038378110E+04  0.43038378110E+04  0.00000000000E+00 0.  1.
         23    2    1    2    0    0  0.44232186616E+03 -0.19555406446E+03  0.39005128746E+03  0.62793939920E+03  0.90982728108E+02 0.  0.
        254    2    1    2    0    0 -0.44232186616E+03  0.19555406446E+03 -0.41223855024E+04  0.42474020079E+04  0.90137204364E+03 0.  0.
        -24    2    4    4    0    0 -0.69244707997E+03  0.13160178201E+03 -0.34612958735E+04  0.35332274102E+04  0.79528742399E+02 0.  0.
         24    2    4    4    0    0  0.25012521381E+03  0.63952282447E+02 -0.66108962893E+03  0.71417459773E+03  0.79707851202E+02 0.  0.
         13    1    3    3    0    0  0.36595795204E+03 -0.19482091003E+03  0.31314364491E+03  0.51955688042E+03  0.00000000000E+00 0. -1.
        -13    1    3    3    0    0  0.76363914122E+02 -0.73315443265E+00  0.76907642554E+02  0.10838251879E+03  0.00000000000E+00 0.  1.
          2    1    6    6  502    0  0.24849433931E+03  0.73268478909E+02 -0.61886248311E+03  0.67090124435E+03  0.00000000000E+00 0. -1.
          3    1    5    5  503    0 -0.51344632805E+03  0.64706383093E+02 -0.25966434546E+04  0.26477105730E+04  0.00000000000E+00 0. -1.
         -4    1    5    5    0  503 -0.17900075191E+03  0.66895398921E+02 -0.86465241881E+03  0.88551683718E+03  0.00000000000E+00 0.  1.
         -1    1    6    6    0  502  0.16308745008E+01 -0.93161964614E+01 -0.42227145824E+02  0.43273353378E+02  0.00000000000E+00 0.  1.
<mgrwt>
<rscale>  0 0.31366599E+04</rscale>
<asrwt>0</asrwt>
<pdfrwt beam="1">  1        2 0.66212890E+00 0.31366599E+04</pdfrwt>
<pdfrwt beam="2">  1       -2 0.87923630E-01 0.31366599E+04</pdfrwt>
<totfact> 0.17731502E-01</totfact>
</mgrwt>
</event>
<event>
12    1  0.1494110E-007  0.1957665E+04  0.7818608E-02  0.8626673E-01
          2   -1    0    0  501    0  0.00000000000E+00  0.00000000000E+00  0.57893044012E+03  0.57893044012E+03  0.00000000000E+00 0. -1.
         -2   -1    0    0    0  501 -0.00000000000E+00 -0.00000000000E+00 -0.16549714176E+04  0.16549714176E+04  0.00000000000E+00 0.  1.
         23    2    1    2    0    0  0.31922650736E+03 -0.66229959735E+03 -0.68219036097E+03  0.10073910884E+04  0.94375826896E+02 0.  0.
        254    2    1    2    0    0 -0.31922650736E+03  0.66229959735E+03 -0.39385061654E+03  0.12265107694E+04  0.89925749346E+03 0.  0.
        -24    2    4    4    0    0  0.16291874959E+03 -0.11568154637E+03 -0.18660321916E+03  0.28465837147E+03  0.79277284952E+02 0.  0.
         24    2    4    4    0    0 -0.48214525695E+03  0.77798114372E+03 -0.20724739738E+03  0.94185239788E+03  0.80098357650E+02 0.  0.
         11    1    3    3    0    0  0.19394437979E+03 -0.45989746795E+03 -0.51004562750E+03  0.71362920737E+03  0.00000000000E+00 0.  1.
        -11    1    3    3    0    0  0.12528212758E+03 -0.20240212940E+03 -0.17214473346E+03  0.29376188101E+03  0.00000000000E+00 0. -1.
          4    1    6    6  502    0 -0.48482979908E+03  0.76656540512E+03 -0.20533437871E+03  0.92997024763E+03  0.00000000000E+00 0. -1.
          1    1    5    5  503    0  0.12670317555E+03 -0.10593220503E+03 -0.18372541599E+03  0.24704322544E+03  0.00000000000E+00 0. -1.
         -2    1    5    5    0  503  0.36215574040E+02 -0.97493413430E+01 -0.28778031703E+01  0.37615146029E+02  0.00000000000E+00 0.  1.
         -3    1    6    6    0  502  0.26845421275E+01  0.11415738596E+02 -0.19130186652E+01  0.11882150249E+02  0.00000000000E+00 0.  1.
<mgrwt>
<rscale>  0 0.19576653E+04</rscale>
<asrwt>0</asrwt>
<pdfrwt beam="1">  1        2 0.89066221E-01 0.19576653E+04</pdfrwt>
<pdfrwt beam="2">  1       -2 0.25461099E+00 0.19576653E+04</pdfrwt>
<totfact> 0.29059361E+00</totfact>
</mgrwt>
</event>
<event>
12    1  0.1494110E-007  0.1076288E+04  0.7818608E-02  0.9228616E-01
         -1   -1    0    0    0  501 -0.00000000000E+00  0.00000000000E+00  0.29407380596E+03  0.29407380596E+03  0.00000000000E+00 0.  1.
          1   -1    0    0  501    0  0.00000000000E+00 -0.00000000000E+00 -0.98478321942E+03  0.98478321942E+03  0.00000000000E+00 0. -1.
         23    2    1    2    0    0 -0.58692567277E+02  0.82405275524E+02  0.26839931692E+01  0.14199445704E+03  0.99598067869E+02 0.  0.
        254    2    1    2    0    0  0.58692567277E+02 -0.82405275524E+02 -0.69339340663E+03  0.11368625683E+04  0.89522434957E+03 0.  0.
        -24    2    4    4    0    0 -0.35654464056E+03  0.78204732926E+02 -0.54529281419E+03  0.66067382482E+03  0.76847827785E+02 0.  0.
         24    2    4    4    0    0  0.41523720784E+03 -0.16061000845E+03 -0.14810059244E+03  0.47618874352E+03  0.81267585114E+02 0.  0.
         11    1    3    3    0    0 -0.81809037263E+02  0.44606010329E+02  0.18406491846E+02  0.94980069896E+02  0.00000000000E+00 0.  1.
        -11    1    3    3    0    0  0.23116469986E+02  0.37799265195E+02 -0.15722498677E+02  0.47014387145E+02  0.00000000000E+00 0. -1.
          2    1    6    6  502    0  0.13334913605E+02  0.49267574706E+01  0.54218282660E+01  0.15214765255E+02  0.00000000000E+00 0. -1.
          1    1    5    5  503    0 -0.18423935312E+03  0.22243873348E+01 -0.28600305389E+03  0.34021586379E+03  0.00000000000E+00 0. -1.
         -2    1    5    5    0  503 -0.17230528744E+03  0.75980345591E+02 -0.25928976030E+03  0.32045796104E+03  0.00000000000E+00 0.  1.
         -1    1    6    6    0  502  0.40190229423E+03 -0.16553676592E+03 -0.15352242071E+03  0.46097397827E+03  0.00000000000E+00 0.  1.
<mgrwt>
<rscale>  0 0.10762880E+04</rscale>
<asrwt>0</asrwt>
<pdfrwt beam="1">  1        1 0.15150511E+00 0.10762880E+04</pdfrwt>
<pdfrwt beam="2">  1       -1 0.45242124E-01 0.10762880E+04</pdfrwt>
<totfact> 0.75214924E+01</totfact>
</mgrwt>
</event>
<event>
12    1  0.1494110E-007  0.2049584E+04  0.7818608E-02  0.8583783E-01
          1   -1    0    0  501    0  0.00000000000E+00  0.00000000000E+00  0.21611259040E+04  0.21611259040E+04  0.00000000000E+00 0. -1.
         -1   -1    0    0    0  501 -0.00000000000E+00 -0.00000000000E+00 -0.48594968280E+03  0.48594968280E+03  0.00000000000E+00 0.  1.
         23    2    1    2    0    0  0.38217351316E+03 -0.60838884079E+03  0.15920888603E+03  0.74151492000E+03  0.91122617549E+02 0.  0.
        254    2    1    2    0    0 -0.38217351316E+03  0.60838884079E+03  0.15159673352E+04  0.19055606668E+04  0.90377592234E+03 0.  0.
        -24    2    4    4    0    0 -0.10930463026E+03  0.37163110050E+03  0.55890372030E+02  0.39947265986E+03  0.79984343736E+02 0.  0.
         24    2    4    4    0    0 -0.27286888290E+03  0.23675774029E+03  0.14600769632E+04  0.15060880070E+04  0.77231415056E+02 0.  0.
         13    1    3    3    0    0  0.24235517207E+03 -0.46144531136E+03  0.12180964037E+03  0.53526198566E+03  0.00000000000E+00 0.  1.
        -13    1    3    3    0    0  0.13981834109E+03 -0.14694352943E+03  0.37399245657E+02  0.20625293433E+03  0.00000000000E+00 0. -1.
          2    1    6    6  502    0 -0.21878073713E+02  0.53058435267E+02  0.18987925799E+03  0.19836325334E+03  0.00000000000E+00 0. -1.
          3    1    5    5  503    0 -0.24743681906E+02  0.42484645841E+02  0.32287076082E+02  0.58818791287E+02  0.00000000000E+00 0. -1.
         -4    1    5    5    0  503 -0.84560948349E+02  0.32914645465E+03  0.23603295947E+02  0.34065386858E+03  0.00000000000E+00 0.  1.
         -1    1    6    6    0  502 -0.25099080919E+03  0.18369930503E+03  0.12701977052E+04  0.13077247536E+04  0.00000000000E+00 0.  1.
<mgrwt>
<rscale>  0 0.20495838E+04</rscale>
<asrwt>0</asrwt>
<pdfrwt beam="1">  1        1 0.33248090E+00 0.20495838E+04</pdfrwt>
<pdfrwt beam="2">  1       -1 0.74761491E-01 0.20495838E+04</pdfrwt>
<totfact> 0.38497227E+00</totfact>
</mgrwt>
</event>
<event>
12    1  0.1494110E-007  0.1803059E+04  0.7818608E-02  0.8704674E-01
         -1   -1    0    0    0  501 -0.00000000000E+00  0.00000000000E+00  0.12238807250E+04  0.12238807250E+04  0.00000000000E+00 0.  1.
          1   -1    0    0  501    0  0.00000000000E+00 -0.00000000000E+00 -0.66408083641E+03  0.66408083641E+03  0.00000000000E+00 0. -1.
         23    2    1    2    0    0  0.29210653501E+03  0.16477626323E+03  0.80526113266E+03  0.87714248546E+03  0.91956529369E+02 0.  0.
        254    2    1    2    0    0 -0.29210653501E+03 -0.16477626323E+03 -0.24546124407E+03  0.10108190760E+04  0.92142636019E+03 0.  0.
        -24    2    4    4    0    0 -0.49287563665E+03  0.46728675095E+02  0.14084099708E+03  0.52081784089E+03  0.79404500190E+02 0.  0.
         24    2    4    4    0    0  0.20076910164E+03 -0.21150493833E+03 -0.38630224115E+03  0.49000123506E+03  0.76349313932E+02 0.  0.
         11    1    3    3    0    0  0.25433262324E+03  0.10106009362E+03  0.63612455996E+03  0.69249742350E+03  0.00000000000E+00 0.  1.
        -11    1    3    3    0    0  0.37773911777E+02  0.63716169608E+02  0.16913657271E+03  0.18464506196E+03  0.00000000000E+00 0. -1.
          2    1    6    6  502    0  0.13172273989E+03 -0.12767437077E+03 -0.18080018321E+03  0.25756616898E+03  0.00000000000E+00 0. -1.
          1    1    5    5  503    0 -0.31704852615E+03  0.54047936153E+02  0.60054784847E+02  0.32718117996E+03  0.00000000000E+00 0. -1.
         -2    1    5    5    0  503 -0.17582711050E+03 -0.73192610588E+01  0.80786212232E+02  0.19363666093E+03  0.00000000000E+00 0.  1.
         -1    1    6    6    0  502  0.69046361750E+02 -0.83830567557E+02 -0.20550205793E+03  0.23243506608E+03  0.00000000000E+00 0.  1.
<mgrwt>
<rscale>  0 0.18030593E+04</rscale>
<asrwt>0</asrwt>
<pdfrwt beam="1">  1        1 0.10216628E+00 0.18030593E+04</pdfrwt>
<pdfrwt beam="2">  1       -1 0.18828934E+00 0.18030593E+04</pdfrwt>
<totfact> 0.50547590E+00</totfact>
</mgrwt>
</event>
<event>
12    1  0.1494110E-007  0.1287674E+04  0.7818608E-02  0.9039397E-01
          2   -1    0    0  501    0  0.00000000000E+00  0.00000000000E+00  0.87477001912E+03  0.87477001912E+03  0.00000000000E+00 0. -1.
         -2   -1    0    0    0  501 -0.00000000000E+00 -0.00000000000E+00 -0.47386861183E+03  0.47386861183E+03  0.00000000000E+00 0.  1.
         23    2    1    2    0    0 -0.74478567577E+02 -0.34809243963E+03  0.76055453084E+02  0.37507265175E+03  0.90441465020E+02 0.  0.
        254    2    1    2    0    0  0.74478567577E+02  0.34809243963E+03  0.32484595420E+03  0.97356597920E+03  0.84592577590E+03 0.  0.
        -24    2    4    4    0    0  0.13437782290E+02  0.54328959372E+03 -0.36366463217E+02  0.55001943097E+03  0.76515999367E+02 0.  0.
         24    2    4    4    0    0  0.61040785287E+02 -0.19519715409E+03  0.36121241742E+03  0.42354654823E+03  0.84198346679E+02 0.  0.
         13    1    3    3    0    0 -0.40854094829E+02 -0.27866042123E+03  0.25398609719E+02  0.28278220736E+03  0.00000000000E+00 0. -1.
        -13    1    3    3    0    0 -0.33624472748E+02 -0.69432018397E+02  0.50656843365E+02  0.92290444392E+02  0.00000000000E+00 0.  1.
          2    1    6    6  502    0  0.68584595435E+02 -0.18969033266E+03  0.29924528725E+03  0.36087949647E+03  0.00000000000E+00 0. -1.
          1    1    5    5  503    0  0.23070212353E+02  0.53635419269E+03 -0.34071936877E+02  0.53793024789E+03  0.00000000000E+00 0. -1.
         -2    1    5    5    0  503 -0.96324300630E+01  0.69354010313E+01 -0.22945263397E+01  0.12089183079E+02  0.00000000000E+00 0.  1.
         -1    1    6    6    0  502 -0.75438101483E+01 -0.55068214342E+01  0.61967130171E+02  0.62667051753E+02  0.00000000000E+00 0.  1.
<mgrwt>
<rscale>  0 0.12876740E+04</rscale>
<asrwt>0</asrwt>
<pdfrwt beam="1">  1        2 0.13458000E+00 0.12876740E+04</pdfrwt>
<pdfrwt beam="2">  1       -2 0.72902864E-01 0.12876740E+04</pdfrwt>
<totfact> 0.50903656E+01</totfact>
</mgrwt>
</event>
<event>
12    1  0.1494110E-007  0.1992102E+04  0.7818608E-02  0.8610322E-01
         -2   -1    0    0    0  501 -0.00000000000E+00  0.00000000000E+00  0.48304679356E+03  0.48304679356E+03  0.00000000000E+00 0.  1.
          2   -1    0    0  501    0  0.00000000000E+00 -0.00000000000E+00 -0.20538755729E+04  0.20538755729E+04  0.00000000000E+00 0. -1.
         23    2    1    2    0    0  0.63997867774E+03  0.36646288201E+03 -0.34867627046E+03  0.82077273076E+03  0.90691687187E+02 0.  0.
        254    2    1    2    0    0 -0.63997867774E+03 -0.36646288201E+03 -0.12221525089E+04  0.17161496357E+04  0.95270408065E+03 0.  0.
        -24    2    4    4    0    0  0.55233091014E+02 -0.53394403218E+02 -0.86302700261E+03  0.87012030751E+03  0.79950520042E+02 0.  0.
         24    2    4    4    0    0 -0.69521176875E+03 -0.31306847880E+03 -0.35912550627E+03  0.84602932819E+03  0.73913591973E+02 0.  0.
         13    1    3    3    0    0  0.32106528924E+03  0.16809389356E+03 -0.21902106343E+03  0.42344858393E+03  0.00000000000E+00 0.  1.
        -13    1    3    3    0    0  0.31891338850E+03  0.19836898845E+03 -0.12965520703E+03  0.39732414683E+03  0.00000000000E+00 0. -1.
          4    1    6    6  502    0 -0.62866838936E+03 -0.30435502842E+03 -0.33565258768E+03  0.77493134323E+03  0.00000000000E+00 0. -1.
          3    1    5    5  503    0  0.27655491184E+02  0.15873401571E+02 -0.38452212407E+03  0.38584200779E+03  0.00000000000E+00 0. -1.
         -4    1    5    5    0  503  0.27577599830E+02 -0.69267804789E+02 -0.47850487854E+03  0.48427829972E+03  0.00000000000E+00 0.  1.
         -3    1    6    6    0  502 -0.66543379398E+02 -0.87134503804E+01 -0.23472918593E+02  0.71097984968E+02  0.00000000000E+00 0.  1.
<mgrwt>
<rscale>  0 0.19921024E+04</rscale>
<asrwt>0</asrwt>
<pdfrwt beam="1">  1        2 0.31598086E+00 0.19921024E+04</pdfrwt>
<pdfrwt beam="2">  1       -2 0.74314891E-01 0.19921024E+04</pdfrwt>
<totfact> 0.94453113E+00</totfact>
</mgrwt>
</event>
<event>
12    1  0.1494110E-007  0.1438025E+04  0.7818608E-02  0.8926745E-01
          2   -1    0    0  501    0  0.00000000000E+00  0.00000000000E+00  0.29822460569E+04  0.29822460569E+04  0.00000000000E+00 0. -1.
         -2   -1    0    0    0  501 -0.00000000000E+00 -0.00000000000E+00 -0.17335230792E+03  0.17335230792E+03  0.00000000000E+00 0.  1.
         23    2    1    2    0    0 -0.36453752838E+02 -0.20997191355E+03  0.16791483746E+04  0.16950962575E+04  0.91624110291E+02 0.  0.
        254    2    1    2    0    0  0.36453752838E+02  0.20997191355E+03  0.11297453743E+04  0.14605021073E+04  0.90073565157E+03 0.  0.
        -24    2    4    4    0    0 -0.38487294299E+03  0.27876869232E+03  0.48997098944E+03  0.68709780130E+03  0.78693405058E+02 0.  0.
         24    2    4    4    0    0  0.42132669583E+03 -0.68796778771E+02  0.63977438489E+03  0.77340430599E+03  0.81202066311E+02 0.  0.
         11    1    3    3    0    0  0.23495164820E+02 -0.24532655250E+02  0.16525390529E+03  0.16870900141E+03  0.00000000000E+00 0.  1.
        -11    1    3    3    0    0 -0.59948917658E+02 -0.18543925830E+03  0.15138944693E+04  0.15263872561E+04  0.00000000000E+00 0. -1.
          2    1    6    6  502    0  0.26738759278E+03 -0.84339299489E+01  0.42791165365E+03  0.50465397975E+03  0.00000000000E+00 0. -1.
          1    1    5    5  503    0 -0.17940775715E+03  0.12789192795E+03  0.17170231465E+03  0.27932986489E+03  0.00000000000E+00 0. -1.
         -2    1    5    5    0  503 -0.20546518584E+03  0.15087676438E+03  0.31826867479E+03  0.40776793642E+03  0.00000000000E+00 0.  1.
         -1    1    6    6    0  502  0.15393910305E+03 -0.60362848822E+02  0.21186273124E+03  0.26875032624E+03  0.00000000000E+00 0.  1.
<mgrwt>
<rscale>  0 0.14380254E+04</rscale>
<asrwt>0</asrwt>
<pdfrwt beam="1">  1        2 0.45880705E+00 0.14380254E+04</pdfrwt>
<pdfrwt beam="2">  1       -2 0.26669588E-01 0.14380254E+04</pdfrwt>
<totfact> 0.22288346E+01</totfact>
</mgrwt>
</event>
<event>
12    1  0.1494110E-007  0.1478064E+04  0.7818608E-02  0.8899173E-01
         -2   -1    0    0    0  501 -0.00000000000E+00  0.00000000000E+00  0.34398532867E+03  0.34398532867E+03  0.00000000000E+00 0.  1.
          2   -1    0    0  501    0  0.00000000000E+00 -0.00000000000E+00 -0.15877652265E+04  0.15877652265E+04  0.00000000000E+00 0. -1.
         23    2    1    2    0    0  0.30543301527E+03  0.76714773490E+02  0.34056251222E+02  0.32970231429E+03  0.91483903013E+02 0.  0.
        254    2    1    2    0    0 -0.30543301527E+03 -0.76714773490E+02 -0.12778361491E+04  0.16020482409E+04  0.91352003755E+03 0.  0.
        -24    2    4    4    0    0  0.31207735386E+03 -0.97814418727E+02 -0.54828287001E+03  0.64244694829E+03  0.71861258760E+02 0.  0.
         24    2    4    4    0    0 -0.61751036914E+03  0.21099645237E+02 -0.72955327909E+03  0.95960129264E+03  0.82597837628E+02 0.  0.
         13    1    3    3    0    0  0.40268421891E+02 -0.20863350516E+02  0.64412813854E+01  0.45807371702E+02  0.00000000000E+00 0. -1.
        -13    1    3    3    0    0  0.26516459338E+03  0.97578124006E+02  0.27614969836E+02  0.28389494259E+03  0.00000000000E+00 0.  1.
          2    1    6    6  502    0 -0.40998322291E+03  0.10845513829E+02 -0.54208144398E+03  0.67974712956E+03  0.00000000000E+00 0. -1.
          3    1    5    5  503    0  0.45747107156E+01  0.56549066591E+01 -0.28489879997E+01  0.78117014841E+01  0.00000000000E+00 0. -1.
         -4    1    5    5    0  503  0.30750264315E+03 -0.10346932539E+03 -0.54543388201E+03  0.63463524680E+03  0.00000000000E+00 0.  1.
         -1    1    6    6    0  502 -0.20752714623E+03  0.10254131407E+02 -0.18747183511E+03  0.27985416308E+03  0.00000000000E+00 0.  1.
<mgrwt>
<rscale>  0 0.14780635E+04</rscale>
<asrwt>0</asrwt>
<pdfrwt beam="1">  1        2 0.24427157E+00 0.14780635E+04</pdfrwt>
<pdfrwt beam="2">  1       -2 0.52920820E-01 0.14780635E+04</pdfrwt>
<totfact> 0.36916922E+01</totfact>
</mgrwt>
</event>
<event>
12    1  0.1494110E-007  0.1528340E+04  0.7818608E-02  0.8865823E-01
          2   -1    0    0  501    0  0.00000000000E+00  0.00000000000E+00  0.39962039196E+03  0.39962039196E+03  0.00000000000E+00 0. -1.
         -2   -1    0    0    0  501 -0.00000000000E+00 -0.00000000000E+00 -0.14612761739E+04  0.14612761739E+04  0.00000000000E+00 0.  1.
         23    2    1    2    0    0 -0.39179384869E+03  0.67614599616E+02 -0.71782161199E+03  0.82562410471E+03  0.91176431642E+02 0.  0.
        254    2    1    2    0    0  0.39179384869E+03 -0.67614599616E+02 -0.34383416996E+03  0.10352724612E+04  0.89190413075E+03 0.  0.
        -24    2    4    4    0    0  0.30326471477E+03 -0.20747336995E+03  0.22431929742E+03  0.43821285890E+03  0.81833220906E+02 0.  0.
         24    2    4    4    0    0  0.88529133927E+02  0.13985877034E+03 -0.56815346739E+03  0.59705960226E+03  0.79271198778E+02 0.  0.
         11    1    3    3    0    0 -0.90604706938E+02  0.44730396544E+02 -0.12915855171E+03  0.16398766044E+03  0.00000000000E+00 0. -1.
        -11    1    3    3    0    0 -0.30118914175E+03  0.22884203072E+02 -0.58866306027E+03  0.66163644428E+03  0.00000000000E+00 0.  1.
          4    1    6    6  502    0  0.89985166423E+02  0.14795143315E+03 -0.55633218837E+03  0.58265981547E+03  0.00000000000E+00 0. -1.
          1    1    5    5  503    0  0.29241545794E+03 -0.20697604652E+03  0.19707128285E+03  0.40888014674E+03  0.00000000000E+00 0. -1.
         -2    1    5    5    0  503  0.10849256829E+02 -0.49732343818E+00  0.27248014577E+02  0.29332712162E+02  0.00000000000E+00 0.  1.
         -3    1    6    6    0  502 -0.14560324961E+01 -0.80926628145E+01 -0.11821279021E+02  0.14399786795E+02  0.00000000000E+00 0.  1.
<mgrwt>
<rscale>  0 0.15283400E+04</rscale>
<asrwt>0</asrwt>
<pdfrwt beam="1">  1        2 0.61480060E-01 0.15283400E+04</pdfrwt>
<pdfrwt beam="2">  1       -2 0.22481172E+00 0.15283400E+04</pdfrwt>
<totfact> 0.70694364E+00</totfact>
</mgrwt>
</event>
<event>
12    1  0.1494110E-007  0.2418807E+04  0.7818608E-02  0.8432496E-01
          2   -1    0    0  501    0  0.00000000000E+00  0.00000000000E+00  0.15156075463E+04  0.15156075463E+04  0.00000000000E+00 0. -1.
         -2   -1    0    0    0  501 -0.00000000000E+00 -0.00000000000E+00 -0.96506332896E+03  0.96506332896E+03  0.00000000000E+00 0.  1.
         23    2    1    2    0    0  0.35244388569E+03  0.94894875937E+03  0.48271660204E+03  0.11252369592E+04  0.91773939252E+02 0.  0.
        254    2    1    2    0    0 -0.35244388569E+03 -0.94894875937E+03  0.67827615292E+02  0.13554339161E+04  0.89882149228E+03 0.  0.
        -24    2    4    4    0    0 -0.29758008610E+03 -0.10193080582E+04  0.28948315316E+03  0.11034754594E+04  0.79465517083E+02 0.  0.
         24    2    4    4    0    0 -0.54863799589E+02  0.70359298787E+02 -0.22165553787E+03  0.25195845671E+03  0.79946350810E+02 0.  0.
         13    1    3    3    0    0  0.15720589228E+03  0.38855250497E+03  0.24835442179E+03  0.48720289460E+03  0.00000000000E+00 0. -1.
        -13    1    3    3    0    0  0.19523799341E+03  0.56039625440E+03  0.23436218025E+03  0.63803406457E+03  0.00000000000E+00 0.  1.
          2    1    6    6  502    0  0.19398070888E+01 -0.15825965380E+02 -0.21647428728E+02  0.26885594698E+02  0.00000000000E+00 0. -1.
          1    1    5    5  503    0 -0.44586571121E+02 -0.80990923700E+02  0.15277502373E+02  0.93706425206E+02  0.00000000000E+00 0. -1.
         -2    1    5    5    0  503 -0.25299351498E+03 -0.93831713446E+03  0.27420565078E+03  0.10097690342E+04  0.00000000000E+00 0.  1.
         -1    1    6    6    0  502 -0.56803606678E+02  0.86185264167E+02 -0.20000810914E+03  0.22507286201E+03  0.00000000000E+00 0.  1.
<mgrwt>
<rscale>  0 0.24188074E+04</rscale>
<asrwt>0</asrwt>
<pdfrwt beam="1">  1        2 0.23317039E+00 0.24188074E+04</pdfrwt>
<pdfrwt beam="2">  1       -2 0.14847128E+00 0.24188074E+04</pdfrwt>
<totfact> 0.34388238E+00</totfact>
</mgrwt>
</event>
<event>
12    1  0.1494110E-007  0.1071186E+04  0.7818608E-02  0.9233740E-01
         -1   -1    0    0    0  501 -0.00000000000E+00  0.00000000000E+00  0.34660432253E+03  0.34660432253E+03  0.00000000000E+00 0.  1.
          1   -1    0    0  501    0  0.00000000000E+00 -0.00000000000E+00 -0.82762923271E+03  0.82762923271E+03  0.00000000000E+00 0. -1.
         23    2    1    2    0    0 -0.45960111791E+02 -0.42705108241E+02 -0.19902702574E+03  0.22742045583E+03  0.90400490088E+02 0.  0.
        254    2    1    2    0    0  0.45960111791E+02  0.42705108241E+02 -0.28199788443E+03  0.94681309941E+03  0.90166300814E+03 0.  0.
        -24    2    4    4    0    0  0.36404853079E+03 -0.24206652314E+03 -0.29051465213E+02  0.44534108613E+03  0.79731806497E+02 0.  0.
         24    2    4    4    0    0 -0.31808841900E+03  0.28477163138E+03 -0.25294641922E+03  0.50147201328E+03  0.72229943703E+02 0.  0.
         13    1    3    3    0    0 -0.68209074144E+02 -0.87573843160E+01 -0.13704032988E+03  0.15332717172E+03  0.00000000000E+00 0. -1.
        -13    1    3    3    0    0  0.22248962353E+02 -0.33947723925E+02 -0.61986695869E+02  0.74093284110E+02  0.00000000000E+00 0.  1.
          2    1    6    6  502    0 -0.16620526202E+03  0.10059873998E+03 -0.11256653777E+03  0.22453400864E+03  0.00000000000E+00 0. -1.
          3    1    5    5  503    0  0.30016686952E+03 -0.15924811631E+03 -0.21317676839E+02  0.34046226729E+03  0.00000000000E+00 0. -1.
         -4    1    5    5    0  503  0.63881661265E+02 -0.82818406838E+02 -0.77337883742E+01  0.10487881883E+03  0.00000000000E+00 0.  1.
         -1    1    6    6    0  502 -0.15188315698E+03  0.18417289140E+03 -0.14037988145E+03  0.27693800464E+03  0.00000000000E+00 0.  1.
<mgrwt>
<rscale>  0 0.10711860E+04</rscale>
<asrwt>0</asrwt>
<pdfrwt beam="1">  1        1 0.12732757E+00 0.10711860E+04</pdfrwt>
<pdfrwt beam="2">  1       -1 0.53323743E-01 0.10711860E+04</pdfrwt>
<totfact> 0.74095500E+01</totfact>
</mgrwt>
</event>
<event>
12    1  0.1494110E-007  0.1614326E+04  0.7818608E-02  0.8811795E-01
         -2   -1    0    0    0  501 -0.00000000000E+00  0.00000000000E+00  0.44854675376E+03  0.44854675376E+03  0.00000000000E+00 0.  1.
          2   -1    0    0  501    0  0.00000000000E+00 -0.00000000000E+00 -0.14524945301E+04  0.14524945301E+04  0.00000000000E+00 0. -1.
         23    2    1    2    0    0  0.31292272468E+03 -0.35183116657E+03 -0.64173785038E+03  0.80064383748E+03  0.86586860923E+02 0.  0.
        254    2    1    2    0    0 -0.31292272468E+03  0.35183116657E+03 -0.36220992601E+03  0.11003974464E+04  0.92626816215E+03 0.  0.
        -24    2    4    4    0    0 -0.96771522353E+02  0.50077513684E+03 -0.56066532381E+03  0.76201966882E+03  0.78663238815E+02 0.  0.
         24    2    4    4    0    0 -0.21615120233E+03 -0.14894397027E+03  0.19845539780E+03  0.33837777761E+03  0.78799282459E+02 0.  0.
         13    1    3    3    0    0  0.20136438754E+03 -0.17151360132E+03 -0.39403296665E+03  0.47458035233E+03  0.00000000000E+00 0. -1.
        -13    1    3    3    0    0  0.11155833714E+03 -0.18031756525E+03 -0.24770488373E+03  0.32606348515E+03  0.00000000000E+00 0.  1.
          4    1    6    6  502    0 -0.14236653014E+03 -0.64626420136E+02  0.14875111763E+03  0.21580476844E+03  0.00000000000E+00 0. -1.
          1    1    5    5  503    0 -0.44675226304E+02  0.14798172807E+03 -0.21968334706E+03  0.26861727544E+03  0.00000000000E+00 0. -1.
         -2    1    5    5    0  503 -0.52096296049E+02  0.35279340877E+03 -0.34098197675E+03  0.49340239339E+03  0.00000000000E+00 0.  1.
         -3    1    6    6    0  502 -0.73784672189E+02 -0.84317550130E+02  0.49704280167E+02  0.12257300917E+03  0.00000000000E+00 0.  1.
<mgrwt>
<rscale>  0 0.16143255E+04</rscale>
<asrwt>0</asrwt>
<pdfrwt beam="1">  1        2 0.22346069E+00 0.16143255E+04</pdfrwt>
<pdfrwt beam="2">  1       -2 0.69007194E-01 0.16143255E+04</pdfrwt>
<totfact> 0.24809414E+01</totfact>
</mgrwt>
</event>
<event>
12    1  0.1494110E-007  0.2321704E+04  0.7818608E-02  0.8469412E-01
         -2   -1    0    0    0  501 -0.00000000000E+00  0.00000000000E+00  0.59967477090E+03  0.59967477090E+03  0.00000000000E+00 0.  1.
          2   -1    0    0  501    0  0.00000000000E+00 -0.00000000000E+00 -0.22471813011E+04  0.22471813011E+04  0.00000000000E+00 0. -1.
         23    2    1    2    0    0 -0.99518764091E+02  0.92063579008E+03 -0.10412613999E+04  0.13963725780E+04  0.90315177013E+02 0.  0.
        254    2    1    2    0    0  0.99518764091E+02 -0.92063579008E+03 -0.60624513028E+03  0.14504834940E+04  0.93749398184E+03 0.  0.
        -24    2    4    4    0    0  0.46382409232E+03 -0.22549209950E+03 -0.16881692848E+03  0.54866567641E+03  0.80965385061E+02 0.  0.
         24    2    4    4    0    0 -0.36430532823E+03 -0.69514369059E+03 -0.43742820179E+03  0.90181781759E+03  0.77387477447E+02 0.  0.
         11    1    3    3    0    0 -0.18618250006E+02  0.99673594333E+02 -0.76571887191E+02  0.12706186898E+03  0.00000000000E+00 0. -1.
        -11    1    3    3    0    0 -0.80900514085E+02  0.82096219575E+03 -0.96468951270E+03  0.12693107090E+04  0.00000000000E+00 0.  1.
          4    1    6    6  502    0 -0.21844388314E+03 -0.34682266316E+03 -0.20368871238E+03  0.45770381396E+03  0.00000000000E+00 0. -1.
          1    1    5    5  503    0  0.51220645929E+02 -0.46518148468E+02 -0.27792725978E+01  0.69247505822E+02  0.00000000000E+00 0. -1.
         -2    1    5    5    0  503  0.41260344639E+03 -0.17897395103E+03 -0.16603765589E+03  0.47941817059E+03  0.00000000000E+00 0.  1.
         -3    1    6    6    0  502 -0.14586144508E+03 -0.34832102743E+03 -0.23373948942E+03  0.44411400363E+03  0.00000000000E+00 0.  1.
<mgrwt>
<rscale>  0 0.23217045E+04</rscale>
<asrwt>0</asrwt>
<pdfrwt beam="1">  1        2 0.34572020E+00 0.23217045E+04</pdfrwt>
<pdfrwt beam="2">  1       -2 0.92257657E-01 0.23217045E+04</pdfrwt>
<totfact> 0.43855909E+00</totfact>
</mgrwt>
</event>
<event>
12    1  0.1494110E-007  0.1344748E+04  0.7818608E-02  0.8994813E-01
         -1   -1    0    0    0  501 -0.00000000000E+00  0.00000000000E+00  0.27198085701E+03  0.27198085701E+03  0.00000000000E+00 0.  1.
          1   -1    0    0  501    0  0.00000000000E+00 -0.00000000000E+00 -0.16622006284E+04  0.16622006284E+04  0.00000000000E+00 0. -1.
         23    2    1    2    0    0 -0.26659275281E+03  0.68276405952E+02 -0.72847160843E+03  0.78397081844E+03  0.90586955027E+02 0.  0.
        254    2    1    2    0    0  0.26659275281E+03 -0.68276405952E+02 -0.66174816297E+03  0.11502106670E+04  0.89963358305E+03 0.  0.
        -24    2    4    4    0    0 -0.22143975568E+02  0.38709111206E+03 -0.27495214427E+03  0.48188127607E+03  0.79252746963E+02 0.  0.
         24    2    4    4    0    0  0.28873672838E+03 -0.45536751801E+03 -0.38679601870E+03  0.66832939089E+03  0.79526975737E+02 0.  0.
         13    1    3    3    0    0 -0.14575640280E+02 -0.76757455281E+00 -0.61512772499E+01  0.15839086845E+02  0.00000000000E+00 0.  1.
        -13    1    3    3    0    0 -0.25201711253E+03  0.69043980505E+02 -0.72232033118E+03  0.76813173160E+03  0.00000000000E+00 0. -1.
          2    1    6    6  502    0  0.63056227812E+02 -0.49164509136E+02 -0.65842767997E+02  0.10357850608E+03  0.00000000000E+00 0. -1.
          3    1    5    5  503    0 -0.38241705399E+02  0.88039794000E+02 -0.74463908958E+02  0.12148377298E+03  0.00000000000E+00 0. -1.
         -4    1    5    5    0  503  0.16097729831E+02  0.29905131806E+03 -0.20048823531E+03  0.36039750309E+03  0.00000000000E+00 0.  1.
         -1    1    6    6    0  502  0.22568050057E+03 -0.40620300888E+03 -0.32095325071E+03  0.56475088481E+03  0.00000000000E+00 0.  1.
<mgrwt>
<rscale>  0 0.13447479E+04</rscale>
<asrwt>0</asrwt>
<pdfrwt beam="1">  1        1 0.25572317E+00 0.13447479E+04</pdfrwt>
<pdfrwt beam="2">  1       -1 0.41843209E-01 0.13447479E+04</pdfrwt>
<totfact> 0.27770884E+01</totfact>
</mgrwt>
</event>
<event>
12    1  0.1494110E-007  0.2405248E+04  0.7818608E-02  0.8437541E-01
         -2   -1    0    0    0  501 -0.00000000000E+00  0.00000000000E+00  0.58186647578E+03  0.58186647578E+03  0.00000000000E+00 0.  1.
          2   -1    0    0  501    0  0.00000000000E+00 -0.00000000000E+00 -0.24856303707E+04  0.24856303707E+04  0.00000000000E+00 0. -1.
         23    2    1    2    0    0 -0.20965906116E+02  0.46691288638E+03  0.32939075430E+03  0.57899655863E+03  0.91057856334E+02 0.  0.
        254    2    1    2    0    0  0.20965906116E+02 -0.46691288638E+03 -0.22331546492E+04  0.24885002879E+04  0.99358280106E+03 0.  0.
        -24    2    4    4    0    0 -0.10289142604E+03 -0.62003380058E+03 -0.21791297994E+04  0.22693180105E+04  0.78542921930E+02 0.  0.
         24    2    4    4    0    0  0.12385733216E+03  0.15312091420E+03 -0.54024849848E+02  0.21918227740E+03  0.79596062908E+02 0.  0.
         13    1    3    3    0    0  0.23969811564E+02  0.73120640364E+02  0.31335818026E+02  0.83084977012E+02  0.00000000000E+00 0. -1.
        -13    1    3    3    0    0 -0.44935717680E+02  0.39379224601E+03  0.29805493628E+03  0.49591158162E+03  0.00000000000E+00 0.  1.
          2    1    6    6  502    0  0.73782295739E+02  0.34844414153E+02 -0.51543197938E+01  0.81758958988E+02  0.00000000000E+00 0. -1.
          3    1    5    5  503    0 -0.54271734552E+02 -0.43899958546E+03 -0.16362779717E+04  0.16950137633E+04  0.00000000000E+00 0. -1.
         -4    1    5    5    0  503 -0.48619691489E+02 -0.18103421512E+03 -0.54285182774E+03  0.57430424717E+03  0.00000000000E+00 0.  1.
         -1    1    6    6    0  502  0.50075036418E+02  0.11827650005E+03 -0.48870530054E+02  0.13742331841E+03  0.00000000000E+00 0.  1.
<mgrwt>
<rscale>  0 0.24052484E+04</rscale>
<asrwt>0</asrwt>
<pdfrwt beam="1">  1        2 0.38240468E+00 0.24052484E+04</pdfrwt>
<pdfrwt beam="2">  1       -2 0.89517918E-01 0.24052484E+04</pdfrwt>
<totfact> 0.34124055E+00</totfact>
</mgrwt>
</event>
<event>
12    1  0.1494110E-007  0.1330206E+04  0.7818608E-02  0.9005948E-01
         -1   -1    0    0    0  501 -0.00000000000E+00  0.00000000000E+00  0.35741710019E+03  0.35741710019E+03  0.00000000000E+00 0.  1.
          1   -1    0    0  501    0  0.00000000000E+00 -0.00000000000E+00 -0.12376636866E+04  0.12376636866E+04  0.00000000000E+00 0. -1.
         23    2    1    2    0    0 -0.96452535802E+02  0.15090508830E+03 -0.60053019749E+03  0.63312128742E+03  0.90169890418E+02 0.  0.
        254    2    1    2    0    0  0.96452535802E+02 -0.15090508830E+03 -0.27971638888E+03  0.96195949935E+03  0.90280085447E+03 0.  0.
        -24    2    4    4    0    0 -0.33742318552E+03  0.29816363974E+02  0.86243403087E+02  0.36087039827E+03  0.89700045052E+02 0.  0.
         24    2    4    4    0    0  0.43387572133E+03 -0.18072145227E+03 -0.36595979197E+03  0.60108910108E+03  0.80455908613E+02 0.  0.
         13    1    3    3    0    0  0.72543045897E+01  0.54686173509E+01 -0.12202873905E+03  0.12236643276E+03  0.00000000000E+00 0.  1.
        -13    1    3    3    0    0 -0.10370684039E+03  0.14543647095E+03 -0.47850145844E+03  0.51075485466E+03  0.00000000000E+00 0. -1.
          2    1    6    6  502    0  0.53311669782E+02  0.44946911013E+01 -0.45061045890E+02  0.69948797271E+02  0.00000000000E+00 0. -1.
          3    1    5    5  503    0 -0.29117759478E+03  0.25397441227E+01  0.95372212146E+02  0.30640936809E+03  0.00000000000E+00 0. -1.
         -4    1    5    5    0  503 -0.46245590741E+02  0.27276619851E+02 -0.91288090592E+01  0.54461030181E+02  0.00000000000E+00 0.  1.
         -1    1    6    6    0  502  0.38056405154E+03 -0.18521614338E+03 -0.32089874608E+03  0.53114030381E+03  0.00000000000E+00 0.  1.
<mgrwt>
<rscale>  0 0.13302062E+04</rscale>
<asrwt>0</asrwt>
<pdfrwt beam="1">  1        1 0.19040980E+00 0.13302062E+04</pdfrwt>
<pdfrwt beam="2">  1       -1 0.54987246E-01 0.13302062E+04</pdfrwt>
<totfact> 0.32865337E+01</totfact>
</mgrwt>
</event>
<event>
12    1  0.1494110E-007  0.1285657E+04  0.7818608E-02  0.9041017E-01
         -1   -1    0    0    0  501 -0.00000000000E+00  0.00000000000E+00  0.24467324579E+03  0.24467324579E+03  0.00000000000E+00 0.  1.
          1   -1    0    0  501    0  0.00000000000E+00 -0.00000000000E+00 -0.16888991666E+04  0.16888991666E+04  0.00000000000E+00 0. -1.
         23    2    1    2    0    0 -0.30503811106E+02 -0.21085220206E+03 -0.71704901603E+03  0.75354859120E+03  0.91033259374E+02 0.  0.
        254    2    1    2    0    0  0.30503811106E+02  0.21085220206E+03 -0.72717690480E+03  0.11800238212E+04  0.90458876522E+03 0.  0.
        -24    2    4    4    0    0  0.45986454074E+03  0.12015067729E+03 -0.34320714781E+03  0.59166224477E+03  0.79758914804E+02 0.  0.
         24    2    4    4    0    0 -0.42936072963E+03  0.90701524770E+02 -0.38396975699E+03  0.58836157645E+03  0.78480364501E+02 0.  0.
         11    1    3    3    0    0  0.10447179789E+02  0.51998641129E+01 -0.31296742660E+02  0.33401620522E+02  0.00000000000E+00 0.  1.
        -11    1    3    3    0    0 -0.40950990896E+02 -0.21605206617E+03 -0.68575227337E+03  0.72014697068E+03  0.00000000000E+00 0. -1.
          2    1    6    6  502    0 -0.20022584521E+03  0.57822083827E+02 -0.22985543128E+03  0.31026972420E+03  0.00000000000E+00 0. -1.
          3    1    5    5  503    0  0.45924356422E+03  0.11487177105E+03 -0.32899193671E+03  0.57648579296E+03  0.00000000000E+00 0. -1.
         -4    1    5    5    0  503  0.62097652186E+00  0.52789062381E+01 -0.14215211101E+02  0.15176451810E+02  0.00000000000E+00 0.  1.
         -1    1    6    6    0  502 -0.22913488443E+03  0.32879440944E+02 -0.15411432571E+03  0.27809185225E+03  0.00000000000E+00 0.  1.
<mgrwt>
<rscale>  0 0.12856569E+04</rscale>
<asrwt>0</asrwt>
<pdfrwt beam="1">  1        1 0.25983066E+00 0.12856569E+04</pdfrwt>
<pdfrwt beam="2">  1       -1 0.37642036E-01 0.12856569E+04</pdfrwt>
<totfact> 0.32465698E+01</totfact>
</mgrwt>
</event>
<event>
12    1  0.1494110E-007  0.1813558E+04  0.7818608E-02  0.8699123E-01
         -1   -1    0    0    0  501 -0.00000000000E+00  0.00000000000E+00  0.60391732154E+03  0.60391732154E+03  0.00000000000E+00 0.  1.
          1   -1    0    0  501    0  0.00000000000E+00 -0.00000000000E+00 -0.13615238593E+04  0.13615238593E+04  0.00000000000E+00 0. -1.
         23    2    1    2    0    0  0.23005433192E+03  0.20503904136E+03  0.36052412141E+03  0.48867091350E+03  0.11770987837E+03 0.  0.
        254    2    1    2    0    0 -0.23005433192E+03 -0.20503904136E+03 -0.11181306592E+04  0.14767702674E+04  0.91414891974E+03 0.  0.
        -24    2    4    4    0    0 -0.34087040419E+03 -0.26165702317E+03 -0.12204051057E+04  0.12962819242E+04  0.79379938279E+02 0.  0.
         24    2    4    4    0    0  0.11081607227E+03  0.56617981806E+02  0.10227444651E+03  0.18048834324E+03  0.81425928910E+02 0.  0.
         13    1    3    3    0    0  0.16066905272E+03  0.14011509794E+03  0.32191433431E+03  0.38610312587E+03  0.00000000000E+00 0.  1.
        -13    1    3    3    0    0  0.69385279202E+02  0.64923943425E+02  0.38609787099E+02  0.10256778763E+03  0.00000000000E+00 0. -1.
          2    1    6    6  502    0  0.31599688738E+02 -0.20242543508E+02  0.34431860572E+02  0.50929892189E+02  0.00000000000E+00 0. -1.
          1    1    5    5  503    0 -0.88330965961E+02 -0.38496068734E+02 -0.34643548912E+03  0.35958567126E+03  0.00000000000E+00 0. -1.
         -2    1    5    5    0  503 -0.25253943823E+03 -0.22316095444E+03 -0.87396961659E+03  0.93669625289E+03  0.00000000000E+00 0.  1.
         -1    1    6    6    0  502  0.79216383532E+02  0.76860525313E+02  0.67842585937E+02  0.12955845105E+03  0.00000000000E+00 0.  1.
<mgrwt>
<rscale>  0 0.18135577E+04</rscale>
<asrwt>0</asrwt>
<pdfrwt beam="1">  1        1 0.20946521E+00 0.18135577E+04</pdfrwt>
<pdfrwt beam="2">  1       -1 0.92910357E-01 0.18135577E+04</pdfrwt>
<totfact> 0.86756192E+00</totfact>
</mgrwt>
</event>
<event>
12    1  0.1494110E-007  0.1195608E+04  0.7818608E-02  0.9116709E-01
          1   -1    0    0  501    0  0.00000000000E+00  0.00000000000E+00  0.29571997986E+03  0.29571997986E+03  0.00000000000E+00 0. -1.
         -1   -1    0    0    0  501 -0.00000000000E+00 -0.00000000000E+00 -0.12084734450E+04  0.12084734450E+04  0.00000000000E+00 0.  1.
         23    2    1    2    0    0 -0.17298510556E+03  0.34034166822E+02 -0.42332290165E+03  0.46964698634E+03  0.10140927697E+03 0.  0.
        254    2    1    2    0    0  0.17298510556E+03 -0.34034166822E+02 -0.48943056346E+03  0.10345464385E+04  0.89423815938E+03 0.  0.
        -24    2    4    4    0    0  0.11355922564E+03  0.87746838561E+02  0.23930586314E+03  0.28902532008E+03  0.75320210490E+02 0.  0.
         24    2    4    4    0    0  0.59425879924E+02 -0.12178100538E+03 -0.72873642660E+03  0.74552111842E+03  0.79893116609E+02 0.  0.
         13    1    3    3    0    0  0.13187313663E+02  0.22774829911E+01 -0.17503481792E+02  0.22033248631E+02  0.00000000000E+00 0. -1.
        -13    1    3    3    0    0 -0.18617241923E+03  0.31756683831E+02 -0.40581941986E+03  0.44761373770E+03  0.00000000000E+00 0.  1.
          4    1    6    6  502    0  0.35751951684E+02 -0.50773007804E+01 -0.12302189281E+03  0.12821219577E+03  0.00000000000E+00 0. -1.
          1    1    5    5  503    0  0.76628900411E+01 -0.95427542535E+01  0.33273808561E+01  0.12682882397E+02  0.00000000000E+00 0. -1.
         -2    1    5    5    0  503  0.10589633560E+03  0.97289592815E+02  0.23597848228E+03  0.27634243768E+03  0.00000000000E+00 0.  1.
         -3    1    6    6    0  502  0.23673928240E+02 -0.11670370460E+03 -0.60571453379E+03  0.61730892265E+03  0.00000000000E+00 0.  1.
<mgrwt>
<rscale>  0 0.11956082E+04</rscale>
<asrwt>0</asrwt>
<pdfrwt beam="1">  1        1 0.45495381E-01 0.11956082E+04</pdfrwt>
<pdfrwt beam="2">  1       -1 0.18591899E+00 0.11956082E+04</pdfrwt>
<totfact> 0.16701570E+01</totfact>
</mgrwt>
</event>
<event>
12    1  0.1494110E-007  0.1217503E+04  0.7818608E-02  0.9097673E-01
         -2   -1    0    0    0  501 -0.00000000000E+00  0.00000000000E+00  0.30879596275E+03  0.30879596275E+03  0.00000000000E+00 0.  1.
          2   -1    0    0  501    0  0.00000000000E+00 -0.00000000000E+00 -0.12000747602E+04  0.12000747602E+04  0.00000000000E+00 0. -1.
         23    2    1    2    0    0  0.78734829470E+02 -0.16188751246E+03  0.14113329708E+02  0.20175324769E+03  0.89991370776E+02 0.  0.
        254    2    1    2    0    0 -0.78734829470E+02  0.16188751246E+03 -0.90539212713E+03  0.13071174752E+04  0.92542663142E+03 0.  0.
        -24    2    4    4    0    0  0.40967876560E+03  0.99402939065E-02 -0.34250027246E+03  0.54028205989E+03  0.82228805947E+02 0.  0.
         24    2    4    4    0    0 -0.48841359507E+03  0.16187757217E+03 -0.56289185467E+03  0.76683541534E+03  0.80231701688E+02 0.  0.
         13    1    3    3    0    0  0.32860158155E+02 -0.11221796184E+03  0.47666267775E+02  0.12627245953E+03  0.00000000000E+00 0.  1.
        -13    1    3    3    0    0  0.45874671315E+02 -0.49669550624E+02 -0.33552938066E+02  0.75480788154E+02  0.00000000000E+00 0. -1.
          2    1    6    6  502    0 -0.14408594049E+03  0.87225687520E+02 -0.18205210863E+03  0.24801622742E+03  0.00000000000E+00 0. -1.
          1    1    5    5  503    0  0.54053900986E+02  0.24115720627E+02 -0.69613671340E+02  0.91375354612E+02  0.00000000000E+00 0. -1.
         -2    1    5    5    0  503  0.35562486461E+03 -0.24105780333E+02 -0.27288660112E+03  0.44890670528E+03  0.00000000000E+00 0.  1.
         -1    1    6    6    0  502 -0.34432765458E+03  0.74651884647E+02 -0.38083974604E+03  0.51881918792E+03  0.00000000000E+00 0.  1.
<mgrwt>
<rscale>  0 0.12175028E+04</rscale>
<asrwt>0</asrwt>
<pdfrwt beam="1">  1        2 0.18462689E+00 0.12175028E+04</pdfrwt>
<pdfrwt beam="2">  1       -2 0.47507071E-01 0.12175028E+04</pdfrwt>
<totfact> 0.78351834E+01</totfact>
</mgrwt>
</event>
<event>
12    1  0.1494110E-007  0.3282811E+04  0.7818608E-02  0.8167283E-01
         -2   -1    0    0    0  501 -0.00000000000E+00  0.00000000000E+00  0.15804852333E+04  0.15804852333E+04  0.00000000000E+00 0.  1.
          2   -1    0    0  501    0  0.00000000000E+00 -0.00000000000E+00 -0.17046736627E+04  0.17046736627E+04  0.00000000000E+00 0. -1.
         23    2    1    2    0    0  0.11112718756E+04 -0.68594812544E+03 -0.82401152057E+03  0.15469481854E+04  0.92756078499E+02 0.  0.
        254    2    1    2    0    0 -0.11112718756E+04  0.68594812544E+03  0.69982309118E+03  0.17382107106E+04  0.90894119897E+03 0.  0.
        -24    2    4    4    0    0 -0.87867469499E+02  0.13886638080E+03  0.53224849148E+03  0.56298391468E+03  0.81595757169E+02 0.  0.
         24    2    4    4    0    0 -0.10234044061E+04  0.54708174464E+03  0.16757459969E+03  0.11752267959E+04  0.80135894953E+02 0.  0.
         13    1    3    3    0    0  0.86156969222E+03 -0.54217762446E+03 -0.68541781576E+03  0.12272149336E+04  0.00000000000E+00 0. -1.
        -13    1    3    3    0    0  0.24970218334E+03 -0.14377050098E+03 -0.13859370480E+03  0.31973325183E+03  0.00000000000E+00 0.  1.
          2    1    6    6  502    0 -0.80363872930E+03  0.44898872102E+03  0.16060075044E+03  0.93446170595E+03  0.00000000000E+00 0. -1.
          1    1    5    5  503    0 -0.63803359318E+02  0.73531387442E+02  0.41803346658E+03  0.42921988861E+03  0.00000000000E+00 0. -1.
         -2    1    5    5    0  503 -0.24064110180E+02  0.65334993357E+02  0.11421502490E+03  0.13376402607E+03  0.00000000000E+00 0.  1.
         -1    1    6    6    0  502 -0.21976567676E+03  0.98093023623E+02  0.69738492546E+01  0.24076508995E+03  0.00000000000E+00 0.  1.
<mgrwt>
<rscale>  0 0.32828107E+04</rscale>
<asrwt>0</asrwt>
<pdfrwt beam="1">  1        2 0.26225749E+00 0.32828107E+04</pdfrwt>
<pdfrwt beam="2">  1       -2 0.24315157E+00 0.32828107E+04</pdfrwt>
<totfact> 0.57747322E-01</totfact>
</mgrwt>
</event>
<event>
12    1  0.1494110E-007  0.1558194E+04  0.7818608E-02  0.8846651E-01
          1   -1    0    0  501    0  0.00000000000E+00  0.00000000000E+00  0.13999837298E+04  0.13999837298E+04  0.00000000000E+00 0. -1.
         -1   -1    0    0    0  501 -0.00000000000E+00 -0.00000000000E+00 -0.43357107906E+03  0.43357107906E+03  0.00000000000E+00 0.  1.
         23    2    1    2    0    0 -0.47894092073E+03  0.13179104909E+03  0.18749581612E+03  0.53873189645E+03  0.91236445632E+02 0.  0.
        254    2    1    2    0    0  0.47894092073E+03 -0.13179104909E+03  0.77891683458E+03  0.12948229124E+04  0.90724949878E+03 0.  0.
        -24    2    4    4    0    0  0.48400445451E+02  0.22062770079E+03 -0.94097205754E+02  0.25636958531E+03  0.76497677502E+02 0.  0.
         24    2    4    4    0    0  0.43054047528E+03 -0.35241874988E+03  0.87301404033E+03  0.10384533271E+04  0.81656118816E+02 0.  0.
         13    1    3    3    0    0 -0.10919787769E+03  0.16224150733E+02  0.49881139549E+01  0.11050918894E+03  0.00000000000E+00 0.  1.
        -13    1    3    3    0    0 -0.36974304305E+03  0.11556689835E+03  0.18250770217E+03  0.42822270751E+03  0.00000000000E+00 0. -1.
          4    1    6    6  502    0  0.10871555763E+03 -0.47309951281E+02  0.17027203194E+03  0.20748462310E+03  0.00000000000E+00 0. -1.
          3    1    5    5  503    0  0.70670716478E+01  0.24237668260E+02  0.13525147731E+02  0.28641537765E+02  0.00000000000E+00 0. -1.
         -4    1    5    5    0  503  0.41333373804E+02  0.19639003253E+03 -0.10762235349E+03  0.22772804754E+03  0.00000000000E+00 0.  1.
         -3    1    6    6    0  502  0.32182491765E+03 -0.30510879860E+03  0.70274200840E+03  0.83096870396E+03  0.00000000000E+00 0.  1.
<mgrwt>
<rscale>  0 0.15581944E+04</rscale>
<asrwt>0</asrwt>
<pdfrwt beam="1">  1        1 0.21538211E+00 0.15581944E+04</pdfrwt>
<pdfrwt beam="2">  1       -1 0.66703244E-01 0.15581944E+04</pdfrwt>
<totfact> 0.16844178E+01</totfact>
</mgrwt>
</event>
<event>
12    1  0.1494110E-007  0.1979425E+04  0.7818608E-02  0.8616301E-01
          2   -1    0    0  501    0  0.00000000000E+00  0.00000000000E+00  0.30219940087E+04  0.30219940087E+04  0.00000000000E+00 0. -1.
         -2   -1    0    0    0  501 -0.00000000000E+00 -0.00000000000E+00 -0.32413397399E+03  0.32413397399E+03  0.00000000000E+00 0.  1.
         23    2    1    2    0    0 -0.77779691576E+03 -0.10741300265E+03  0.10185159434E+04  0.12893684212E+04  0.92685507894E+02 0.  0.
        254    2    1    2    0    0  0.77779691576E+03  0.10741300265E+03  0.16793440913E+04  0.20567595615E+04  0.89081856819E+03 0.  0.
        -24    2    4    4    0    0  0.26544007155E+03 -0.27683589809E+03  0.11723787759E+04  0.12361898286E+04  0.81220391908E+02 0.  0.
         24    2    4    4    0    0  0.51235684420E+03  0.38424890074E+03  0.50696531539E+03  0.82056973287E+03  0.78511795165E+02 0.  0.
         13    1    3    3    0    0 -0.21460088911E+03 -0.50205888063E+02  0.34701536982E+03  0.41108860322E+03  0.00000000000E+00 0.  1.
        -13    1    3    3    0    0 -0.56319602664E+03 -0.57207114591E+02  0.67150057357E+03  0.87827981799E+03  0.00000000000E+00 0. -1.
          2    1    6    6  502    0  0.18588324071E+03  0.15708553196E+03  0.23823930616E+03  0.34056777670E+03  0.00000000000E+00 0. -1.
          3    1    5    5  503    0  0.48770249613E+02 -0.17909065375E+02  0.11437746223E+03  0.12562434372E+03  0.00000000000E+00 0. -1.
         -4    1    5    5    0  503  0.21666982194E+03 -0.25892683271E+03  0.10580013137E+04  0.11105654849E+04  0.00000000000E+00 0.  1.
         -1    1    6    6    0  502  0.32647360349E+03  0.22716336878E+03  0.26872600923E+03  0.48000195617E+03  0.00000000000E+00 0.  1.
<mgrwt>
<rscale>  0 0.19794251E+04</rscale>
<asrwt>0</asrwt>
<pdfrwt beam="1">  1        2 0.46492214E+00 0.19794251E+04</pdfrwt>
<pdfrwt beam="2">  1       -2 0.49866767E-01 0.19794251E+04</pdfrwt>
<totfact> 0.59878603E+00</totfact>
</mgrwt>
</event>
<event>
12    1  0.1494110E-007  0.2276063E+04  0.7818608E-02  0.8487419E-01
          2   -1    0    0  501    0  0.00000000000E+00  0.00000000000E+00  0.20676599336E+04  0.20676599336E+04  0.00000000000E+00 0. -1.
         -2   -1    0    0    0  501 -0.00000000000E+00 -0.00000000000E+00 -0.62636801209E+03  0.62636801209E+03  0.00000000000E+00 0.  1.
         23    2    1    2    0    0 -0.15896385804E+03  0.94537688411E+03  0.85901607234E+03  0.12905208597E+04  0.92349962794E+02 0.  0.
        254    2    1    2    0    0  0.15896385804E+03 -0.94537688411E+03  0.58227584920E+03  0.14035070860E+04  0.84367056058E+03 0.  0.
        -24    2    4    4    0    0  0.43779278582E+03 -0.87001713358E+03  0.45884881949E+03  0.10795361665E+04  0.79143917376E+02 0.  0.
         24    2    4    4    0    0 -0.27882892778E+03 -0.75359750523E+02  0.12342702972E+03  0.32397091950E+03  0.79361590500E+02 0.  0.
         11    1    3    3    0    0 -0.25276924476E+02  0.24394228960E+03  0.17137926201E+03  0.29919494484E+03  0.00000000000E+00 0.  1.
        -11    1    3    3    0    0 -0.13368693356E+03  0.70143459450E+03  0.68763681033E+03  0.99132591487E+03  0.00000000000E+00 0. -1.
          4    1    6    6  502    0 -0.17433584389E+03 -0.52307127840E+02  0.35431100044E+02  0.18543026975E+03  0.00000000000E+00 0. -1.
          1    1    5    5  503    0  0.33094537043E+03 -0.63287661921E+03  0.37241657955E+03  0.80545127853E+03  0.00000000000E+00 0. -1.
         -2    1    5    5    0  503  0.10684741539E+03 -0.23714051437E+03  0.86432239932E+02  0.27408488800E+03  0.00000000000E+00 0.  1.
         -3    1    6    6    0  502 -0.10449308389E+03 -0.23052622683E+02  0.87995929672E+02  0.13854064975E+03  0.00000000000E+00 0.  1.
<mgrwt>
<rscale>  0 0.22760633E+04</rscale>
<asrwt>0</asrwt>
<pdfrwt beam="1">  1        2 0.31810152E+00 0.22760633E+04</pdfrwt>
<pdfrwt beam="2">  1       -2 0.96364311E-01 0.22760633E+04</pdfrwt>
<totfact> 0.50150864E+00</totfact>
</mgrwt>
</event>
<event>
12    1  0.1614100E-007  0.2032120E+04  0.7818608E-02  0.8591749E-01
         -1   -1    0    0    0  501 -0.00000000000E+00  0.00000000000E+00  0.80958386000E+03  0.80958386000E+03  0.00000000000E+00 0.  1.
          1   -1    0    0  501    0  0.00000000000E+00 -0.00000000000E+00 -0.12751959492E+04  0.12751959492E+04  0.00000000000E+00 0. -1.
         23    2    1    2    0    0 -0.59234619414E+02 -0.75978667691E+03 -0.27888948778E+03  0.81658956942E+03  0.90855071087E+02 0.  0.
        254    2    1    2    0    0  0.59234619414E+02  0.75978667691E+03 -0.18672260141E+03  0.12681902398E+04  0.99632154439E+03 0.  0.
        -24    2    4    4    0    0  0.36328110283E+03 -0.60432772197E+02 -0.57873356063E+02  0.38085168161E+03  0.77932011487E+02 0.  0.
         24    2    4    4    0    0 -0.30404648342E+03  0.82021944910E+03 -0.12884924534E+03  0.88733855815E+03  0.74588068607E+02 0.  0.
         13    1    3    3    0    0 -0.42320429375E+02 -0.61851107164E+03 -0.26294497811E+03  0.67341445336E+03  0.00000000000E+00 0.  1.
        -13    1    3    3    0    0 -0.16914190039E+02 -0.14127560527E+03 -0.15944509668E+02  0.14317511606E+03  0.00000000000E+00 0. -1.
          2    1    6    6  502    0 -0.28506996721E+02  0.15076621227E+03 -0.34583376524E+02  0.15728671131E+03  0.00000000000E+00 0. -1.
          1    1    5    5  503    0  0.40659176711E+00 -0.63207489742E+01  0.56720683177E+01  0.85023257677E+01  0.00000000000E+00 0. -1.
         -2    1    5    5    0  503  0.36287451107E+03 -0.54112023223E+02 -0.63545424380E+02  0.37234935585E+03  0.00000000000E+00 0.  1.
         -1    1    6    6    0  502 -0.27553948670E+03  0.66945323684E+03 -0.94265868820E+02  0.73005184683E+03  0.00000000000E+00 0.  1.
<mgrwt>
<rscale>  0 0.20321201E+04</rscale>
<asrwt>0</asrwt>
<pdfrwt beam="1">  1        1 0.19618399E+00 0.20321201E+04</pdfrwt>
<pdfrwt beam="2">  1       -1 0.12455136E+00 0.20321201E+04</pdfrwt>
<totfact> 0.49231228E+00</totfact>
</mgrwt>
</event>
<event>
12    1  0.1494110E-007  0.2600885E+04  0.7818608E-02  0.8367901E-01
         -2   -1    0    0    0  501 -0.00000000000E+00  0.00000000000E+00  0.44472584666E+03  0.44472584666E+03  0.00000000000E+00 0. -1.
          2   -1    0    0  501    0  0.00000000000E+00 -0.00000000000E+00 -0.38026819391E+04  0.38026819391E+04  0.00000000000E+00 0.  1.
         23    2    1    2    0    0 -0.38173570746E+03  0.97202186352E+03 -0.22324702561E+04  0.24663691020E+04  0.92219571631E+02 0.  0.
        254    2    1    2    0    0  0.38173570746E+03 -0.97202186352E+03 -0.11254858363E+04  0.17810386837E+04  0.90268032642E+03 0.  0.
        -24    2    4    4    0    0  0.17571190411E+03 -0.10918497684E+04 -0.10269226280E+04  0.15112887152E+04  0.80080627193E+02 0.  0.
         24    2    4    4    0    0  0.20602380335E+03  0.11982790491E+03 -0.98563208336E+02  0.26974996851E+03  0.79030406359E+02 0.  0.
         13    1    3    3    0    0 -0.36452694171E+03  0.91002620688E+03 -0.21384165233E+04  0.23524142526E+04  0.00000000000E+00 0. -1.
        -13    1    3    3    0    0 -0.17208765755E+02  0.61995656631E+02 -0.94053732823E+02  0.11395484947E+03  0.00000000000E+00 0.  1.
          4    1    6    6  502    0 -0.73416683189E+00 -0.67398074407E+01  0.23330655119E+01  0.71698814465E+01  0.00000000000E+00 0. -1.
          1    1    5    5  503    0  0.11833530219E+03 -0.91834955077E+03 -0.84968822987E+03  0.12567176410E+04  0.00000000000E+00 0. -1.
         -2    1    5    5    0  503  0.57376601917E+02 -0.17350021765E+03 -0.17723439810E+03  0.25457107424E+03  0.00000000000E+00 0.  1.
         -3    1    6    6    0  502  0.20675797019E+03  0.12656771235E+03 -0.10089627385E+03  0.26258008706E+03  0.00000000000E+00 0.  1.
<mgrwt>
<rscale>  0 0.26008852E+04</rscale>
<asrwt>0</asrwt>
<pdfrwt beam="1">  1        2 0.58502800E+00 0.26008852E+04</pdfrwt>
<pdfrwt beam="2">  1       -2 0.68419360E-01 0.26008852E+04</pdfrwt>
<totfact> 0.84614704E-01</totfact>
</mgrwt>
</event>
<event>
12    1  0.1494110E-007  0.4328119E+04  0.7818608E-02  0.7941439E-01
         -1   -1    0    0    0  501 -0.00000000000E+00  0.00000000000E+00  0.16702863981E+04  0.16702863981E+04  0.00000000000E+00 0.  1.
          1   -1    0    0  501    0  0.00000000000E+00 -0.00000000000E+00 -0.28038023502E+04  0.28038023502E+04  0.00000000000E+00 0. -1.
         23    2    1    2    0    0 -0.10946450161E+04 -0.20615447407E+03 -0.23472013296E+04  0.26009831543E+04  0.12252309533E+03 0.  0.
        254    2    1    2    0    0  0.10946450161E+04  0.20615447407E+03  0.12136853776E+04  0.18731055940E+04  0.89148471205E+03 0.  0.
        -24    2    4    4    0    0  0.36108113599E+03  0.34308063519E+03  0.95398114788E+03  0.10790411621E+04  0.78523181892E+02 0.  0.
         24    2    4    4    0    0  0.73356388015E+03 -0.13692616111E+03  0.25970422970E+03  0.79406443181E+03  0.78913212363E+02 0.  0.
         13    1    3    3    0    0 -0.88798589284E+03 -0.21540991114E+03 -0.19149544652E+04  0.21217848570E+04  0.00000000000E+00 0. -1.
        -13    1    3    3    0    0 -0.20665912331E+03  0.92554370652E+01 -0.43224686438E+03  0.47919829729E+03  0.00000000000E+00 0.  1.
          4    1    6    6  502    0  0.68137019535E+03 -0.13068329925E+03  0.26158550548E+03  0.74146506626E+03  0.00000000000E+00 0. -1.
          1    1    5    5  503    0  0.34361355782E+03  0.29915095880E+03  0.88549657252E+03  0.99582415778E+03  0.00000000000E+00 0. -1.
         -2    1    5    5    0  503  0.17467578175E+02  0.43929676383E+02  0.68484575354E+02  0.83217004367E+02  0.00000000000E+00 0.  1.
         -3    1    6    6    0  502  0.52193684807E+02 -0.62428618593E+01 -0.18812757790E+01  0.52599365552E+02  0.00000000000E+00 0.  1.
<mgrwt>
<rscale>  0 0.43281187E+04</rscale>
<asrwt>0</asrwt>
<pdfrwt beam="1">  1        1 0.43135421E+00 0.43281187E+04</pdfrwt>
<pdfrwt beam="2">  1       -1 0.25696714E+00 0.43281187E+04</pdfrwt>
<totfact> 0.39622509E-02</totfact>
</mgrwt>
</event>
<event>
12    1  0.1494110E-007  0.2100068E+04  0.7818608E-02  0.8561213E-01
          2   -1    0    0  501    0  0.00000000000E+00  0.00000000000E+00  0.22842456400E+04  0.22842456400E+04  0.00000000000E+00 0. -1.
         -2   -1    0    0    0  501 -0.00000000000E+00 -0.00000000000E+00 -0.48268525570E+03  0.48268525570E+03  0.00000000000E+00 0.  1.
         23    2    1    2    0    0 -0.47010947895E+03  0.70238195167E+03  0.89513580920E+03  0.12346494241E+04  0.93529435263E+02 0.  0.
        254    2    1    2    0    0  0.47010947895E+03 -0.70238195167E+03  0.90642457514E+03  0.15322814717E+04  0.90107584017E+03 0.  0.
        -24    2    4    4    0    0  0.29855483360E+03 -0.80405990161E+03  0.98035100557E+03  0.13050389636E+04  0.79945534213E+02 0.  0.
         24    2    4    4    0    0  0.17155464535E+03  0.10167794994E+03 -0.73926430426E+02  0.22724250802E+03  0.80028985313E+02 0.  0.
         13    1    3    3    0    0  0.44854979458E+01  0.94007277464E+01  0.11727578901E+02  0.15685326929E+02  0.00000000000E+00 0. -1.
        -13    1    3    3    0    0 -0.47459497690E+03  0.69298122392E+03  0.88340823030E+03  0.12189640972E+04  0.00000000000E+00 0.  1.
          4    1    6    6  502    0  0.33056741146E+02  0.36001470312E+02 -0.53733603691E+02  0.72637140399E+02  0.00000000000E+00 0. -1.
          1    1    5    5  503    0  0.78249224316E+02 -0.31054218972E+03  0.33936184025E+03  0.46661102786E+03  0.00000000000E+00 0. -1.
         -2    1    5    5    0  503  0.22030560929E+03 -0.49351771189E+03  0.64098916531E+03  0.83842793577E+03  0.00000000000E+00 0.  1.
         -3    1    6    6    0  502  0.13849790421E+03  0.65676479630E+02 -0.20192826735E+02  0.15460536762E+03  0.00000000000E+00 0.  1.
<mgrwt>
<rscale>  0 0.21000683E+04</rscale>
<asrwt>0</asrwt>
<pdfrwt beam="1">  1        2 0.35142240E+00 0.21000683E+04</pdfrwt>
<pdfrwt beam="2">  1       -2 0.74259271E-01 0.21000683E+04</pdfrwt>
<totfact> 0.69616166E+00</totfact>
</mgrwt>
</event>
<event>
12    1  0.1494110E-007  0.2849523E+04  0.7818608E-02  0.8288056E-01
         -2   -1    0    0    0  501 -0.00000000000E+00  0.00000000000E+00  0.21180895353E+04  0.21180895353E+04  0.00000000000E+00 0.  1.
          2   -1    0    0  501    0  0.00000000000E+00 -0.00000000000E+00 -0.95838491388E+03  0.95838491388E+03  0.00000000000E+00 0. -1.
         23    2    1    2    0    0  0.12806985076E+04 -0.40457931158E+02  0.57254604827E+03  0.14063937202E+04  0.91152659687E+02 0.  0.
        254    2    1    2    0    0 -0.12806985076E+04  0.40457931158E+02  0.58715857317E+03  0.16700807290E+04  0.89587328325E+03 0.  0.
        -24    2    4    4    0    0 -0.85823281337E+03 -0.31200163272E+03  0.84562590998E+02  0.92065304519E+03  0.80886445448E+02 0.  0.
         24    2    4    4    0    0 -0.42246569424E+03  0.35245956388E+03  0.50259598218E+03  0.74942768378E+03  0.79587215938E+02 0.  0.
         13    1    3    3    0    0  0.24799020881E+03 -0.25344037062E+02  0.77422347810E+02  0.26102812841E+03  0.00000000000E+00 0. -1.
        -13    1    3    3    0    0  0.10327082988E+04 -0.15113894096E+02  0.49512370046E+03  0.11453655918E+04  0.00000000000E+00 0.  1.
          4    1    6    6  502    0 -0.20232658300E+03  0.13132671747E+03  0.25585416515E+03  0.35163063964E+03  0.00000000000E+00 0. -1.
          1    1    5    5  503    0 -0.31667384996E+02  0.32703859515E+01 -0.11739914574E+01  0.31857447366E+02  0.00000000000E+00 0. -1.
         -2    1    5    5    0  503 -0.82656542837E+03 -0.31527201867E+03  0.85736582456E+02  0.88879559782E+03  0.00000000000E+00 0.  1.
         -3    1    6    6    0  502 -0.22013911124E+03  0.22113284641E+03  0.24674181703E+03  0.39779704414E+03  0.00000000000E+00 0.  1.
<mgrwt>
<rscale>  0 0.28495228E+04</rscale>
<asrwt>0</asrwt>
<pdfrwt beam="1">  1        2 0.14744383E+00 0.28495228E+04</pdfrwt>
<pdfrwt beam="2">  1       -2 0.32585993E+00 0.28495228E+04</pdfrwt>
<totfact> 0.51165911E-01</totfact>
</mgrwt>
</event>
<event>
12    1  0.1494110E-007  0.1349065E+04  0.7818608E-02  0.8991536E-01
         -1   -1    0    0    0  501 -0.00000000000E+00  0.00000000000E+00  0.36240945404E+03  0.36240945404E+03  0.00000000000E+00 0.  1.
          1   -1    0    0  501    0  0.00000000000E+00 -0.00000000000E+00 -0.12554690383E+04  0.12554690383E+04  0.00000000000E+00 0. -1.
         23    2    1    2    0    0 -0.30474407910E+03  0.11259936470E+03 -0.24133068830E+03  0.41465650100E+03  0.90288105686E+02 0.  0.
        254    2    1    2    0    0  0.30474407910E+03 -0.11259936470E+03 -0.65172889592E+03  0.12032219913E+04  0.95783351159E+03 0.  0.
        -24    2    4    4    0    0 -0.18077919724E+03 -0.23561413662E+03 -0.62349283378E+03  0.69517768428E+03  0.79583662957E+02 0.  0.
         24    2    4    4    0    0  0.48552327634E+03  0.12301477192E+03 -0.28236062141E+02  0.50804430703E+03  0.80288584038E+02 0.  0.
         11    1    3    3    0    0 -0.39848881623E+01  0.11277603704E+02 -0.32793386806E+02  0.34906588163E+02  0.00000000000E+00 0. -1.
        -11    1    3    3    0    0 -0.30075919094E+03  0.10132176099E+03 -0.20853730149E+03  0.37974991283E+03  0.00000000000E+00 0.  1.
          4    1    6    6  502    0  0.22412132783E+01  0.91481130096E+01 -0.57189722056E+01  0.11018967814E+02  0.00000000000E+00 0. -1.
          1    1    5    5  503    0 -0.28688085546E+02 -0.23201493798E+01 -0.65666164729E+02  0.71696823749E+02  0.00000000000E+00 0. -1.
         -2    1    5    5    0  503 -0.15209111169E+03 -0.23329398724E+03 -0.55782666905E+03  0.62348086053E+03  0.00000000000E+00 0.  1.
         -3    1    6    6    0  502  0.48328206306E+03  0.11386665891E+03 -0.22517089936E+02  0.49702533922E+03  0.00000000000E+00 0.  1.
<mgrwt>
<rscale>  0 0.13490646E+04</rscale>
<asrwt>0</asrwt>
<pdfrwt beam="1">  1        1 0.19314908E+00 0.13490646E+04</pdfrwt>
<pdfrwt beam="2">  1       -1 0.55755301E-01 0.13490646E+04</pdfrwt>
<totfact> 0.31010354E+01</totfact>
</mgrwt>
</event>
<event>
12    1  0.1494110E-007  0.2512955E+04  0.7818608E-02  0.8398385E-01
         -1   -1    0    0    0  501 -0.00000000000E+00  0.00000000000E+00  0.86382252020E+03  0.86382252020E+03  0.00000000000E+00 0.  1.
          1   -1    0    0  501    0  0.00000000000E+00 -0.00000000000E+00 -0.18276163504E+04  0.18276163504E+04  0.00000000000E+00 0. -1.
         23    2    1    2    0    0 -0.73584270085E+03  0.80131616159E+03 -0.25574253805E+03  0.11214027685E+04  0.92562693530E+02 0.  0.
        254    2    1    2    0    0  0.73584270085E+03 -0.80131616159E+03 -0.70805129219E+03  0.15700361021E+04  0.88323533580E+03 0.  0.
        -24    2    4    4    0    0  0.13750402630E+03  0.16009286054E+03 -0.27411875251E+03  0.35468683112E+03  0.78259673158E+02 0.  0.
         24    2    4    4    0    0  0.59833867455E+03 -0.96140902213E+03 -0.43393253967E+03  0.12153492710E+04  0.80373654069E+02 0.  0.
         11    1    3    3    0    0 -0.58360673661E+03  0.68621788821E+03 -0.21861208975E+03  0.92697522023E+03  0.00000000000E+00 0.  1.
        -11    1    3    3    0    0 -0.15223596423E+03  0.11509827337E+03 -0.37130448295E+02  0.19442754828E+03  0.00000000000E+00 0. -1.
          4    1    6    6  502    0  0.10248449372E+03 -0.11617709067E+03 -0.70139449602E+02  0.17005802021E+03  0.00000000000E+00 0. -1.
          1    1    5    5  503    0  0.16036185885E+02 -0.67187490212E+01 -0.33194419760E+02  0.37472261065E+02  0.00000000000E+00 0. -1.
         -2    1    5    5    0  503  0.12146784042E+03  0.16681160956E+03 -0.24092433275E+03  0.31721457005E+03  0.00000000000E+00 0.  1.
         -1    1    6    6    0  502  0.49585418083E+03 -0.84523193146E+03 -0.36379309007E+03  0.10452912508E+04  0.00000000000E+00 0.  1.
<mgrwt>
<rscale>  0 0.25129554E+04</rscale>
<asrwt>0</asrwt>
<pdfrwt beam="1">  1        1 0.28117175E+00 0.25129554E+04</pdfrwt>
<pdfrwt beam="2">  1       -1 0.13289577E+00 0.25129554E+04</pdfrwt>
<totfact> 0.16602045E+00</totfact>
</mgrwt>
</event>
<event>
12    1  0.1494110E-007  0.1572445E+04  0.7818608E-02  0.8837657E-01
         -1   -1    0    0    0  501 -0.00000000000E+00  0.00000000000E+00  0.40715701035E+03  0.40715701035E+03  0.00000000000E+00 0.  1.
          1   -1    0    0  501    0  0.00000000000E+00 -0.00000000000E+00 -0.15181993733E+04  0.15181993733E+04  0.00000000000E+00 0. -1.
         23    2    1    2    0    0 -0.89278128277E+02 -0.33632240901E+02  0.25411388948E+03  0.28597681738E+03  0.90039765866E+02 0.  0.
        254    2    1    2    0    0  0.89278128277E+02  0.33632240901E+02 -0.13651562524E+04  0.16393795662E+04  0.90266940621E+03 0.  0.
        -24    2    4    4    0    0  0.56265933345E+02 -0.42179437444E+03 -0.78756191655E+03  0.89885243433E+03  0.81274699259E+02 0.  0.
         24    2    4    4    0    0  0.33012194933E+02  0.45542661534E+03 -0.57759433585E+03  0.74052713190E+03  0.79132858533E+02 0.  0.
         11    1    3    3    0    0 -0.10457661937E+03 -0.21279997725E+02  0.23696091113E+03  0.25988378369E+03  0.00000000000E+00 0.  1.
        -11    1    3    3    0    0  0.15298491089E+02 -0.12352243176E+02  0.17152978351E+02  0.26093033695E+02  0.00000000000E+00 0. -1.
          4    1    6    6  502    0  0.18918566560E+02  0.13454839066E+03 -0.23096702612E+03  0.26796818607E+03  0.00000000000E+00 0. -1.
          3    1    5    5  503    0 -0.15816028078E+02 -0.45058388373E+02 -0.63318537871E+02  0.79307265399E+02  0.00000000000E+00 0. -1.
         -4    1    5    5    0  503  0.72081961423E+02 -0.37673598607E+03 -0.72424337868E+03  0.81954516893E+03  0.00000000000E+00 0.  1.
         -3    1    6    6    0  502  0.14093628372E+02  0.32087822468E+03 -0.34662730973E+03  0.47255894583E+03  0.00000000000E+00 0.  1.
<mgrwt>
<rscale>  0 0.15724446E+04</rscale>
<asrwt>0</asrwt>
<pdfrwt beam="1">  1        1 0.23356913E+00 0.15724446E+04</pdfrwt>
<pdfrwt beam="2">  1       -1 0.62639541E-01 0.15724446E+04</pdfrwt>
<totfact> 0.15796052E+01</totfact>
</mgrwt>
</event>
<event>
12    1  0.1494110E-007  0.4520240E+04  0.7818608E-02  0.7907103E-01
          1   -1    0    0  501    0  0.00000000000E+00  0.00000000000E+00  0.21790061700E+04  0.21790061700E+04  0.00000000000E+00 0. -1.
         -1   -1    0    0    0  501 -0.00000000000E+00 -0.00000000000E+00 -0.23442530588E+04  0.23442530588E+04  0.00000000000E+00 0.  1.
         23    2    1    2    0    0  0.10334755266E+04 -0.19136131995E+04 -0.13437938778E+03  0.21805698877E+04  0.82704739052E+02 0.  0.
        254    2    1    2    0    0 -0.10334755266E+04  0.19136131995E+04 -0.30867500982E+02  0.23426893410E+04  0.87020308231E+03 0.  0.
        -24    2    4    4    0    0 -0.10503484012E+04  0.12879935294E+04  0.18732367985E+03  0.16743912656E+04  0.79604355918E+02 0.  0.
         24    2    4    4    0    0  0.16872874591E+02  0.62561967014E+03 -0.21819118083E+03  0.66829807548E+03  0.85616941870E+02 0.  0.
         13    1    3    3    0    0  0.29147237145E+03 -0.56727891527E+03 -0.74806400768E+02  0.64215068997E+03  0.00000000000E+00 0. -1.
        -13    1    3    3    0    0  0.74200315515E+03 -0.13463342843E+04 -0.59572987014E+02  0.15384191978E+04  0.00000000000E+00 0.  1.
          4    1    6    6  502    0  0.49777956258E+02  0.27499520311E+03 -0.10059107016E+03  0.29701644745E+03  0.00000000000E+00 0. -1.
          1    1    5    5  503    0 -0.98966884913E+03  0.12398532456E+04  0.18026424421E+03  0.15966138229E+04  0.00000000000E+00 0. -1.
         -2    1    5    5    0  503 -0.60679552057E+02  0.48140283779E+02  0.70594356367E+01  0.77777442692E+02  0.00000000000E+00 0.  1.
         -3    1    6    6    0  502 -0.32905081667E+02  0.35062446703E+03 -0.11760011068E+03  0.37128162803E+03  0.00000000000E+00 0.  1.
<mgrwt>
<rscale>  0 0.45202398E+04</rscale>
<asrwt>0</asrwt>
<pdfrwt beam="1">  1        1 0.33523172E+00 0.45202398E+04</pdfrwt>
<pdfrwt beam="2">  1       -1 0.36065431E+00 0.45202398E+04</pdfrwt>
<totfact> 0.22289774E-02</totfact>
</mgrwt>
</event>
<event>
12    1  0.1494110E-007  0.1690029E+04  0.7818608E-02  0.8767072E-01
          1   -1    0    0  501    0  0.00000000000E+00  0.00000000000E+00  0.28562282415E+04  0.28562282415E+04  0.00000000000E+00 0. -1.
         -1   -1    0    0    0  501 -0.00000000000E+00 -0.00000000000E+00 -0.24999723248E+03  0.24999723248E+03  0.00000000000E+00 0.  1.
         23    2    1    2    0    0  0.52543229908E+03 -0.23471153469E+03  0.12088698713E+04  0.13420988444E+04  0.93243428213E+02 0.  0.
        254    2    1    2    0    0 -0.52543229908E+03  0.23471153469E+03  0.13973611377E+04  0.17641266296E+04  0.91014065432E+03 0.  0.
        -24    2    4    4    0    0 -0.26208668033E+03  0.10064236239E+03 -0.40090613161E+02  0.29445665326E+03  0.79241089532E+02 0.  0.
         24    2    4    4    0    0 -0.26334561874E+03  0.13406917230E+03  0.14374517509E+04  0.14696699764E+04  0.79604305013E+02 0.  0.
         13    1    3    3    0    0  0.46999273001E+03 -0.21658614494E+03  0.10100881402E+04  0.11349364632E+04  0.00000000000E+00 0.  1.
        -13    1    3    3    0    0  0.55439569065E+02 -0.18125389746E+02  0.19878173104E+03  0.20716238116E+03  0.00000000000E+00 0. -1.
          4    1    6    6  502    0 -0.83778024512E+02  0.81243537677E+02  0.63929219217E+03  0.64985673557E+03  0.00000000000E+00 0. -1.
          3    1    5    5  503    0 -0.16156544488E+03  0.19927818035E+02 -0.21234655316E+02  0.16416888102E+03  0.00000000000E+00 0. -1.
         -4    1    5    5    0  503 -0.10052123545E+03  0.80714544357E+02 -0.18855957844E+02  0.13028777224E+03  0.00000000000E+00 0.  1.
         -3    1    6    6    0  502 -0.17956759423E+03  0.52825634622E+02  0.79815955874E+03  0.81981324079E+03  0.00000000000E+00 0.  1.
<mgrwt>
<rscale>  0 0.16900286E+04</rscale>
<asrwt>0</asrwt>
<pdfrwt beam="1">  1        1 0.43941971E+00 0.16900286E+04</pdfrwt>
<pdfrwt beam="2">  1       -1 0.38461115E-01 0.16900286E+04</pdfrwt>
<totfact> 0.47494564E+00</totfact>
</mgrwt>
</event>
<event>
12    1  0.1494110E-007  0.1620658E+04  0.7818608E-02  0.8807957E-01
          2   -1    0    0  501    0  0.00000000000E+00  0.00000000000E+00  0.18432592097E+04  0.18432592097E+04  0.00000000000E+00 0. -1.
         -2   -1    0    0    0  501 -0.00000000000E+00 -0.00000000000E+00 -0.35623471545E+03  0.35623471545E+03  0.00000000000E+00 0.  1.
         23    2    1    2    0    0 -0.14147224025E+03 -0.72797291874E+02  0.12434457094E+04  0.12568415714E+04  0.90441488771E+02 0.  0.
        254    2    1    2    0    0  0.14147224025E+03  0.72797291874E+02  0.24357878481E+03  0.94265235372E+03  0.89663202881E+03 0.  0.
        -24    2    4    4    0    0  0.31437987557E+03  0.26152422829E+03 -0.16973462039E+03  0.44998633553E+03  0.80300888287E+02 0.  0.
         24    2    4    4    0    0 -0.17290763532E+03 -0.18872693642E+03  0.41331340520E+03  0.49266601819E+03  0.79855667771E+02 0.  0.
         11    1    3    3    0    0 -0.48533122791E+02 -0.69197728813E+02  0.74625295476E+03  0.75102414220E+03  0.00000000000E+00 0.  1.
        -11    1    3    3    0    0 -0.92939117458E+02 -0.35995630619E+01  0.49719275467E+03  0.50581742922E+03  0.00000000000E+00 0. -1.
          4    1    6    6  502    0  0.50631200971E+00  0.37943482617E+01 -0.10412877758E+01  0.39670783726E+01  0.00000000000E+00 0. -1.
          1    1    5    5  503    0  0.18775703018E+02  0.47114716430E+02 -0.11519435121E+02  0.52009815551E+02  0.00000000000E+00 0. -1.
         -2    1    5    5    0  503  0.29560417255E+03  0.21440951186E+03 -0.15821518527E+03  0.39797651998E+03  0.00000000000E+00 0.  1.
         -3    1    6    6    0  502 -0.17341394733E+03 -0.19252128468E+03  0.41435469298E+03  0.48869893981E+03  0.00000000000E+00 0.  1.
<mgrwt>
<rscale>  0 0.16206578E+04</rscale>
<asrwt>0</asrwt>
<pdfrwt beam="1">  1        2 0.28357833E+00 0.16206578E+04</pdfrwt>
<pdfrwt beam="2">  1       -2 0.54805342E-01 0.16206578E+04</pdfrwt>
<totfact> 0.24481993E+01</totfact>
</mgrwt>
</event>
<event>
12    1  0.1494110E-007  0.2630220E+04  0.7818608E-02  0.8358008E-01
          2   -1    0    0  501    0  0.00000000000E+00  0.00000000000E+00  0.18460204136E+04  0.18460204136E+04  0.00000000000E+00 0.  1.
         -2   -1    0    0    0  501 -0.00000000000E+00 -0.00000000000E+00 -0.93688781234E+03  0.93688781234E+03  0.00000000000E+00 0. -1.
         23    2    1    2    0    0  0.10978233681E+04  0.10895132204E+03  0.77925679071E+03  0.13536043347E+04  0.88977587645E+02 0.  0.
        254    2    1    2    0    0 -0.10978233681E+04 -0.10895132204E+03  0.12987581051E+03  0.14293038912E+04  0.89941945116E+03 0.  0.
        -24    2    4    4    0    0 -0.45657336739E+03  0.73834733082E+02 -0.36542545624E+03  0.59463596021E+03  0.78392305074E+02 0.  0.
         24    2    4    4    0    0 -0.64125000068E+03 -0.18278605512E+03  0.49530126675E+03  0.83466793096E+03  0.82066465797E+02 0.  0.
         11    1    3    3    0    0  0.45793892787E+02  0.23014095966E+02  0.34686507964E+02  0.61886049029E+02  0.00000000000E+00 0. -1.
        -11    1    3    3    0    0  0.10520294753E+04  0.85937226070E+02  0.74457028275E+03  0.12917182857E+04  0.00000000000E+00 0.  1.
          4    1    6    6  502    0 -0.25114035990E+03 -0.30639662770E+02  0.19326795509E+03  0.31837520596E+03  0.00000000000E+00 0. -1.
          3    1    5    5  503    0 -0.27551906715E+03  0.64360462097E+01 -0.22551036889E+03  0.35609985331E+03  0.00000000000E+00 0. -1.
         -4    1    5    5    0  503 -0.18105430024E+03  0.67398686872E+02 -0.13991508735E+03  0.23853610690E+03  0.00000000000E+00 0.  1.
         -3    1    6    6    0  502 -0.39010964078E+03 -0.15214639235E+03  0.30203331166E+03  0.51629272500E+03  0.00000000000E+00 0.  1.
<mgrwt>
<rscale>  0 0.26302198E+04</rscale>
<asrwt>0</asrwt>
<pdfrwt beam="1">  1        2 0.28400314E+00 0.26302198E+04</pdfrwt>
<pdfrwt beam="2">  1       -2 0.14413659E+00 0.26302198E+04</pdfrwt>
<totfact> 0.23897644E+00</totfact>
</mgrwt>
</event>
<event>
12    1  0.1494110E-007  0.1602709E+04  0.7818608E-02  0.8818885E-01
         -2   -1    0    0    0  501 -0.00000000000E+00  0.00000000000E+00  0.28716222680E+03  0.28716222680E+03  0.00000000000E+00 0.  1.
          2   -1    0    0  501    0  0.00000000000E+00 -0.00000000000E+00 -0.22362601033E+04  0.22362601033E+04  0.00000000000E+00 0. -1.
         23    2    1    2    0    0  0.48015101800E+03 -0.22328028959E+03 -0.82572828435E+03  0.98507348983E+03  0.90241304244E+02 0.  0.
        254    2    1    2    0    0 -0.48015101800E+03  0.22328028959E+03 -0.11233695921E+04  0.15383488402E+04  0.90783193705E+03 0.  0.
        -24    2    4    4    0    0 -0.46848222440E+03  0.46764078193E+03 -0.41658421155E+03  0.78616778143E+03  0.79711227201E+02 0.  0.
         24    2    4    4    0    0 -0.11668793602E+02 -0.24436049234E+03 -0.70678538055E+03  0.75218105879E+03  0.79890926101E+02 0.  0.
         11    1    3    3    0    0  0.14117121410E+03 -0.87796207281E+02 -0.32915306594E+03  0.36875361221E+03  0.00000000000E+00 0.  1.
        -11    1    3    3    0    0  0.33897980389E+03 -0.13548408231E+03 -0.49657521842E+03  0.61631987762E+03  0.00000000000E+00 0. -1.
          4    1    6    6  502    0  0.24748683046E+02 -0.79362289066E+02 -0.30919401523E+03  0.32017465436E+03  0.00000000000E+00 0. -1.
          1    1    5    5  503    0 -0.10258385062E+03  0.61448609982E+02 -0.86008402225E+02  0.14729841591E+03  0.00000000000E+00 0. -1.
         -2    1    5    5    0  503 -0.36589837378E+03  0.40619217195E+03 -0.33057580932E+03  0.63886936552E+03  0.00000000000E+00 0.  1.
         -3    1    6    6    0  502 -0.36417476648E+02 -0.16499820328E+03 -0.39759136532E+03  0.43200640443E+03  0.00000000000E+00 0.  1.
<mgrwt>
<rscale>  0 0.16027095E+04</rscale>
<asrwt>0</asrwt>
<pdfrwt beam="1">  1        2 0.34404002E+00 0.16027095E+04</pdfrwt>
<pdfrwt beam="2">  1       -2 0.44178803E-01 0.16027095E+04</pdfrwt>
<totfact> 0.22969347E+01</totfact>
</mgrwt>
</event>
<event>
12    1  0.1494110E-007  0.1661887E+04  0.7818608E-02  0.8783405E-01
         -1   -1    0    0    0  501 -0.00000000000E+00  0.00000000000E+00  0.83087329808E+03  0.83087329808E+03  0.00000000000E+00 0.  1.
          1   -1    0    0  501    0  0.00000000000E+00 -0.00000000000E+00 -0.83101407008E+03  0.83101407008E+03  0.00000000000E+00 0. -1.
         23    2    1    2    0    0 -0.16201183663E+03  0.30653089852E+03 -0.42191457401E+03  0.55359837630E+03  0.90830763068E+02 0.  0.
        254    2    1    2    0    0  0.16201183663E+03 -0.30653089852E+03  0.42177380201E+03  0.11082889919E+04  0.96446996970E+03 0.  0.
        -24    2    4    4    0    0 -0.33707033210E+03 -0.29318337248E+03  0.39742326358E+03  0.60338667429E+03  0.80977340049E+02 0.  0.
         24    2    4    4    0    0  0.49908216873E+03 -0.13347526042E+02  0.24350538434E+02  0.50490231757E+03  0.71219617866E+02 0.  0.
         13    1    3    3    0    0 -0.11810096011E+03  0.19105088007E+03 -0.20565500671E+03  0.30453613470E+03  0.00000000000E+00 0. -1.
        -13    1    3    3    0    0 -0.43910876517E+02  0.11548001845E+03 -0.21625956731E+03  0.24906224160E+03  0.00000000000E+00 0.  1.
          2    1    6    6  502    0  0.20086774952E+03 -0.40331425464E+02  0.87555618946E+01  0.20506373775E+03  0.00000000000E+00 0. -1.
          3    1    5    5  503    0 -0.20692360756E+02 -0.52689282204E+02  0.50097476000E+02  0.75591609021E+02  0.00000000000E+00 0. -1.
         -4    1    5    5    0  503 -0.31637797134E+03 -0.24049409028E+03  0.34732578758E+03  0.52779506527E+03  0.00000000000E+00 0.  1.
         -1    1    6    6    0  502  0.29821441921E+03  0.26983899422E+02  0.15594976540E+02  0.29983857982E+03  0.00000000000E+00 0.  1.
<mgrwt>
<rscale>  0 0.16618874E+04</rscale>
<asrwt>0</asrwt>
<pdfrwt beam="1">  1        1 0.12784832E+00 0.16618874E+04</pdfrwt>
<pdfrwt beam="2">  1       -1 0.12782666E+00 0.16618874E+04</pdfrwt>
<totfact> 0.10502686E+01</totfact>
</mgrwt>
</event>
<event>
12    1  0.1494110E-007  0.4397031E+04  0.7818608E-02  0.7928916E-01
         -1   -1    0    0    0  501 -0.00000000000E+00  0.00000000000E+00  0.12760816110E+04  0.12760816110E+04  0.00000000000E+00 0.  1.
          1   -1    0    0  501    0  0.00000000000E+00 -0.00000000000E+00 -0.37877441922E+04  0.37877441922E+04  0.00000000000E+00 0. -1.
         23    2    1    2    0    0 -0.72175246983E+03 -0.18856594418E+04 -0.49829674505E+03  0.20817480508E+04  0.93472684462E+02 0.  0.
        254    2    1    2    0    0  0.72175246983E+03  0.18856594418E+04 -0.20133658362E+04  0.29820777523E+04  0.87321679585E+03 0.  0.
        -24    2    4    4    0    0  0.94777818145E+02  0.80907278127E+03 -0.13222969861E+04  0.15551620068E+04  0.80485697869E+02 0.  0.
         24    2    4    4    0    0  0.62697465168E+03  0.10765866605E+04 -0.69106885001E+03  0.14269157455E+04  0.79851975179E+02 0.  0.
         13    1    3    3    0    0 -0.38652850098E+01 -0.52204718202E+01 -0.75785565151E+01  0.99813963494E+01  0.00000000000E+00 0.  1.
        -13    1    3    3    0    0 -0.71788718482E+03 -0.18804389700E+04 -0.49071818853E+03  0.20717666545E+04  0.00000000000E+00 0. -1.
          4    1    6    6  502    0  0.12541224006E+03  0.28386302666E+03 -0.17256223984E+03  0.35508333456E+03  0.00000000000E+00 0. -1.
          1    1    5    5  503    0  0.40645268560E+02  0.28463611462E+03 -0.54024383785E+03  0.61199114368E+03  0.00000000000E+00 0. -1.
         -2    1    5    5    0  503  0.54132549585E+02  0.52443666665E+03 -0.78205314829E+03  0.94317086310E+03  0.00000000000E+00 0.  1.
         -1    1    6    6    0  502  0.50156241163E+03  0.79272363387E+03 -0.51850661017E+03  0.10718324110E+04  0.00000000000E+00 0.  1.
<mgrwt>
<rscale>  0 0.43970311E+04</rscale>
<asrwt>0</asrwt>
<pdfrwt beam="1">  1        1 0.58272987E+00 0.43970311E+04</pdfrwt>
<pdfrwt beam="2">  1       -1 0.19632025E+00 0.43970311E+04</pdfrwt>
<totfact> 0.17606029E-02</totfact>
</mgrwt>
</event>
<event>
12    1  0.1494110E-007  0.1864934E+04  0.7818608E-02  0.8672511E-01
          1   -1    0    0  501    0  0.00000000000E+00  0.00000000000E+00  0.13483533821E+04  0.13483533821E+04  0.00000000000E+00 0. -1.
         -1   -1    0    0    0  501 -0.00000000000E+00 -0.00000000000E+00 -0.64485642252E+03  0.64485642252E+03  0.00000000000E+00 0.  1.
         23    2    1    2    0    0 -0.67502189213E+03 -0.39148293003E+02  0.10735149919E+03  0.69058301552E+03  0.90517474835E+02 0.  0.
        254    2    1    2    0    0  0.67502189213E+03  0.39148293003E+02  0.59614546037E+03  0.13026267891E+04  0.94035099724E+03 0.  0.
        -24    2    4    4    0    0  0.50128461503E+02  0.38937544326E+03  0.61804395329E+02  0.40529406062E+03  0.79482034618E+02 0.  0.
         24    2    4    4    0    0  0.62489343062E+03 -0.35022715026E+03  0.53434106504E+03  0.89733272845E+03  0.80838081065E+02 0.  0.
         13    1    3    3    0    0 -0.51907775860E+03 -0.34399521351E+02  0.12057595766E+03  0.53400712364E+03  0.00000000000E+00 0.  1.
        -13    1    3    3    0    0 -0.15594413353E+03 -0.47487716523E+01 -0.13224458466E+02  0.15657589187E+03  0.00000000000E+00 0. -1.
          2    1    6    6  502    0  0.54448071990E+03 -0.33161139276E+03  0.48641357606E+03  0.80188748408E+03  0.00000000000E+00 0. -1.
          1    1    5    5  503    0  0.59496026175E+02  0.28248002557E+03  0.17515791521E+02  0.28920848005E+03  0.00000000000E+00 0. -1.
         -2    1    5    5    0  503 -0.93675646715E+01  0.10689541769E+03  0.44288603807E+02  0.11608558058E+03  0.00000000000E+00 0.  1.
         -1    1    6    6    0  502  0.80412710726E+02 -0.18615757495E+02  0.47927488988E+02  0.95445244377E+02  0.00000000000E+00 0.  1.
<mgrwt>
<rscale>  0 0.18649336E+04</rscale>
<asrwt>0</asrwt>
<pdfrwt beam="1">  1        1 0.20743898E+00 0.18649336E+04</pdfrwt>
<pdfrwt beam="2">  1       -1 0.99208681E-01 0.18649336E+04</pdfrwt>
<totfact> 0.76108608E+00</totfact>
</mgrwt>
</event>
<event>
12    1  0.1494110E-007  0.1708686E+04  0.7818608E-02  0.8756426E-01
         -2   -1    0    0    0  501 -0.00000000000E+00  0.00000000000E+00  0.58657799490E+03  0.58657799490E+03  0.00000000000E+00 0.  1.
          2   -1    0    0  501    0  0.00000000000E+00 -0.00000000000E+00 -0.12443390270E+04  0.12443390270E+04  0.00000000000E+00 0. -1.
         23    2    1    2    0    0 -0.25670459523E+03  0.50797443061E+03  0.10134189649E+02  0.57621768358E+03  0.89380342970E+02 0.  0.
        254    2    1    2    0    0  0.25670459523E+03 -0.50797443061E+03 -0.66789522170E+03  0.12546993383E+04  0.89680049673E+03 0.  0.
        -24    2    4    4    0    0 -0.39816860928E+02  0.23011121172E+03 -0.25100719131E+03  0.35330518931E+03  0.85342805966E+02 0.  0.
         24    2    4    4    0    0  0.29652145616E+03 -0.73808564233E+03 -0.41688803039E+03  0.90139414897E+03  0.77591188459E+02 0.  0.
         13    1    3    3    0    0 -0.13297605988E+03  0.35659831259E+03  0.36771575084E+01  0.38060282517E+03  0.00000000000E+00 0.  1.
        -13    1    3    3    0    0 -0.12372853535E+03  0.15137611802E+03  0.64570321410E+01  0.19561485841E+03  0.00000000000E+00 0. -1.
          2    1    6    6  502    0  0.14754474083E+03 -0.43618774885E+03 -0.20858040677E+03  0.50550468730E+03  0.00000000000E+00 0. -1.
          3    1    5    5  503    0  0.33259601380E+01  0.16467026720E+03 -0.20291005749E+03  0.26134240058E+03  0.00000000000E+00 0. -1.
         -4    1    5    5    0  503 -0.43142821066E+02  0.65440944522E+02 -0.48097133823E+02  0.91962788732E+02  0.00000000000E+00 0.  1.
         -1    1    6    6    0  502  0.14897671533E+03 -0.30189789348E+03 -0.20830762362E+03  0.39588946167E+03  0.00000000000E+00 0.  1.
<mgrwt>
<rscale>  0 0.17086859E+04</rscale>
<asrwt>0</asrwt>
<pdfrwt beam="1">  1        2 0.19143677E+00 0.17086859E+04</pdfrwt>
<pdfrwt beam="2">  1       -2 0.90242768E-01 0.17086859E+04</pdfrwt>
<totfact> 0.17803719E+01</totfact>
</mgrwt>
</event>
<event>
12    1  0.1494110E-007  0.1940436E+04  0.7818608E-02  0.8634986E-01
         -1   -1    0    0    0  501 -0.00000000000E+00  0.00000000000E+00  0.15298796276E+04  0.15298796276E+04  0.00000000000E+00 0.  1.
          1   -1    0    0  501    0  0.00000000000E+00 -0.00000000000E+00 -0.61529234533E+03  0.61529234533E+03  0.00000000000E+00 0. -1.
         23    2    1    2    0    0 -0.93478228498E+02  0.28377818188E+03  0.11313411490E+04  0.11735728736E+04  0.89845748147E+02 0.  0.
        254    2    1    2    0    0  0.93478228498E+02 -0.28377818188E+03 -0.21675386668E+03  0.97159909941E+03  0.89875154271E+03 0.  0.
        -24    2    4    4    0    0  0.24383209177E+03 -0.11269644003E+03  0.29397333449E+03  0.40667422690E+03  0.82516839872E+02 0.  0.
         24    2    4    4    0    0 -0.15035386327E+03 -0.17108174185E+03 -0.51072720117E+03  0.56492487251E+03  0.80141069182E+02 0.  0.
         11    1    3    3    0    0 -0.86843491426E+02  0.29009761095E+03  0.10999586162E+04  0.11408800871E+04  0.00000000000E+00 0.  1.
        -11    1    3    3    0    0 -0.66347370723E+01 -0.63194290771E+01  0.31382532809E+02  0.32692786443E+02  0.00000000000E+00 0. -1.
          2    1    6    6  502    0 -0.89355374431E+02 -0.65496012482E+02 -0.31914861056E+03  0.33783123925E+03  0.00000000000E+00 0. -1.
          3    1    5    5  503    0  0.19487165686E+03 -0.11700978702E+03  0.21047326290E+03  0.30978258069E+03  0.00000000000E+00 0. -1.
         -4    1    5    5    0  503  0.48960434906E+02  0.43133469944E+01  0.83500071589E+02  0.96891646203E+02  0.00000000000E+00 0.  1.
         -1    1    6    6    0  502 -0.60998488841E+02 -0.10558572937E+03 -0.19157859061E+03  0.22709363326E+03  0.00000000000E+00 0.  1.
<mgrwt>
<rscale>  0 0.19404363E+04</rscale>
<asrwt>0</asrwt>
<pdfrwt beam="1">  1        1 0.94660361E-01 0.19404363E+04</pdfrwt>
<pdfrwt beam="2">  1       -1 0.23536610E+00 0.19404363E+04</pdfrwt>
<totfact> 0.26774727E+00</totfact>
</mgrwt>
</event>
<event>
12    1  0.1494110E-007  0.1890306E+04  0.7818608E-02  0.8659697E-01
          1   -1    0    0  501    0  0.00000000000E+00  0.00000000000E+00  0.45608653428E+03  0.45608653428E+03  0.00000000000E+00 0. -1.
         -1   -1    0    0    0  501 -0.00000000000E+00 -0.00000000000E+00 -0.19586502909E+04  0.19586502909E+04  0.00000000000E+00 0.  1.
         23    2    1    2    0    0 -0.85154379905E+02 -0.45355286379E+03 -0.12996697431E+04  0.13822031061E+04  0.91556085211E+02 0.  0.
        254    2    1    2    0    0  0.85154379905E+02  0.45355286379E+03 -0.20289401355E+03  0.10325337191E+04  0.90110955587E+03 0.  0.
        -24    2    4    4    0    0  0.21420255155E+03 -0.86351258090E+02  0.21998908903E+03  0.33068702388E+03  0.87289378553E+02 0.  0.
         24    2    4    4    0    0 -0.12904817164E+03  0.53990412188E+03 -0.42288310257E+03  0.70184669522E+03  0.74891746697E+02 0.  0.
         13    1    3    3    0    0 -0.96222797229E+02 -0.30631310496E+03 -0.94377079513E+03  0.99689009360E+03  0.00000000000E+00 0.  1.
        -13    1    3    3    0    0  0.11068417324E+02 -0.14723975883E+03 -0.35589894793E+03  0.38531301248E+03  0.00000000000E+00 0. -1.
          4    1    6    6  502    0 -0.10557711215E+03  0.30414152305E+03 -0.26679197494E+03  0.41812265013E+03  0.00000000000E+00 0. -1.
          1    1    5    5  503    0  0.17792446710E+03 -0.31246944966E+02  0.15409519775E+03  0.23744224041E+03  0.00000000000E+00 0. -1.
         -2    1    5    5    0  503  0.36278084446E+02 -0.55104313124E+02  0.65893891278E+02  0.93244783467E+02  0.00000000000E+00 0.  1.
         -3    1    6    6    0  502 -0.23471059487E+02  0.23576259883E+03 -0.15609112763E+03  0.28372404509E+03  0.00000000000E+00 0.  1.
<mgrwt>
<rscale>  0 0.18903058E+04</rscale>
<asrwt>0</asrwt>
<pdfrwt beam="1">  1        1 0.70167159E-01 0.18903058E+04</pdfrwt>
<pdfrwt beam="2">  1       -1 0.30133081E+00 0.18903058E+04</pdfrwt>
<totfact> 0.15256384E+00</totfact>
</mgrwt>
</event>
<event>
12    1  0.1494110E-007  0.1898819E+04  0.7818608E-02  0.8655444E-01
          2   -1    0    0  501    0  0.00000000000E+00  0.00000000000E+00  0.13256980983E+04  0.13256980983E+04  0.00000000000E+00 0. -1.
         -2   -1    0    0    0  501 -0.00000000000E+00 -0.00000000000E+00 -0.67992745790E+03  0.67992745790E+03  0.00000000000E+00 0.  1.
         23    2    1    2    0    0 -0.46686080853E+03  0.37992044016E+03 -0.18798523015E+03  0.63680651732E+03  0.88800553791E+02 0.  0.
        254    2    1    2    0    0  0.46686080853E+03 -0.37992044016E+03  0.83375587054E+03  0.13688190389E+04  0.90344792550E+03 0.  0.
        -24    2    4    4    0    0  0.59613367064E+03 -0.16155555598E+02  0.75714205502E+03  0.96721103082E+03  0.81220264786E+02 0.  0.
         24    2    4    4    0    0 -0.12927286211E+03 -0.36376488456E+03  0.76613815515E+02  0.40160800804E+03  0.79893374401E+02 0.  0.
         11    1    3    3    0    0 -0.91781639653E+02  0.52258877339E+02 -0.34404801726E+01  0.10567259125E+03  0.00000000000E+00 0. -1.
        -11    1    3    3    0    0 -0.37507916888E+03  0.32766156282E+03 -0.18454474998E+03  0.53113392607E+03  0.00000000000E+00 0.  1.
          4    1    6    6  502    0  0.70411233529E+01 -0.40750918607E+02 -0.49404736802E+01  0.41648806293E+02  0.00000000000E+00 0. -1.
          3    1    5    5  503    0  0.26128675303E+02 -0.56098416658E+01  0.12809401918E+02  0.29635431059E+02  0.00000000000E+00 0. -1.
         -4    1    5    5    0  503  0.57000499534E+03 -0.10545713933E+02  0.74433265310E+03  0.93757559976E+03  0.00000000000E+00 0.  1.
         -3    1    6    6    0  502 -0.13631398546E+03 -0.32301396596E+03  0.81554289195E+02  0.35995920174E+03  0.00000000000E+00 0.  1.
<mgrwt>
<rscale>  0 0.18988191E+04</rscale>
<asrwt>0</asrwt>
<pdfrwt beam="1">  1        2 0.20395355E+00 0.18988191E+04</pdfrwt>
<pdfrwt beam="2">  1       -2 0.10460422E+00 0.18988191E+04</pdfrwt>
<totfact> 0.11098665E+01</totfact>
</mgrwt>
</event>
<event>
12    1  0.1494110E-007  0.3235940E+04  0.7818608E-02  0.8179389E-01
          2   -1    0    0  501    0  0.00000000000E+00  0.00000000000E+00  0.12394111184E+04  0.12394111184E+04  0.00000000000E+00 0. -1.
         -2   -1    0    0    0  501 -0.00000000000E+00 -0.00000000000E+00 -0.21121542247E+04  0.21121542247E+04  0.00000000000E+00 0.  1.
         23    2    1    2    0    0 -0.11742697595E+04 -0.58011032189E+03  0.33629455155E+03  0.13553427481E+04  0.91774101522E+02 0.  0.
        254    2    1    2    0    0  0.11742697595E+04  0.58011032189E+03 -0.12090376579E+04  0.19962225950E+04  0.89871860824E+03 0.  0.
        -24    2    4    4    0    0  0.38248726956E+03 -0.99869331348E+02 -0.75185504713E+03  0.85396721458E+03  0.87770137100E+02 0.  0.
         24    2    4    4    0    0  0.79178248996E+03  0.67997965324E+03 -0.45718261078E+03  0.11422553804E+04  0.80246957785E+02 0.  0.
         11    1    3    3    0    0 -0.35841275851E+03 -0.16770383730E+03  0.59257921333E+02  0.40011971178E+03  0.00000000000E+00 0.  1.
        -11    1    3    3    0    0 -0.81585700101E+03 -0.41240648459E+03  0.27703663022E+03  0.95522303631E+03  0.00000000000E+00 0. -1.
          2    1    6    6  502    0  0.63779430237E+03  0.50460419739E+03 -0.34810670542E+03  0.88463848352E+03  0.00000000000E+00 0. -1.
          3    1    5    5  503    0  0.30346527211E+03 -0.83772969557E+02 -0.51331536367E+03  0.60216421712E+03  0.00000000000E+00 0. -1.
         -4    1    5    5    0  503  0.79021997455E+02 -0.16096361790E+02 -0.23853968346E+03  0.25180299746E+03  0.00000000000E+00 0.  1.
         -1    1    6    6    0  502  0.15398818758E+03  0.17537545584E+03 -0.10907590536E+03  0.25761689688E+03  0.00000000000E+00 0.  1.
<mgrwt>
<rscale>  0 0.32359403E+04</rscale>
<asrwt>0</asrwt>
<pdfrwt beam="1">  1        2 0.19067863E+00 0.32359403E+04</pdfrwt>
<pdfrwt beam="2">  1       -2 0.32494680E+00 0.32359403E+04</pdfrwt>
<totfact> 0.33609616E-01</totfact>
</mgrwt>
</event>
<event>
12    1  0.1494110E-007  0.1528640E+04  0.7818608E-02  0.8865628E-01
          4   -1    0    0  501    0  0.00000000000E+00  0.00000000000E+00  0.38860727874E+03  0.38860727874E+03  0.00000000000E+00 0. -1.
         -4   -1    0    0    0  501 -0.00000000000E+00 -0.00000000000E+00 -0.15032795224E+04  0.15032795224E+04  0.00000000000E+00 0.  1.
         23    2    1    2    0    0 -0.74585245816E+02  0.13359747429E+03 -0.93797650686E+03  0.95466715643E+03  0.90433445736E+02 0.  0.
        254    2    1    2    0    0  0.74585245816E+02 -0.13359747429E+03 -0.17669573678E+03  0.93721964470E+03  0.90760566050E+03 0.  0.
        -24    2    4    4    0    0  0.24162898645E+03  0.30461842782E+03  0.67477903285E+02  0.40254718040E+03  0.79460753567E+02 0.  0.
         24    2    4    4    0    0 -0.16704374064E+03 -0.43821590210E+03 -0.24417364006E+03  0.53467246429E+03  0.79480119721E+02 0.  0.
         11    1    3    3    0    0 -0.51073552065E+02  0.87828455695E+02 -0.35012590181E+03  0.36456891319E+03  0.00000000000E+00 0. -1.
        -11    1    3    3    0    0 -0.23511693750E+02  0.45769018594E+02 -0.58785060505E+03  0.59009824323E+03  0.00000000000E+00 0.  1.
          4    1    6    6  502    0 -0.49687018163E+02 -0.19871480670E+03 -0.14115681999E+03  0.24876016966E+03  0.00000000000E+00 0. -1.
          3    1    5    5  503    0  0.24731444591E+02  0.63625650542E+02  0.34961702662E+02  0.76695426275E+02  0.00000000000E+00 0. -1.
         -4    1    5    5    0  503  0.21689754186E+03  0.24099277727E+03  0.32516200623E+02  0.32585175413E+03  0.00000000000E+00 0.  1.
         -3    1    6    6    0  502 -0.11735672248E+03 -0.23950109540E+03 -0.10301682007E+03  0.28591229464E+03  0.00000000000E+00 0.  1.
<mgrwt>
<rscale>  0 0.15286404E+04</rscale>
<asrwt>0</asrwt>
<pdfrwt beam="1">  1        4 0.59785734E-01 0.15286404E+04</pdfrwt>
<pdfrwt beam="2">  1       -4 0.23127378E+00 0.15286404E+04</pdfrwt>
<totfact> 0.42202933E-01</totfact>
</mgrwt>
</event>
<event>
12    1  0.1494110E-007  0.1392925E+04  0.7818608E-02  0.8958956E-01
          1   -1    0    0  501    0  0.00000000000E+00  0.00000000000E+00  0.69538653927E+03  0.69538653927E+03  0.00000000000E+00 0. -1.
         -1   -1    0    0    0  501 -0.00000000000E+00 -0.00000000000E+00 -0.69754023543E+03  0.69754023543E+03  0.00000000000E+00 0.  1.
         23    2    1    2    0    0  0.10710840916E+03  0.32436844866E+03 -0.20890375339E+03  0.41142370253E+03  0.94559944079E+02 0.  0.
        254    2    1    2    0    0 -0.10710840916E+03 -0.32436844866E+03  0.20675005722E+03  0.98150307217E+03  0.89661340204E+03 0.  0.
        -24    2    4    4    0    0 -0.17466222295E+03 -0.57578972572E+03 -0.47797404986E+02  0.60857424772E+03  0.77700210339E+02 0.  0.
         24    2    4    4    0    0  0.67553813790E+02  0.25142127706E+03  0.25454746221E+03  0.37292882445E+03  0.80655571877E+02 0.  0.
         11    1    3    3    0    0 -0.13596003073E+02  0.19376553772E+02 -0.28602310631E+02  0.37126733079E+02  0.00000000000E+00 0. -1.
        -11    1    3    3    0    0  0.12070441223E+03  0.30499189489E+03 -0.18030144276E+03  0.37429696945E+03  0.00000000000E+00 0.  1.
          4    1    6    6  502    0  0.60989785386E+02  0.10409434312E+03  0.81638497472E+02  0.14567165291E+03  0.00000000000E+00 0. -1.
          1    1    5    5  503    0 -0.80602382177E+02 -0.37994817764E+03 -0.47652675471E+02  0.39131590715E+03  0.00000000000E+00 0. -1.
         -2    1    5    5    0  503 -0.94059840771E+02 -0.19584154808E+03 -0.14472951427E+00  0.21725834057E+03  0.00000000000E+00 0.  1.
         -3    1    6    6    0  502  0.65640284048E+01  0.14732693394E+03  0.17290896473E+03  0.22725717155E+03  0.00000000000E+00 0.  1.
<mgrwt>
<rscale>  0 0.13929251E+04</rscale>
<asrwt>0</asrwt>
<pdfrwt beam="1">  1        1 0.10698254E+00 0.13929251E+04</pdfrwt>
<pdfrwt beam="2">  1       -1 0.10731388E+00 0.13929251E+04</pdfrwt>
<totfact> 0.21729707E+01</totfact>
</mgrwt>
</event>
<event>
12    1  0.1494110E-007  0.3247329E+04  0.7818608E-02  0.8176428E-01
          2   -1    0    0  501    0  0.00000000000E+00  0.00000000000E+00  0.23001756113E+04  0.23001756113E+04  0.00000000000E+00 0. -1.
         -2   -1    0    0    0  501 -0.00000000000E+00 -0.00000000000E+00 -0.11461237440E+04  0.11461237440E+04  0.00000000000E+00 0.  1.
         23    2    1    2    0    0 -0.87103064904E+03  0.11260270515E+04  0.10187558476E+04  0.17528654438E+04  0.89679846036E+02 0.  0.
        254    2    1    2    0    0  0.87103064904E+03 -0.11260270515E+04  0.13529601974E+03  0.16934339116E+04  0.90707336408E+03 0.  0.
        -24    2    4    4    0    0  0.53276723872E+03 -0.85903120944E+03 -0.31831062994E+03  0.10627464310E+04  0.79578703628E+02 0.  0.
         24    2    4    4    0    0  0.33826341031E+03 -0.26699584205E+03  0.45360664968E+03  0.63068748060E+03  0.79364923722E+02 0.  0.
         11    1    3    3    0    0 -0.78021658104E+03  0.10451130485E+04  0.94530435007E+03  0.16107760589E+04  0.00000000000E+00 0. -1.
        -11    1    3    3    0    0 -0.90814067996E+02  0.80914002961E+02  0.73451497489E+02  0.14208938491E+03  0.00000000000E+00 0.  1.
          4    1    6    6  502    0  0.19407843842E+02 -0.13832218085E+02  0.59293602045E+02  0.63904036674E+02  0.00000000000E+00 0. -1.
          1    1    5    5  503    0  0.48890012341E+02 -0.51156297943E+02 -0.78796712620E+01  0.71198942023E+02  0.00000000000E+00 0. -1.
         -2    1    5    5    0  503  0.48387722638E+03 -0.80787491149E+03 -0.31043095868E+03  0.99154748900E+03  0.00000000000E+00 0.  1.
         -3    1    6    6    0  502  0.31885556647E+03 -0.25316362397E+03  0.39431304764E+03  0.56678344393E+03  0.00000000000E+00 0.  1.
<mgrwt>
<rscale>  0 0.32473287E+04</rscale>
<asrwt>0</asrwt>
<pdfrwt beam="1">  1        2 0.35387317E+00 0.32473287E+04</pdfrwt>
<pdfrwt beam="2">  1       -2 0.17632673E+00 0.32473287E+04</pdfrwt>
<totfact> 0.73112857E-01</totfact>
</mgrwt>
</event>
<event>
12    1  0.1494110E-007  0.2757564E+04  0.7818608E-02  0.8316565E-01
          2   -1    0    0  501    0  0.00000000000E+00  0.00000000000E+00  0.22398590413E+04  0.22398590413E+04  0.00000000000E+00 0. -1.
         -2   -1    0    0    0  501 -0.00000000000E+00 -0.00000000000E+00 -0.84873190445E+03  0.84873190445E+03  0.00000000000E+00 0.  1.
         23    2    1    2    0    0  0.55708815849E+03  0.23738386314E+03  0.18111837288E+04  0.19118271809E+04  0.89433525479E+02 0.  0.
        254    2    1    2    0    0 -0.55708815849E+03 -0.23738386314E+03 -0.42005659194E+03  0.11767637648E+04  0.91740236700E+03 0.  0.
        -24    2    4    4    0    0 -0.22862227306E+03  0.34115448556E+03 -0.24344938891E+03  0.48414569872E+03  0.80466924098E+02 0.  0.
         24    2    4    4    0    0 -0.32846588543E+03 -0.57853834870E+03 -0.17660720304E+03  0.69261806611E+03  0.77027414142E+02 0.  0.
         13    1    3    3    0    0  0.13057126171E+03  0.79621889054E+02  0.36239266697E+03  0.39334074881E+03  0.00000000000E+00 0.  1.
        -13    1    3    3    0    0  0.42651689678E+03  0.15776197409E+03  0.14487910618E+04  0.15184864321E+04  0.00000000000E+00 0. -1.
          2    1    6    6  502    0 -0.14892653726E+03 -0.20981916070E+03 -0.40207639733E+02  0.26042244140E+03  0.00000000000E+00 0. -1.
          3    1    5    5  503    0 -0.72109562204E+02  0.16918002004E+03 -0.13139223852E+03  0.22602121247E+03  0.00000000000E+00 0. -1.
         -4    1    5    5    0  503 -0.15651271085E+03  0.17197446552E+03 -0.11205715038E+03  0.25812448625E+03  0.00000000000E+00 0.  1.
         -1    1    6    6    0  502 -0.17953934818E+03 -0.36871918800E+03 -0.13639956330E+03  0.43219562471E+03  0.00000000000E+00 0.  1.
<mgrwt>
<rscale>  0 0.27575640E+04</rscale>
<asrwt>0</asrwt>
<pdfrwt beam="1">  1        2 0.34459370E+00 0.27575640E+04</pdfrwt>
<pdfrwt beam="2">  1       -2 0.13057414E+00 0.27575640E+04</pdfrwt>
<totfact> 0.18386622E+00</totfact>
</mgrwt>
</event>
<event>
12    1  0.1494110E-007  0.1500257E+04  0.7818608E-02  0.8884282E-01
         -2   -1    0    0    0  501 -0.00000000000E+00  0.00000000000E+00  0.42000674112E+03  0.42000674112E+03  0.00000000000E+00 0.  1.
          2   -1    0    0  501    0  0.00000000000E+00 -0.00000000000E+00 -0.13397230427E+04  0.13397230427E+04  0.00000000000E+00 0. -1.
         23    2    1    2    0    0  0.48074143979E+03  0.10177769277E+02 -0.33674771942E+03  0.59374379397E+03  0.88976105912E+02 0.  0.
        254    2    1    2    0    0 -0.48074143979E+03 -0.10177769277E+02 -0.58296858215E+03  0.11659859898E+04  0.88794990953E+03 0.  0.
        -24    2    4    4    0    0 -0.28931404172E+03  0.33235397267E+03 -0.61889787952E+03  0.76389701678E+03  0.79638490023E+02 0.  0.
         24    2    4    4    0    0 -0.19142739807E+03 -0.34253174195E+03  0.35929297365E+02  0.40208897306E+03  0.80076119282E+02 0.  0.
         11    1    3    3    0    0  0.19995854335E+03  0.40320408807E+02 -0.11115588130E+03  0.23230321645E+03  0.00000000000E+00 0.  1.
        -11    1    3    3    0    0  0.28078289644E+03 -0.30142639530E+02 -0.22559183813E+03  0.36144057752E+03  0.00000000000E+00 0. -1.
          2    1    6    6  502    0 -0.55025338714E+02 -0.11358248740E+03 -0.25117943706E+02  0.12868442190E+03  0.00000000000E+00 0. -1.
          1    1    5    5  503    0  0.49639995211E+01  0.76006815311E+01 -0.82839579176E+01  0.12289654583E+02  0.00000000000E+00 0. -1.
         -2    1    5    5    0  503 -0.29427804124E+03  0.32475329114E+03 -0.61061392160E+03  0.75160736220E+03  0.00000000000E+00 0.  1.
         -1    1    6    6    0  502 -0.13640205935E+03 -0.22894925455E+03  0.61047241071E+02  0.27340455116E+03  0.00000000000E+00 0.  1.
<mgrwt>
<rscale>  0 0.15002569E+04</rscale>
<asrwt>0</asrwt>
<pdfrwt beam="1">  1        2 0.20611124E+00 0.15002569E+04</pdfrwt>
<pdfrwt beam="2">  1       -2 0.64616422E-01 0.15002569E+04</pdfrwt>
<totfact> 0.33485862E+01</totfact>
</mgrwt>
</event>
<event>
12    1  0.2006792E-007  0.1718066E+04  0.7818608E-02  0.8751127E-01
         -1   -1    0    0    0  501 -0.00000000000E+00  0.00000000000E+00  0.81355587594E+03  0.81355587594E+03  0.00000000000E+00 0.  1.
          1   -1    0    0  501    0  0.00000000000E+00 -0.00000000000E+00 -0.90705196660E+03  0.90705196660E+03  0.00000000000E+00 0. -1.
         23    2    1    2    0    0 -0.18866555432E+03  0.40495024200E+02 -0.61990427691E+03  0.65578828719E+03  0.92425249335E+02 0.  0.
        254    2    1    2    0    0  0.18866555432E+03 -0.40495024200E+02  0.52640818625E+03  0.10648195554E+04  0.90526270692E+03 0.  0.
        -24    2    4    4    0    0  0.41301516584E+03 -0.16528732790E+02 -0.65286628928E+02  0.42641369685E+03  0.81924176672E+02 0.  0.
         24    2    4    4    0    0 -0.22434961152E+03 -0.23966291410E+02  0.59169481518E+03  0.63840585851E+03  0.80945380040E+02 0.  0.
         13    1    3    3    0    0 -0.13566160320E+03  0.36063841575E+02 -0.55180020222E+03  0.56937521409E+03  0.00000000000E+00 0. -1.
        -13    1    3    3    0    0 -0.53003951113E+02  0.44311826250E+01 -0.68104074695E+02  0.86413073103E+02  0.00000000000E+00 0.  1.
          2    1    6    6  502    0 -0.21294173098E+03 -0.38067531627E+02  0.57246395517E+03  0.61197083078E+03  0.00000000000E+00 0. -1.
          3    1    5    5  503    0  0.33819224811E+03 -0.27426786989E+02 -0.81789909807E+02  0.34902122382E+03  0.00000000000E+00 0. -1.
         -4    1    5    5    0  503  0.74822917727E+02  0.10898054199E+02  0.16503280879E+02  0.77392473033E+02  0.00000000000E+00 0.  1.
         -1    1    6    6    0  502 -0.11407880545E+02  0.14101240217E+02  0.19230860009E+02  0.26435027726E+02  0.00000000000E+00 0.  1.
<mgrwt>
<rscale>  0 0.17180657E+04</rscale>
<asrwt>0</asrwt>
<pdfrwt beam="1">  1        1 0.13954646E+00 0.17180657E+04</pdfrwt>
<pdfrwt beam="2">  1       -1 0.12516244E+00 0.17180657E+04</pdfrwt>
<totfact> 0.95189679E+00</totfact>
</mgrwt>
</event>
<event>
12    1  0.1494110E-007  0.1595749E+04  0.7818608E-02  0.8823164E-01
         -2   -1    0    0    0  501 -0.00000000000E+00  0.00000000000E+00  0.23347323923E+03  0.23347323923E+03  0.00000000000E+00 0.  1.
          2   -1    0    0  501    0  0.00000000000E+00 -0.00000000000E+00 -0.27266673783E+04  0.27266673783E+04  0.00000000000E+00 0. -1.
         23    2    1    2    0    0  0.12487535542E+03  0.46289721887E+03 -0.12744942877E+04  0.13642417780E+04  0.83380153218E+02 0.  0.
        254    2    1    2    0    0 -0.12487535542E+03 -0.46289721887E+03 -0.12186998514E+04  0.15958988395E+04  0.91202855685E+03 0.  0.
        -24    2    4    4    0    0 -0.22566437103E+03 -0.35109973896E+03 -0.65372658707E+02  0.42985765629E+03  0.79426602080E+02 0.  0.
         24    2    4    4    0    0  0.10078901560E+03 -0.11179747991E+03 -0.11533271927E+04  0.11660411832E+04  0.82651832329E+02 0.  0.
         11    1    3    3    0    0  0.88441784464E+02  0.29506635109E+03 -0.92281275664E+03  0.97286663249E+03  0.00000000000E+00 0. -1.
        -11    1    3    3    0    0  0.36433570960E+02  0.16783086778E+03 -0.35168153106E+03  0.39137514556E+03  0.00000000000E+00 0.  1.
          4    1    6    6  502    0  0.64909452691E+02 -0.10102212793E+03 -0.10345712888E+04  0.10415164229E+04  0.00000000000E+00 0. -1.
          3    1    5    5  503    0 -0.17455876656E+03 -0.31763887056E+03 -0.67772373359E+02  0.36872524956E+03  0.00000000000E+00 0. -1.
         -4    1    5    5    0  503 -0.51105604473E+02 -0.33460868400E+02  0.23997146518E+01  0.61132406733E+02  0.00000000000E+00 0.  1.
         -3    1    6    6    0  502  0.35879562914E+02 -0.10775351984E+02 -0.11875590383E+03  0.12452476034E+03  0.00000000000E+00 0.  1.
<mgrwt>
<rscale>  0 0.15957492E+04</rscale>
<asrwt>0</asrwt>
<pdfrwt beam="1">  1        2 0.41948729E+00 0.15957492E+04</pdfrwt>
<pdfrwt beam="2">  1       -2 0.35918960E-01 0.15957492E+04</pdfrwt>
<totfact> 0.17964223E+01</totfact>
</mgrwt>
</event>
<event>
12    1  0.1494110E-007  0.1766433E+04  0.7818608E-02  0.8724357E-01
          1   -1    0    0  501    0  0.00000000000E+00  0.00000000000E+00  0.80978439450E+03  0.80978439450E+03  0.00000000000E+00 0. -1.
         -1   -1    0    0    0  501 -0.00000000000E+00 -0.00000000000E+00 -0.96330751641E+03  0.96330751641E+03  0.00000000000E+00 0.  1.
         23    2    1    2    0    0  0.66071100107E+02  0.45864223042E+03 -0.51419434164E+03  0.69824773321E+03  0.91847646459E+02 0.  0.
        254    2    1    2    0    0 -0.66071100107E+02 -0.45864223042E+03  0.36067121973E+03  0.10748441777E+04  0.90027117681E+03 0.  0.
        -24    2    4    4    0    0  0.96420001419E+02 -0.65213222068E+03  0.49969325343E+02  0.66605107298E+03  0.80955842446E+02 0.  0.
         24    2    4    4    0    0 -0.16249110153E+03  0.19348999025E+03  0.31070189439E+03  0.40879310472E+03  0.82063395532E+02 0.  0.
         13    1    3    3    0    0  0.16684995180E+02  0.21235320828E+03 -0.30120235585E+03  0.36891073894E+03  0.00000000000E+00 0.  1.
        -13    1    3    3    0    0  0.49386104927E+02  0.24628902214E+03 -0.21299198579E+03  0.32933699427E+03  0.00000000000E+00 0. -1.
          2    1    6    6  502    0 -0.14961511884E+03  0.16187448221E+03  0.21805874427E+03  0.31006071620E+03  0.00000000000E+00 0. -1.
          1    1    5    5  503    0  0.63199687896E+02 -0.49158050075E+03  0.34945440147E+01  0.49563878087E+03  0.00000000000E+00 0. -1.
         -2    1    5    5    0  503  0.33220313524E+02 -0.16055171993E+03  0.46474781328E+02  0.17041229211E+03  0.00000000000E+00 0.  1.
         -1    1    6    6    0  502 -0.12875982682E+02  0.31615508044E+02  0.92643150122E+02  0.98732388523E+02  0.00000000000E+00 0.  1.
<mgrwt>
<rscale>  0 0.17664330E+04</rscale>
<asrwt>0</asrwt>
<pdfrwt beam="1">  1        1 0.12458221E+00 0.17664330E+04</pdfrwt>
<pdfrwt beam="2">  1       -1 0.14820116E+00 0.17664330E+04</pdfrwt>
<totfact> 0.73950612E+00</totfact>
</mgrwt>
</event>
<event>
12    1  0.1494110E-007  0.1271895E+04  0.7818608E-02  0.9052155E-01
          1   -1    0    0  501    0  0.00000000000E+00  0.00000000000E+00  0.24174315455E+04  0.24174315455E+04  0.00000000000E+00 0. -1.
         -1   -1    0    0    0  501 -0.00000000000E+00 -0.00000000000E+00 -0.16729699764E+03  0.16729699764E+03  0.00000000000E+00 0.  1.
         23    2    1    2    0    0 -0.87651089241E+02  0.14268407859E+02 -0.31957939047E+02  0.13264542706E+03  0.93205142264E+02 0.  0.
        254    2    1    2    0    0  0.87651089241E+02 -0.14268407859E+02  0.22820924869E+04  0.24520831161E+04  0.89268089959E+03 0.  0.
        -24    2    4    4    0    0  0.36691544129E+03 -0.15300462967E+03  0.19419289689E+04  0.19837703965E+04  0.78863856887E+02 0.  0.
         24    2    4    4    0    0 -0.27926435205E+03  0.13873622181E+03  0.34016351801E+03  0.46831271962E+03  0.79807686343E+02 0.  0.
         13    1    3    3    0    0 -0.10752854364E+03  0.15878343936E+02 -0.25083641649E+02  0.11155132712E+03  0.00000000000E+00 0.  1.
        -13    1    3    3    0    0  0.19877454401E+02 -0.16099360765E+01 -0.68742973979E+01  0.21094099942E+02  0.00000000000E+00 0. -1.
          4    1    6    6  502    0 -0.98344092133E+02  0.21112179349E+02  0.15048395056E+03  0.18100470698E+03  0.00000000000E+00 0. -1.
          1    1    5    5  503    0  0.20216931133E+03 -0.10791899324E+03  0.95056494883E+03  0.97779990872E+03  0.00000000000E+00 0. -1.
         -2    1    5    5    0  503  0.16474612996E+03 -0.45085636429E+02  0.99136402011E+03  0.10059704878E+04  0.00000000000E+00 0.  1.
         -3    1    6    6    0  502 -0.18092025992E+03  0.11762404246E+03  0.18967956745E+03  0.28730801263E+03  0.00000000000E+00 0.  1.
<mgrwt>
<rscale>  0 0.12718947E+04</rscale>
<asrwt>0</asrwt>
<pdfrwt beam="1">  1        1 0.37191252E+00 0.12718947E+04</pdfrwt>
<pdfrwt beam="2">  1       -1 0.25738001E-01 0.12718947E+04</pdfrwt>
<totfact> 0.20358069E+01</totfact>
</mgrwt>
</event>
<event>
12    1  0.1494110E-007  0.1312792E+04  0.7818608E-02  0.9019482E-01
          2   -1    0    0  501    0  0.00000000000E+00  0.00000000000E+00  0.30007589234E+04  0.30007589234E+04  0.00000000000E+00 0. -1.
         -2   -1    0    0    0  501 -0.00000000000E+00 -0.00000000000E+00 -0.14358216214E+03  0.14358216214E+03  0.00000000000E+00 0.  1.
         23    2    1    2    0    0 -0.17386110693E+03  0.51481706696E+01  0.69158317271E+02  0.20699443356E+03  0.88372136535E+02 0.  0.
        254    2    1    2    0    0  0.17386110693E+03 -0.51481706696E+01  0.27880184440E+04  0.29373466520E+04  0.90813232612E+03 0.  0.
        -24    2    4    4    0    0  0.20813333148E+03  0.10581213412E+02  0.28305608183E+04  0.28393553252E+04  0.80203931532E+02 0.  0.
         24    2    4    4    0    0 -0.34272224554E+02 -0.15729384082E+02 -0.42542374317E+02  0.97991326824E+02  0.79815083917E+02 0.  0.
         11    1    3    3    0    0 -0.62252159381E+02 -0.26094121307E+01 -0.18355445316E+02  0.64954312805E+02  0.00000000000E+00 0.  1.
        -11    1    3    3    0    0 -0.11160894754E+03  0.77575828003E+01  0.87513762586E+02  0.14204012076E+03  0.00000000000E+00 0. -1.
          4    1    6    6  502    0 -0.40507474838E+02  0.11116573017E+02 -0.53769371458E+02  0.68231803584E+02  0.00000000000E+00 0. -1.
          1    1    5    5  503    0  0.21154875071E+03  0.25166529511E+01  0.27802531790E+04  0.27882910441E+04  0.00000000000E+00 0. -1.
         -2    1    5    5    0  503 -0.34154192306E+01  0.80645604609E+01  0.50307639328E+02  0.51064281046E+02  0.00000000000E+00 0.  1.
         -3    1    6    6    0  502  0.62352502841E+01 -0.26845957099E+02  0.11226997141E+02  0.29759523240E+02  0.00000000000E+00 0.  1.
<mgrwt>
<rscale>  0 0.13127916E+04</rscale>
<asrwt>0</asrwt>
<pdfrwt beam="1">  1        2 0.46165517E+00 0.13127916E+04</pdfrwt>
<pdfrwt beam="2">  1       -2 0.22089566E-01 0.13127916E+04</pdfrwt>
<totfact> 0.30872511E+01</totfact>
</mgrwt>
</event>
<event>
12    1  0.1494110E-007  0.1359814E+04  0.7818608E-02  0.8983432E-01
          2   -1    0    0  501    0  0.00000000000E+00  0.00000000000E+00  0.15257523211E+04  0.15257523211E+04  0.00000000000E+00 0.  1.
         -2   -1    0    0    0  501 -0.00000000000E+00 -0.00000000000E+00 -0.30298077084E+03  0.30298077084E+03  0.00000000000E+00 0. -1.
         23    2    1    2    0    0  0.10814076666E+03 -0.27790526231E+02  0.83722700486E+03  0.84953803502E+03  0.91099267409E+02 0.  0.
        254    2    1    2    0    0 -0.10814076666E+03  0.27790526231E+02  0.38554454537E+03  0.97919505689E+03  0.89314703393E+03 0.  0.
        -24    2    4    4    0    0 -0.25613496740E+03 -0.35433453029E+03  0.57870378547E+02  0.44855951944E+03  0.81844858667E+02 0.  0.
         24    2    4    4    0    0  0.14799420075E+03  0.38212505652E+03  0.32767416682E+03  0.53063553745E+03  0.79258259665E+02 0.  0.
         13    1    3    3    0    0  0.56316519560E+01  0.17773919806E+02  0.36451004955E+02  0.40942685442E+02  0.00000000000E+00 0. -1.
        -13    1    3    3    0    0  0.10250911470E+03 -0.45564446037E+02  0.80077599990E+03  0.80859534958E+03  0.00000000000E+00 0.  1.
          2    1    6    6  502    0 -0.44435033657E+01  0.76833748464E+01  0.22242222063E+02  0.23947764269E+02  0.00000000000E+00 0. -1.
          1    1    5    5  503    0 -0.25805517698E+02 -0.76675229863E+02 -0.98555884298E+01  0.81499375712E+02  0.00000000000E+00 0. -1.
         -2    1    5    5    0  503 -0.23032944970E+03 -0.27765930043E+03  0.67725966977E+02  0.36706014373E+03  0.00000000000E+00 0.  1.
         -1    1    6    6    0  502  0.15243770411E+03  0.37444168167E+03  0.30543194476E+03  0.50668777318E+03  0.00000000000E+00 0.  1.
<mgrwt>
<rscale>  0 0.13598141E+04</rscale>
<asrwt>0</asrwt>
<pdfrwt beam="1">  1        2 0.23473112E+00 0.13598141E+04</pdfrwt>
<pdfrwt beam="2">  1       -2 0.46612427E-01 0.13598141E+04</pdfrwt>
<totfact> 0.52269530E+01</totfact>
</mgrwt>
</event>
<event>
12    1  0.1494110E-007  0.1410747E+04  0.7818608E-02  0.8946076E-01
         -2   -1    0    0    0  501 -0.00000000000E+00  0.00000000000E+00  0.17083040534E+04  0.17083040534E+04  0.00000000000E+00 0.  1.
          2   -1    0    0  501    0  0.00000000000E+00 -0.00000000000E+00 -0.29125482503E+03  0.29125482503E+03  0.00000000000E+00 0. -1.
         23    2    1    2    0    0  0.17517730269E+03  0.35904789049E+03  0.29585072708E+03  0.50555066381E+03  0.91931202141E+02 0.  0.
        254    2    1    2    0    0 -0.17517730269E+03 -0.35904789049E+03  0.11211985013E+04  0.14940082146E+04  0.90297950750E+03 0.  0.
        -24    2    4    4    0    0  0.64347678095E+02  0.12494958379E+02  0.10305178935E+04  0.10358810191E+04  0.82374809096E+02 0.  0.
         24    2    4    4    0    0 -0.23952498079E+03 -0.37154284886E+03  0.90680607759E+02  0.45812719551E+03  0.79001580258E+02 0.  0.
         11    1    3    3    0    0  0.17968732809E+03  0.36189834365E+03  0.28854399390E+03  0.49650335692E+03  0.00000000000E+00 0. -1.
        -11    1    3    3    0    0 -0.45100253998E+01 -0.28504531636E+01  0.73067331750E+01  0.90473068941E+01  0.00000000000E+00 0.  1.
          4    1    6    6  502    0 -0.23905027013E+03 -0.36387239171E+03  0.99328162960E+02  0.44655820792E+03  0.00000000000E+00 0. -1.
          1    1    5    5  503    0  0.77846200445E+02  0.29611641956E+02  0.84066363925E+03  0.84477939997E+03  0.00000000000E+00 0. -1.
         -2    1    5    5    0  503 -0.13498522350E+02 -0.17116683577E+02  0.18985425425E+03  0.19110161910E+03  0.00000000000E+00 0.  1.
         -3    1    6    6    0  502 -0.47471065879E+00 -0.76704571497E+01 -0.86475552010E+01  0.11568987598E+02  0.00000000000E+00 0.  1.
<mgrwt>
<rscale>  0 0.14107470E+04</rscale>
<asrwt>0</asrwt>
<pdfrwt beam="1">  1        2 0.44808436E-01 0.14107470E+04</pdfrwt>
<pdfrwt beam="2">  1       -2 0.26281600E+00 0.14107470E+04</pdfrwt>
<totfact> 0.59291074E+00</totfact>
</mgrwt>
</event>
<event>
12    1  0.1494110E-007  0.1423462E+04  0.7818608E-02  0.8937009E-01
         -2   -1    0    0    0  501 -0.00000000000E+00  0.00000000000E+00  0.74917117701E+03  0.74917117701E+03  0.00000000000E+00 0. -1.
          2   -1    0    0  501    0  0.00000000000E+00 -0.00000000000E+00 -0.67616177195E+03  0.67616177195E+03  0.00000000000E+00 0.  1.
         23    2    1    2    0    0  0.38955202160E+03 -0.68313329654E+02 -0.11626009479E+03  0.42191648060E+03  0.89886697702E+02 0.  0.
        254    2    1    2    0    0 -0.38955202160E+03  0.68313329654E+02  0.18926949985E+03  0.10034164684E+04  0.90255425147E+03 0.  0.
        -24    2    4    4    0    0 -0.27160621059E+03 -0.37711298267E+03 -0.56802547584E+02  0.47506860494E+03  0.80495432548E+02 0.  0.
         24    2    4    4    0    0 -0.11794581101E+03  0.44542631232E+03  0.24607204743E+03  0.52834786341E+03  0.79272934870E+02 0.  0.
         13    1    3    3    0    0  0.76566792866E+01  0.38950672224E+01 -0.19622652665E+02  0.21420662548E+02  0.00000000000E+00 0. -1.
        -13    1    3    3    0    0  0.38189534231E+03 -0.72208396876E+02 -0.96637442120E+02  0.40049581805E+03  0.00000000000E+00 0.  1.
          2    1    6    6  502    0 -0.25011453406E+02  0.24186629193E+03  0.14171558447E+03  0.28143948347E+03  0.00000000000E+00 0. -1.
          1    1    5    5  503    0 -0.15885860809E+03 -0.15779318115E+03 -0.10484975860E+02  0.22415325137E+03  0.00000000000E+00 0. -1.
         -2    1    5    5    0  503 -0.11274760250E+03 -0.21931980151E+03 -0.46317571724E+02  0.25091535357E+03  0.00000000000E+00 0.  1.
         -1    1    6    6    0  502 -0.92934357601E+02  0.20356002039E+03  0.10435646296E+03  0.24690837994E+03  0.00000000000E+00 0.  1.
<mgrwt>
<rscale>  0 0.14234619E+04</rscale>
<asrwt>0</asrwt>
<pdfrwt beam="1">  1        2 0.10402489E+00 0.14234619E+04</pdfrwt>
<pdfrwt beam="2">  1       -2 0.11525710E+00 0.14234619E+04</pdfrwt>
<totfact> 0.24388964E+01</totfact>
</mgrwt>
</event>
<event>
12    1  0.1494110E-007  0.3984330E+04  0.7818608E-02  0.8007715E-01
          1   -1    0    0  501    0  0.00000000000E+00  0.00000000000E+00  0.29899736664E+04  0.29899736664E+04  0.00000000000E+00 0. -1.
         -1   -1    0    0    0  501 -0.00000000000E+00 -0.00000000000E+00 -0.13273433750E+04  0.13273433750E+04  0.00000000000E+00 0.  1.
         23    2    1    2    0    0  0.11766887136E+04  0.54370177143E+03  0.22803266987E+04  0.26246775319E+04  0.93991215130E+02 0.  0.
        254    2    1    2    0    0 -0.11766887136E+04 -0.54370177143E+03 -0.61769640733E+03  0.16926395096E+04  0.89625426788E+03 0.  0.
        -24    2    4    4    0    0 -0.51675282808E+03  0.95465146016E+02 -0.55570121423E+03  0.76837330969E+03  0.73801247445E+02 0.  0.
         24    2    4    4    0    0 -0.65993588554E+03 -0.63916691745E+03 -0.61995193102E+02  0.92426619987E+03  0.79842863637E+02 0.  0.
         11    1    3    3    0    0  0.79339979698E+03  0.40414332049E+03  0.16180223560E+04  0.18468382186E+04  0.00000000000E+00 0. -1.
        -11    1    3    3    0    0  0.38328891663E+03  0.13955845094E+03  0.66230434275E+03  0.77783931327E+03  0.00000000000E+00 0.  1.
          2    1    6    6  502    0 -0.28147926835E+03 -0.25789161193E+03 -0.63776618455E+02  0.38704795449E+03  0.00000000000E+00 0. -1.
          3    1    5    5  503    0 -0.48257309854E+03  0.10660815079E+03 -0.52593802385E+03  0.72170139128E+03  0.00000000000E+00 0. -1.
         -4    1    5    5    0  503 -0.34179729534E+02 -0.11143004771E+02 -0.29763190375E+02  0.46671918406E+02  0.00000000000E+00 0.  1.
         -1    1    6    6    0  502 -0.37845661719E+03 -0.38127530552E+03  0.17814253530E+01  0.53721824538E+03  0.00000000000E+00 0.  1.
<mgrwt>
<rscale>  0 0.39843302E+04</rscale>
<asrwt>0</asrwt>
<pdfrwt beam="1">  1        1 0.45999595E+00 0.39843302E+04</pdfrwt>
<pdfrwt beam="2">  1       -1 0.20420667E+00 0.39843302E+04</pdfrwt>
<totfact> 0.67041658E-02</totfact>
</mgrwt>
</event>
<event>
12    1  0.1494110E-007  0.1727134E+04  0.7818608E-02  0.8746038E-01
          2   -1    0    0  501    0  0.00000000000E+00  0.00000000000E+00  0.11015358241E+04  0.11015358241E+04  0.00000000000E+00 0. -1.
         -2   -1    0    0    0  501 -0.00000000000E+00 -0.00000000000E+00 -0.67700739480E+03  0.67700739480E+03  0.00000000000E+00 0.  1.
         23    2    1    2    0    0 -0.32936972920E+03 -0.17896548984E+03  0.66706905106E+03  0.77080405489E+03  0.92976916943E+02 0.  0.
        254    2    1    2    0    0  0.32936972920E+03  0.17896548984E+03 -0.24254062176E+03  0.10077391640E+04  0.90343743803E+03 0.  0.
        -24    2    4    4    0    0 -0.87827320030E+02 -0.30584061985E+03 -0.13263172110E+03  0.35394763500E+03  0.80222390820E+02 0.  0.
         24    2    4    4    0    0  0.41719704923E+03  0.48480610969E+03 -0.10990890065E+03  0.65379152902E+03  0.79202620503E+02 0.  0.
         11    1    3    3    0    0 -0.12630935985E+03 -0.90194202002E+02  0.19438085400E+03  0.24874276846E+03  0.00000000000E+00 0.  1.
        -11    1    3    3    0    0 -0.20306036935E+03 -0.88771287838E+02  0.47268819706E+03  0.52206128643E+03  0.00000000000E+00 0. -1.
          2    1    6    6  502    0  0.23154063788E+03  0.21646679825E+03 -0.74217579895E+02  0.32554138124E+03  0.00000000000E+00 0. -1.
          1    1    5    5  503    0 -0.42612214566E+02 -0.85550022577E+02 -0.57690684181E+01  0.95749095785E+02  0.00000000000E+00 0. -1.
         -2    1    5    5    0  503 -0.45215105463E+02 -0.22029059727E+03 -0.12686265269E+03  0.25819853922E+03  0.00000000000E+00 0.  1.
         -1    1    6    6    0  502  0.18565641135E+03  0.26833931143E+03 -0.35691320757E+02  0.32825014778E+03  0.00000000000E+00 0.  1.
<mgrwt>
<rscale>  0 0.17271339E+04</rscale>
<asrwt>0</asrwt>
<pdfrwt beam="1">  1        2 0.16946705E+00 0.17271339E+04</pdfrwt>
<pdfrwt beam="2">  1       -2 0.10415498E+00 0.17271339E+04</pdfrwt>
<totfact> 0.15473095E+01</totfact>
</mgrwt>
</event>
<event>
12    1  0.1494110E-007  0.1456907E+04  0.7818608E-02  0.8913626E-01
          2   -1    0    0  501    0  0.00000000000E+00  0.00000000000E+00  0.19533040858E+04  0.19533040858E+04  0.00000000000E+00 0.  1.
         -2   -1    0    0    0  501 -0.00000000000E+00 -0.00000000000E+00 -0.27166517741E+03  0.27166517741E+03  0.00000000000E+00 0. -1.
         23    2    1    2    0    0 -0.12358367237E+03  0.11390177127E+03 -0.99135349885E+02  0.21758853314E+03  0.96282992186E+02 0.  0.
        254    2    1    2    0    0  0.12358367237E+03 -0.11390177127E+03  0.17807742583E+04  0.20073807301E+04  0.91113879238E+03 0.  0.
        -24    2    4    4    0    0 -0.92398143128E+02 -0.27957677170E+03  0.13222268007E+03  0.33457616869E+03  0.88078302686E+02 0.  0.
         24    2    4    4    0    0  0.21598181550E+03  0.16567500044E+03  0.16485515782E+04  0.16728045614E+04  0.80352001756E+02 0.  0.
         11    1    3    3    0    0 -0.13844904970E+02  0.29753897662E+02 -0.68489455396E+02  0.75945910490E+02  0.00000000000E+00 0.  1.
        -11    1    3    3    0    0 -0.10973876740E+03  0.84147873604E+02 -0.30645894488E+02  0.14164262265E+03  0.00000000000E+00 0. -1.
          2    1    6    6  502    0  0.10328228233E+02  0.37122808976E+02  0.15670068294E+03  0.16136876798E+03  0.00000000000E+00 0. -1.
          1    1    5    5  503    0  0.16794827231E+02 -0.30117280955E+02  0.87277717709E+01  0.35570926808E+02  0.00000000000E+00 0. -1.
         -2    1    5    5    0  503 -0.10919297036E+03 -0.24945949075E+03  0.12349490830E+03  0.29900524189E+03  0.00000000000E+00 0.  1.
         -1    1    6    6    0  502  0.20565358727E+03  0.12855219146E+03  0.14918508953E+04  0.15114357934E+04  0.00000000000E+00 0.  1.
<mgrwt>
<rscale>  0 0.14569073E+04</rscale>
<asrwt>0</asrwt>
<pdfrwt beam="1">  1        2 0.30050831E+00 0.14569073E+04</pdfrwt>
<pdfrwt beam="2">  1       -2 0.41794644E-01 0.14569073E+04</pdfrwt>
<totfact> 0.37308629E+01</totfact>
</mgrwt>
</event>
<event>
12    1  0.1494110E-007  0.2583389E+04  0.7818608E-02  0.8373866E-01
          1   -1    0    0  501    0  0.00000000000E+00  0.00000000000E+00  0.31321955192E+04  0.31321955192E+04  0.00000000000E+00 0. -1.
         -1   -1    0    0    0  501 -0.00000000000E+00 -0.00000000000E+00 -0.53268531615E+03  0.53268531615E+03  0.00000000000E+00 0.  1.
         23    2    1    2    0    0  0.40552490409E+03  0.54972934640E+03 -0.13910596049E+03  0.70309783903E+03  0.91341671048E+02 0.  0.
        254    2    1    2    0    0 -0.40552490409E+03 -0.54972934640E+03  0.27386161635E+04  0.29617829963E+04  0.89748940050E+03 0.  0.
        -24    2    4    4    0    0 -0.62615192425E+03 -0.14886848239E+03  0.13524062698E+04  0.14999184917E+04  0.80775652512E+02 0.  0.
         24    2    4    4    0    0  0.22062702016E+03 -0.40086086401E+03  0.13862098937E+04  0.14618645046E+04  0.78129673543E+02 0.  0.
         11    1    3    3    0    0  0.79556910698E+02  0.84492751889E+02  0.78873326532E+01  0.11632083725E+03  0.00000000000E+00 0. -1.
        -11    1    3    3    0    0  0.32596799339E+03  0.46523659451E+03 -0.14699329314E+03  0.58677700178E+03  0.00000000000E+00 0.  1.
          4    1    6    6  502    0  0.36181535848E+02 -0.12111874954E+03  0.31297254086E+03  0.33753617044E+03  0.00000000000E+00 0. -1.
          1    1    5    5  503    0 -0.14154259969E+02 -0.64177391956E+01  0.71757330891E+02  0.73421011899E+02  0.00000000000E+00 0. -1.
         -2    1    5    5    0  503 -0.61199766428E+03 -0.14245074319E+03  0.12806489389E+04  0.14264974798E+04  0.00000000000E+00 0.  1.
         -3    1    6    6    0  502  0.18444548431E+03 -0.27974211448E+03  0.10732373529E+04  0.11243283341E+04  0.00000000000E+00 0.  1.
<mgrwt>
<rscale>  0 0.25833889E+04</rscale>
<asrwt>0</asrwt>
<pdfrwt beam="1">  1        1 0.48187622E+00 0.25833889E+04</pdfrwt>
<pdfrwt beam="2">  1       -1 0.81951589E-01 0.25833889E+04</pdfrwt>
<totfact> 0.62408556E-01</totfact>
</mgrwt>
</event>
<event>
12    1  0.1494110E-007  0.1204178E+04  0.7818608E-02  0.9109207E-01
          2   -1    0    0  501    0  0.00000000000E+00  0.00000000000E+00  0.31260820417E+04  0.31260820417E+04  0.00000000000E+00 0. -1.
         -2   -1    0    0    0  501 -0.00000000000E+00 -0.00000000000E+00 -0.11596340384E+03  0.11596340384E+03  0.00000000000E+00 0.  1.
         23    2    1    2    0    0  0.19602227773E+03  0.12732096748E+03  0.29626895988E+03  0.38831721927E+03  0.91540177343E+02 0.  0.
        254    2    1    2    0    0 -0.19602227773E+03 -0.12732096748E+03  0.27138496780E+04  0.28537282263E+04  0.85096965431E+03 0.  0.
        -24    2    4    4    0    0  0.29610027993E+02  0.14505683819E+03  0.63933670128E+02  0.17910430675E+03  0.77926878909E+02 0.  0.
         24    2    4    4    0    0 -0.22563230572E+03 -0.27237780568E+03  0.26499160079E+04  0.26746239196E+04  0.80365762114E+02 0.  0.
         13    1    3    3    0    0  0.84501107801E+02  0.43157749167E+02  0.19138404198E+03  0.21361385736E+03  0.00000000000E+00 0. -1.
        -13    1    3    3    0    0  0.11152116993E+03  0.84163218318E+02  0.10488491790E+03  0.17470336191E+03  0.00000000000E+00 0.  1.
          4    1    6    6  502    0 -0.13054261096E+02 -0.46899249861E+02  0.24188811804E+03  0.24673835336E+03  0.00000000000E+00 0. -1.
          1    1    5    5  503    0  0.42268220689E+01  0.19107843181E+02  0.45212641885E+02  0.49266202229E+02  0.00000000000E+00 0. -1.
         -4    1    5    5    0  503  0.25383205924E+02  0.12594899501E+03  0.18721028243E+02  0.12983810452E+03  0.00000000000E+00 0.  1.
         -3    1    6    6    0  502 -0.21257804463E+03 -0.22547855582E+03  0.24080278899E+04  0.24278855662E+04  0.00000000000E+00 0.  1.
<mgrwt>
<rscale>  0 0.12041779E+04</rscale>
<asrwt>0</asrwt>
<pdfrwt beam="1">  1        2 0.48093563E+00 0.12041779E+04</pdfrwt>
<pdfrwt beam="2">  1       -2 0.17840526E-01 0.12041779E+04</pdfrwt>
<totfact> 0.37905346E+01</totfact>
</mgrwt>
</event>
<event>
12    1  0.1494110E-007  0.1780606E+04  0.7818608E-02  0.8716682E-01
         -1   -1    0    0    0  501 -0.00000000000E+00  0.00000000000E+00  0.98097724262E+03  0.98097724262E+03  0.00000000000E+00 0.  1.
          1   -1    0    0  501    0  0.00000000000E+00 -0.00000000000E+00 -0.80800989720E+03  0.80800989720E+03  0.00000000000E+00 0. -1.
         23    2    1    2    0    0  0.13468455776E+03  0.28218794223E+03 -0.51557339067E+03  0.60918353421E+03  0.86710393505E+02 0.  0.
        254    2    1    2    0    0 -0.13468455776E+03 -0.28218794223E+03  0.68854073609E+03  0.11798036056E+04  0.90558171234E+03 0.  0.
        -24    2    4    4    0    0  0.12181312618E+03 -0.51252673022E+03  0.18398250333E+03  0.56357590009E+03  0.79032567599E+02 0.  0.
         24    2    4    4    0    0 -0.25649768393E+03  0.23033878798E+03  0.50455823277E+03  0.61622770552E+03  0.79439006113E+02 0.  0.
         11    1    3    3    0    0  0.14706340862E+03  0.26062189349E+03 -0.48323279241E+03  0.56838837883E+03  0.00000000000E+00 0. -1.
        -11    1    3    3    0    0 -0.12378850860E+02  0.21566048741E+02 -0.32340598257E+02  0.40795155381E+02  0.00000000000E+00 0.  1.
          2    1    6    6  502    0 -0.19634334364E+03  0.16810761925E+03  0.31234249186E+03  0.40542411431E+03  0.00000000000E+00 0. -1.
          3    1    5    5  503    0  0.13178607865E+03 -0.44310350898E+03  0.16582756810E+03  0.49112836666E+03  0.00000000000E+00 0. -1.
         -4    1    5    5    0  503 -0.99729524683E+01 -0.69423221231E+02  0.18154935224E+02  0.72447533429E+02  0.00000000000E+00 0.  1.
         -1    1    6    6    0  502 -0.60154340295E+02  0.62231168728E+02  0.19221574090E+03  0.21080359121E+03  0.00000000000E+00 0.  1.
<mgrwt>
<rscale>  0 0.17806059E+04</rscale>
<asrwt>0</asrwt>
<pdfrwt beam="1">  1        1 0.12430921E+00 0.17806059E+04</pdfrwt>
<pdfrwt beam="2">  1       -1 0.15091958E+00 0.17806059E+04</pdfrwt>
<totfact> 0.70577863E+00</totfact>
</mgrwt>
</event>
<event>
12    1  0.1494110E-007  0.1386659E+04  0.7818608E-02  0.8963532E-01
         -2   -1    0    0    0  501 -0.00000000000E+00  0.00000000000E+00  0.23857486932E+03  0.23857486932E+03  0.00000000000E+00 0.  1.
          2   -1    0    0  501    0  0.00000000000E+00 -0.00000000000E+00 -0.20149061326E+04  0.20149061326E+04  0.00000000000E+00 0. -1.
         23    2    1    2    0    0  0.78098882352E+02  0.36537429057E+03 -0.70273460940E+03  0.80087100851E+03  0.89222381692E+02 0.  0.
        254    2    1    2    0    0 -0.78098882352E+02 -0.36537429057E+03 -0.10735966539E+04  0.14526099934E+04  0.90436066374E+03 0.  0.
        -24    2    4    4    0    0  0.11013882501E+03 -0.60399810159E+03 -0.90424198251E+03  0.10958230828E+04  0.78932873194E+02 0.  0.
         24    2    4    4    0    0 -0.18823770737E+03  0.23862381102E+03 -0.16935467141E+03  0.35678691060E+03  0.79000868246E+02 0.  0.
         13    1    3    3    0    0  0.51154346338E+02  0.10217458972E+03 -0.27673817579E+03  0.29940012003E+03  0.00000000000E+00 0.  1.
        -13    1    3    3    0    0  0.26944536013E+02  0.26319970085E+03 -0.42599643361E+03  0.50147088848E+03  0.00000000000E+00 0. -1.
          2    1    6    6  502    0 -0.12509637328E+03  0.15203983866E+03 -0.15086184427E+03  0.24804134979E+03  0.00000000000E+00 0. -1.
          3    1    5    5  503    0  0.37229269835E+02 -0.11106576575E+03 -0.12899435503E+03  0.17424455941E+03  0.00000000000E+00 0. -1.
         -4    1    5    5    0  503  0.72909555179E+02 -0.49293233584E+03 -0.77524762748E+03  0.92157852344E+03  0.00000000000E+00 0.  1.
         -1    1    6    6    0  502 -0.63141334087E+02  0.86583972363E+02 -0.18492827141E+02  0.10874556081E+03  0.00000000000E+00 0.  1.
<mgrwt>
<rscale>  0 0.13866592E+04</rscale>
<asrwt>0</asrwt>
<pdfrwt beam="1">  1        2 0.30998556E+00 0.13866592E+04</pdfrwt>
<pdfrwt beam="2">  1       -2 0.36703826E-01 0.13866592E+04</pdfrwt>
<totfact> 0.44678258E+01</totfact>
</mgrwt>
</event>
<event>
12    1  0.1494110E-007  0.1350022E+04  0.7818608E-02  0.8990811E-01
         -2   -1    0    0    0  501 -0.00000000000E+00  0.00000000000E+00  0.23350211473E+03  0.23350211473E+03  0.00000000000E+00 0.  1.
          2   -1    0    0  501    0  0.00000000000E+00 -0.00000000000E+00 -0.19513306339E+04  0.19513306339E+04  0.00000000000E+00 0. -1.
         23    2    1    2    0    0  0.78737339242E+02  0.45766059406E+02  0.89986573453E+02  0.16797185420E+03  0.10873297392E+03 0.  0.
        254    2    1    2    0    0 -0.78737339242E+02 -0.45766059406E+02 -0.18078150926E+04  0.20168608944E+04  0.88951579951E+03 0.  0.
        -24    2    4    4    0    0 -0.44476873590E+03 -0.18822521353E+03 -0.90294104375E+03  0.10276325397E+04  0.86476290259E+02 0.  0.
         24    2    4    4    0    0  0.36603139666E+03  0.14245915412E+03 -0.90487404887E+03  0.98922835470E+03  0.74176138283E+02 0.  0.
         11    1    3    3    0    0 -0.15259029916E+02 -0.85355145906E+01 -0.10208080428E+02  0.20245935626E+02  0.00000000000E+00 0. -1.
        -11    1    3    3    0    0  0.93996369159E+02  0.54301573997E+02  0.10019465388E+03  0.14772591858E+03  0.00000000000E+00 0.  1.
          2    1    6    6  502    0  0.37543274228E+02 -0.71543326019E+01 -0.72394580702E+02  0.81863650235E+02  0.00000000000E+00 0. -1.
          1    1    5    5  503    0 -0.21382169530E+03 -0.58300836699E+02 -0.34646768043E+03  0.41128889910E+03  0.00000000000E+00 0. -1.
         -2    1    5    5    0  503 -0.23094704060E+03 -0.12992437683E+03 -0.55647336332E+03  0.61634364063E+03  0.00000000000E+00 0.  1.
         -1    1    6    6    0  502  0.32848812243E+03  0.14961348672E+03 -0.83247946817E+03  0.90736470446E+03  0.00000000000E+00 0.  1.
<mgrwt>
<rscale>  0 0.13500220E+04</rscale>
<asrwt>0</asrwt>
<pdfrwt beam="1">  1        2 0.30020473E+00 0.13500220E+04</pdfrwt>
<pdfrwt beam="2">  1       -2 0.35923400E-01 0.13500220E+04</pdfrwt>
<totfact> 0.50642598E+01</totfact>
</mgrwt>
</event>
<event>
12    1  0.1494110E-007  0.2118702E+04  0.7818608E-02  0.8553050E-01
         -2   -1    0    0    0  501 -0.00000000000E+00  0.00000000000E+00  0.13496610632E+04  0.13496610632E+04  0.00000000000E+00 0. -1.
          2   -1    0    0  501    0  0.00000000000E+00 -0.00000000000E+00 -0.83148586643E+03  0.83148586643E+03  0.00000000000E+00 0.  1.
         23    2    1    2    0    0  0.14955860473E+03 -0.85515760230E+03  0.20413430665E+03  0.89641950120E+03  0.90745831632E+02 0.  0.
        254    2    1    2    0    0 -0.14955860473E+03  0.85515760230E+03  0.31404089016E+03  0.12847274285E+04  0.89344310605E+03 0.  0.
        -24    2    4    4    0    0 -0.38227528249E+03  0.10184402901E+03 -0.61072210960E+02  0.40802395605E+03  0.79038825361E+02 0.  0.
         24    2    4    4    0    0  0.23271667775E+03  0.75331357329E+03  0.37511310112E+03  0.87670347242E+03  0.79124889390E+02 0.  0.
         13    1    3    3    0    0  0.14388632100E+03 -0.84816344645E+03  0.21016554039E+03  0.88558119878E+03  0.00000000000E+00 0.  1.
        -13    1    3    3    0    0  0.56722837366E+01 -0.69941558494E+01 -0.60312337451E+01  0.10838302419E+02  0.00000000000E+00 0. -1.
          4    1    6    6  502    0  0.80734209481E+02  0.28316733300E+03  0.18228499859E+03  0.34630849220E+03  0.00000000000E+00 0. -1.
          3    1    5    5  503    0 -0.29868344044E+03  0.68435543680E+02 -0.78530063195E+02  0.31632608501E+03  0.00000000000E+00 0. -1.
         -4    1    5    5    0  503 -0.83591842045E+02  0.33408485333E+02  0.17457852235E+02  0.91697871041E+02  0.00000000000E+00 0.  1.
         -3    1    6    6    0  502  0.15198246827E+03  0.47014624029E+03  0.19282810252E+03  0.53039498022E+03  0.00000000000E+00 0.  1.
<mgrwt>
<rscale>  0 0.21187016E+04</rscale>
<asrwt>0</asrwt>
<pdfrwt beam="1">  1        2 0.12792090E+00 0.21187016E+04</pdfrwt>
<pdfrwt beam="2">  1       -2 0.20764016E+00 0.21187016E+04</pdfrwt>
<totfact> 0.35672908E+00</totfact>
</mgrwt>
</event>
<event>
12    1  0.1494110E-007  0.2678250E+04  0.7818608E-02  0.8342097E-01
          2   -1    0    0  501    0  0.00000000000E+00  0.00000000000E+00  0.10747670910E+04  0.10747670910E+04  0.00000000000E+00 0. -1.
         -2   -1    0    0    0  501 -0.00000000000E+00 -0.00000000000E+00 -0.16685058250E+04  0.16685058250E+04  0.00000000000E+00 0.  1.
         23    2    1    2    0    0  0.10831261133E+04  0.44833852279E+03 -0.30462515520E+02  0.11761680867E+04  0.90960403827E+02 0.  0.
        254    2    1    2    0    0 -0.10831261133E+04 -0.44833852279E+03 -0.56327621851E+03  0.15671048292E+04  0.87428132713E+03 0.  0.
        -24    2    4    4    0    0 -0.84357111848E+03 -0.18087848932E+03 -0.75841808575E+03  0.11516200197E+04  0.81862183483E+02 0.  0.
         24    2    4    4    0    0 -0.23955499484E+03 -0.26746003348E+03  0.19514186724E+03  0.41548480952E+03  0.75005423356E+02 0.  0.
         13    1    3    3    0    0  0.84334683610E+02  0.10030092544E+02  0.19901635791E+01  0.84952353511E+02  0.00000000000E+00 0.  1.
        -13    1    3    3    0    0  0.99879142971E+03  0.43830843025E+03 -0.32452679099E+02  0.10912157332E+04  0.00000000000E+00 0. -1.
          2    1    6    6  502    0 -0.20074306019E+03 -0.19932372335E+03  0.12139132453E+03  0.30783693180E+03  0.00000000000E+00 0. -1.
          3    1    5    5  503    0 -0.50200241419E+03 -0.14297758825E+03 -0.48404919656E+03  0.71186560479E+03  0.00000000000E+00 0. -1.
         -4    1    5    5    0  503 -0.34156870429E+03 -0.37900901068E+02 -0.27436888920E+03  0.43975441488E+03  0.00000000000E+00 0.  1.
         -1    1    6    6    0  502 -0.38811934645E+02 -0.68136310123E+02  0.73750542713E+02  0.10764787772E+03  0.00000000000E+00 0.  1.
<mgrwt>
<rscale>  0 0.26782495E+04</rscale>
<asrwt>0</asrwt>
<pdfrwt beam="1">  1        2 0.16534878E+00 0.26782495E+04</pdfrwt>
<pdfrwt beam="2">  1       -2 0.25669320E+00 0.26782495E+04</pdfrwt>
<totfact> 0.11603221E+00</totfact>
</mgrwt>
</event>
<event>
12    1  0.1494110E-007  0.1609896E+04  0.7818608E-02  0.8814492E-01
         -1   -1    0    0    0  501 -0.00000000000E+00  0.00000000000E+00  0.70652478158E+03  0.70652478158E+03  0.00000000000E+00 0.  1.
          1   -1    0    0  501    0  0.00000000000E+00 -0.00000000000E+00 -0.91708204325E+03  0.91708204325E+03  0.00000000000E+00 0. -1.
         23    2    1    2    0    0  0.11949990191E+03  0.21258345071E+03 -0.56411900110E+03  0.62133081791E+03  0.91377173412E+02 0.  0.
        254    2    1    2    0    0 -0.11949990191E+03 -0.21258345071E+03  0.35356173942E+03  0.10022760069E+04  0.90558232115E+03 0.  0.
        -24    2    4    4    0    0  0.16250585546E+03 -0.16443382974E+03  0.57890405185E+03  0.62951063710E+03  0.87790110802E+02 0.  0.
         24    2    4    4    0    0 -0.28200575736E+03 -0.48149620970E+02 -0.22534231243E+03  0.37276536982E+03  0.79556457809E+02 0.  0.
         11    1    3    3    0    0  0.13202370518E+03  0.20774868361E+03 -0.54455881197E+03  0.59760695609E+03  0.00000000000E+00 0. -1.
        -11    1    3    3    0    0 -0.12523803272E+02  0.48347671016E+01 -0.19560189124E+02  0.23723861825E+02  0.00000000000E+00 0.  1.
          4    1    6    6  502    0 -0.41886464047E+02  0.16173120147E+02 -0.56918838738E+02  0.72496895719E+02  0.00000000000E+00 0. -1.
          3    1    5    5  503    0  0.83836837443E+02 -0.77258292260E+02  0.17480432824E+03  0.20869598034E+03  0.00000000000E+00 0. -1.
         -4    1    5    5    0  503  0.78669018012E+02 -0.87175537479E+02  0.40409972361E+03  0.42081465676E+03  0.00000000000E+00 0.  1.
         -3    1    6    6    0  502 -0.24011929332E+03 -0.64322741116E+02 -0.16842347369E+03  0.30026847410E+03  0.00000000000E+00 0.  1.
<mgrwt>
<rscale>  0 0.16098959E+04</rscale>
<asrwt>0</asrwt>
<pdfrwt beam="1">  1        1 0.14108955E+00 0.16098959E+04</pdfrwt>
<pdfrwt beam="2">  1       -1 0.10869612E+00 0.16098959E+04</pdfrwt>
<totfact> 0.13265120E+01</totfact>
</mgrwt>
</event>
<event>
12    1  0.1532362E-007  0.1852646E+04  0.7818608E-02  0.8678793E-01
         -1   -1    0    0    0  501 -0.00000000000E+00  0.00000000000E+00  0.40595185248E+03  0.40595185248E+03  0.00000000000E+00 0.  1.
          1   -1    0    0  501    0  0.00000000000E+00 -0.00000000000E+00 -0.21137345073E+04  0.21137345073E+04  0.00000000000E+00 0. -1.
         23    2    1    2    0    0 -0.13640810800E+03  0.68363053986E+03 -0.60348084282E+03  0.92901267159E+03  0.11365530941E+03 0.  0.
        254    2    1    2    0    0  0.13640810800E+03 -0.68363053986E+03 -0.11043018120E+04  0.15906736882E+04  0.90818632634E+03 0.  0.
        -24    2    4    4    0    0  0.46987473804E+03 -0.13440682119E+03 -0.42864628205E+03  0.65486506437E+03  0.79140093375E+02 0.  0.
         24    2    4    4    0    0 -0.33346663004E+03 -0.54922371867E+03 -0.67565552992E+03  0.93580862380E+03  0.79879276212E+02 0.  0.
         13    1    3    3    0    0 -0.80799363946E+02  0.32727901470E+03 -0.36377794383E+03  0.49595814652E+03  0.00000000000E+00 0. -1.
        -13    1    3    3    0    0 -0.55608744050E+02  0.35635152516E+03 -0.23970289899E+03  0.43305452507E+03  0.00000000000E+00 0.  1.
          4    1    6    6  502    0 -0.19179847980E+02 -0.52884277217E+02 -0.33527040366E+02  0.65487981958E+02  0.00000000000E+00 0. -1.
          3    1    5    5  503    0  0.18710501355E+02 -0.69124497582E+01 -0.49958462471E+00  0.19952804500E+02  0.00000000000E+00 0. -1.
         -4    1    5    5    0  503  0.45116423668E+03 -0.12749437144E+03 -0.42814669743E+03  0.63491225987E+03  0.00000000000E+00 0.  1.
         -3    1    6    6    0  502 -0.31428678206E+03 -0.49633944145E+03 -0.64212848956E+03  0.87032064184E+03  0.00000000000E+00 0.  1.
<mgrwt>
<rscale>  0 0.18526461E+04</rscale>
<asrwt>0</asrwt>
<pdfrwt beam="1">  1        1 0.32518992E+00 0.18526461E+04</pdfrwt>
<pdfrwt beam="2">  1       -1 0.62454131E-01 0.18526461E+04</pdfrwt>
<totfact> 0.60937891E+00</totfact>
</mgrwt>
</event>
<event>
12    1  0.1494110E-007  0.1486499E+04  0.7818608E-02  0.8893481E-01
         -1   -1    0    0    0  501 -0.00000000000E+00  0.00000000000E+00  0.19811607220E+03  0.19811607220E+03  0.00000000000E+00 0.  1.
          1   -1    0    0  501    0  0.00000000000E+00 -0.00000000000E+00 -0.27883661589E+04  0.27883661589E+04  0.00000000000E+00 0. -1.
         23    2    1    2    0    0  0.11709781721E+03 -0.44161761888E+03 -0.10403581008E+04  0.11399031631E+04  0.91083606585E+02 0.  0.
        254    2    1    2    0    0 -0.11709781721E+03  0.44161761888E+03 -0.15498919859E+04  0.18465790679E+04  0.89384062677E+03 0.  0.
        -24    2    4    4    0    0  0.94716337315E+02 -0.18804100404E+03 -0.94648732457E+02  0.24472749993E+03  0.81256156143E+02 0.  0.
         24    2    4    4    0    0 -0.21181415452E+03  0.62965862292E+03 -0.14552432535E+04  0.16018515680E+04  0.82826938511E+02 0.  0.
         11    1    3    3    0    0  0.61085507983E+02 -0.13353932434E+03 -0.42127745132E+03  0.44613773817E+03  0.00000000000E+00 0. -1.
        -11    1    3    3    0    0  0.56012309226E+02 -0.30807829454E+03 -0.61908064947E+03  0.69376542498E+03  0.00000000000E+00 0.  1.
          2    1    6    6  502    0  0.14631657198E+01 -0.39320761263E+00 -0.18932712820E+02  0.18993237767E+02  0.00000000000E+00 0. -1.
          1    1    5    5  503    0 -0.40485334884E+01 -0.65660809977E+02 -0.45413364548E+02  0.79938140270E+02  0.00000000000E+00 0. -1.
         -2    1    5    5    0  503  0.98764870803E+02 -0.12238019406E+03 -0.49235367909E+02  0.16478935966E+03  0.00000000000E+00 0.  1.
         -1    1    6    6    0  502 -0.21327732024E+03  0.63005183053E+03 -0.14363105406E+04  0.15828583302E+04  0.00000000000E+00 0.  1.
<mgrwt>
<rscale>  0 0.14864994E+04</rscale>
<asrwt>0</asrwt>
<pdfrwt beam="1">  1        1 0.42897940E+00 0.14864994E+04</pdfrwt>
<pdfrwt beam="2">  1       -1 0.30479396E-01 0.14864994E+04</pdfrwt>
<totfact> 0.82012106E+00</totfact>
</mgrwt>
</event>
<event>
12    1  0.1494110E-007  0.1899962E+04  0.7818608E-02  0.8654875E-01
          1   -1    0    0  501    0  0.00000000000E+00  0.00000000000E+00  0.27255110519E+04  0.27255110519E+04  0.00000000000E+00 0. -1.
         -1   -1    0    0    0  501 -0.00000000000E+00 -0.00000000000E+00 -0.33111732223E+03  0.33111732223E+03  0.00000000000E+00 0.  1.
         23    2    1    2    0    0  0.30729590933E+03  0.66649789951E+03  0.98938471542E+03  0.12352439234E+04  0.91078039793E+02 0.  0.
        254    2    1    2    0    0 -0.30729590933E+03 -0.66649789951E+03  0.14050090143E+04  0.18213844507E+04  0.89707344246E+03 0.  0.
        -24    2    4    4    0    0 -0.37315869404E+03 -0.85780405392E+03  0.10937880848E+04  0.14413904743E+04  0.78478781214E+02 0.  0.
         24    2    4    4    0    0  0.65862784704E+02  0.19130615441E+03  0.31122092948E+03  0.37999397642E+03  0.81246563287E+02 0.  0.
         11    1    3    3    0    0  0.15403462358E+03  0.42940686844E+03  0.57893417147E+03  0.73707645385E+03  0.00000000000E+00 0.  1.
        -11    1    3    3    0    0  0.15326128575E+03  0.23709103108E+03  0.41045054395E+03  0.49816746959E+03  0.00000000000E+00 0. -1.
          2    1    6    6  502    0  0.39138969346E+02  0.14050760904E+03  0.15162978530E+03  0.21039448403E+03  0.00000000000E+00 0. -1.
          1    1    5    5  503    0 -0.20700502955E+03 -0.45957794125E+03  0.64825209067E+03  0.82115390726E+03  0.00000000000E+00 0. -1.
         -2    1    5    5    0  503 -0.16615366449E+03 -0.39822611267E+03  0.44553599410E+03  0.62023656702E+03  0.00000000000E+00 0.  1.
         -1    1    6    6    0  502  0.26723815358E+02  0.50798545370E+02  0.15959114419E+03  0.16959949240E+03  0.00000000000E+00 0.  1.
<mgrwt>
<rscale>  0 0.18999620E+04</rscale>
<asrwt>0</asrwt>
<pdfrwt beam="1">  1        1 0.41930938E+00 0.18999620E+04</pdfrwt>
<pdfrwt beam="2">  1       -1 0.50941128E-01 0.18999620E+04</pdfrwt>
<totfact> 0.34166013E+00</totfact>
</mgrwt>
</event>
<event>
12    1  0.1494110E-007  0.1701288E+04  0.7818608E-02  0.8760630E-01
         -1   -1    0    0    0  501 -0.00000000000E+00  0.00000000000E+00  0.11357822271E+04  0.11357822271E+04  0.00000000000E+00 0.  1.
          1   -1    0    0  501    0  0.00000000000E+00 -0.00000000000E+00 -0.63708942664E+03  0.63708942664E+03  0.00000000000E+00 0. -1.
         23    2    1    2    0    0  0.50387243385E+02  0.54853912380E+03 -0.10223123505E+03  0.56710710190E+03  0.87893088311E+02 0.  0.
        254    2    1    2    0    0 -0.50387243385E+02 -0.54853912380E+03  0.60092403555E+03  0.12057645519E+04  0.88843931332E+03 0.  0.
        -24    2    4    4    0    0  0.36121576196E+03 -0.47542361813E+03  0.45751926724E+03  0.75651958377E+03  0.80582612024E+02 0.  0.
         24    2    4    4    0    0 -0.41160300535E+03 -0.73115505672E+02  0.14340476830E+03  0.44924496812E+03  0.80580410931E+02 0.  0.
         11    1    3    3    0    0  0.13895705996E+02  0.12524119984E+02 -0.12269559931E+02  0.22371551743E+02  0.00000000000E+00 0.  1.
        -11    1    3    3    0    0  0.36491537389E+02  0.53601500381E+03 -0.89961675119E+02  0.54473555016E+03  0.00000000000E+00 0. -1.
          2    1    6    6  502    0 -0.32961203342E+02  0.91199560424E+01  0.30074195889E+02  0.45541978244E+02  0.00000000000E+00 0. -1.
          1    1    5    5  503    0  0.19771788800E+03 -0.27768713367E+03  0.30880984697E+03  0.45996307355E+03  0.00000000000E+00 0. -1.
         -2    1    5    5    0  503  0.16349787396E+03 -0.19773648446E+03  0.14870942027E+03  0.29655651022E+03  0.00000000000E+00 0.  1.
         -1    1    6    6    0  502 -0.37864180200E+03 -0.82235461715E+02  0.11333057242E+03  0.40370298987E+03  0.00000000000E+00 0.  1.
<mgrwt>
<rscale>  0 0.17012876E+04</rscale>
<asrwt>0</asrwt>
<pdfrwt beam="1">  1        1 0.98013758E-01 0.17012876E+04</pdfrwt>
<pdfrwt beam="2">  1       -1 0.17473573E+00 0.17012876E+04</pdfrwt>
<totfact> 0.67817144E+00</totfact>
</mgrwt>
</event>
<event>
12    1  0.1494110E-007  0.2970558E+04  0.7818608E-02  0.8252189E-01
          1   -1    0    0  501    0  0.00000000000E+00  0.00000000000E+00  0.18734974492E+04  0.18734974492E+04  0.00000000000E+00 0. -1.
         -1   -1    0    0    0  501 -0.00000000000E+00 -0.00000000000E+00 -0.11775055005E+04  0.11775055005E+04  0.00000000000E+00 0.  1.
         23    2    1    2    0    0 -0.31870022690E+03  0.10353905918E+04 -0.49062923424E+03  0.11929095336E+04  0.93341296355E+02 0.  0.
        254    2    1    2    0    0  0.31870022690E+03 -0.10353905918E+04  0.11866211830E+04  0.18580934161E+04  0.93318690463E+03 0.  0.
        -24    2    4    4    0    0  0.63770402956E+03 -0.63685817297E+03  0.84968465183E+03  0.12412449988E+04  0.80438658460E+02 0.  0.
         24    2    4    4    0    0 -0.31900380265E+03 -0.39853241884E+03  0.33693653115E+03  0.61684841731E+03  0.79901370062E+02 0.  0.
         11    1    3    3    0    0 -0.32299904704E+03  0.10327277771E+04 -0.48657172258E+03  0.11864261828E+04  0.00000000000E+00 0.  1.
        -11    1    3    3    0    0  0.42988201324E+01  0.26628146912E+01 -0.40575116611E+01  0.64833507918E+01  0.00000000000E+00 0. -1.
          4    1    6    6  502    0 -0.77754676431E+02 -0.11269229199E+03  0.13275785905E+03  0.19070918048E+03  0.00000000000E+00 0. -1.
          3    1    5    5  503    0  0.18923570724E+03 -0.14540363490E+03  0.24865070817E+03  0.34464408396E+03  0.00000000000E+00 0. -1.
         -4    1    5    5    0  503  0.44846832232E+03 -0.49145453807E+03  0.60103394366E+03  0.89660091487E+03  0.00000000000E+00 0.  1.
         -3    1    6    6    0  502 -0.24124912622E+03 -0.28584012685E+03  0.20417867210E+03  0.42613923683E+03  0.00000000000E+00 0.  1.
<mgrwt>
<rscale>  0 0.29705579E+04</rscale>
<asrwt>0</asrwt>
<pdfrwt beam="1">  1        1 0.28823038E+00 0.29705579E+04</pdfrwt>
<pdfrwt beam="2">  1       -1 0.18115469E+00 0.29705579E+04</pdfrwt>
<totfact> 0.63262804E-01</totfact>
</mgrwt>
</event>
<event>
12    1  0.1494110E-007  0.1569792E+04  0.7818608E-02  0.8839324E-01
          2   -1    0    0  501    0  0.00000000000E+00  0.00000000000E+00  0.13091661520E+04  0.13091661520E+04  0.00000000000E+00 0. -1.
         -2   -1    0    0    0  501 -0.00000000000E+00 -0.00000000000E+00 -0.47057537162E+03  0.47057537162E+03  0.00000000000E+00 0.  1.
         23    2    1    2    0    0 -0.47919245804E+03  0.19065595299E+03  0.18045013156E+03  0.55381255031E+03  0.90393510015E+02 0.  0.
        254    2    1    2    0    0  0.47919245804E+03 -0.19065595299E+03  0.65814064878E+03  0.12259289733E+04  0.89653646310E+03 0.  0.
        -24    2    4    4    0    0 -0.17317697602E+03 -0.11823072100E+03 -0.76547544504E+02  0.23742192017E+03  0.80875665033E+02 0.  0.
         24    2    4    4    0    0  0.65236943407E+03 -0.72425231994E+02  0.73468819329E+03  0.98850705310E+03  0.80920701538E+02 0.  0.
         11    1    3    3    0    0 -0.26195974285E+03  0.73510568849E+02  0.57544201220E+02  0.27809718751E+03  0.00000000000E+00 0.  1.
        -11    1    3    3    0    0 -0.21723271519E+03  0.11714538414E+03  0.12290593034E+03  0.27571536281E+03  0.00000000000E+00 0. -1.
          4    1    6    6  502    0  0.24734928044E+03 -0.54489158153E+02  0.24016509704E+03  0.34904155731E+03  0.00000000000E+00 0. -1.
          3    1    5    5  503    0 -0.19541481705E+01  0.10334747585E+02 -0.20588967659E+01  0.10717497777E+02  0.00000000000E+00 0. -1.
         -4    1    5    5    0  503 -0.17122282785E+03 -0.12856546858E+03 -0.74488647738E+02  0.22670442239E+03  0.00000000000E+00 0.  1.
         -3    1    6    6    0  502  0.40502015363E+03 -0.17936073841E+02  0.49452309624E+03  0.63946549579E+03  0.00000000000E+00 0.  1.
<mgrwt>
<rscale>  0 0.15697915E+04</rscale>
<asrwt>0</asrwt>
<pdfrwt beam="1">  1        2 0.20141018E+00 0.15697915E+04</pdfrwt>
<pdfrwt beam="2">  1       -2 0.72396211E-01 0.15697915E+04</pdfrwt>
<totfact> 0.27098415E+01</totfact>
</mgrwt>
</event>
<event>
12    1  0.1494110E-007  0.3031243E+04  0.7818608E-02  0.8234865E-01
         -2   -1    0    0    0  501 -0.00000000000E+00  0.00000000000E+00  0.14736746087E+04  0.14736746087E+04  0.00000000000E+00 0.  1.
          2   -1    0    0  501    0  0.00000000000E+00 -0.00000000000E+00 -0.15587622928E+04  0.15587622928E+04  0.00000000000E+00 0. -1.
         23    2    1    2    0    0 -0.12642576511E+04  0.54107599912E+03  0.70568414910E+02  0.13798186748E+04  0.88368710496E+02 0.  0.
        254    2    1    2    0    0  0.12642576511E+04 -0.54107599912E+03 -0.15565609899E+03  0.16526182267E+04  0.90322064678E+03 0.  0.
        -24    2    4    4    0    0  0.22223005099E+01 -0.26953507002E+03  0.15625592511E+03  0.32216266264E+03  0.81968130862E+02 0.  0.
         24    2    4    4    0    0  0.12620353506E+04 -0.27154092910E+03 -0.31191202410E+03  0.13304555640E+04  0.79719475280E+02 0.  0.
         13    1    3    3    0    0 -0.17480244630E+03  0.99791721850E+02 -0.10806872614E+02  0.20157150462E+03  0.00000000000E+00 0. -1.
        -13    1    3    3    0    0 -0.10894552048E+04  0.44128427727E+03  0.81375287524E+02  0.11782471702E+04  0.00000000000E+00 0.  1.
          4    1    6    6  502    0  0.69906873685E+03 -0.16581170343E+03 -0.21117404059E+03  0.74885585747E+03  0.00000000000E+00 0. -1.
          1    1    5    5  503    0  0.16552558622E+02 -0.14847006583E+03  0.12868664677E+03  0.19717403658E+03  0.00000000000E+00 0. -1.
         -2    1    5    5    0  503 -0.14330258112E+02 -0.12106500418E+03  0.27569278348E+02  0.12498862606E+03  0.00000000000E+00 0.  1.
         -3    1    6    6    0  502  0.56296661377E+03 -0.10572922567E+03 -0.10073798351E+03  0.58159970658E+03  0.00000000000E+00 0.  1.
<mgrwt>
<rscale>  0 0.30312429E+04</rscale>
<asrwt>0</asrwt>
<pdfrwt beam="1">  1        2 0.23980958E+00 0.30312429E+04</pdfrwt>
<pdfrwt beam="2">  1       -2 0.22671917E+00 0.30312429E+04</pdfrwt>
<totfact> 0.90034076E-01</totfact>
</mgrwt>
</event>
<event>
12    1  0.1494110E-007  0.1034840E+04  0.7818608E-02  0.9271137E-01
          1   -1    0    0  501    0  0.00000000000E+00  0.00000000000E+00  0.13177604464E+04  0.13177604464E+04  0.00000000000E+00 0. -1.
         -1   -1    0    0    0  501 -0.00000000000E+00 -0.00000000000E+00 -0.20316556095E+03  0.20316556095E+03  0.00000000000E+00 0.  1.
         23    2    1    2    0    0 -0.15648142401E+02 -0.88525891369E+02  0.67151025252E+02  0.14425723754E+03  0.90659762779E+02 0.  0.
        254    2    1    2    0    0  0.15648142401E+02  0.88525891369E+02  0.10474438602E+04  0.13766687698E+04  0.88881750867E+03 0.  0.
        -24    2    4    4    0    0 -0.84493196798E+00  0.32939337299E+03  0.44371140391E+02  0.34182691843E+03  0.79850710614E+02 0.  0.
         24    2    4    4    0    0  0.16493074369E+02 -0.24086748162E+03  0.10030727198E+04  0.10348418514E+04  0.80334369707E+02 0.  0.
         11    1    3    3    0    0  0.57772443250E+01 -0.31788015120E+02  0.76359802178E+02  0.82913652953E+02  0.00000000000E+00 0. -1.
        -11    1    3    3    0    0 -0.21425386726E+02 -0.56737876249E+02 -0.92087769261E+01  0.61343584588E+02  0.00000000000E+00 0.  1.
          2    1    6    6  502    0 -0.23616441033E+02 -0.29661514108E+02  0.11369326398E+03  0.11984865448E+03  0.00000000000E+00 0. -1.
          1    1    5    5  503    0  0.39096737898E+02  0.17354917755E+03  0.18133643426E+02  0.17882030357E+03  0.00000000000E+00 0. -1.
         -2    1    5    5    0  503 -0.39941669866E+02  0.15584419543E+03  0.26237496965E+02  0.16300661486E+03  0.00000000000E+00 0.  1.
         -1    1    6    6    0  502  0.40109515401E+02 -0.21120596751E+03  0.88937945582E+03  0.91499319690E+03  0.00000000000E+00 0.  1.
<mgrwt>
<rscale>  0 0.10348402E+04</rscale>
<asrwt>0</asrwt>
<pdfrwt beam="1">  1        1 0.20273237E+00 0.10348402E+04</pdfrwt>
<pdfrwt beam="2">  1       -1 0.31256241E-01 0.10348402E+04</pdfrwt>
<totfact> 0.83369724E+01</totfact>
</mgrwt>
</event>
<event>
12    1  0.1494110E-007  0.1383529E+04  0.7818608E-02  0.8965828E-01
         -2   -1    0    0    0  501 -0.00000000000E+00  0.00000000000E+00  0.50177314992E+03  0.50177314992E+03  0.00000000000E+00 0.  1.
          2   -1    0    0  501    0  0.00000000000E+00 -0.00000000000E+00 -0.95369471989E+03  0.95369471989E+03  0.00000000000E+00 0. -1.
         23    2    1    2    0    0 -0.13484156846E+03 -0.29838290708E+03 -0.36034640747E+03  0.49537721846E+03  0.91293194563E+02 0.  0.
        254    2    1    2    0    0  0.13484156846E+03  0.29838290708E+03 -0.91575162509E+02  0.96009065135E+03  0.89787161699E+03 0.  0.
        -24    2    4    4    0    0  0.49930644136E+03  0.89064216312E+02  0.33132536246E+02  0.51422960507E+03  0.78070255301E+02 0.  0.
         24    2    4    4    0    0 -0.36446487291E+03  0.20931869077E+03 -0.12470769875E+03  0.44586104628E+03  0.81185618005E+02 0.  0.
         13    1    3    3    0    0  0.55434771881E+01 -0.11215343639E+02 -0.43662976218E+02  0.45419924752E+02  0.00000000000E+00 0.  1.
        -13    1    3    3    0    0 -0.14038504564E+03 -0.28716756344E+03 -0.31668343125E+03  0.44995729371E+03  0.00000000000E+00 0. -1.
          2    1    6    6  502    0 -0.19366882949E+03  0.13153477228E+03 -0.10683471059E+03  0.25733765217E+03  0.00000000000E+00 0. -1.
          1    1    5    5  503    0  0.48679807223E+03  0.99504299123E+02  0.32466070029E+02  0.49792320128E+03  0.00000000000E+00 0. -1.
         -2    1    5    5    0  503  0.12508369135E+02 -0.10440082811E+02  0.66646621688E+00  0.16306403795E+02  0.00000000000E+00 0.  1.
         -1    1    6    6    0  502 -0.17079604342E+03  0.77783918489E+02 -0.17872988168E+02  0.18852339411E+03  0.00000000000E+00 0.  1.
<mgrwt>
<rscale>  0 0.13835294E+04</rscale>
<asrwt>0</asrwt>
<pdfrwt beam="1">  1        2 0.14672226E+00 0.13835294E+04</pdfrwt>
<pdfrwt beam="2">  1       -2 0.77195869E-01 0.13835294E+04</pdfrwt>
<totfact> 0.39406991E+01</totfact>
</mgrwt>
</event>
<event>
12    1  0.1494110E-007  0.1665735E+04  0.7818608E-02  0.8781152E-01
          2   -1    0    0  501    0  0.00000000000E+00  0.00000000000E+00  0.38346178611E+04  0.38346178611E+04  0.00000000000E+00 0. -1.
         -2   -1    0    0    0  501 -0.00000000000E+00 -0.00000000000E+00 -0.18089641559E+03  0.18089641559E+03  0.00000000000E+00 0.  1.
         23    2    1    2    0    0 -0.36400984874E+03  0.20283316206E+02  0.19743356703E+03  0.42472978306E+03  0.92199741519E+02 0.  0.
        254    2    1    2    0    0  0.36400984874E+03 -0.20283316206E+02  0.34562878785E+04  0.35907844936E+04  0.90271412848E+03 0.  0.
        -24    2    4    4    0    0 -0.17743077303E+03 -0.75040736226E+01  0.23332405809E+04  0.23414339063E+04  0.82238303240E+02 0.  0.
         24    2    4    4    0    0  0.54144062177E+03 -0.12779242584E+02  0.11230472975E+04  0.12493505873E+04  0.79500953792E+02 0.  0.
         11    1    3    3    0    0 -0.32157166589E+03  0.13376958959E+02  0.13521331458E+03  0.34909872497E+03  0.00000000000E+00 0. -1.
        -11    1    3    3    0    0 -0.42438182846E+02  0.69063572470E+01  0.62220252446E+02  0.75631058092E+02  0.00000000000E+00 0.  1.
          4    1    6    6  502    0  0.38874131415E+03  0.21164665323E+02  0.84358779460E+03  0.92908994160E+03  0.00000000000E+00 0. -1.
          3    1    5    5  503    0 -0.25969824610E+02  0.29977007541E+02  0.46120274593E+03  0.46290498552E+03  0.00000000000E+00 0. -1.
         -4    1    5    5    0  503 -0.15146094842E+03 -0.37481081164E+02  0.18720378350E+04  0.18785289207E+04  0.00000000000E+00 0.  1.
         -3    1    6    6    0  502  0.15269930761E+03 -0.33943907907E+02  0.27945950292E+03  0.32026064573E+03  0.00000000000E+00 0.  1.
<mgrwt>
<rscale>  0 0.16657354E+04</rscale>
<asrwt>0</asrwt>
<pdfrwt beam="1">  1        2 0.58994115E+00 0.16657354E+04</pdfrwt>
<pdfrwt beam="2">  1       -2 0.27830221E-01 0.16657354E+04</pdfrwt>
<totfact> 0.52780140E+00</totfact>
</mgrwt>
</event>
<event>
12    1  0.1494110E-007  0.3152741E+04  0.7818608E-02  0.8201411E-01
         -2   -1    0    0    0  501 -0.00000000000E+00  0.00000000000E+00  0.83031110150E+03  0.83031110150E+03  0.00000000000E+00 0. -1.
          2   -1    0    0  501    0  0.00000000000E+00 -0.00000000000E+00 -0.29927862013E+04  0.29927862013E+04  0.00000000000E+00 0.  1.
         23    2    1    2    0    0  0.42673448149E+02 -0.11216954584E+04 -0.20896208860E+04  0.23739472647E+04  0.95333329295E+02 0.  0.
        254    2    1    2    0    0 -0.42673448149E+02  0.11216954584E+04 -0.72854213765E+02  0.14491500381E+04  0.91362266391E+03 0.  0.
        -24    2    4    4    0    0  0.29755177511E+03  0.20581037867E+03 -0.25808744882E+03  0.45154037390E+03  0.79903737014E+02 0.  0.
         24    2    4    4    0    0 -0.34022522326E+03  0.91588507969E+03  0.18523323505E+03  0.99760966421E+03  0.79467030993E+02 0.  0.
         13    1    3    3    0    0  0.13104591471E+02 -0.66730169178E+03 -0.13360411650E+04  0.14934755682E+04  0.00000000000E+00 0.  1.
        -13    1    3    3    0    0  0.29568856679E+02 -0.45439376659E+03 -0.75357972098E+03  0.88047169646E+03  0.00000000000E+00 0. -1.
          4    1    6    6  502    0 -0.13400403714E+03  0.26252725486E+03  0.68511917134E+02  0.30260787218E+03  0.00000000000E+00 0. -1.
          3    1    5    5  503    0  0.18872940756E+02  0.21323735540E+02  0.12626477006E+01  0.28504102677E+02  0.00000000000E+00 0. -1.
         -4    1    5    5    0  503  0.27867883435E+03  0.18448664313E+03 -0.25935009652E+03  0.42303627123E+03  0.00000000000E+00 0.  1.
         -3    1    6    6    0  502 -0.20622118611E+03  0.65335782483E+03  0.11672131792E+03  0.69500179203E+03  0.00000000000E+00 0.  1.
<mgrwt>
<rscale>  0 0.31527408E+04</rscale>
<asrwt>0</asrwt>
<pdfrwt beam="1">  1        2 0.46042865E+00 0.31527408E+04</pdfrwt>
<pdfrwt beam="2">  1       -2 0.12774017E+00 0.31527408E+04</pdfrwt>
<totfact> 0.67476069E-01</totfact>
</mgrwt>
</event>
<event>
12    1  0.1494110E-007  0.1006191E+04  0.7818608E-02  0.9301780E-01
          1   -1    0    0  501    0  0.00000000000E+00  0.00000000000E+00  0.63288339277E+03  0.63288339277E+03  0.00000000000E+00 0. -1.
         -1   -1    0    0    0  501 -0.00000000000E+00 -0.00000000000E+00 -0.39992390160E+03  0.39992390160E+03  0.00000000000E+00 0.  1.
         23    2    1    2    0    0 -0.29505564389E+02 -0.20236209244E+03 -0.29328170834E+01  0.22875885089E+03  0.10247446344E+03 0.  0.
        254    2    1    2    0    0  0.29505564389E+02  0.20236209244E+03  0.23589230825E+03  0.80404844348E+03  0.74096405013E+03 0.  0.
        -24    2    4    4    0    0  0.36239543883E+02  0.63928463166E+00 -0.25407266881E+03  0.26823011407E+03  0.77979226930E+02 0.  0.
         24    2    4    4    0    0 -0.67339794939E+01  0.20172280781E+03  0.48996497705E+03  0.53581832941E+03  0.79360983658E+02 0.  0.
         13    1    3    3    0    0  0.24235201800E+02 -0.13608954729E+02  0.15180767772E+02  0.31670244161E+02  0.00000000000E+00 0. -1.
        -13    1    3    3    0    0 -0.53740766189E+02 -0.18875313771E+03 -0.18113584855E+02  0.19708860673E+03  0.00000000000E+00 0.  1.
          2    1    6    6  502    0  0.18421592433E+02  0.14435463551E+03  0.26538870890E+03  0.30266942804E+03  0.00000000000E+00 0. -1.
          3    1    5    5  503    0 -0.87322965092E+01  0.94579380184E+01 -0.32791057221E+01  0.13283754297E+02  0.00000000000E+00 0. -1.
         -4    1    5    5    0  503  0.44971840392E+02 -0.88186533867E+01 -0.25079356308E+03  0.25494635977E+03  0.00000000000E+00 0.  1.
         -1    1    6    6    0  502 -0.25155571927E+02  0.57368172295E+02  0.22457626816E+03  0.23314890137E+03  0.00000000000E+00 0.  1.
<mgrwt>
<rscale>  0 0.10061912E+04</rscale>
<asrwt>0</asrwt>
<pdfrwt beam="1">  1        1 0.97366676E-01 0.10061912E+04</pdfrwt>
<pdfrwt beam="2">  1       -1 0.61526754E-01 0.10061912E+04</pdfrwt>
<totfact> 0.85093791E+01</totfact>
</mgrwt>
</event>
<event>
12    1  0.1494110E-007  0.2456079E+04  0.7818608E-02  0.8418802E-01
          2   -1    0    0  501    0  0.00000000000E+00  0.00000000000E+00  0.23169371500E+04  0.23169371500E+04  0.00000000000E+00 0.  1.
         -2   -1    0    0    0  501 -0.00000000000E+00 -0.00000000000E+00 -0.65089416044E+03  0.65089416044E+03  0.00000000000E+00 0. -1.
         23    2    1    2    0    0  0.30915922983E+03 -0.29593233507E+03 -0.44687931544E+03  0.62537411919E+03  0.90754008510E+02 0.  0.
        254    2    1    2    0    0 -0.30915922983E+03  0.29593233507E+03  0.21129223050E+04  0.23424571912E+04  0.91624759183E+03 0.  0.
        -24    2    4    4    0    0 -0.25406464439E+03  0.52061759056E+02  0.66019830222E+02  0.27875057994E+03  0.77999984303E+02 0.  0.
         24    2    4    4    0    0 -0.55094585446E+02  0.24387057601E+03  0.20469024748E+04  0.20637066113E+04  0.81036813309E+02 0.  0.
         11    1    3    3    0    0  0.11987883891E+03 -0.12084608530E+03 -0.24288965892E+03  0.29659753667E+03  0.00000000000E+00 0.  1.
        -11    1    3    3    0    0  0.18928039092E+03 -0.17508624978E+03 -0.20398965651E+03  0.32877658252E+03  0.00000000000E+00 0. -1.
          4    1    6    6  502    0 -0.27571279479E+02  0.18725177617E+03  0.17498577939E+04  0.17600641187E+04  0.00000000000E+00 0. -1.
          1    1    5    5  503    0 -0.24397958662E+03  0.44484295282E+02  0.41879386283E+02  0.25151297026E+03  0.00000000000E+00 0. -1.
         -2    1    5    5    0  503 -0.10085057764E+02  0.75774637747E+01  0.24140443939E+02  0.27237609678E+02  0.00000000000E+00 0.  1.
         -3    1    6    6    0  502 -0.27523305968E+02  0.56618799841E+02  0.29704468085E+03  0.30364249256E+03  0.00000000000E+00 0.  1.
<mgrwt>
<rscale>  0 0.24560789E+04</rscale>
<asrwt>0</asrwt>
<pdfrwt beam="1">  1        2 0.35645187E+00 0.24560789E+04</pdfrwt>
<pdfrwt beam="2">  1       -2 0.10013756E+00 0.24560789E+04</pdfrwt>
<totfact> 0.32673604E+00</totfact>
</mgrwt>
</event>
<event>
12    1  0.1494110E-007  0.1233776E+04  0.7818608E-02  0.9083796E-01
          2   -1    0    0  501    0  0.00000000000E+00  0.00000000000E+00  0.60244410790E+03  0.60244410790E+03  0.00000000000E+00 0. -1.
         -2   -1    0    0    0  501 -0.00000000000E+00 -0.00000000000E+00 -0.63167821921E+03  0.63167821921E+03  0.00000000000E+00 0.  1.
         23    2    1    2    0    0  0.68976379770E+02  0.26329348405E+03  0.35244007837E+02  0.28959390121E+03  0.92419087968E+02 0.  0.
        254    2    1    2    0    0 -0.68976379770E+02 -0.26329348405E+03 -0.64478119143E+02  0.94452842590E+03  0.90216147102E+03 0.  0.
        -24    2    4    4    0    0  0.19014433615E+03  0.16020647018E+03  0.24196515903E+03  0.35567518586E+03  0.78337206960E+02 0.  0.
         24    2    4    4    0    0 -0.25912071592E+03 -0.42349995423E+03 -0.30644327817E+03  0.58885324005E+03  0.79654873856E+02 0.  0.
         13    1    3    3    0    0  0.41558563907E+02  0.15961864152E+03  0.66578869620E+02  0.17787065760E+03  0.00000000000E+00 0. -1.
        -13    1    3    3    0    0  0.27417815863E+02  0.10367484253E+03 -0.31334861783E+02  0.11172324361E+03  0.00000000000E+00 0.  1.
          4    1    6    6  502    0 -0.50938550625E+02 -0.38171176016E+02 -0.25812368121E+02  0.68688084602E+02  0.00000000000E+00 0. -1.
          3    1    5    5  503    0  0.18392079624E+03  0.11912575912E+03  0.20238217100E+03  0.29828903586E+03  0.00000000000E+00 0. -1.
         -4    1    5    5    0  503  0.62235399068E+01  0.41080711061E+02  0.39582988030E+02  0.57386149998E+02  0.00000000000E+00 0.  1.
         -3    1    6    6    0  502 -0.20818216529E+03 -0.38532877822E+03 -0.28063091005E+03  0.52016515545E+03  0.00000000000E+00 0.  1.
<mgrwt>
<rscale>  0 0.12337760E+04</rscale>
<asrwt>0</asrwt>
<pdfrwt beam="1">  1        2 0.92683709E-01 0.12337760E+04</pdfrwt>
<pdfrwt beam="2">  1       -2 0.97181264E-01 0.12337760E+04</pdfrwt>
<totfact> 0.42951454E+01</totfact>
</mgrwt>
</event>
<event>
12    1  0.1494110E-007  0.3248676E+04  0.7818608E-02  0.8176079E-01
          2   -1    0    0  501    0  0.00000000000E+00  0.00000000000E+00  0.29387089258E+04  0.29387089258E+04  0.00000000000E+00 0. -1.
         -2   -1    0    0    0  501 -0.00000000000E+00 -0.00000000000E+00 -0.89783421137E+03  0.89783421137E+03  0.00000000000E+00 0.  1.
         23    2    1    2    0    0  0.28308604765E+03  0.58294348468E+03 -0.65147123826E+03  0.92371151457E+03  0.94166720096E+02 0.  0.
        254    2    1    2    0    0 -0.28308604765E+03 -0.58294348468E+03  0.26923459527E+04  0.29128316226E+04  0.90327211621E+03 0.  0.
        -24    2    4    4    0    0  0.25134347716E+03 -0.15827067219E+03  0.32525561683E+03  0.44796829720E+03  0.81616357621E+02 0.  0.
         24    2    4    4    0    0 -0.53442952481E+03 -0.42467281249E+03  0.23670903359E+04  0.24648633254E+04  0.80452719556E+02 0.  0.
         13    1    3    3    0    0  0.11825450647E+03  0.34855198052E+03 -0.35393343911E+03  0.51062852520E+03  0.00000000000E+00 0.  1.
        -13    1    3    3    0    0  0.16483154118E+03  0.23439150416E+03 -0.29753779915E+03  0.41308298938E+03  0.00000000000E+00 0. -1.
          2    1    6    6  502    0 -0.36318361457E+02 -0.50574437916E+02  0.27711229318E+03  0.28402116150E+03  0.00000000000E+00 0. -1.
          3    1    5    5  503    0  0.40991537885E+02  0.45823226171E+01  0.55012203016E+02  0.68757882017E+02  0.00000000000E+00 0. -1.
         -4    1    5    5    0  503  0.21035193928E+03 -0.16285299481E+03  0.27024341382E+03  0.37921041519E+03  0.00000000000E+00 0.  1.
         -1    1    6    6    0  502 -0.49811116336E+03 -0.37409837457E+03  0.20899780427E+04  0.21808421639E+04  0.00000000000E+00 0.  1.
<mgrwt>
<rscale>  0 0.32486757E+04</rscale>
<asrwt>0</asrwt>
<pdfrwt beam="1">  1        2 0.45210906E+00 0.32486757E+04</pdfrwt>
<pdfrwt beam="2">  1       -2 0.13812834E+00 0.32486757E+04</pdfrwt>
<totfact> 0.59272955E-01</totfact>
</mgrwt>
</event>
<event>
12    1  0.1494110E-007  0.2004770E+04  0.7818608E-02  0.8604394E-01
         -2   -1    0    0    0  501 -0.00000000000E+00  0.00000000000E+00  0.60411377869E+03  0.60411377869E+03  0.00000000000E+00 0.  1.
          2   -1    0    0  501    0  0.00000000000E+00 -0.00000000000E+00 -0.16632226622E+04  0.16632226622E+04  0.00000000000E+00 0. -1.
         23    2    1    2    0    0  0.33276968633E+03  0.71908518228E+03 -0.40221885501E+03  0.89329330809E+03  0.91508269728E+02 0.  0.
        254    2    1    2    0    0 -0.33276968633E+03 -0.71908518228E+03 -0.65689002853E+03  0.13740431328E+04  0.91031360410E+03 0.  0.
        -24    2    4    4    0    0 -0.16811640088E+03 -0.83569947391E+03 -0.74897291549E+03  0.11375740009E+04  0.80358225987E+02 0.  0.
         24    2    4    4    0    0 -0.16465328545E+03  0.11661429162E+03  0.92082886955E+02  0.23646913193E+03  0.82029231779E+02 0.  0.
         11    1    3    3    0    0  0.17736587582E+03  0.30169674512E+03 -0.21052417975E+03  0.40841156959E+03  0.00000000000E+00 0. -1.
        -11    1    3    3    0    0  0.15540381052E+03  0.41738843717E+03 -0.19169467526E+03  0.48488173850E+03  0.00000000000E+00 0.  1.
          2    1    6    6  502    0 -0.12915841449E+03  0.66798276519E+02  0.97484329354E+02  0.17506313218E+03  0.00000000000E+00 0. -1.
          1    1    5    5  503    0 -0.17495304889E+03 -0.82332879750E+03 -0.74060331630E+03  0.11211476933E+04  0.00000000000E+00 0. -1.
         -2    1    5    5    0  503  0.68366480093E+01 -0.12370676404E+02 -0.83695991918E+01  0.16426307599E+02  0.00000000000E+00 0.  1.
         -1    1    6    6    0  502 -0.35494870960E+02  0.49816015104E+02 -0.54014423996E+01  0.61405999750E+02  0.00000000000E+00 0.  1.
<mgrwt>
<rscale>  0 0.20047700E+04</rscale>
<asrwt>0</asrwt>
<pdfrwt beam="1">  1        2 0.25588041E+00 0.20047700E+04</pdfrwt>
<pdfrwt beam="2">  1       -2 0.92940582E-01 0.20047700E+04</pdfrwt>
<totfact> 0.93656010E+00</totfact>
</mgrwt>
</event>
<event>
12    1  0.1494110E-007  0.2120943E+04  0.7818608E-02  0.8552073E-01
          1   -1    0    0  501    0  0.00000000000E+00  0.00000000000E+00  0.13730200718E+04  0.13730200718E+04  0.00000000000E+00 0. -1.
         -1   -1    0    0    0  501 -0.00000000000E+00 -0.00000000000E+00 -0.81907051914E+03  0.81907051914E+03  0.00000000000E+00 0.  1.
         23    2    1    2    0    0  0.18656012985E+03 -0.58669133940E+03  0.85966358680E+03  0.10612413879E+04  0.90556010484E+02 0.  0.
        254    2    1    2    0    0 -0.18656012985E+03  0.58669133940E+03 -0.30571403419E+03  0.11308492030E+04  0.89796850698E+03 0.  0.
        -24    2    4    4    0    0  0.16664839304E+01  0.76296351362E+03 -0.37229121545E+03  0.85266363954E+03  0.79488570267E+02 0.  0.
         24    2    4    4    0    0 -0.18822661378E+03 -0.17627217422E+03  0.66577181261E+02  0.27818556350E+03  0.80333984945E+02 0.  0.
         11    1    3    3    0    0  0.18962403321E+03 -0.58335090704E+03  0.83457479470E+03  0.10357464181E+04  0.00000000000E+00 0. -1.
        -11    1    3    3    0    0 -0.30639033635E+01 -0.33404323686E+01  0.25088792099E+02  0.25494969724E+02  0.00000000000E+00 0.  1.
          4    1    6    6  502    0 -0.38748139172E+02 -0.61525198411E+02  0.51579028811E+02  0.89146870623E+02  0.00000000000E+00 0. -1.
          1    1    5    5  503    0 -0.28585736368E+02  0.20090301470E+03 -0.77085971316E+02  0.21707467059E+03  0.00000000000E+00 0. -1.
         -2    1    5    5    0  503  0.30252220298E+02  0.56206049892E+03 -0.29520524414E+03  0.63558896895E+03  0.00000000000E+00 0.  1.
         -3    1    6    6    0  502 -0.14947847461E+03 -0.11474697581E+03  0.14998152450E+02  0.18903869288E+03  0.00000000000E+00 0.  1.
<mgrwt>
<rscale>  0 0.21209434E+04</rscale>
<asrwt>0</asrwt>
<pdfrwt beam="1">  1        1 0.21123386E+00 0.21209434E+04</pdfrwt>
<pdfrwt beam="2">  1       -1 0.12601085E+00 0.21209434E+04</pdfrwt>
<totfact> 0.40417647E+00</totfact>
</mgrwt>
</event>
<event>
12    1  0.1494110E-007  0.1716697E+04  0.7818608E-02  0.8751898E-01
          2   -1    0    0  501    0  0.00000000000E+00  0.00000000000E+00  0.11088632919E+04  0.11088632919E+04  0.00000000000E+00 0.  1.
         -2   -1    0    0    0  501 -0.00000000000E+00 -0.00000000000E+00 -0.66443010074E+03  0.66443010074E+03  0.00000000000E+00 0. -1.
         23    2    1    2    0    0  0.42233221884E+03  0.43763515476E+03  0.12454452649E+03  0.62932063963E+03  0.10317023133E+03 0.  0.
        254    2    1    2    0    0 -0.42233221884E+03 -0.43763515476E+03  0.31988866462E+03  0.11439727530E+04  0.91457961382E+03 0.  0.
        -24    2    4    4    0    0 -0.68319701472E+03 -0.17567472916E+03  0.13096978648E+03  0.72124032520E+03  0.73584987162E+02 0.  0.
         24    2    4    4    0    0  0.26086479588E+03 -0.26196042560E+03  0.18891887814E+03  0.42273242776E+03  0.79615680941E+02 0.  0.
         13    1    3    3    0    0  0.26016983437E+03  0.28107211506E+03  0.27738017505E+02  0.38400426325E+03  0.00000000000E+00 0. -1.
        -13    1    3    3    0    0  0.16216238447E+03  0.15656303970E+03  0.96806508987E+02  0.24531637638E+03  0.00000000000E+00 0.  1.
          2    1    6    6  502    0  0.18545792255E+03 -0.15924574269E+03  0.15974061199E+03  0.29201183318E+03  0.00000000000E+00 0. -1.
          1    1    5    5  503    0 -0.45581133506E+02 -0.30737251293E+02  0.16634962616E+02  0.57438143511E+02  0.00000000000E+00 0. -1.
         -2    1    5    5    0  503 -0.63761588121E+03 -0.14493747787E+03  0.11433482386E+03  0.66380218169E+03  0.00000000000E+00 0.  1.
         -1    1    6    6    0  502  0.75406873330E+02 -0.10271468291E+03  0.29178266153E+02  0.13072059457E+03  0.00000000000E+00 0.  1.
<mgrwt>
<rscale>  0 0.17166970E+04</rscale>
<asrwt>0</asrwt>
<pdfrwt beam="1">  1        2 0.17059435E+00 0.17166970E+04</pdfrwt>
<pdfrwt beam="2">  1       -2 0.10222002E+00 0.17166970E+04</pdfrwt>
<totfact> 0.16029240E+01</totfact>
</mgrwt>
</event>
<event>
12    1  0.1494110E-007  0.2048155E+04  0.7818608E-02  0.8584432E-01
          2   -1    0    0  501    0  0.00000000000E+00  0.00000000000E+00  0.22841444857E+04  0.22841444857E+04  0.00000000000E+00 0. -1.
         -2   -1    0    0    0  501 -0.00000000000E+00 -0.00000000000E+00 -0.45913680408E+03  0.45913680408E+03  0.00000000000E+00 0.  1.
         23    2    1    2    0    0 -0.57579034739E+03  0.13456387368E+03  0.15300477695E+04  0.16427306165E+04  0.88745374295E+02 0.  0.
        254    2    1    2    0    0  0.57579034739E+03 -0.13456387368E+03  0.29495991219E+03  0.11005506733E+04  0.88009571885E+03 0.  0.
        -24    2    4    4    0    0  0.15737978332E+03 -0.37089994162E+03  0.43102804522E+03  0.59483380166E+03  0.75544112505E+02 0.  0.
         24    2    4    4    0    0  0.41841056408E+03  0.23633606794E+03 -0.13606813303E+03  0.50571687159E+03  0.79453635853E+02 0.  0.
         11    1    3    3    0    0 -0.33480490050E+03  0.37727227326E+02  0.81012254884E+03  0.87739170797E+03  0.00000000000E+00 0.  1.
        -11    1    3    3    0    0 -0.24098544689E+03  0.96836646357E+02  0.71992522062E+03  0.76533890857E+03  0.00000000000E+00 0. -1.
          2    1    6    6  502    0  0.15352952493E+03  0.49187738516E+02 -0.26472729351E+02  0.16337550013E+03  0.00000000000E+00 0. -1.
          1    1    5    5  503    0  0.78020956939E+02 -0.10036678544E+03  0.11634892996E+03  0.17233059752E+03  0.00000000000E+00 0. -1.
         -2    1    5    5    0  503  0.79358826378E+02 -0.27053315618E+03  0.31467911526E+03  0.42250320413E+03  0.00000000000E+00 0.  1.
         -1    1    6    6    0  502  0.26488103915E+03  0.18714832942E+03 -0.10959540368E+03  0.34234137146E+03  0.00000000000E+00 0.  1.
<mgrwt>
<rscale>  0 0.20481551E+04</rscale>
<asrwt>0</asrwt>
<pdfrwt beam="1">  1        2 0.35140684E+00 0.20481551E+04</pdfrwt>
<pdfrwt beam="2">  1       -2 0.70636433E-01 0.20481551E+04</pdfrwt>
<totfact> 0.78068424E+00</totfact>
</mgrwt>
</event>
<event>
12    1  0.1494110E-007  0.1317667E+04  0.7818608E-02  0.9015671E-01
          3   -1    0    0  501    0  0.00000000000E+00  0.00000000000E+00  0.14118106994E+04  0.14118106994E+04  0.00000000000E+00 0. -1.
         -3   -1    0    0    0  501 -0.00000000000E+00 -0.00000000000E+00 -0.30745024246E+03  0.30745024246E+03  0.00000000000E+00 0.  1.
         23    2    1    2    0    0  0.13628713215E+03 -0.69687026217E+02 -0.10433060902E+03  0.20673473902E+03  0.91781873638E+02 0.  0.
        254    2    1    2    0    0 -0.13628713215E+03  0.69687026217E+02  0.12086910660E+04  0.15125262028E+04  0.89630963253E+03 0.  0.
        -24    2    4    4    0    0 -0.27450756715E+03 -0.30697545653E+03  0.29791436032E+03  0.51425717490E+03  0.78224935382E+02 0.  0.
         24    2    4    4    0    0  0.13822043501E+03  0.37666248275E+03  0.91077670564E+03  0.99826902795E+03  0.77764581013E+02 0.  0.
         13    1    3    3    0    0  0.41894990752E+01 -0.43271603039E+02 -0.20469429746E+02  0.48051858301E+02  0.00000000000E+00 0. -1.
        -13    1    3    3    0    0  0.13209763307E+03 -0.26415423178E+02 -0.83861179271E+02  0.15868288072E+03  0.00000000000E+00 0.  1.
          4    1    6    6  502    0 -0.75563771165E+01  0.10616738957E+02  0.48828699893E+02  0.50537668273E+02  0.00000000000E+00 0. -1.
          3    1    5    5  503    0 -0.80446772079E+02 -0.45107466233E+02  0.80905821005E+02  0.12268707560E+03  0.00000000000E+00 0. -1.
         -4    1    5    5    0  503 -0.19406079508E+03 -0.26186799030E+03  0.21700853931E+03  0.39157009930E+03  0.00000000000E+00 0.  1.
         -3    1    6    6    0  502  0.14577681212E+03  0.36604574379E+03  0.86194800575E+03  0.94773135968E+03  0.00000000000E+00 0.  1.
<mgrwt>
<rscale>  0 0.13176669E+04</rscale>
<asrwt>0</asrwt>
<pdfrwt beam="1">  1        3 0.21720164E+00 0.13176669E+04</pdfrwt>
<pdfrwt beam="2">  1       -3 0.47300038E-01 0.13176669E+04</pdfrwt>
<totfact> 0.13167227E+00</totfact>
</mgrwt>
</event>
<event>
12    1  0.1494110E-007  0.1213068E+04  0.7818608E-02  0.9101495E-01
          2   -1    0    0  501    0  0.00000000000E+00  0.00000000000E+00  0.38150524000E+03  0.38150524000E+03  0.00000000000E+00 0. -1.
         -2   -1    0    0    0  501 -0.00000000000E+00 -0.00000000000E+00 -0.96429438809E+03  0.96429438809E+03  0.00000000000E+00 0.  1.
         23    2    1    2    0    0  0.11717877989E+03 -0.21665056893E+03 -0.24584083825E+03  0.36138161445E+03  0.97419803076E+02 0.  0.
        254    2    1    2    0    0 -0.11717877989E+03  0.21665056893E+03 -0.33694830983E+03  0.98441801365E+03  0.89155836972E+03 0.  0.
        -24    2    4    4    0    0  0.45983842558E+02  0.42734401238E+03  0.11592375816E+03  0.45296142527E+03  0.83655940475E+02 0.  0.
         24    2    4    4    0    0 -0.16316262245E+03 -0.21069344345E+03 -0.45287206799E+03  0.53145658838E+03  0.79619262068E+02 0.  0.
         11    1    3    3    0    0 -0.23501164070E+01 -0.57934537414E+02 -0.21841759770E+02  0.61959633168E+02  0.00000000000E+00 0. -1.
        -11    1    3    3    0    0  0.11952889630E+03 -0.15871603152E+03 -0.22399907848E+03  0.29942198128E+03  0.00000000000E+00 0.  1.
          2    1    6    6  502    0 -0.37194373113E+01 -0.25306262510E+02 -0.92406220299E+02  0.95880919302E+02  0.00000000000E+00 0. -1.
          1    1    5    5  503    0  0.26626235805E+02  0.77224208424E+02  0.51137919944E+02  0.96372307516E+02  0.00000000000E+00 0. -1.
         -2    1    5    5    0  503  0.19357606753E+02  0.35011980396E+03  0.64785838213E+02  0.35658911775E+03  0.00000000000E+00 0.  1.
         -1    1    6    6    0  502 -0.15944318514E+03 -0.18538718094E+03 -0.36046584769E+03  0.43557566908E+03  0.00000000000E+00 0.  1.
<mgrwt>
<rscale>  0 0.12130678E+04</rscale>
<asrwt>0</asrwt>
<pdfrwt beam="1">  1        2 0.58693114E-01 0.12130678E+04</pdfrwt>
<pdfrwt beam="2">  1       -2 0.14835298E+00 0.12130678E+04</pdfrwt>
<totfact> 0.25486944E+01</totfact>
</mgrwt>
</event>
<event>
12    1  0.1494110E-007  0.1413442E+04  0.7818608E-02  0.8944146E-01
         -2   -1    0    0    0  501 -0.00000000000E+00  0.00000000000E+00  0.57278865492E+03  0.57278865492E+03  0.00000000000E+00 0. -1.
          2   -1    0    0  501    0  0.00000000000E+00 -0.00000000000E+00 -0.87196988226E+03  0.87196988226E+03  0.00000000000E+00 0.  1.
         23    2    1    2    0    0 -0.14738240502E+03  0.38349458096E+03 -0.63533586282E+02  0.42529946964E+03  0.89741046082E+02 0.  0.
        254    2    1    2    0    0  0.14738240502E+03 -0.38349458096E+03 -0.23564764106E+03  0.10194590675E+04  0.90276093885E+03 0.  0.
        -24    2    4    4    0    0  0.99163551133E+02  0.39494975874E+01  0.31493673837E+03  0.33975049138E+03  0.79976489109E+02 0.  0.
         24    2    4    4    0    0  0.48218853886E+02 -0.38744407855E+03 -0.55058437943E+03  0.67970857616E+03  0.80141236335E+02 0.  0.
         11    1    3    3    0    0 -0.35175016888E+02  0.36115784637E+02 -0.30108586155E+02  0.58721024116E+02  0.00000000000E+00 0. -1.
        -11    1    3    3    0    0 -0.11220738813E+03  0.34737879633E+03 -0.33425000127E+02  0.36657844552E+03  0.00000000000E+00 0.  1.
          2    1    6    6  502    0  0.44007957268E+02 -0.99807542853E+02 -0.12345186068E+03  0.16473799749E+03  0.00000000000E+00 0. -1.
          1    1    5    5  503    0  0.70292248365E+01  0.11261962503E+02  0.15078193341E+03  0.15136523129E+03  0.00000000000E+00 0. -1.
         -2    1    5    5    0  503  0.92134326296E+02 -0.73124649155E+01  0.16415480496E+03  0.18838526008E+03  0.00000000000E+00 0.  1.
         -1    1    6    6    0  502  0.42108966176E+01 -0.28763653570E+03 -0.42713251875E+03  0.51497057867E+03  0.00000000000E+00 0.  1.
<mgrwt>
<rscale>  0 0.14134418E+04</rscale>
<asrwt>0</asrwt>
<pdfrwt beam="1">  1        2 0.13414921E+00 0.14134418E+04</pdfrwt>
<pdfrwt beam="2">  1       -2 0.88121332E-01 0.14134418E+04</pdfrwt>
<totfact> 0.33068275E+01</totfact>
</mgrwt>
</event>
<event>
12    1  0.1494110E-007  0.1745763E+04  0.7818608E-02  0.8735686E-01
          2   -1    0    0  501    0  0.00000000000E+00  0.00000000000E+00  0.21736780757E+04  0.21736780757E+04  0.00000000000E+00 0. -1.
         -2   -1    0    0    0  501 -0.00000000000E+00 -0.00000000000E+00 -0.35052222072E+03  0.35052222072E+03  0.00000000000E+00 0.  1.
         23    2    1    2    0    0 -0.94239923547E+02 -0.24960720311E+02  0.15880683163E+04  0.15937448019E+04  0.92505759902E+02 0.  0.
        254    2    1    2    0    0  0.94239923547E+02  0.24960720311E+02  0.23508753862E+03  0.93045549447E+03  0.89497322620E+03 0.  0.
        -24    2    4    4    0    0  0.24744461289E+03  0.31167634156E+02 -0.28223305319E+03  0.38508927551E+03  0.80237123154E+02 0.  0.
         24    2    4    4    0    0 -0.15320468935E+03 -0.62069138444E+01  0.51732059181E+03  0.54536621895E+03  0.79331679971E+02 0.  0.
         11    1    3    3    0    0 -0.42034574854E+02  0.16665125505E+02  0.25307678099E+03  0.25708459497E+03  0.00000000000E+00 0.  1.
        -11    1    3    3    0    0 -0.52205348693E+02 -0.41625845817E+02  0.13349915353E+04  0.13366602070E+04  0.00000000000E+00 0. -1.
          2    1    6    6  502    0 -0.71292379410E+02  0.93030263417E+01  0.36215493420E+03  0.36922262394E+03  0.00000000000E+00 0. -1.
          1    1    5    5  503    0  0.59480872696E+02  0.14229590356E+02 -0.12610838388E+03  0.14015626972E+03  0.00000000000E+00 0. -1.
         -2    1    5    5    0  503  0.18796374020E+03  0.16938043799E+02 -0.15612466931E+03  0.24493300579E+03  0.00000000000E+00 0.  1.
         -1    1    6    6    0  502 -0.81912309937E+02 -0.15509940186E+02  0.15516565761E+03  0.17614359502E+03  0.00000000000E+00 0.  1.
<mgrwt>
<rscale>  0 0.17457634E+04</rscale>
<asrwt>0</asrwt>
<pdfrwt beam="1">  1        2 0.33441200E+00 0.17457634E+04</pdfrwt>
<pdfrwt beam="2">  1       -2 0.53926497E-01 0.17457634E+04</pdfrwt>
<totfact> 0.16413480E+01</totfact>
</mgrwt>
</event>
<event>
12    1  0.1494110E-007  0.1477534E+04  0.7818608E-02  0.8899531E-01
          2   -1    0    0  501    0  0.00000000000E+00  0.00000000000E+00  0.82662663756E+03  0.82662663756E+03  0.00000000000E+00 0. -1.
         -2   -1    0    0    0  501 -0.00000000000E+00 -0.00000000000E+00 -0.66024607313E+03  0.66024607313E+03  0.00000000000E+00 0.  1.
         23    2    1    2    0    0  0.29844135286E+03  0.34733574054E+03  0.44682007958E+02  0.46910726082E+03  0.91409969741E+02 0.  0.
        254    2    1    2    0    0 -0.29844135286E+03 -0.34733574054E+03  0.12169855647E+03  0.10177654499E+04  0.90073670656E+03 0.  0.
        -24    2    4    4    0    0 -0.55032927455E+03 -0.30744233855E+03  0.29403824138E+03  0.70003786967E+03  0.78812623420E+02 0.  0.
         24    2    4    4    0    0  0.25188792169E+03 -0.39893401983E+02 -0.17233968491E+03  0.31772758020E+03  0.78808880297E+02 0.  0.
         11    1    3    3    0    0  0.27687090352E+02  0.54472506168E+01 -0.91938358204E+01  0.29677839014E+02  0.00000000000E+00 0. -1.
        -11    1    3    3    0    0  0.27075426251E+03  0.34188848992E+03  0.53875843779E+02  0.43942942181E+03  0.00000000000E+00 0.  1.
          4    1    6    6  502    0  0.89832065149E+02 -0.16627587260E+02 -0.18789142450E+02  0.93270083420E+02  0.00000000000E+00 0. -1.
          1    1    5    5  503    0 -0.40251739017E+03 -0.20358107468E+03  0.17573492529E+03  0.48409530810E+03  0.00000000000E+00 0. -1.
         -2    1    5    5    0  503 -0.14781188438E+03 -0.10386126387E+03  0.11830331610E+03  0.21594256157E+03  0.00000000000E+00 0.  1.
         -3    1    6    6    0  502  0.16205585654E+03 -0.23265814723E+02 -0.15355054246E+03  0.22445749679E+03  0.00000000000E+00 0.  1.
<mgrwt>
<rscale>  0 0.14775344E+04</rscale>
<asrwt>0</asrwt>
<pdfrwt beam="1">  1        2 0.12717333E+00 0.14775344E+04</pdfrwt>
<pdfrwt beam="2">  1       -2 0.10157632E+00 0.14775344E+04</pdfrwt>
<totfact> 0.25394633E+01</totfact>
</mgrwt>
</event>
<event>
12    1  0.1655405E-007  0.1747109E+04  0.7818608E-02  0.8734943E-01
          2   -1    0    0  501    0  0.00000000000E+00  0.00000000000E+00  0.16323780284E+04  0.16323780284E+04  0.00000000000E+00 0. -1.
         -2   -1    0    0    0  501 -0.00000000000E+00 -0.00000000000E+00 -0.46747575310E+03  0.46747575310E+03  0.00000000000E+00 0.  1.
         23    2    1    2    0    0  0.51291404037E+03  0.11376639303E+03  0.50090289555E+03  0.73107036941E+03  0.86813416337E+02 0.  0.
        254    2    1    2    0    0 -0.51291404037E+03 -0.11376639303E+03  0.66399937973E+03  0.13687834121E+04  0.10754762889E+04 0.  0.
        -24    2    4    4    0    0  0.27865662697E+03 -0.55911609374E+02  0.45894986448E+03  0.54576371319E+03  0.80295882313E+02 0.  0.
         24    2    4    4    0    0 -0.79157066735E+03 -0.57854783659E+02  0.20504951526E+03  0.82301969888E+03  0.73381357609E+02 0.  0.
         11    1    3    3    0    0  0.15540949184E+03  0.46193559894E+02  0.20960472806E+03  0.26499074918E+03  0.00000000000E+00 0. -1.
        -11    1    3    3    0    0  0.35750454853E+03  0.67572833138E+02  0.29129816750E+03  0.46607962022E+03  0.00000000000E+00 0.  1.
          4    1    6    6  502    0 -0.18445487947E+03 -0.90663790373E+01  0.16419500767E+02  0.18540604573E+03  0.00000000000E+00 0. -1.
          1    1    5    5  503    0  0.72348106622E+02 -0.37897215198E+02  0.18600815530E+03  0.20314891407E+03  0.00000000000E+00 0. -1.
         -2    1    5    5    0  503  0.20630852035E+03 -0.18014394175E+02  0.27294170918E+03  0.34261479912E+03  0.00000000000E+00 0.  1.
         -3    1    6    6    0  502 -0.60711578788E+03 -0.48788404621E+02  0.18863001449E+03  0.63761365315E+03  0.00000000000E+00 0.  1.
<mgrwt>
<rscale>  0 0.17471086E+04</rscale>
<asrwt>0</asrwt>
<pdfrwt beam="1">  1        2 0.25113508E+00 0.17471086E+04</pdfrwt>
<pdfrwt beam="2">  1       -2 0.71919347E-01 0.17471086E+04</pdfrwt>
<totfact> 0.17763334E+01</totfact>
</mgrwt>
</event>
<event>
12    1  0.1494110E-007  0.1225337E+04  0.7818608E-02  0.9090964E-01
         -2   -1    0    0    0  501 -0.00000000000E+00  0.00000000000E+00  0.32088003033E+03  0.32088003033E+03  0.00000000000E+00 0.  1.
          2   -1    0    0  501    0  0.00000000000E+00 -0.00000000000E+00 -0.11697908339E+04  0.11697908339E+04  0.00000000000E+00 0. -1.
         23    2    1    2    0    0 -0.23778131187E+02 -0.20169721682E+03 -0.41651165100E+03  0.47222872627E+03  0.90944201030E+02 0.  0.
        254    2    1    2    0    0  0.23778131187E+02  0.20169721682E+03 -0.43239915259E+03  0.10184421380E+04  0.89944882816E+03 0.  0.
        -24    2    4    4    0    0 -0.34473515755E+03 -0.12590428198E+03 -0.29789676880E+02  0.37685981740E+03  0.80260077567E+02 0.  0.
         24    2    4    4    0    0  0.36851328874E+03  0.32760149880E+03 -0.40260947571E+03  0.64158232059E+03  0.80054345086E+02 0.  0.
         13    1    3    3    0    0 -0.35886930919E+02 -0.19497839591E+03 -0.33277446395E+03  0.38735421844E+03  0.00000000000E+00 0. -1.
        -13    1    3    3    0    0  0.12108799733E+02 -0.67188209101E+01 -0.83737187047E+02  0.84874507833E+02  0.00000000000E+00 0.  1.
          4    1    6    6  502    0  0.72598973392E+02  0.73658025920E+02 -0.12844951761E+03  0.16491026134E+03  0.00000000000E+00 0. -1.
          3    1    5    5  503    0 -0.20579178938E+02 -0.24833490597E+02  0.12703482380E+02  0.34663861954E+02  0.00000000000E+00 0. -1.
         -4    1    5    5    0  503 -0.32415597861E+03 -0.10107079139E+03 -0.42493159260E+02  0.34219595545E+03  0.00000000000E+00 0.  1.
         -3    1    6    6    0  502  0.29591431534E+03  0.25394347288E+03 -0.27415995810E+03  0.47667205925E+03  0.00000000000E+00 0.  1.
<mgrwt>
<rscale>  0 0.12253367E+04</rscale>
<asrwt>0</asrwt>
<pdfrwt beam="1">  1        2 0.17996782E+00 0.12253367E+04</pdfrwt>
<pdfrwt beam="2">  1       -2 0.49366160E-01 0.12253367E+04</pdfrwt>
<totfact> 0.75545896E+01</totfact>
</mgrwt>
</event>
<event>
12    1  0.1494110E-007  0.1115030E+04  0.7818608E-02  0.9190665E-01
          2   -1    0    0  501    0  0.00000000000E+00  0.00000000000E+00  0.32164642740E+03  0.32164642740E+03  0.00000000000E+00 0. -1.
         -2   -1    0    0    0  501 -0.00000000000E+00 -0.00000000000E+00 -0.96635016656E+03  0.96635016656E+03  0.00000000000E+00 0.  1.
         23    2    1    2    0    0  0.81695517729E+02 -0.49730355684E+01 -0.29122600461E+03  0.31600807635E+03  0.91376309082E+02 0.  0.
        254    2    1    2    0    0 -0.81695517729E+02  0.49730355684E+01 -0.35347773456E+03  0.97198851760E+03  0.90172960516E+03 0.  0.
        -24    2    4    4    0    0 -0.20069757210E+02 -0.44547074709E+02 -0.64934906063E+03  0.65584127722E+03  0.78015007220E+02 0.  0.
         24    2    4    4    0    0 -0.61625760519E+02  0.49520110277E+02  0.29587132607E+03  0.31614724038E+03  0.78480955190E+02 0.  0.
         11    1    3    3    0    0  0.38050747600E+02  0.18097619382E+00 -0.23552073138E+02  0.44750332897E+02  0.00000000000E+00 0. -1.
        -11    1    3    3    0    0  0.43644770129E+02 -0.51540117622E+01 -0.26767393147E+03  0.27125774346E+03  0.00000000000E+00 0.  1.
          4    1    6    6  502    0 -0.77526050982E+02  0.23792780335E+02  0.21995245541E+03  0.23442582541E+03  0.00000000000E+00 0. -1.
          1    1    5    5  503    0  0.25446675611E+02 -0.37306844147E+02 -0.27817036827E+03  0.28181214967E+03  0.00000000000E+00 0. -1.
         -2    1    5    5    0  503 -0.45516432821E+02 -0.72402305621E+01 -0.37117869236E+03  0.37402912755E+03  0.00000000000E+00 0.  1.
         -3    1    6    6    0  502  0.15900290462E+02  0.25727329943E+02  0.75918870657E+02  0.81721414969E+02  0.00000000000E+00 0.  1.
<mgrwt>
<rscale>  0 0.11150302E+04</rscale>
<asrwt>0</asrwt>
<pdfrwt beam="1">  1        2 0.49484066E-01 0.11150302E+04</pdfrwt>
<pdfrwt beam="2">  1       -2 0.14866925E+00 0.11150302E+04</pdfrwt>
<totfact> 0.30877497E+01</totfact>
</mgrwt>
</event>
<event>
12    1  0.1494110E-007  0.1259351E+04  0.7818608E-02  0.9062436E-01
          1   -1    0    0  501    0  0.00000000000E+00  0.00000000000E+00  0.45858470561E+03  0.45858470561E+03  0.00000000000E+00 0. -1.
         -1   -1    0    0    0  501 -0.00000000000E+00 -0.00000000000E+00 -0.86459788773E+03  0.86459788773E+03  0.00000000000E+00 0.  1.
         23    2    1    2    0    0  0.54535710011E+02 -0.15762795307E+03  0.14160474767E+03  0.23705249346E+03  0.91220967087E+02 0.  0.
        254    2    1    2    0    0 -0.54535710011E+02  0.15762795307E+03 -0.54761792979E+03  0.10861300999E+04  0.92302355419E+03 0.  0.
        -24    2    4    4    0    0  0.30717501258E+03  0.38412790504E+03 -0.35047026521E+03  0.60927427602E+03  0.80467389935E+02 0.  0.
         24    2    4    4    0    0 -0.36171072259E+03 -0.22649995198E+03 -0.19714766458E+03  0.47685582386E+03  0.79921211338E+02 0.  0.
         11    1    3    3    0    0  0.77193906887E+02 -0.13331971825E+03  0.99417179398E+02  0.18334890808E+03  0.00000000000E+00 0. -1.
        -11    1    3    3    0    0 -0.22658196876E+02 -0.24308234822E+02  0.42187568273E+02  0.53703585380E+02  0.00000000000E+00 0.  1.
          4    1    6    6  502    0 -0.13164604091E+03 -0.40359157738E+02 -0.74009364309E+02  0.15632315154E+03  0.00000000000E+00 0. -1.
          3    1    5    5  503    0  0.20470808663E+03  0.19696095665E+03 -0.21843600010E+03  0.35834802262E+03  0.00000000000E+00 0. -1.
         -4    1    5    5    0  503  0.10246692595E+03  0.18716694840E+03 -0.13203426511E+03  0.25092625341E+03  0.00000000000E+00 0.  1.
         -3    1    6    6    0  502 -0.23006468168E+03 -0.18614079424E+03 -0.12313830027E+03  0.32053267232E+03  0.00000000000E+00 0.  1.
<mgrwt>
<rscale>  0 0.12593512E+04</rscale>
<asrwt>0</asrwt>
<pdfrwt beam="1">  1        1 0.70551494E-01 0.12593512E+04</pdfrwt>
<pdfrwt beam="2">  1       -1 0.13301506E+00 0.12593512E+04</pdfrwt>
<totfact> 0.23536096E+01</totfact>
</mgrwt>
</event>
<event>
12    1  0.1494110E-007  0.1393232E+04  0.7818608E-02  0.8958732E-01
          2   -1    0    0  501    0  0.00000000000E+00  0.00000000000E+00  0.16234732664E+04  0.16234732664E+04  0.00000000000E+00 0. -1.
         -2   -1    0    0    0  501 -0.00000000000E+00 -0.00000000000E+00 -0.29891078154E+03  0.29891078154E+03  0.00000000000E+00 0.  1.
         23    2    1    2    0    0 -0.35032635750E+03 -0.32321712852E+02  0.99675849404E+02  0.37664319527E+03  0.90286054894E+02 0.  0.
        254    2    1    2    0    0  0.35032635750E+03  0.32321712852E+02  0.12248866354E+04  0.15457408526E+04  0.87475383051E+03 0.  0.
        -24    2    4    4    0    0  0.36353728347E+03  0.29434792624E+03  0.25661619469E+03  0.53941048772E+03  0.79446489737E+02 0.  0.
         24    2    4    4    0    0 -0.13210925968E+02 -0.26202621339E+03  0.96827044074E+03  0.10063303649E+04  0.79504036973E+02 0.  0.
         11    1    3    3    0    0 -0.75368687573E+01 -0.16956656982E+02  0.13224825817E+02  0.22786588700E+02  0.00000000000E+00 0. -1.
        -11    1    3    3    0    0 -0.34278948875E+03 -0.15365055870E+02  0.86451023587E+02  0.35385660657E+03  0.00000000000E+00 0.  1.
          4    1    6    6  502    0 -0.21977528426E+01 -0.72182402690E+02  0.41639531530E+03  0.42261115459E+03  0.00000000000E+00 0. -1.
          1    1    5    5  503    0  0.69210246566E+02  0.10021682885E+03  0.70314164867E+02  0.14063268751E+03  0.00000000000E+00 0. -1.
         -2    1    5    5    0  503  0.29432703691E+03  0.19413109738E+03  0.18630202983E+03  0.39877780021E+03  0.00000000000E+00 0.  1.
         -1    1    6    6    0  502 -0.11013173126E+02 -0.18984381070E+03  0.55187512543E+03  0.58371921033E+03  0.00000000000E+00 0.  1.
<mgrwt>
<rscale>  0 0.13932317E+04</rscale>
<asrwt>0</asrwt>
<pdfrwt beam="1">  1        2 0.24976511E+00 0.13932317E+04</pdfrwt>
<pdfrwt beam="2">  1       -2 0.45986275E-01 0.13932317E+04</pdfrwt>
<totfact> 0.47231732E+01</totfact>
</mgrwt>
</event>
<event>
12    1  0.1494110E-007  0.2306982E+04  0.7818608E-02  0.8475173E-01
          2   -1    0    0  501    0  0.00000000000E+00  0.00000000000E+00  0.17588388642E+04  0.17588388642E+04  0.00000000000E+00 0. -1.
         -2   -1    0    0    0  501 -0.00000000000E+00 -0.00000000000E+00 -0.75648824648E+03  0.75648824648E+03  0.00000000000E+00 0.  1.
         23    2    1    2    0    0 -0.52876913644E+03 -0.70066990222E+03  0.88891696089E+03  0.12523121791E+04  0.87047797928E+02 0.  0.
        254    2    1    2    0    0  0.52876913644E+03  0.70066990222E+03  0.11343365684E+03  0.12630149315E+04  0.90100189304E+03 0.  0.
        -24    2    4    4    0    0  0.45308523316E+03  0.84764161806E+03  0.29145674342E+03  0.10075767166E+04  0.80506306586E+02 0.  0.
         24    2    4    4    0    0  0.75683903282E+02 -0.14697171584E+03 -0.17802308659E+03  0.25543821493E+03  0.78915928783E+02 0.  0.
         13    1    3    3    0    0 -0.13200835830E+03 -0.14238429919E+03  0.15493044420E+03  0.24840076058E+03  0.00000000000E+00 0.  1.
        -13    1    3    3    0    0 -0.39676077814E+03 -0.55828560304E+03  0.73398651670E+03  0.10039114186E+04  0.00000000000E+00 0. -1.
          2    1    6    6  502    0  0.26903620170E+02 -0.12549245770E+03 -0.11009175906E+03  0.16909274712E+03  0.00000000000E+00 0. -1.
          3    1    5    5  503    0  0.35841529171E+03  0.62861751710E+03  0.24873749001E+03  0.76517438736E+03  0.00000000000E+00 0. -1.
         -2    1    5    5    0  503  0.94669941455E+02  0.21902410096E+03  0.42719253414E+02  0.24240232925E+03  0.00000000000E+00 0.  1.
         -1    1    6    6    0  502  0.48780283112E+02 -0.21479258141E+02 -0.67931327530E+02  0.86345467807E+02  0.00000000000E+00 0.  1.
<mgrwt>
<rscale>  0 0.23069815E+04</rscale>
<asrwt>0</asrwt>
<pdfrwt beam="1">  1        2 0.27059059E+00 0.23069815E+04</pdfrwt>
<pdfrwt beam="2">  1       -2 0.11638281E+00 0.23069815E+04</pdfrwt>
<totfact> 0.47196985E+00</totfact>
</mgrwt>
</event>
<event>
12    1  0.1494110E-007  0.1464304E+04  0.7818608E-02  0.8908544E-01
         -2   -1    0    0    0  501 -0.00000000000E+00  0.00000000000E+00  0.23533509844E+03  0.23533509844E+03  0.00000000000E+00 0.  1.
          2   -1    0    0  501    0  0.00000000000E+00 -0.00000000000E+00 -0.22777997482E+04  0.22777997482E+04  0.00000000000E+00 0. -1.
         23    2    1    2    0    0 -0.18623531757E+03 -0.18791414706E+01 -0.13520403959E+04  0.13678243609E+04  0.90791659238E+02 0.  0.
        254    2    1    2    0    0  0.18623531757E+03  0.18791414706E+01 -0.69042425384E+03  0.11453104857E+04  0.89463027770E+03 0.  0.
        -24    2    4    4    0    0 -0.30293648764E+02  0.37546722198E+03 -0.80569570620E+02  0.39334339435E+03  0.79587877417E+02 0.  0.
         24    2    4    4    0    0  0.21652896633E+03 -0.37358808051E+03 -0.60985468322E+03  0.75196709139E+03  0.84136346100E+02 0.  0.
         13    1    3    3    0    0 -0.19055805814E+03 -0.16115629497E+02 -0.12850300150E+04  0.12991821375E+04  0.00000000000E+00 0. -1.
        -13    1    3    3    0    0  0.43227405769E+01  0.14236488026E+02 -0.67010380937E+02  0.68642223381E+02  0.00000000000E+00 0.  1.
          2    1    6    6  502    0  0.11548062201E+03 -0.14843887474E+03 -0.20829798939E+03  0.28063842570E+03  0.00000000000E+00 0. -1.
          1    1    5    5  503    0 -0.28032272468E+02  0.73062699853E+02 -0.41020688990E+02  0.88355324315E+02  0.00000000000E+00 0. -1.
         -2    1    5    5    0  503 -0.22613762965E+01  0.30240452213E+03 -0.39548881630E+02  0.30498807003E+03  0.00000000000E+00 0.  1.
         -1    1    6    6    0  502  0.10104834432E+03 -0.22514920577E+03 -0.40155669383E+03  0.47132866569E+03  0.00000000000E+00 0.  1.
<mgrwt>
<rscale>  0 0.14643036E+04</rscale>
<asrwt>0</asrwt>
<pdfrwt beam="1">  1        2 0.35043075E+00 0.14643036E+04</pdfrwt>
<pdfrwt beam="2">  1       -2 0.36205398E-01 0.14643036E+04</pdfrwt>
<totfact> 0.32507719E+01</totfact>
</mgrwt>
</event>
<event>
12    1  0.1494110E-007  0.2236410E+04  0.7818608E-02  0.8503425E-01
          1   -1    0    0  501    0  0.00000000000E+00  0.00000000000E+00  0.14276831955E+04  0.14276831955E+04  0.00000000000E+00 0. -1.
         -1   -1    0    0    0  501 -0.00000000000E+00 -0.00000000000E+00 -0.87581214855E+03  0.87581214855E+03  0.00000000000E+00 0.  1.
         23    2    1    2    0    0 -0.38820289368E+03 -0.48170055222E+03  0.95505522323E+03  0.11416187076E+04  0.91792621753E+02 0.  0.
        254    2    1    2    0    0  0.38820289368E+03  0.48170055222E+03 -0.40318417631E+03  0.11618766364E+04  0.89703006058E+03 0.  0.
        -24    2    4    4    0    0  0.37948091880E+03  0.54773047922E+03  0.72770849389E+02  0.67510895411E+03  0.80386925496E+02 0.  0.
         24    2    4    4    0    0  0.87219748781E+01 -0.66029926997E+02 -0.47595502570E+03  0.48676768233E+03  0.77288847582E+02 0.  0.
         11    1    3    3    0    0 -0.13661944827E+03 -0.23961529943E+03  0.44338401377E+03  0.52217789021E+03  0.00000000000E+00 0.  1.
        -11    1    3    3    0    0 -0.25158344542E+03 -0.24208525279E+03  0.51167120946E+03  0.61944081737E+03  0.00000000000E+00 0. -1.
          2    1    6    6  502    0 -0.28739502295E+02 -0.26937831671E+02 -0.11023282121E+03  0.11705930394E+03  0.00000000000E+00 0. -1.
          1    1    5    5  503    0  0.32785254913E+02  0.40298112464E+02  0.27759436497E+02  0.58901588454E+02  0.00000000000E+00 0. -1.
         -2    1    5    5    0  503  0.34669566389E+03  0.50743236676E+03  0.45011412892E+02  0.61620736565E+03  0.00000000000E+00 0.  1.
         -1    1    6    6    0  502  0.37461477173E+02 -0.39092095326E+02 -0.36572220449E+03  0.36970837838E+03  0.00000000000E+00 0.  1.
<mgrwt>
<rscale>  0 0.22364099E+04</rscale>
<asrwt>0</asrwt>
<pdfrwt beam="1">  1        1 0.21964357E+00 0.22364099E+04</pdfrwt>
<pdfrwt beam="2">  1       -1 0.13474033E+00 0.22364099E+04</pdfrwt>
<totfact> 0.30911034E+00</totfact>
</mgrwt>
</event>
<event>
12    1  0.1494110E-007  0.2546444E+04  0.7818608E-02  0.8386624E-01
         -1   -1    0    0    0  501 -0.00000000000E+00  0.00000000000E+00  0.61299774407E+03  0.61299774407E+03  0.00000000000E+00 0.  1.
          1   -1    0    0  501    0  0.00000000000E+00 -0.00000000000E+00 -0.26445353430E+04  0.26445353430E+04  0.00000000000E+00 0. -1.
         23    2    1    2    0    0 -0.35617028140E+02  0.37615605199E+03 -0.22275605218E+04  0.22612002203E+04  0.90766786872E+02 0.  0.
        254    2    1    2    0    0  0.35617028140E+02 -0.37615605199E+03  0.19602292295E+03  0.99633286675E+03  0.90082864459E+03 0.  0.
        -24    2    4    4    0    0 -0.34649461269E+02  0.10146084868E+03 -0.28202152989E+03  0.31221880909E+03  0.80309105640E+02 0.  0.
         24    2    4    4    0    0  0.70266489409E+02 -0.47761690067E+03  0.47804445284E+03  0.68411405766E+03  0.80188912372E+02 0.  0.
         11    1    3    3    0    0 -0.64465498267E+02  0.21334330522E+03 -0.13271978338E+04  0.13457805380E+04  0.00000000000E+00 0. -1.
        -11    1    3    3    0    0  0.28848470128E+02  0.16281274677E+03 -0.90036268806E+03  0.91541968233E+03  0.00000000000E+00 0.  1.
          2    1    6    6  502    0  0.73278091133E+02 -0.22410638021E+03  0.22492432532E+03  0.32585932611E+03  0.00000000000E+00 0. -1.
          1    1    5    5  503    0  0.12342887212E+02  0.81611192423E+02 -0.18588557051E+03  0.20338677174E+03  0.00000000000E+00 0. -1.
         -2    1    5    5    0  503 -0.46992348481E+02  0.19849656257E+02 -0.96135959376E+02  0.10883203735E+03  0.00000000000E+00 0.  1.
         -1    1    6    6    0  502 -0.30116017237E+01 -0.25351052046E+03  0.25312012752E+03  0.35825473156E+03  0.00000000000E+00 0.  1.
<mgrwt>
<rscale>  0 0.25464440E+04</rscale>
<asrwt>0</asrwt>
<pdfrwt beam="1">  1        1 0.40685159E+00 0.25464440E+04</pdfrwt>
<pdfrwt beam="2">  1       -1 0.94307345E-01 0.25464440E+04</pdfrwt>
<totfact> 0.10338598E+00</totfact>
</mgrwt>
</event>
<event>
12    1  0.2056824E-007  0.2376139E+04  0.7818608E-02  0.8448491E-01
         -1   -1    0    0    0  501 -0.00000000000E+00  0.00000000000E+00  0.14012663696E+04  0.14012663696E+04  0.00000000000E+00 0.  1.
          1   -1    0    0  501    0  0.00000000000E+00 -0.00000000000E+00 -0.10073098970E+04  0.10073098970E+04  0.00000000000E+00 0. -1.
         23    2    1    2    0    0 -0.50723576949E+03  0.25941225740E+03 -0.68622652766E+03  0.89659742612E+03  0.91636521720E+02 0.  0.
        254    2    1    2    0    0  0.50723576949E+03 -0.25941225740E+03  0.10801830004E+04  0.15119788405E+04  0.89146051774E+03 0.  0.
        -24    2    4    4    0    0  0.54136782101E+03  0.38839353504E+02  0.10684448527E+04  0.12012456630E+04  0.82638529719E+02 0.  0.
         24    2    4    4    0    0 -0.34132051517E+02 -0.29825161091E+03  0.11738147614E+02  0.31073317746E+03  0.79361849249E+02 0.  0.
         11    1    3    3    0    0 -0.45233525720E+03  0.19923905040E+03 -0.60918069370E+03  0.78447721553E+03  0.00000000000E+00 0. -1.
        -11    1    3    3    0    0 -0.54900512288E+02  0.60173207007E+02 -0.77045833958E+02  0.11212021058E+03  0.00000000000E+00 0.  1.
          2    1    6    6  502    0 -0.11955549159E+02 -0.14571294759E+01 -0.40125736438E+01  0.12694846562E+02  0.00000000000E+00 0. -1.
          1    1    5    5  503    0 -0.32112454947E+00  0.51483693338E+01  0.19983436353E+02  0.20638472721E+02  0.00000000000E+00 0. -1.
         -2    1    5    5    0  503  0.54168894555E+03  0.33690984170E+02  0.10484614164E+04  0.11806071903E+04  0.00000000000E+00 0.  1.
         -1    1    6    6    0  502 -0.22176502359E+02 -0.29679448143E+03  0.15750721257E+02  0.29803833090E+03  0.00000000000E+00 0.  1.
<mgrwt>
<rscale>  0 0.23761393E+04</rscale>
<asrwt>0</asrwt>
<pdfrwt beam="1">  1        1 0.15497075E+00 0.23761393E+04</pdfrwt>
<pdfrwt beam="2">  1       -1 0.21557944E+00 0.23761393E+04</pdfrwt>
<totfact> 0.15802254E+00</totfact>
</mgrwt>
</event>
<event>
12    1  0.1494110E-007  0.1168281E+04  0.7818608E-02  0.9141082E-01
         -1   -1    0    0    0  501 -0.00000000000E+00  0.00000000000E+00  0.14733487244E+03  0.14733487244E+03  0.00000000000E+00 0.  1.
          1   -1    0    0  501    0  0.00000000000E+00 -0.00000000000E+00 -0.23159493418E+04  0.23159493418E+04  0.00000000000E+00 0. -1.
         23    2    1    2    0    0  0.11916522152E+02 -0.15934114987E+02 -0.94725108472E+03  0.95192708209E+03  0.92112173914E+02 0.  0.
        254    2    1    2    0    0 -0.11916522152E+02  0.15934114987E+02 -0.12213633846E+04  0.15113571321E+04  0.88998649655E+03 0.  0.
        -24    2    4    4    0    0  0.20945687821E+03  0.33457884118E+03 -0.94855580250E+03  0.10305075765E+04  0.79828377693E+02 0.  0.
         24    2    4    4    0    0 -0.22137340036E+03 -0.31864472619E+03 -0.27280758214E+03  0.48084955570E+03  0.79067530777E+02 0.  0.
         11    1    3    3    0    0 -0.81404061437E+01  0.29523872353E+01 -0.66384582224E+01  0.10911092069E+02  0.00000000000E+00 0.  1.
        -11    1    3    3    0    0  0.20056928296E+02 -0.18886502222E+02 -0.94061262650E+03  0.94101599002E+03  0.00000000000E+00 0. -1.
          4    1    6    6  502    0  0.22628875120E+01 -0.36277446516E+01 -0.16946051415E+02  0.17477123610E+02  0.00000000000E+00 0. -1.
          3    1    5    5  503    0 -0.28597496133E+01  0.96623727948E+01 -0.75311858680E+01  0.12580078555E+02  0.00000000000E+00 0. -1.
         -4    1    5    5    0  503  0.21231662782E+03  0.32491646838E+03 -0.94102461663E+03  0.10179274979E+04  0.00000000000E+00 0.  1.
         -3    1    6    6    0  502 -0.22363628787E+03 -0.31501698154E+03 -0.25586153073E+03  0.46337243208E+03  0.00000000000E+00 0.  1.
<mgrwt>
<rscale>  0 0.11682810E+04</rscale>
<asrwt>0</asrwt>
<pdfrwt beam="1">  1        1 0.35629988E+00 0.11682810E+04</pdfrwt>
<pdfrwt beam="2">  1       -1 0.22666905E-01 0.11682810E+04</pdfrwt>
<totfact> 0.29959232E+01</totfact>
</mgrwt>
</event>
<event>
12    1  0.1494110E-007  0.2394313E+04  0.7818608E-02  0.8441636E-01
         -2   -1    0    0    0  501 -0.00000000000E+00  0.00000000000E+00  0.56260372075E+03  0.56260372075E+03  0.00000000000E+00 0. -1.
          2   -1    0    0  501    0  0.00000000000E+00 -0.00000000000E+00 -0.25474123003E+04  0.25474123003E+04  0.00000000000E+00 0.  1.
         23    2    1    2    0    0  0.78571045934E+03  0.25812936698E+03 -0.16382777823E+04  0.18371139314E+04  0.84034569840E+02 0.  0.
        254    2    1    2    0    0 -0.78571045934E+03 -0.25812936698E+03 -0.34653079732E+03  0.12729020897E+04  0.90345140463E+03 0.  0.
        -24    2    4    4    0    0 -0.58541536362E+03 -0.82414777157E+02 -0.63567478701E+03  0.87168519521E+03  0.79052522117E+02 0.  0.
         24    2    4    4    0    0 -0.20029509572E+03 -0.17571458982E+03  0.28914398968E+03  0.40121689452E+03  0.79856165916E+02 0.  0.
         11    1    3    3    0    0  0.70286670520E+03  0.21655976266E+03 -0.15005974708E+04  0.16711410788E+04  0.00000000000E+00 0.  1.
        -11    1    3    3    0    0  0.82843754141E+02  0.41569604321E+02 -0.13768031150E+03  0.16597285253E+03  0.00000000000E+00 0. -1.
          4    1    6    6  502    0 -0.76281041889E+02 -0.11971556041E+03  0.15380350830E+03  0.20929914458E+03  0.00000000000E+00 0. -1.
          1    1    5    5  503    0 -0.23532664073E+03 -0.63666642349E+01 -0.21152375925E+03  0.31648295843E+03  0.00000000000E+00 0. -1.
         -2    1    5    5    0  503 -0.35008872289E+03 -0.76048112922E+02 -0.42415102776E+03  0.55520223678E+03  0.00000000000E+00 0.  1.
         -3    1    6    6    0  502 -0.12401405383E+03 -0.55999029415E+02  0.13534048139E+03  0.19191774995E+03  0.00000000000E+00 0.  1.
<mgrwt>
<rscale>  0 0.23943130E+04</rscale>
<asrwt>0</asrwt>
<pdfrwt beam="1">  1        2 0.39190958E+00 0.23943130E+04</pdfrwt>
<pdfrwt beam="2">  1       -2 0.86554420E-01 0.23943130E+04</pdfrwt>
<totfact> 0.33973929E+00</totfact>
</mgrwt>
</event>
<event>
12    1  0.1494110E-007  0.2680624E+04  0.7818608E-02  0.8341319E-01
          1   -1    0    0  501    0  0.00000000000E+00  0.00000000000E+00  0.14617317322E+04  0.14617317322E+04  0.00000000000E+00 0. -1.
         -1   -1    0    0    0  501 -0.00000000000E+00 -0.00000000000E+00 -0.12289779575E+04  0.12289779575E+04  0.00000000000E+00 0.  1.
         23    2    1    2    0    0 -0.18182145303E+03 -0.12901627210E+03  0.12521754412E+04  0.12751308865E+04  0.91165799429E+02 0.  0.
        254    2    1    2    0    0  0.18182145303E+03  0.12901627210E+03 -0.10194216665E+04  0.14155788032E+04  0.95652421542E+03 0.  0.
        -24    2    4    4    0    0  0.67140279856E+02 -0.38485269380E+03 -0.22128559954E+03  0.45622278795E+03  0.80947529801E+02 0.  0.
         24    2    4    4    0    0  0.11468117317E+03  0.51386896590E+03 -0.79813606695E+03  0.95935601523E+03  0.78292381543E+02 0.  0.
         11    1    3    3    0    0 -0.10093728273E+03 -0.26589622469E+02  0.41959982931E+03  0.43238797373E+03  0.00000000000E+00 0.  1.
        -11    1    3    3    0    0 -0.80884170293E+02 -0.10242664963E+03  0.83257561188E+03  0.84274291279E+03  0.00000000000E+00 0. -1.
          4    1    6    6  502    0  0.86490949331E+02  0.41413195945E+03 -0.58057482842E+03  0.71836835645E+03  0.00000000000E+00 0. -1.
          3    1    5    5  503    0  0.84297624378E+02 -0.29107176243E+03 -0.15753874256E+03  0.34153669754E+03  0.00000000000E+00 0. -1.
         -4    1    5    5    0  503 -0.17157344522E+02 -0.93780931372E+02 -0.63746856972E+02  0.11468609041E+03  0.00000000000E+00 0.  1.
         -3    1    6    6    0  502  0.28190223840E+02  0.99737006442E+02 -0.21756123853E+03  0.24098765878E+03  0.00000000000E+00 0.  1.
<mgrwt>
<rscale>  0 0.26806239E+04</rscale>
<asrwt>0</asrwt>
<pdfrwt beam="1">  1        1 0.22488180E+00 0.26806239E+04</pdfrwt>
<pdfrwt beam="2">  1       -1 0.18907353E+00 0.26806239E+04</pdfrwt>
<totfact> 0.10911660E+00</totfact>
</mgrwt>
</event>
<event>
12    1  0.1494110E-007  0.5751226E+04  0.7818608E-02  0.7722036E-01
         -1   -1    0    0    0  501 -0.00000000000E+00  0.00000000000E+00  0.25727978057E+04  0.25727978057E+04  0.00000000000E+00 0.  1.
          1   -1    0    0  501    0  0.00000000000E+00 -0.00000000000E+00 -0.32140687153E+04  0.32140687153E+04  0.00000000000E+00 0. -1.
         23    2    1    2    0    0  0.15459044033E+04 -0.14564108525E+04  0.15311365466E+04  0.26198520079E+04  0.91062744464E+02 0.  0.
        254    2    1    2    0    0 -0.15459044033E+04  0.14564108525E+04 -0.21724074563E+04  0.31670145132E+04  0.89424480727E+03 0.  0.
        -24    2    4    4    0    0 -0.10369241639E+04  0.10716297509E+04 -0.20094992210E+04  0.25035963438E+04  0.79407108772E+02 0.  0.
         24    2    4    4    0    0 -0.50898023943E+03  0.38478110153E+03 -0.16290823527E+03  0.66341816936E+03  0.80418866490E+02 0.  0.
         13    1    3    3    0    0  0.34362380048E+03 -0.30615411009E+03  0.37592631146E+03  0.59424594827E+03  0.00000000000E+00 0. -1.
        -13    1    3    3    0    0  0.12022806028E+04 -0.11502567424E+04  0.11552102352E+04  0.20256060596E+04  0.00000000000E+00 0.  1.
          2    1    6    6  502    0 -0.43921647503E+03  0.36200474212E+03 -0.13550611283E+03  0.58508157710E+03  0.00000000000E+00 0. -1.
          3    1    5    5  503    0 -0.10245950325E+04  0.10432027969E+04 -0.19637871615E+04  0.24483723311E+04  0.00000000000E+00 0. -1.
         -4    1    5    5    0  503 -0.12329131347E+02  0.28426954062E+02 -0.45712059470E+02  0.55224012694E+02  0.00000000000E+00 0.  1.
         -1    1    6    6    0  502 -0.69763764400E+02  0.22776359416E+02 -0.27402122443E+02  0.78336592254E+02  0.00000000000E+00 0.  1.
<mgrwt>
<rscale>  0 0.57512256E+04</rscale>
<asrwt>0</asrwt>
<pdfrwt beam="1">  1        1 0.49447211E+00 0.57512256E+04</pdfrwt>
<pdfrwt beam="2">  1       -1 0.39581505E+00 0.57512256E+04</pdfrwt>
<totfact> 0.21585529E-03</totfact>
</mgrwt>
</event>
<event>
12    1  0.1494110E-007  0.2429496E+04  0.7818608E-02  0.8428543E-01
         -1   -1    0    0    0  501 -0.00000000000E+00  0.00000000000E+00  0.53577267399E+03  0.53577267399E+03  0.00000000000E+00 0.  1.
          1   -1    0    0  501    0  0.00000000000E+00 -0.00000000000E+00 -0.27541769958E+04  0.27541769958E+04  0.00000000000E+00 0. -1.
         23    2    1    2    0    0 -0.88910481499E+03  0.67382648851E+02 -0.17407458736E+04  0.19573808592E+04  0.78075849923E+02 0.  0.
        254    2    1    2    0    0  0.88910481499E+03 -0.67382648851E+02 -0.47765844825E+03  0.13325688106E+04  0.86748731882E+03 0.  0.
        -24    2    4    4    0    0  0.50605358327E+03 -0.32167957047E+03 -0.59804784050E+03  0.85059879589E+03  0.79303952271E+02 0.  0.
         24    2    4    4    0    0  0.38305123172E+03  0.25429692162E+03  0.12038939226E+03  0.48197001467E+03  0.80039482815E+02 0.  0.
         13    1    3    3    0    0 -0.54223412602E+03  0.45481450808E+01 -0.10794593819E+04  0.12080029347E+04  0.00000000000E+00 0. -1.
        -13    1    3    3    0    0 -0.34687068897E+03  0.62834503770E+02 -0.66128649164E+03  0.74937792452E+03  0.00000000000E+00 0.  1.
          2    1    6    6  502    0  0.30804147075E+03  0.18262587647E+03  0.12167865486E+03  0.37821614654E+03  0.00000000000E+00 0. -1.
          3    1    5    5  503    0  0.32866980147E+03 -0.24475199560E+03 -0.37574661420E+03  0.55597922248E+03  0.00000000000E+00 0. -1.
         -4    1    5    5    0  503  0.17738378180E+03 -0.76927574872E+02 -0.22230122631E+03  0.29461957341E+03  0.00000000000E+00 0.  1.
         -1    1    6    6    0  502  0.75009760967E+02  0.71671045152E+02 -0.12892626041E+01  0.10375386813E+03  0.00000000000E+00 0.  1.
<mgrwt>
<rscale>  0 0.24294961E+04</rscale>
<asrwt>0</asrwt>
<pdfrwt beam="1">  1        1 0.42371953E+00 0.24294961E+04</pdfrwt>
<pdfrwt beam="2">  1       -1 0.82426566E-01 0.24294961E+04</pdfrwt>
<totfact> 0.11748253E+00</totfact>
</mgrwt>
</event>
<event>
12    1  0.1494110E-007  0.1686759E+04  0.7818608E-02  0.8768952E-01
          2   -1    0    0  501    0  0.00000000000E+00  0.00000000000E+00  0.90512729156E+03  0.90512729156E+03  0.00000000000E+00 0. -1.
         -2   -1    0    0    0  501 -0.00000000000E+00 -0.00000000000E+00 -0.78584451834E+03  0.78584451834E+03  0.00000000000E+00 0.  1.
         23    2    1    2    0    0 -0.35391556082E+03 -0.19398470353E+03 -0.40715909700E+03  0.58037016491E+03  0.90358777386E+02 0.  0.
        254    2    1    2    0    0  0.35391556082E+03  0.19398470353E+03  0.52644187022E+03  0.11106016450E+04  0.89073491103E+03 0.  0.
        -24    2    4    4    0    0  0.80667874156E+01 -0.12260097604E+03 -0.19678115744E+03  0.24480463382E+03  0.78169127080E+02 0.  0.
         24    2    4    4    0    0  0.34584877341E+03  0.31658567957E+03  0.72322302766E+03  0.86579701117E+03  0.81945410125E+02 0.  0.
         13    1    3    3    0    0 -0.58286674235E+02  0.27082791393E+01 -0.63007475816E+02  0.85875567992E+02  0.00000000000E+00 0. -1.
        -13    1    3    3    0    0 -0.29562888659E+03 -0.19669298267E+03 -0.34415162119E+03  0.49449459692E+03  0.00000000000E+00 0.  1.
          4    1    6    6  502    0  0.14492221196E+03  0.80738779802E+02  0.23895511924E+03  0.29089645425E+03  0.00000000000E+00 0. -1.
          1    1    5    5  503    0 -0.24275637056E+02 -0.43239421099E+02 -0.11960500419E+03  0.12947706792E+03  0.00000000000E+00 0. -1.
         -2    1    5    5    0  503  0.32342424471E+02 -0.79361554944E+02 -0.77176153252E+02  0.11532756589E+03  0.00000000000E+00 0.  1.
         -3    1    6    6    0  502  0.20092656145E+03  0.23584689977E+03  0.48426790842E+03  0.57490055693E+03  0.00000000000E+00 0.  1.
<mgrwt>
<rscale>  0 0.16867594E+04</rscale>
<asrwt>0</asrwt>
<pdfrwt beam="1">  1        2 0.13925035E+00 0.16867594E+04</pdfrwt>
<pdfrwt beam="2">  1       -2 0.12089916E+00 0.16867594E+04</pdfrwt>
<totfact> 0.14441738E+01</totfact>
</mgrwt>
</event>
<event>
12    1  0.1494110E-007  0.1015573E+04  0.7818608E-02  0.9291628E-01
         -2   -1    0    0    0  501 -0.00000000000E+00  0.00000000000E+00  0.18976358088E+03  0.18976358088E+03  0.00000000000E+00 0.  1.
          2   -1    0    0  501    0  0.00000000000E+00 -0.00000000000E+00 -0.13587804837E+04  0.13587804837E+04  0.00000000000E+00 0. -1.
         23    2    1    2    0    0  0.43415169153E+02  0.28262305576E+01 -0.20980238188E+03  0.23279708034E+03  0.91019649974E+02 0.  0.
        254    2    1    2    0    0 -0.43415169153E+02 -0.28262305576E+01 -0.95921452099E+03  0.13157469843E+04  0.89955809422E+03 0.  0.
        -24    2    4    4    0    0  0.21022588148E+03  0.27129557929E+03 -0.86486289941E+02  0.36307160236E+03  0.80900540857E+02 0.  0.
         24    2    4    4    0    0 -0.25364105063E+03 -0.27412180984E+03 -0.87272823105E+03  0.95267538192E+03  0.80369576641E+02 0.  0.
         11    1    3    3    0    0 -0.20609916421E+02 -0.11337566672E+02 -0.16653901583E+02  0.28821198983E+02  0.00000000000E+00 0.  1.
        -11    1    3    3    0    0  0.64025085574E+02  0.14163797230E+02 -0.19314848030E+03  0.20397588136E+03  0.00000000000E+00 0. -1.
          4    1    6    6  502    0 -0.24166477467E+03 -0.24545966913E+03 -0.73825849705E+03  0.81466429954E+03  0.00000000000E+00 0. -1.
          1    1    5    5  503    0  0.21413070372E+03  0.25384187006E+03 -0.71425739564E+02  0.33968999036E+03  0.00000000000E+00 0. -1.
         -2    1    5    5    0  503 -0.39048222477E+01  0.17453709221E+02 -0.15060550376E+02  0.23381612006E+02  0.00000000000E+00 0.  1.
         -3    1    6    6    0  502 -0.11976275955E+02 -0.28662140710E+02 -0.13446973401E+03  0.13801108238E+03  0.00000000000E+00 0.  1.
<mgrwt>
<rscale>  0 0.10155728E+04</rscale>
<asrwt>0</asrwt>
<pdfrwt beam="1">  1        2 0.20904315E+00 0.10155728E+04</pdfrwt>
<pdfrwt beam="2">  1       -2 0.29194397E-01 0.10155728E+04</pdfrwt>
<totfact> 0.16426349E+02</totfact>
</mgrwt>
</event>
<event>
12    1  0.1494110E-007  0.1701609E+04  0.7818608E-02  0.8760447E-01
         -1   -1    0    0    0  501 -0.00000000000E+00  0.00000000000E+00  0.12143843179E+04  0.12143843179E+04  0.00000000000E+00 0.  1.
          1   -1    0    0  501    0  0.00000000000E+00 -0.00000000000E+00 -0.59607837817E+03  0.59607837817E+03  0.00000000000E+00 0. -1.
         23    2    1    2    0    0 -0.32579750238E+03  0.35767703111E+03  0.61454881723E+03  0.78765517410E+03  0.93024477353E+02 0.  0.
        254    2    1    2    0    0  0.32579750238E+03 -0.35767703111E+03  0.37571224840E+01  0.10228075220E+04  0.90113497317E+03 0.  0.
        -24    2    4    4    0    0 -0.22131183905E+03  0.14210023092E+03 -0.19641805139E+02  0.27695498657E+03  0.84539093583E+02 0.  0.
         24    2    4    4    0    0  0.54710934143E+03 -0.49977726203E+03  0.23398927623E+02  0.74585253539E+03  0.81501850329E+02 0.  0.
         11    1    3    3    0    0 -0.92541443702E+02  0.98771549438E+02  0.10976052316E+03  0.17426161432E+03  0.00000000000E+00 0. -1.
        -11    1    3    3    0    0 -0.23325605867E+03  0.25890548167E+03  0.50478829407E+03  0.61339355978E+03  0.00000000000E+00 0.  1.
          4    1    6    6  502    0  0.13437999323E+03 -0.11382825201E+03 -0.28517530339E+02  0.17840432470E+03  0.00000000000E+00 0. -1.
          1    1    5    5  503    0 -0.20911941186E+02  0.52858345057E+02 -0.59635087010E+01  0.57156603839E+02  0.00000000000E+00 0. -1.
         -4    1    5    5    0  503 -0.20039989787E+03  0.89241885865E+02 -0.13678296438E+02  0.21979838273E+03  0.00000000000E+00 0.  1.
         -3    1    6    6    0  502  0.41272934821E+03 -0.38594901002E+03  0.51916457962E+02  0.56744821069E+03  0.00000000000E+00 0.  1.
<mgrwt>
<rscale>  0 0.17016089E+04</rscale>
<asrwt>0</asrwt>
<pdfrwt beam="1">  1        1 0.91704366E-01 0.17016089E+04</pdfrwt>
<pdfrwt beam="2">  1       -1 0.18682836E+00 0.17016089E+04</pdfrwt>
<totfact> 0.61191610E+00</totfact>
</mgrwt>
</event>
<event>
12    1  0.1494110E-007  0.1389555E+04  0.7818608E-02  0.8961414E-01
          2   -1    0    0  501    0  0.00000000000E+00  0.00000000000E+00  0.11466691656E+04  0.11466691656E+04  0.00000000000E+00 0. -1.
         -2   -1    0    0    0  501 -0.00000000000E+00 -0.00000000000E+00 -0.42097209899E+03  0.42097209899E+03  0.00000000000E+00 0.  1.
         23    2    1    2    0    0 -0.37779029343E+03 -0.10644808086E+03  0.28626341420E+03  0.49430212488E+03  0.91275126006E+02 0.  0.
        254    2    1    2    0    0  0.37779029343E+03  0.10644808086E+03  0.43943365243E+03  0.10733391397E+04  0.89716123093E+03 0.  0.
        -24    2    4    4    0    0  0.40535823881E+03  0.42536415637E+03  0.44812633619E+03  0.74342858878E+03  0.81356537088E+02 0.  0.
         24    2    4    4    0    0 -0.27567945386E+02 -0.31891607551E+03 -0.86926837617E+01  0.32991055096E+03  0.79359650028E+02 0.  0.
         13    1    3    3    0    0 -0.28803060422E+03 -0.97870875724E+02  0.26056571601E+03  0.40054316827E+03  0.00000000000E+00 0. -1.
        -13    1    3    3    0    0 -0.89759689202E+02 -0.85772051325E+01  0.25697698194E+02  0.93758956617E+02  0.00000000000E+00 0.  1.
          2    1    6    6  502    0 -0.53026974009E+01 -0.11619060290E+02 -0.17520494910E+02  0.21681533701E+02  0.00000000000E+00 0. -1.
          1    1    5    5  503    0  0.19044051283E+03  0.18023559436E+03  0.24793478107E+03  0.36086578400E+03  0.00000000000E+00 0. -1.
         -2    1    5    5    0  503  0.21491772598E+03  0.24512856201E+03  0.20019155513E+03  0.38256280478E+03  0.00000000000E+00 0.  1.
         -1    1    6    6    0  502 -0.22265247985E+02 -0.30729701522E+03  0.88278111483E+01  0.30822901726E+03  0.00000000000E+00 0.  1.
<mgrwt>
<rscale>  0 0.13895549E+04</rscale>
<asrwt>0</asrwt>
<pdfrwt beam="1">  1        2 0.17641064E+00 0.13895549E+04</pdfrwt>
<pdfrwt beam="2">  1       -2 0.64764939E-01 0.13895549E+04</pdfrwt>
<totfact> 0.43717161E+01</totfact>
</mgrwt>
</event>
<event>
12    1  0.1494110E-007  0.1323913E+04  0.7818608E-02  0.9010814E-01
          2   -1    0    0  501    0  0.00000000000E+00  0.00000000000E+00  0.22692041362E+04  0.22692041362E+04  0.00000000000E+00 0. -1.
         -2   -1    0    0    0  501 -0.00000000000E+00 -0.00000000000E+00 -0.19310144756E+03  0.19310144756E+03  0.00000000000E+00 0.  1.
         23    2    1    2    0    0  0.81687169231E+02  0.80121208944E+01  0.11675067528E+04  0.11739238012E+04  0.91038923539E+02 0.  0.
        254    2    1    2    0    0 -0.81687169231E+02 -0.80121208944E+01  0.90859593585E+03  0.12883817825E+04  0.90974944639E+03 0.  0.
        -24    2    4    4    0    0 -0.12661539750E+03 -0.19831216011E+03 -0.92315347531E+02  0.26538575405E+03  0.80921587533E+02 0.  0.
         24    2    4    4    0    0  0.44928228273E+02  0.19030003921E+03  0.10009112834E+04  0.10229960285E+04  0.80404144582E+02 0.  0.
         13    1    3    3    0    0  0.60775318008E+02 -0.18429172650E+02  0.10430684229E+04  0.10450000041E+04  0.00000000000E+00 0. -1.
        -13    1    3    3    0    0  0.20911851223E+02  0.26441293544E+02  0.12443832983E+03  0.12892379710E+03  0.00000000000E+00 0.  1.
          2    1    6    6  502    0 -0.45660000227E+01  0.11348185409E+03  0.67618120529E+03  0.68565297487E+03  0.00000000000E+00 0. -1.
          1    1    5    5  503    0 -0.10027096400E+03 -0.19520999549E+03 -0.94141259255E+02  0.23879653526E+03  0.00000000000E+00 0. -1.
         -2    1    5    5    0  503 -0.26344433502E+02 -0.31021646230E+01  0.18259117239E+01  0.26589218784E+02  0.00000000000E+00 0.  1.
         -1    1    6    6    0  502  0.49494228296E+02  0.76818185125E+02  0.32473007809E+03  0.33734305361E+03  0.00000000000E+00 0.  1.
<mgrwt>
<rscale>  0 0.13239133E+04</rscale>
<asrwt>0</asrwt>
<pdfrwt beam="1">  1        2 0.34910831E+00 0.13239133E+04</pdfrwt>
<pdfrwt beam="2">  1       -2 0.29707917E-01 0.13239133E+04</pdfrwt>
<totfact> 0.48350815E+01</totfact>
</mgrwt>
</event>
<event>
12    1  0.1494110E-007  0.1959554E+04  0.7818608E-02  0.8625767E-01
         -2   -1    0    0    0  501 -0.00000000000E+00  0.00000000000E+00  0.42407173587E+03  0.42407173587E+03  0.00000000000E+00 0. -1.
          2   -1    0    0  501    0  0.00000000000E+00 -0.00000000000E+00 -0.22636814639E+04  0.22636814639E+04  0.00000000000E+00 0.  1.
         23    2    1    2    0    0  0.68147067403E+03  0.25411126658E+03 -0.10534255337E+04  0.12836200691E+04  0.94869971145E+02 0.  0.
        254    2    1    2    0    0 -0.68147067403E+03 -0.25411126658E+03 -0.78618419433E+03  0.14041331306E+04  0.90803603772E+03 0.  0.
        -24    2    4    4    0    0 -0.31964553160E+03 -0.14816341602E+03  0.15038303914E+03  0.39159945390E+03  0.81298278696E+02 0.  0.
         24    2    4    4    0    0 -0.36182514243E+03 -0.10594785055E+03 -0.93656723347E+03  0.10125336767E+04  0.76966765523E+02 0.  0.
         13    1    3    3    0    0  0.39458689051E+03  0.96816101489E+02 -0.58469093520E+03  0.71199414420E+03  0.00000000000E+00 0.  1.
        -13    1    3    3    0    0  0.28688378352E+03  0.15729516509E+03 -0.46873459846E+03  0.57162592489E+03  0.00000000000E+00 0. -1.
          4    1    6    6  502    0 -0.14104434269E+03 -0.68272252640E+02 -0.31452207133E+03  0.35139541893E+03  0.00000000000E+00 0. -1.
          3    1    5    5  503    0 -0.79043532222E+02 -0.48762340931E+02  0.78302740012E+02  0.12147824897E+03  0.00000000000E+00 0. -1.
         -4    1    5    5    0  503 -0.24060199937E+03 -0.99401075094E+02  0.72080299127E+02  0.27012120493E+03  0.00000000000E+00 0.  1.
         -3    1    6    6    0  502 -0.22078079974E+03 -0.37675597912E+02 -0.62204516213E+03  0.66113825781E+03  0.00000000000E+00 0.  1.
<mgrwt>
<rscale>  0 0.19595544E+04</rscale>
<asrwt>0</asrwt>
<pdfrwt beam="1">  1        2 0.34825868E+00 0.19595544E+04</pdfrwt>
<pdfrwt beam="2">  1       -2 0.65241807E-01 0.19595544E+04</pdfrwt>
<totfact> 0.95977510E+00</totfact>
</mgrwt>
</event>
<event>
12    1  0.1494110E-007  0.4232975E+04  0.7818608E-02  0.7959129E-01
         -1   -1    0    0    0  501 -0.00000000000E+00  0.00000000000E+00  0.13517287245E+04  0.13517287245E+04  0.00000000000E+00 0.  1.
          1   -1    0    0  501    0  0.00000000000E+00 -0.00000000000E+00 -0.33139184167E+04  0.33139184167E+04  0.00000000000E+00 0. -1.
         23    2    1    2    0    0  0.51919965902E+03  0.10363991098E+04 -0.27625347430E+04  0.29972239948E+04  0.89789019361E+02 0.  0.
        254    2    1    2    0    0 -0.51919965902E+03 -0.10363991098E+04  0.80034505084E+03  0.16684231463E+04  0.89408735266E+03 0.  0.
        -24    2    4    4    0    0  0.73322144385E+02 -0.59503427654E+03  0.40023088280E+02  0.60528313787E+03  0.72965075696E+02 0.  0.
         24    2    4    4    0    0 -0.59252180341E+03 -0.44136483322E+03  0.76032196256E+03  0.10631400085E+04  0.79323308996E+02 0.  0.
         11    1    3    3    0    0  0.10671537125E+03  0.19215845165E+03 -0.61609667965E+03  0.65413160731E+03  0.00000000000E+00 0.  1.
        -11    1    3    3    0    0  0.41248428778E+03  0.84424065812E+03 -0.21464380634E+04  0.23430923875E+04  0.00000000000E+00 0. -1.
          4    1    6    6  502    0 -0.24903651670E+03 -0.14076276647E+03  0.31339652459E+03  0.42432384413E+03  0.00000000000E+00 0. -1.
          3    1    5    5  503    0  0.21849853718E+02 -0.23391519864E+03  0.50766841335E+02  0.24035600354E+03  0.00000000000E+00 0. -1.
         -4    1    5    5    0  503  0.51472290667E+02 -0.36111907791E+03 -0.10743753055E+02  0.36492713432E+03  0.00000000000E+00 0.  1.
         -3    1    6    6    0  502 -0.34348528671E+03 -0.30060206675E+03  0.44692543797E+03  0.63881616434E+03  0.00000000000E+00 0.  1.
<mgrwt>
<rscale>  0 0.42329747E+04</rscale>
<asrwt>0</asrwt>
<pdfrwt beam="1">  1        1 0.50983359E+00 0.42329747E+04</pdfrwt>
<pdfrwt beam="2">  1       -1 0.20795827E+00 0.42329747E+04</pdfrwt>
<totfact> 0.35487061E-02</totfact>
</mgrwt>
</event>
<event>
12    1  0.1494110E-007  0.1949601E+04  0.7818608E-02  0.8630553E-01
          1   -1    0    0  501    0  0.00000000000E+00  0.00000000000E+00  0.28525226379E+04  0.28525226379E+04  0.00000000000E+00 0. -1.
         -1   -1    0    0    0  501 -0.00000000000E+00 -0.00000000000E+00 -0.33312140790E+03  0.33312140790E+03  0.00000000000E+00 0.  1.
         23    2    1    2    0    0  0.72926652168E+03 -0.13991748879E+02  0.64851630688E+03  0.98037198177E+03  0.92360130382E+02 0.  0.
        254    2    1    2    0    0 -0.72926652168E+03  0.13991748879E+02  0.18708849232E+04  0.22052720641E+04  0.91158600916E+03 0.  0.
        -24    2    4    4    0    0  0.96203255915E+02 -0.10480694359E+01 -0.32269775011E+02  0.12915002425E+03  0.79888832049E+02 0.  0.
         24    2    4    4    0    0 -0.82546977760E+03  0.15039818315E+02  0.19031546982E+04  0.20761220398E+04  0.81598830405E+02 0.  0.
         13    1    3    3    0    0  0.54375580079E+03  0.79787087307E+01  0.43284601510E+03  0.69504654770E+03  0.00000000000E+00 0.  1.
        -13    1    3    3    0    0  0.18551072089E+03 -0.21970457610E+02  0.21567029178E+03  0.28532543407E+03  0.00000000000E+00 0. -1.
          4    1    6    6  502    0 -0.42846652660E+03 -0.25765726656E+02  0.92818245825E+03  0.10226290202E+04  0.00000000000E+00 0. -1.
          3    1    5    5  503    0  0.65609711838E+02  0.10475954309E+02  0.18316479134E+02  0.68919324677E+02  0.00000000000E+00 0. -1.
         -4    1    5    5    0  503  0.30593544077E+02 -0.11524023745E+02 -0.50586254145E+02  0.60230699572E+02  0.00000000000E+00 0.  1.
         -3    1    6    6    0  502 -0.39700325100E+03  0.40805544971E+02  0.97497223994E+03  0.10534930197E+04  0.00000000000E+00 0.  1.
<mgrwt>
<rscale>  0 0.19496014E+04</rscale>
<asrwt>0</asrwt>
<pdfrwt beam="1">  1        1 0.43884962E+00 0.19496014E+04</pdfrwt>
<pdfrwt beam="2">  1       -1 0.51249449E-01 0.19496014E+04</pdfrwt>
<totfact> 0.27308628E+00</totfact>
</mgrwt>
</event>
<event>
12    1  0.1494110E-007  0.1401805E+04  0.7818608E-02  0.8952513E-01
         -2   -1    0    0    0  501 -0.00000000000E+00  0.00000000000E+00  0.70726129302E+03  0.70726129302E+03  0.00000000000E+00 0. -1.
          2   -1    0    0  501    0  0.00000000000E+00 -0.00000000000E+00 -0.69460084189E+03  0.69460084189E+03  0.00000000000E+00 0.  1.
         23    2    1    2    0    0  0.50920552428E+02 -0.20180496584E+03  0.34497332818E+03  0.41293532065E+03  0.90503231922E+02 0.  0.
        254    2    1    2    0    0 -0.50920552428E+02  0.20180496584E+03 -0.33231287705E+03  0.98892681426E+03  0.90786907030E+03 0.  0.
        -24    2    4    4    0    0  0.33056799776E+03  0.36395685923E+03 -0.25763391061E+03  0.56052349167E+03  0.77920191789E+02 0.  0.
         24    2    4    4    0    0 -0.38148855019E+03 -0.16215189339E+03 -0.74678966437E+02  0.42840332259E+03  0.78266904418E+02 0.  0.
         13    1    3    3    0    0  0.26526974711E+02 -0.30981544402E+02  0.13569245582E+03  0.14168972810E+03  0.00000000000E+00 0.  1.
        -13    1    3    3    0    0  0.24393577717E+02 -0.17082342144E+03  0.20928087236E+03  0.27124559255E+03  0.00000000000E+00 0. -1.
          2    1    6    6  502    0 -0.13225487945E+03 -0.26499123876E+02  0.38415814168E+00  0.13488404013E+03  0.00000000000E+00 0. -1.
          3    1    5    5  503    0  0.29708440704E+02  0.26771024137E+02 -0.47692477885E+02  0.62240273370E+02  0.00000000000E+00 0. -1.
         -4    1    5    5    0  503  0.30085955705E+03  0.33718583510E+03 -0.20994143272E+03  0.49828321830E+03  0.00000000000E+00 0.  1.
         -1    1    6    6    0  502 -0.24923367074E+03 -0.13565276952E+03 -0.75063124578E+02  0.29351928247E+03  0.00000000000E+00 0.  1.
<mgrwt>
<rscale>  0 0.14018050E+04</rscale>
<asrwt>0</asrwt>
<pdfrwt beam="1">  1        2 0.10686167E+00 0.14018050E+04</pdfrwt>
<pdfrwt beam="2">  1       -2 0.10880943E+00 0.14018050E+04</pdfrwt>
<totfact> 0.27165033E+01</totfact>
</mgrwt>
</event>
<event>
12    1  0.1494110E-007  0.1508103E+04  0.7818608E-02  0.8879082E-01
          2   -1    0    0  501    0  0.00000000000E+00  0.00000000000E+00  0.20236881659E+04  0.20236881659E+04  0.00000000000E+00 0. -1.
         -2   -1    0    0    0  501 -0.00000000000E+00 -0.00000000000E+00 -0.28096898418E+03  0.28096898418E+03  0.00000000000E+00 0.  1.
         23    2    1    2    0    0 -0.99864477275E+02 -0.88457419346E+02 -0.13959172595E+03  0.21372979487E+03  0.91634853645E+02 0.  0.
        254    2    1    2    0    0  0.99864477275E+02  0.88457419346E+02  0.18823109077E+04  0.20909273553E+04  0.90060269975E+03 0.  0.
        -24    2    4    4    0    0 -0.16835905151E+03 -0.18795486950E+03  0.13150526566E+03  0.29648025933E+03  0.83277284306E+02 0.  0.
         24    2    4    4    0    0  0.26822352878E+03  0.27641228884E+03  0.17508056421E+04  0.17944470959E+04  0.79827119598E+02 0.  0.
         11    1    3    3    0    0 -0.98885803030E+02 -0.77219301635E+02 -0.70886283193E+02  0.14410443342E+03  0.00000000000E+00 0. -1.
        -11    1    3    3    0    0 -0.97867424521E+00 -0.11238117710E+02 -0.68705442754E+02  0.69625361449E+02  0.00000000000E+00 0.  1.
          4    1    6    6  502    0  0.25402141667E+03  0.24275059749E+03  0.14771412191E+04  0.15183546733E+04  0.00000000000E+00 0. -1.
          1    1    5    5  503    0 -0.16158662486E+03 -0.13090476379E+03  0.10886574220E+03  0.23472972616E+03  0.00000000000E+00 0. -1.
         -2    1    5    5    0  503 -0.67724266413E+01 -0.57050105706E+02  0.22639523462E+02  0.61750533166E+02  0.00000000000E+00 0.  1.
         -3    1    6    6    0  502  0.14202112113E+02  0.33661691355E+02  0.27366442295E+03  0.27609242264E+03  0.00000000000E+00 0.  1.
<mgrwt>
<rscale>  0 0.15081029E+04</rscale>
<asrwt>0</asrwt>
<pdfrwt beam="1">  1        2 0.31133663E+00 0.15081029E+04</pdfrwt>
<pdfrwt beam="2">  1       -2 0.43225999E-01 0.15081029E+04</pdfrwt>
<totfact> 0.31772234E+01</totfact>
</mgrwt>
</event>
<event>
12    1  0.1494110E-007  0.1305217E+04  0.7818608E-02  0.9025438E-01
         -1   -1    0    0    0  501 -0.00000000000E+00  0.00000000000E+00  0.49089662576E+03  0.49089662576E+03  0.00000000000E+00 0.  1.
          1   -1    0    0  501    0  0.00000000000E+00 -0.00000000000E+00 -0.86759149332E+03  0.86759149332E+03  0.00000000000E+00 0. -1.
         23    2    1    2    0    0  0.11279488184E+03 -0.10664211454E+02 -0.42823604842E+03  0.45224758654E+03  0.91133723623E+02 0.  0.
        254    2    1    2    0    0 -0.11279488184E+03  0.10664211454E+02  0.51541180859E+02  0.90624053255E+03  0.89765193629E+03 0.  0.
        -24    2    4    4    0    0 -0.49856631724E+03  0.30564879339E+02  0.70253497899E+02  0.51115389054E+03  0.82705267788E+02 0.  0.
         24    2    4    4    0    0  0.38577143539E+03 -0.19900667885E+02 -0.18712317040E+02  0.39508664200E+03  0.80793978333E+02 0.  0.
         11    1    3    3    0    0  0.32351318129E+02 -0.16023229708E+02 -0.28984937789E+03  0.29208905070E+03  0.00000000000E+00 0. -1.
        -11    1    3    3    0    0  0.80443563715E+02  0.53590182548E+01 -0.13838667053E+03  0.16015853583E+03  0.00000000000E+00 0.  1.
          2    1    6    6  502    0  0.34917772339E+02  0.21881395048E+02 -0.47219806933E+01  0.41477022266E+02  0.00000000000E+00 0. -1.
          3    1    5    5  503    0 -0.40013733215E+02 -0.61649403878E+01  0.27939500721E+02  0.49190660052E+02  0.00000000000E+00 0. -1.
         -4    1    5    5    0  503 -0.45855258402E+03  0.36729819727E+02  0.42313997178E+02  0.46196323049E+03  0.00000000000E+00 0.  1.
         -1    1    6    6    0  502  0.35085366305E+03 -0.41782062933E+02 -0.13990336347E+02  0.35360961974E+03  0.00000000000E+00 0.  1.
<mgrwt>
<rscale>  0 0.13052168E+04</rscale>
<asrwt>0</asrwt>
<pdfrwt beam="1">  1        1 0.13347561E+00 0.13052168E+04</pdfrwt>
<pdfrwt beam="2">  1       -1 0.75522558E-01 0.13052168E+04</pdfrwt>
<totfact> 0.33510444E+01</totfact>
</mgrwt>
</event>
<event>
12    1  0.1494110E-007  0.1807147E+04  0.7818608E-02  0.8702508E-01
          2   -1    0    0  501    0  0.00000000000E+00  0.00000000000E+00  0.16690825250E+04  0.16690825250E+04  0.00000000000E+00 0. -1.
         -2   -1    0    0    0  501 -0.00000000000E+00 -0.00000000000E+00 -0.48915787984E+03  0.48915787984E+03  0.00000000000E+00 0.  1.
         23    2    1    2    0    0 -0.32287021322E+02 -0.67568200633E+03  0.55322700961E+03  0.87793514533E+03  0.84388209047E+02 0.  0.
        254    2    1    2    0    0  0.32287021322E+02  0.67568200633E+03  0.62669763557E+03  0.12803052595E+04  0.88816834312E+03 0.  0.
        -24    2    4    4    0    0 -0.10804032435E+03  0.44327080990E+01  0.57176909999E+03  0.58772783752E+03  0.82533306675E+02 0.  0.
         24    2    4    4    0    0  0.14032734568E+03  0.67124929823E+03  0.54928535581E+02  0.69257742200E+03  0.79868373773E+02 0.  0.
         13    1    3    3    0    0 -0.41350259573E+02 -0.53982233861E+03  0.47885430165E+03  0.72278589045E+03  0.00000000000E+00 0. -1.
        -13    1    3    3    0    0  0.90632382513E+01 -0.13585966772E+03  0.74372707957E+02  0.15514925488E+03  0.00000000000E+00 0.  1.
          4    1    6    6  502    0  0.12839012026E+03  0.66326041103E+03  0.57383311114E+02  0.67800533937E+03  0.00000000000E+00 0. -1.
          1    1    5    5  503    0 -0.74679357941E+02  0.24531329815E+02  0.49935856352E+03  0.50550743576E+03  0.00000000000E+00 0. -1.
         -2    1    5    5    0  503 -0.33360966413E+02 -0.20098621716E+02  0.72410536464E+02  0.82220401762E+02  0.00000000000E+00 0.  1.
         -3    1    6    6    0  502  0.11937225419E+02  0.79888872023E+01 -0.24547755332E+01  0.14572082636E+02  0.00000000000E+00 0.  1.
<mgrwt>
<rscale>  0 0.18071468E+04</rscale>
<asrwt>0</asrwt>
<pdfrwt beam="1">  1        2 0.25678192E+00 0.18071468E+04</pdfrwt>
<pdfrwt beam="2">  1       -2 0.75255059E-01 0.18071468E+04</pdfrwt>
<totfact> 0.15256497E+01</totfact>
</mgrwt>
</event>
<event>
12    1  0.1494110E-007  0.1754319E+04  0.7818608E-02  0.8730976E-01
          2   -1    0    0  501    0  0.00000000000E+00  0.00000000000E+00  0.12918910043E+04  0.12918910043E+04  0.00000000000E+00 0.  1.
         -2   -1    0    0    0  501 -0.00000000000E+00 -0.00000000000E+00 -0.59556812561E+03  0.59556812561E+03  0.00000000000E+00 0. -1.
         23    2    1    2    0    0 -0.47075887724E+02  0.18767077433E+02 -0.43332524958E+03  0.44544053620E+03  0.89878567890E+02 0.  0.
        254    2    1    2    0    0  0.47075887724E+02 -0.18767077433E+02  0.11296481283E+04  0.14420185938E+04  0.89484322008E+03 0.  0.
        -24    2    4    4    0    0 -0.31514671350E+03  0.12204629970E+03  0.94005801380E+03  0.10022651403E+04  0.81323993006E+02 0.  0.
         24    2    4    4    0    0  0.36222260122E+03 -0.14081337713E+03  0.18959011452E+03  0.43975345346E+03  0.80031670564E+02 0.  0.
         13    1    3    3    0    0  0.17586593640E+02  0.18967413300E+02 -0.46164723797E+02  0.52917225611E+02  0.00000000000E+00 0.  1.
        -13    1    3    3    0    0 -0.64662481365E+02 -0.20033586666E+00 -0.38716052578E+03  0.39252331059E+03  0.00000000000E+00 0. -1.
          2    1    6    6  502    0  0.16033780032E+03 -0.39548368440E+02  0.43536565320E+02  0.17078558539E+03  0.00000000000E+00 0. -1.
          1    1    5    5  503    0 -0.39097819722E+02  0.41128985172E+02  0.11001883272E+03  0.12379166564E+03  0.00000000000E+00 0. -1.
         -2    1    5    5    0  503 -0.27604889377E+03  0.80917314524E+02  0.83003918108E+03  0.87847347466E+03  0.00000000000E+00 0.  1.
         -1    1    6    6    0  502  0.20188480090E+03 -0.10126500869E+03  0.14605354920E+03  0.26896786806E+03  0.00000000000E+00 0.  1.
<mgrwt>
<rscale>  0 0.17543194E+04</rscale>
<asrwt>0</asrwt>
<pdfrwt beam="1">  1        2 0.19875246E+00 0.17543194E+04</pdfrwt>
<pdfrwt beam="2">  1       -2 0.91625866E-01 0.17543194E+04</pdfrwt>
<totfact> 0.16057763E+01</totfact>
</mgrwt>
</event>
<event>
12    1  0.1494110E-007  0.1772202E+04  0.7818608E-02  0.8721224E-01
         -2   -1    0    0    0  501 -0.00000000000E+00  0.00000000000E+00  0.56366862244E+03  0.56366862244E+03  0.00000000000E+00 0.  1.
          2   -1    0    0  501    0  0.00000000000E+00 -0.00000000000E+00 -0.13929720749E+04  0.13929720749E+04  0.00000000000E+00 0. -1.
         23    2    1    2    0    0 -0.18243158279E+03  0.34401397988E+03 -0.91863886795E+03  0.10018530932E+04  0.90472923104E+02 0.  0.
        254    2    1    2    0    0  0.18243158279E+03 -0.34401397988E+03  0.89335415533E+02  0.95478760414E+03  0.86718605374E+03 0.  0.
        -24    2    4    4    0    0  0.32526266648E+01 -0.61102397924E+03  0.98462321847E+02  0.62392216591E+03  0.78886991983E+02 0.  0.
         24    2    4    4    0    0  0.17917895613E+03  0.26700999937E+03 -0.91269063142E+01  0.33086543823E+03  0.77389919981E+02 0.  0.
         11    1    3    3    0    0 -0.18320140783E+03  0.34658201172E+03 -0.91902543339E+03  0.99914443095E+03  0.00000000000E+00 0. -1.
        -11    1    3    3    0    0  0.76982504100E+00 -0.25680318457E+01  0.38656543505E+00  0.27086622141E+01  0.00000000000E+00 0.  1.
          2    1    6    6  502    0  0.16858165724E+03  0.26394186520E+03  0.46445025104E+01  0.31321981860E+03  0.00000000000E+00 0. -1.
          3    1    5    5  503    0  0.68499922780E+01 -0.46784769541E+03  0.10862255298E+03  0.48034076186E+03  0.00000000000E+00 0. -1.
         -4    1    5    5    0  503 -0.35973656132E+01 -0.14317628384E+03 -0.10160231130E+02  0.14358140405E+03  0.00000000000E+00 0.  1.
         -1    1    6    6    0  502  0.10597298893E+02  0.30681341701E+01 -0.13771408825E+02  0.17645619630E+02  0.00000000000E+00 0.  1.
<mgrwt>
<rscale>  0 0.17722016E+04</rscale>
<asrwt>0</asrwt>
<pdfrwt beam="1">  1        2 0.21430339E+00 0.17722016E+04</pdfrwt>
<pdfrwt beam="2">  1       -2 0.86718251E-01 0.17722016E+04</pdfrwt>
<totfact> 0.15907699E+01</totfact>
</mgrwt>
</event>
<event>
12    1  0.1494110E-007  0.1455799E+04  0.7818608E-02  0.8914390E-01
         -1   -1    0    0    0  501 -0.00000000000E+00  0.00000000000E+00  0.39628842248E+03  0.39628842248E+03  0.00000000000E+00 0.  1.
          1   -1    0    0  501    0  0.00000000000E+00 -0.00000000000E+00 -0.13370001244E+04  0.13370001244E+04  0.00000000000E+00 0. -1.
         23    2    1    2    0    0 -0.37229901963E+03 -0.63027468631E+02 -0.56121498986E+03  0.68251904930E+03  0.91054741774E+02 0.  0.
        254    2    1    2    0    0  0.37229901963E+03  0.63027468631E+02 -0.37949671201E+03  0.10507694975E+04  0.90416799362E+03 0.  0.
        -24    2    4    4    0    0  0.66496848294E+03  0.91255359626E+02 -0.25545608145E+03  0.72251299766E+03  0.79098661677E+02 0.  0.
         24    2    4    4    0    0 -0.29266946331E+03 -0.28227890995E+02 -0.12404063056E+03  0.32825649987E+03  0.76902685823E+02 0.  0.
         11    1    3    3    0    0 -0.31146983999E+03 -0.38594339892E+02 -0.51203531414E+03  0.60056901953E+03  0.00000000000E+00 0. -1.
        -11    1    3    3    0    0 -0.60829179636E+02 -0.24433128739E+02 -0.49179675716E+02  0.81950029766E+02  0.00000000000E+00 0.  1.
          4    1    6    6  502    0 -0.26151351801E+03 -0.47378094831E+02 -0.97585199446E+02  0.28311989532E+03  0.00000000000E+00 0. -1.
          1    1    5    5  503    0  0.38551943329E+03  0.26433738150E+02 -0.11544788696E+03  0.40330161240E+03  0.00000000000E+00 0. -1.
         -2    1    5    5    0  503  0.27944904965E+03  0.64821621476E+02 -0.14000819449E+03  0.31921138527E+03  0.00000000000E+00 0.  1.
         -1    1    6    6    0  502 -0.31155945302E+02  0.19150203836E+02 -0.26455431118E+02  0.45136604550E+02  0.00000000000E+00 0.  1.
<mgrwt>
<rscale>  0 0.14557990E+04</rscale>
<asrwt>0</asrwt>
<pdfrwt beam="1">  1        1 0.20569232E+00 0.14557990E+04</pdfrwt>
<pdfrwt beam="2">  1       -1 0.60967450E-01 0.14557990E+04</pdfrwt>
<totfact> 0.22545971E+01</totfact>
</mgrwt>
</event>
<event>
12    1  0.1494110E-007  0.1750693E+04  0.7818608E-02  0.8732969E-01
         -2   -1    0    0    0  501 -0.00000000000E+00  0.00000000000E+00  0.19726058576E+04  0.19726058576E+04  0.00000000000E+00 0. -1.
          2   -1    0    0  501    0  0.00000000000E+00 -0.00000000000E+00 -0.38843619021E+03  0.38843619021E+03  0.00000000000E+00 0.  1.
         23    2    1    2    0    0  0.24728522201E+03  0.38595827604E+03 -0.16868676379E+02  0.46785638590E+03  0.92148107507E+02 0.  0.
        254    2    1    2    0    0 -0.24728522201E+03 -0.38595827604E+03  0.16010383437E+04  0.18931856619E+04  0.90039680161E+03 0.  0.
        -24    2    4    4    0    0 -0.46495538049E+03  0.31305053560E+02  0.47574162448E+03  0.67092443291E+03  0.81522936549E+02 0.  0.
         24    2    4    4    0    0  0.21767015848E+03 -0.41726332960E+03  0.11252967193E+04  0.12222612290E+04  0.78363392899E+02 0.  0.
         13    1    3    3    0    0  0.19522170241E+03  0.25822645993E+03  0.22254060723E+02  0.32448060176E+03  0.00000000000E+00 0.  1.
        -13    1    3    3    0    0  0.52063519601E+02  0.12773181611E+03 -0.39122737102E+02  0.14337578414E+03  0.00000000000E+00 0. -1.
          4    1    6    6  502    0  0.11175491434E+03 -0.18488992910E+03  0.42301756265E+03  0.47499190001E+03  0.00000000000E+00 0. -1.
          3    1    5    5  503    0 -0.21775825154E+03 -0.11371947939E+02  0.26589237112E+03  0.34387022310E+03  0.00000000000E+00 0. -1.
         -4    1    5    5    0  503 -0.24719712895E+03  0.42677001499E+02  0.20984925336E+03  0.32705420981E+03  0.00000000000E+00 0.  1.
         -3    1    6    6    0  502  0.10591524414E+03 -0.23237340050E+03  0.70227915661E+03  0.74726932896E+03  0.00000000000E+00 0.  1.
<mgrwt>
<rscale>  0 0.17506930E+04</rscale>
<asrwt>0</asrwt>
<pdfrwt beam="1">  1        2 0.59759415E-01 0.17506930E+04</pdfrwt>
<pdfrwt beam="2">  1       -2 0.30347782E+00 0.17506930E+04</pdfrwt>
<totfact> 0.23624829E+00</totfact>
</mgrwt>
</event>
<event>
12    1  0.1494110E-007  0.1183265E+04  0.7818608E-02  0.9127632E-01
         -2   -1    0    0    0  501 -0.00000000000E+00  0.00000000000E+00  0.10610849375E+04  0.10610849375E+04  0.00000000000E+00 0.  1.
          2   -1    0    0  501    0  0.00000000000E+00 -0.00000000000E+00 -0.32987814290E+03  0.32987814290E+03  0.00000000000E+00 0. -1.
         23    2    1    2    0    0 -0.16660010972E+03 -0.91715890629E+02 -0.27873891539E+02  0.20927497703E+03  0.82774760838E+02 0.  0.
        254    2    1    2    0    0  0.16660010972E+03  0.91715890629E+02  0.75908068618E+03  0.11816881034E+04  0.88544671464E+03 0.  0.
        -24    2    4    4    0    0 -0.15815617276E+03  0.16661954524E+03 -0.95445135358E+02  0.26122192531E+03  0.79697381158E+02 0.  0.
         24    2    4    4    0    0  0.32475628247E+03 -0.74903654609E+02  0.85452582153E+03  0.92046617810E+03  0.77242506955E+02 0.  0.
         11    1    3    3    0    0 -0.80175394326E+02  0.12205909993E+01 -0.16414977699E+02  0.81847633995E+02  0.00000000000E+00 0. -1.
        -11    1    3    3    0    0 -0.86424715391E+02 -0.92936481628E+02 -0.11458913840E+02  0.12742734304E+03  0.00000000000E+00 0.  1.
          4    1    6    6  502    0  0.28401200159E+03 -0.89234679367E+02  0.71797789053E+03  0.77725021475E+03  0.00000000000E+00 0. -1.
          3    1    5    5  503    0 -0.86421621499E+02  0.13789113045E+03 -0.83903566472E+02  0.18309142248E+03  0.00000000000E+00 0. -1.
         -4    1    5    5    0  503 -0.71734551257E+02  0.28728414790E+02 -0.11541568886E+02  0.78130502831E+02  0.00000000000E+00 0.  1.
         -3    1    6    6    0  502  0.40744280882E+02  0.14331024759E+02  0.13654793101E+03  0.14321596335E+03  0.00000000000E+00 0.  1.
<mgrwt>
<rscale>  0 0.11832645E+04</rscale>
<asrwt>0</asrwt>
<pdfrwt beam="1">  1        2 0.50750484E-01 0.11832645E+04</pdfrwt>
<pdfrwt beam="2">  1       -2 0.16324384E+00 0.11832645E+04</pdfrwt>
<totfact> 0.23228991E+01</totfact>
</mgrwt>
</event>
<event>
12    1  0.1494110E-007  0.3280040E+04  0.7818608E-02  0.8167993E-01
          2   -1    0    0  501    0  0.00000000000E+00  0.00000000000E+00  0.25316037804E+04  0.25316037804E+04  0.00000000000E+00 0. -1.
         -2   -1    0    0    0  501 -0.00000000000E+00 -0.00000000000E+00 -0.10624351692E+04  0.10624351692E+04  0.00000000000E+00 0.  1.
         23    2    1    2    0    0  0.10610014535E+04  0.33963921756E+03 -0.44889435108E+03  0.12045871621E+04  0.91897824499E+02 0.  0.
        254    2    1    2    0    0 -0.10610014535E+04 -0.33963921756E+03  0.19180629623E+04  0.23894517875E+04  0.88850179236E+03 0.  0.
        -24    2    4    4    0    0 -0.85760652337E+03 -0.50180017237E+03  0.18613744956E+04  0.21114209895E+04  0.78046269740E+02 0.  0.
         24    2    4    4    0    0 -0.20339493017E+03  0.16216095481E+03  0.56688466698E+02  0.27803079800E+03  0.80136567764E+02 0.  0.
         11    1    3    3    0    0  0.70181324184E+03  0.21408659673E+03 -0.34085411389E+03  0.80904661440E+03  0.00000000000E+00 0.  1.
        -11    1    3    3    0    0  0.35918821170E+03  0.12555262083E+03 -0.10804023720E+03  0.39554054770E+03  0.00000000000E+00 0. -1.
          2    1    6    6  502    0  0.69127598773E+01  0.10425752192E+01 -0.46004749951E+00  0.70060585147E+01  0.00000000000E+00 0. -1.
          1    1    5    5  503    0 -0.40636325456E+03 -0.20033760743E+03  0.80132404063E+03  0.92053596872E+03  0.00000000000E+00 0. -1.
         -2    1    5    5    0  503 -0.45124326881E+03 -0.30146256494E+03  0.10600504550E+04  0.11908850208E+04  0.00000000000E+00 0.  1.
         -1    1    6    6    0  502 -0.21030769005E+03  0.16111837959E+03  0.57148514197E+02  0.27102473948E+03  0.00000000000E+00 0.  1.
<mgrwt>
<rscale>  0 0.32800396E+04</rscale>
<asrwt>0</asrwt>
<pdfrwt beam="1">  1        2 0.38947750E+00 0.32800396E+04</pdfrwt>
<pdfrwt beam="2">  1       -2 0.16345156E+00 0.32800396E+04</pdfrwt>
<totfact> 0.66315059E-01</totfact>
</mgrwt>
</event>
<event>
12    1  0.1494110E-007  0.1632384E+04  0.7818608E-02  0.8800897E-01
         -1   -1    0    0    0  501 -0.00000000000E+00  0.00000000000E+00  0.83578148997E+03  0.83578148997E+03  0.00000000000E+00 0.  1.
          1   -1    0    0  501    0  0.00000000000E+00 -0.00000000000E+00 -0.79706120775E+03  0.79706120775E+03  0.00000000000E+00 0. -1.
         23    2    1    2    0    0  0.22196862939E+03  0.32295706371E+03  0.42856331408E+03  0.58652998537E+03  0.82338157182E+02 0.  0.
        254    2    1    2    0    0 -0.22196862939E+03 -0.32295706371E+03 -0.38984303186E+03  0.10463127124E+04  0.88838131740E+03 0.  0.
        -24    2    4    4    0    0  0.21771567723E+03 -0.33544388059E+03 -0.43609823983E+03  0.59701068947E+03  0.79481918815E+02 0.  0.
         24    2    4    4    0    0 -0.43968430662E+03  0.12486816875E+02  0.46255207974E+02  0.44930202289E+03  0.79085734645E+02 0.  0.
         13    1    3    3    0    0  0.15615536674E+03  0.25507847253E+03  0.27556526776E+03  0.40667645924E+03  0.00000000000E+00 0.  1.
        -13    1    3    3    0    0  0.65813262652E+02  0.67878591186E+02  0.15299804632E+03  0.17985352613E+03  0.00000000000E+00 0. -1.
          4    1    6    6  502    0 -0.32568726524E+03 -0.63824391072E+01  0.25363515322E+01  0.32575967115E+03  0.00000000000E+00 0. -1.
          1    1    5    5  503    0  0.18800029460E+03 -0.23542843300E+03 -0.29629002222E+03  0.42256175300E+03  0.00000000000E+00 0. -1.
         -2    1    5    5    0  503  0.29715382626E+02 -0.10001544758E+03 -0.13980821762E+03  0.17444893646E+03  0.00000000000E+00 0.  1.
         -3    1    6    6    0  502 -0.11399704138E+03  0.18869255982E+02  0.43718856442E+02  0.12354235174E+03  0.00000000000E+00 0.  1.
<mgrwt>
<rscale>  0 0.16323835E+04</rscale>
<asrwt>0</asrwt>
<pdfrwt beam="1">  1        1 0.12262480E+00 0.16323835E+04</pdfrwt>
<pdfrwt beam="2">  1       -1 0.12858177E+00 0.16323835E+04</pdfrwt>
<totfact> 0.11099442E+01</totfact>
</mgrwt>
</event>
<event>
12    1  0.1494110E-007  0.1920381E+04  0.7818608E-02  0.8644777E-01
          1   -1    0    0  501    0  0.00000000000E+00  0.00000000000E+00  0.38145067453E+04  0.38145067453E+04  0.00000000000E+00 0. -1.
         -1   -1    0    0    0  501 -0.00000000000E+00 -0.00000000000E+00 -0.24169991422E+03  0.24169991422E+03  0.00000000000E+00 0.  1.
         23    2    1    2    0    0 -0.34096563752E+03 -0.32519706482E+03  0.26163627575E+04  0.26599613249E+04  0.89607334222E+02 0.  0.
        254    2    1    2    0    0  0.34096563752E+03  0.32519706482E+03  0.95644407359E+03  0.13962453346E+04  0.90150156492E+03 0.  0.
        -24    2    4    4    0    0 -0.24394442718E+03  0.28709920361E+03  0.19254258720E+03  0.43008684305E+03  0.77247708126E+02 0.  0.
         24    2    4    4    0    0  0.58491006470E+03  0.38097861203E+02  0.76390148639E+03  0.96615849155E+03  0.79658766393E+02 0.  0.
         11    1    3    3    0    0 -0.12645504742E+03 -0.11837785353E+03  0.73412985507E+03  0.75428829987E+03  0.00000000000E+00 0.  1.
        -11    1    3    3    0    0 -0.21451059010E+03 -0.20681921129E+03  0.18822329024E+04  0.19056730251E+04  0.00000000000E+00 0. -1.
          2    1    6    6  502    0  0.10273911781E+03  0.21278939136E+02  0.18388001432E+03  0.21170729615E+03  0.00000000000E+00 0. -1.
          1    1    5    5  503    0 -0.11564862175E+03  0.13414096898E+03  0.47650158064E+02  0.18340921688E+03  0.00000000000E+00 0. -1.
         -2    1    5    5    0  503 -0.12829580543E+03  0.15295823463E+03  0.14489242914E+03  0.24667762617E+03  0.00000000000E+00 0.  1.
         -1    1    6    6    0  502  0.48217094690E+03  0.16818922067E+02  0.58002147207E+03  0.75445119540E+03  0.00000000000E+00 0.  1.
<mgrwt>
<rscale>  0 0.19203812E+04</rscale>
<asrwt>0</asrwt>
<pdfrwt beam="1">  1        1 0.58684715E+00 0.19203812E+04</pdfrwt>
<pdfrwt beam="2">  1       -1 0.37184605E-01 0.19203812E+04</pdfrwt>
<totfact> 0.90745454E-01</totfact>
</mgrwt>
</event>
<event>
12    1  0.1494110E-007  0.1572685E+04  0.7818608E-02  0.8837507E-01
         -2   -1    0    0    0  501 -0.00000000000E+00  0.00000000000E+00  0.19836949446E+03  0.19836949446E+03  0.00000000000E+00 0.  1.
          2   -1    0    0  501    0  0.00000000000E+00 -0.00000000000E+00 -0.31170839026E+04  0.31170839026E+04  0.00000000000E+00 0. -1.
         23    2    1    2    0    0  0.52055448070E+02 -0.26742501370E+03 -0.42765339177E+02  0.29074094458E+03  0.92062560214E+02 0.  0.
        254    2    1    2    0    0 -0.52055448070E+02  0.26742501370E+03 -0.28759490690E+04  0.30247124525E+04  0.89642426631E+03 0.  0.
        -24    2    4    4    0    0 -0.21962792563E+02  0.99516572628E+02  0.12696665832E+02  0.12994731371E+03  0.79619008615E+02 0.  0.
         24    2    4    4    0    0 -0.30092655507E+02  0.16790844108E+03 -0.28886457348E+04  0.28947651388E+04  0.79323482724E+02 0.  0.
         11    1    3    3    0    0  0.71728352108E+02 -0.25355473816E+03 -0.38848650790E+02  0.26635348582E+03  0.00000000000E+00 0.  1.
        -11    1    3    3    0    0 -0.19672904039E+02 -0.13870275542E+02 -0.39166883871E+01  0.24387458761E+02  0.00000000000E+00 0. -1.
          2    1    6    6  502    0 -0.11783024371E+02 -0.58605257201E+01 -0.16843607904E+03  0.16894939523E+03  0.00000000000E+00 0. -1.
          3    1    5    5  503    0  0.78645487835E+01  0.65797513625E+02 -0.25405648290E+02  0.70969084057E+02  0.00000000000E+00 0. -1.
         -4    1    5    5    0  503 -0.29827341347E+02  0.33719059003E+02  0.38102314122E+02  0.58978229655E+02  0.00000000000E+00 0.  1.
         -1    1    6    6    0  502 -0.18309631135E+02  0.17376896680E+03 -0.27202096558E+04  0.27258157436E+04  0.00000000000E+00 0.  1.
<mgrwt>
<rscale>  0 0.15726848E+04</rscale>
<asrwt>0</asrwt>
<pdfrwt beam="1">  1        2 0.47955133E+00 0.15726848E+04</pdfrwt>
<pdfrwt beam="2">  1       -2 0.30518386E-01 0.15726848E+04</pdfrwt>
<totfact> 0.14109440E+01</totfact>
</mgrwt>
</event>
<event>
12    1  0.1494110E-007  0.2085643E+04  0.7818608E-02  0.8567594E-01
         -1   -1    0    0    0  501 -0.00000000000E+00  0.00000000000E+00  0.14388301477E+04  0.14388301477E+04  0.00000000000E+00 0.  1.
          1   -1    0    0  501    0  0.00000000000E+00 -0.00000000000E+00 -0.75580581034E+03  0.75580581034E+03  0.00000000000E+00 0. -1.
         23    2    1    2    0    0 -0.64082275049E+03 -0.48328031632E+03  0.56529883166E+03  0.98615195145E+03  0.93376873892E+02 0.  0.
        254    2    1    2    0    0  0.64082275049E+03  0.48328031632E+03  0.11772550573E+03  0.12084840066E+04  0.89574585563E+03 0.  0.
        -24    2    4    4    0    0  0.37827031991E+03  0.20807830813E+03  0.49824022971E+03  0.66405551551E+03  0.79632806929E+02 0.  0.
         24    2    4    4    0    0  0.26255243057E+03  0.27520200818E+03 -0.38051472398E+03  0.54442849111E+03  0.83312680064E+02 0.  0.
         11    1    3    3    0    0 -0.33037517608E+03 -0.20102836196E+03  0.23890090837E+03  0.45456991025E+03  0.00000000000E+00 0. -1.
        -11    1    3    3    0    0 -0.31044757441E+03 -0.28225195436E+03  0.32639792329E+03  0.53158204120E+03  0.00000000000E+00 0.  1.
          2    1    6    6  502    0  0.90051030658E+02  0.51439860942E+02 -0.13417627576E+03  0.16958337299E+03  0.00000000000E+00 0. -1.
          3    1    5    5  503    0  0.51489067894E+02  0.27189410758E+01  0.77744450758E+02  0.93288350702E+02  0.00000000000E+00 0. -1.
         -4    1    5    5    0  503  0.32678125202E+03  0.20535936706E+03  0.42049577895E+03  0.57076716481E+03  0.00000000000E+00 0.  1.
         -1    1    6    6    0  502  0.17250139992E+03  0.22376214724E+03 -0.24633844822E+03  0.37484511812E+03  0.00000000000E+00 0.  1.
<mgrwt>
<rscale>  0 0.20856425E+04</rscale>
<asrwt>0</asrwt>
<pdfrwt beam="1">  1        1 0.11627782E+00 0.20856425E+04</pdfrwt>
<pdfrwt beam="2">  1       -1 0.22135848E+00 0.20856425E+04</pdfrwt>
<totfact> 0.24010684E+00</totfact>
</mgrwt>
</event>
<event>
12    1  0.1494110E-007  0.1406146E+04  0.7818608E-02  0.8949382E-01
          2   -1    0    0  501    0  0.00000000000E+00  0.00000000000E+00  0.11886849958E+04  0.11886849958E+04  0.00000000000E+00 0. -1.
         -2   -1    0    0    0  501 -0.00000000000E+00 -0.00000000000E+00 -0.41584727202E+03  0.41584727202E+03  0.00000000000E+00 0.  1.
         23    2    1    2    0    0 -0.12356491251E+03 -0.13102304493E+03  0.64389142576E+03  0.67473105711E+03  0.90722132680E+02 0.  0.
        254    2    1    2    0    0  0.12356491251E+03  0.13102304493E+03  0.12894629798E+03  0.92980121067E+03  0.90303256735E+03 0.  0.
        -24    2    4    4    0    0  0.46075866484E+03 -0.13098433280E+03  0.55649090212E+02  0.48898182321E+03  0.80937998002E+02 0.  0.
         24    2    4    4    0    0 -0.33719375233E+03  0.26200737773E+03  0.73297207767E+02  0.44081938746E+03  0.81251209840E+02 0.  0.
         11    1    3    3    0    0 -0.62776915279E+02 -0.12220221635E+03  0.49384934144E+03  0.51260266758E+03  0.00000000000E+00 0. -1.
        -11    1    3    3    0    0 -0.60787997232E+02 -0.88208285841E+01  0.15004208432E+03  0.16212838953E+03  0.00000000000E+00 0.  1.
          4    1    6    6  502    0 -0.22609616131E+03  0.18280021061E+03  0.87523709232E+02  0.30363759786E+03  0.00000000000E+00 0. -1.
          1    1    5    5  503    0  0.15650649703E+03 -0.29988360020E+02 -0.17055658093E+02  0.16026378512E+03  0.00000000000E+00 0. -1.
         -2    1    5    5    0  503  0.30425216781E+03 -0.10099597278E+03  0.72704748304E+02  0.32871803809E+03  0.00000000000E+00 0.  1.
         -3    1    6    6    0  502 -0.11109759103E+03  0.79207167123E+02 -0.14226501465E+02  0.13718178961E+03  0.00000000000E+00 0.  1.
<mgrwt>
<rscale>  0 0.14061457E+04</rscale>
<asrwt>0</asrwt>
<pdfrwt beam="1">  1        2 0.18287461E+00 0.14061457E+04</pdfrwt>
<pdfrwt beam="2">  1       -2 0.63976504E-01 0.14061457E+04</pdfrwt>
<totfact> 0.42282017E+01</totfact>
</mgrwt>
</event>
<event>
12    1  0.1494110E-007  0.1775874E+04  0.7818608E-02  0.8719236E-01
          2   -1    0    0  501    0  0.00000000000E+00  0.00000000000E+00  0.46757423364E+03  0.46757423364E+03  0.00000000000E+00 0. -1.
         -2   -1    0    0    0  501 -0.00000000000E+00 -0.00000000000E+00 -0.16862174667E+04  0.16862174667E+04  0.00000000000E+00 0.  1.
         23    2    1    2    0    0  0.49652757875E+03 -0.42968315989E+03 -0.39966244733E+03  0.77395003384E+03  0.90007381455E+02 0.  0.
        254    2    1    2    0    0 -0.49652757875E+03  0.42968315989E+03 -0.81898078570E+03  0.13798416665E+04  0.89558151100E+03 0.  0.
        -24    2    4    4    0    0 -0.31179622686E+03  0.40933571162E+03  0.16853227764E+02  0.52001604045E+03  0.73212288219E+02 0.  0.
         24    2    4    4    0    0 -0.18473135189E+03  0.20347448277E+02 -0.83583401347E+03  0.85982562604E+03  0.78370390413E+02 0.  0.
         11    1    3    3    0    0  0.46354796798E+03 -0.37884948543E+03 -0.38442904852E+03  0.71146984797E+03  0.00000000000E+00 0.  1.
        -11    1    3    3    0    0  0.32979610773E+02 -0.50833674468E+02 -0.15233398803E+02  0.62480185865E+02  0.00000000000E+00 0. -1.
          2    1    6    6  502    0 -0.12962545141E+03  0.15146350246E+02 -0.40644324575E+03  0.42688204646E+03  0.00000000000E+00 0. -1.
          1    1    5    5  503    0 -0.15433153437E+03  0.24180103767E+03  0.36924728402E+02  0.28922205982E+03  0.00000000000E+00 0. -1.
         -2    1    5    5    0  503 -0.15746469249E+03  0.16753467395E+03 -0.20071500638E+02  0.23079398063E+03  0.00000000000E+00 0.  1.
         -1    1    6    6    0  502 -0.55105900482E+02  0.52010980302E+01 -0.42939076772E+03  0.43294357957E+03  0.00000000000E+00 0.  1.
<mgrwt>
<rscale>  0 0.17758737E+04</rscale>
<asrwt>0</asrwt>
<pdfrwt beam="1">  1        2 0.71934497E-01 0.17758737E+04</pdfrwt>
<pdfrwt beam="2">  1       -2 0.25941807E+00 0.17758737E+04</pdfrwt>
<totfact> 0.35420597E+00</totfact>
</mgrwt>
</event>
<event>
12    1  0.1494110E-007  0.1693208E+04  0.7818608E-02  0.8765248E-01
         -2   -1    0    0    0  501 -0.00000000000E+00  0.00000000000E+00  0.80789746501E+03  0.80789746501E+03  0.00000000000E+00 0.  1.
          2   -1    0    0  501    0  0.00000000000E+00 -0.00000000000E+00 -0.88716472246E+03  0.88716472246E+03  0.00000000000E+00 0. -1.
         23    2    1    2    0    0  0.16998013164E+03  0.55743300263E+02  0.54254414427E+03  0.57932478240E+03  0.96241853400E+02 0.  0.
        254    2    1    2    0    0 -0.16998013164E+03 -0.55743300263E+02 -0.62181140171E+03  0.11157374051E+04  0.90896643343E+03 0.  0.
        -24    2    4    4    0    0 -0.41106288482E+03 -0.15556510222E+03 -0.70132955475E+03  0.83147480236E+03  0.79460721685E+02 0.  0.
         24    2    4    4    0    0  0.24108275318E+03  0.99821801957E+02  0.79518153036E+02  0.28426260271E+03  0.79980026329E+02 0.  0.
         11    1    3    3    0    0  0.40546191946E+02 -0.25717215852E+02  0.16894036566E+03  0.17563090851E+03  0.00000000000E+00 0.  1.
        -11    1    3    3    0    0  0.12943393969E+03  0.81460516115E+02  0.37360377860E+03  0.40369387389E+03  0.00000000000E+00 0. -1.
          4    1    6    6  502    0  0.19158480010E+02 -0.13131158880E+02  0.13474665953E+01  0.23265647553E+02  0.00000000000E+00 0. -1.
          1    1    5    5  503    0 -0.56542848162E+02  0.30995858921E+01 -0.11470259852E+03  0.12791945598E+03  0.00000000000E+00 0. -1.
         -2    1    5    5    0  503 -0.35452003666E+03 -0.15866468811E+03 -0.58662695623E+03  0.70355534638E+03  0.00000000000E+00 0.  1.
         -3    1    6    6    0  502  0.22192427317E+03  0.11295296084E+03  0.78170686441E+02  0.26099695516E+03  0.00000000000E+00 0.  1.
<mgrwt>
<rscale>  0 0.16932078E+04</rscale>
<asrwt>0</asrwt>
<pdfrwt beam="1">  1        2 0.13648688E+00 0.16932078E+04</pdfrwt>
<pdfrwt beam="2">  1       -2 0.12429192E+00 0.16932078E+04</pdfrwt>
<totfact> 0.13852434E+01</totfact>
</mgrwt>
</event>
<event>
12    1  0.1494110E-007  0.1812491E+04  0.7818608E-02  0.8699685E-01
         -2   -1    0    0    0  501 -0.00000000000E+00  0.00000000000E+00  0.32584052209E+03  0.32584052209E+03  0.00000000000E+00 0.  1.
          2   -1    0    0  501    0  0.00000000000E+00 -0.00000000000E+00 -0.25204982160E+04  0.25204982160E+04  0.00000000000E+00 0. -1.
         23    2    1    2    0    0 -0.44284477128E+03 -0.30702544676E+03 -0.17870717450E+03  0.57480143771E+03  0.89912858771E+02 0.  0.
        254    2    1    2    0    0  0.44284477128E+03  0.30702544676E+03 -0.20159505194E+04  0.22715373004E+04  0.89746815757E+03 0.  0.
        -24    2    4    4    0    0  0.10439545590E+03 -0.26331938232E+03 -0.10948396459E+04  0.11336887949E+04  0.79629925622E+02 0.  0.
         24    2    4    4    0    0  0.33844931538E+03  0.57034482907E+03 -0.92111087353E+03  0.11378485055E+04  0.80080066490E+02 0.  0.
         11    1    3    3    0    0 -0.12980403529E+03 -0.43977849743E+02 -0.35666503899E+02  0.14161651862E+03  0.00000000000E+00 0. -1.
        -11    1    3    3    0    0 -0.31304073599E+03 -0.26304759701E+03 -0.14304067060E+03  0.43318491910E+03  0.00000000000E+00 0.  1.
          4    1    6    6  502    0  0.27091485146E+00 -0.68397500996E+00 -0.13310482733E+02  0.13330797698E+02  0.00000000000E+00 0. -1.
          1    1    5    5  503    0  0.22983598320E+02 -0.76609136559E+02 -0.18893256805E+03  0.20516510635E+03  0.00000000000E+00 0. -1.
         -2    1    5    5    0  503  0.81411857584E+02 -0.18671024576E+03 -0.90590707786E+03  0.92852368852E+03  0.00000000000E+00 0.  1.
         -3    1    6    6    0  502  0.33817840053E+03  0.57102880408E+03 -0.90780039080E+03  0.11245177078E+04  0.00000000000E+00 0.  1.
<mgrwt>
<rscale>  0 0.18124905E+04</rscale>
<asrwt>0</asrwt>
<pdfrwt beam="1">  1        2 0.38776896E+00 0.18124905E+04</pdfrwt>
<pdfrwt beam="2">  1       -2 0.50129311E-01 0.18124905E+04</pdfrwt>
<totfact> 0.12039111E+01</totfact>
</mgrwt>
</event>
<event>
12    1  0.1494110E-007  0.1441927E+04  0.7818608E-02  0.8924016E-01
         -1   -1    0    0    0  501 -0.00000000000E+00  0.00000000000E+00  0.20503407457E+04  0.20503407457E+04  0.00000000000E+00 0.  1.
          1   -1    0    0  501    0  0.00000000000E+00 -0.00000000000E+00 -0.25351322083E+03  0.25351322083E+03  0.00000000000E+00 0. -1.
         23    2    1    2    0    0 -0.17250676288E+03 -0.13812579201E+03  0.11371843712E+04  0.11620802069E+04  0.91677672901E+02 0.  0.
        254    2    1    2    0    0  0.17250676288E+03  0.13812579201E+03  0.65964315373E+03  0.11417737596E+04  0.90536230880E+03 0.  0.
        -24    2    4    4    0    0  0.44425694897E+03  0.11209651914E+03  0.49378221984E+02  0.46842961327E+03  0.84013257703E+02 0.  0.
         24    2    4    4    0    0 -0.27175018609E+03  0.26029272871E+02  0.61026493175E+03  0.67334414634E+03  0.80270578657E+02 0.  0.
         11    1    3    3    0    0 -0.10986269480E+03 -0.13592602226E+03  0.89577945277E+03  0.91266999690E+03  0.00000000000E+00 0.  1.
        -11    1    3    3    0    0 -0.62644068079E+02 -0.21997697474E+01  0.24140491838E+03  0.24941021004E+03  0.00000000000E+00 0. -1.
          2    1    6    6  502    0 -0.23189721906E+03  0.32600914139E+01  0.55497801892E+03  0.60148778033E+03  0.00000000000E+00 0. -1.
          3    1    5    5  503    0  0.36431422170E+03  0.11274003449E+03  0.15707366222E+02  0.38168296905E+03  0.00000000000E+00 0. -1.
         -4    1    5    5    0  503  0.79942727270E+02 -0.64351535165E+00  0.33670855762E+02  0.86746644218E+02  0.00000000000E+00 0.  1.
         -1    1    6    6    0  502 -0.39852967029E+02  0.22769181457E+02  0.55286912825E+02  0.71856366001E+02  0.00000000000E+00 0.  1.
<mgrwt>
<rscale>  0 0.14419272E+04</rscale>
<asrwt>0</asrwt>
<pdfrwt beam="1">  1        1 0.39002035E-01 0.14419272E+04</pdfrwt>
<pdfrwt beam="2">  1       -1 0.31543703E+00 0.14419272E+04</pdfrwt>
<totfact> 0.27928169E+00</totfact>
</mgrwt>
</event>
<event>
12    1  0.1494110E-007  0.2580844E+04  0.7818608E-02  0.8374737E-01
          2   -1    0    0  501    0  0.00000000000E+00  0.00000000000E+00  0.24509881645E+04  0.24509881645E+04  0.00000000000E+00 0. -1.
         -2   -1    0    0    0  501 -0.00000000000E+00 -0.00000000000E+00 -0.67939487747E+03  0.67939487747E+03  0.00000000000E+00 0.  1.
         23    2    1    2    0    0 -0.60517777862E+03  0.78645283054E+03  0.14353288547E+04  0.17474650378E+04  0.93364546662E+02 0.  0.
        254    2    1    2    0    0  0.60517777862E+03 -0.78645283054E+03  0.33626443232E+03  0.13829180042E+04  0.90257422943E+03 0.  0.
        -24    2    4    4    0    0  0.77269318890E+03 -0.46028791862E+03  0.42221701643E+03  0.99713885612E+03  0.84255309836E+02 0.  0.
         24    2    4    4    0    0 -0.16751541028E+03 -0.32616491192E+03 -0.85952584104E+02  0.38577914812E+03  0.83622616329E+02 0.  0.
         11    1    3    3    0    0 -0.15636709973E+03  0.18838976548E+03  0.42592999226E+03  0.49128172357E+03  0.00000000000E+00 0. -1.
        -11    1    3    3    0    0 -0.44881067889E+03  0.59806306506E+03  0.10093988625E+04  0.12561833142E+04  0.00000000000E+00 0.  1.
          2    1    6    6  502    0 -0.10725744232E+03 -0.17709618648E+03 -0.88023740078E+02  0.22497865903E+03  0.00000000000E+00 0. -1.
          1    1    5    5  503    0  0.42651342327E+03 -0.29956066299E+03  0.25949388578E+03  0.58222621703E+03  0.00000000000E+00 0. -1.
         -2    1    5    5    0  503  0.34617976563E+03 -0.16072725563E+03  0.16272313065E+03  0.41491263910E+03  0.00000000000E+00 0.  1.
         -1    1    6    6    0  502 -0.60257967963E+02 -0.14906872544E+03  0.20711559748E+01  0.16080048910E+03  0.00000000000E+00 0.  1.
<mgrwt>
<rscale>  0 0.25808439E+04</rscale>
<asrwt>0</asrwt>
<pdfrwt beam="1">  1        2 0.37707510E+00 0.25808439E+04</pdfrwt>
<pdfrwt beam="2">  1       -2 0.10452229E+00 0.25808439E+04</pdfrwt>
<totfact> 0.24461693E+00</totfact>
</mgrwt>
</event>
<event>
12    1  0.1494110E-007  0.2505761E+04  0.7818608E-02  0.8400936E-01
         -1   -1    0    0    0  501 -0.00000000000E+00  0.00000000000E+00  0.98206737983E+03  0.98206737983E+03  0.00000000000E+00 0.  1.
          1   -1    0    0  501    0  0.00000000000E+00 -0.00000000000E+00 -0.15983722013E+04  0.15983722013E+04  0.00000000000E+00 0. -1.
         23    2    1    2    0    0 -0.60456215441E+03 -0.66621703647E+03 -0.89757533171E+03  0.12740314984E+04  0.90411528725E+02 0.  0.
        254    2    1    2    0    0  0.60456215441E+03  0.66621703647E+03  0.28127051020E+03  0.13064080828E+04  0.90457085994E+03 0.  0.
        -24    2    4    4    0    0  0.47925283141E+03  0.15515329591E+03 -0.23804472157E+03  0.56296522833E+03  0.80676745076E+02 0.  0.
         24    2    4    4    0    0  0.12530932300E+03  0.51106374056E+03  0.51931523177E+03  0.74344285446E+03  0.78296836191E+02 0.  0.
         11    1    3    3    0    0 -0.15249930290E+03 -0.16045234824E+03 -0.16858769374E+03  0.27824953535E+03  0.00000000000E+00 0.  1.
        -11    1    3    3    0    0 -0.45206285151E+03 -0.50576468823E+03 -0.72898763796E+03  0.99578196302E+03  0.00000000000E+00 0. -1.
          2    1    6    6  502    0  0.35058564498E+02  0.50790459794E+02  0.77643685989E+02  0.99183243165E+02  0.00000000000E+00 0. -1.
          1    1    5    5  503    0  0.63128227928E+02  0.19790512636E+02 -0.29496781166E+01  0.66223395811E+02  0.00000000000E+00 0. -1.
         -2    1    5    5    0  503  0.41612460348E+03  0.13536278328E+03 -0.23509504346E+03  0.49674183252E+03  0.00000000000E+00 0.  1.
         -1    1    6    6    0  502  0.90250758506E+02  0.46027328076E+03  0.44167154578E+03  0.64425961130E+03  0.00000000000E+00 0.  1.
<mgrwt>
<rscale>  0 0.25057607E+04</rscale>
<asrwt>0</asrwt>
<pdfrwt beam="1">  1        1 0.24590342E+00 0.25057607E+04</pdfrwt>
<pdfrwt beam="2">  1       -1 0.15108729E+00 0.25057607E+04</pdfrwt>
<totfact> 0.16997460E+00</totfact>
</mgrwt>
</event>
<event>
12    1  0.1494110E-007  0.1618777E+04  0.7818608E-02  0.8809095E-01
         -2   -1    0    0    0  501 -0.00000000000E+00  0.00000000000E+00  0.38923635950E+03  0.38923635950E+03  0.00000000000E+00 0.  1.
          2   -1    0    0  501    0  0.00000000000E+00 -0.00000000000E+00 -0.16830649361E+04  0.16830649361E+04  0.00000000000E+00 0. -1.
         23    2    1    2    0    0 -0.51480003735E+03 -0.20582563221E+03 -0.50155149894E+03  0.75307298534E+03  0.90453003457E+02 0.  0.
        254    2    1    2    0    0  0.51480003735E+03  0.20582563221E+03 -0.79227707771E+03  0.13192283103E+04  0.89737232936E+03 0.  0.
        -24    2    4    4    0    0  0.74133447356E+03  0.15961232392E+03 -0.40855758866E+03  0.86437293316E+03  0.71891367378E+02 0.  0.
         24    2    4    4    0    0 -0.22653443620E+03  0.46213308289E+02 -0.38371948905E+03  0.45485537713E+03  0.78735298212E+02 0.  0.
         11    1    3    3    0    0 -0.41231315327E+03 -0.12464892138E+03 -0.39446564337E+03  0.58407416803E+03  0.00000000000E+00 0. -1.
        -11    1    3    3    0    0 -0.10248688408E+03 -0.81176710834E+02 -0.10708585556E+03  0.16899881731E+03  0.00000000000E+00 0.  1.
          2    1    6    6  502    0 -0.15035558383E+03  0.57561043961E+02 -0.20824718237E+03  0.26322417126E+03  0.00000000000E+00 0. -1.
          3    1    5    5  503    0  0.51521902266E+03  0.12491627876E+03 -0.25071481618E+03  0.58644065093E+03  0.00000000000E+00 0. -1.
         -4    1    5    5    0  503  0.22611545089E+03  0.34696045160E+02 -0.15784277248E+03  0.27793228223E+03  0.00000000000E+00 0.  1.
         -1    1    6    6    0  502 -0.76178852372E+02 -0.11347735672E+02 -0.17547230668E+03  0.19163120588E+03  0.00000000000E+00 0.  1.
<mgrwt>
<rscale>  0 0.16187774E+04</rscale>
<asrwt>0</asrwt>
<pdfrwt beam="1">  1        2 0.25893307E+00 0.16187774E+04</pdfrwt>
<pdfrwt beam="2">  1       -2 0.59882515E-01 0.16187774E+04</pdfrwt>
<totfact> 0.24955576E+01</totfact>
</mgrwt>
</event>
<event>
12    1  0.1494110E-007  0.1417333E+04  0.7818608E-02  0.8941367E-01
         -1   -1    0    0    0  501 -0.00000000000E+00  0.00000000000E+00  0.61823682444E+03  0.61823682444E+03  0.00000000000E+00 0.  1.
          1   -1    0    0  501    0  0.00000000000E+00 -0.00000000000E+00 -0.81232288982E+03  0.81232288982E+03  0.00000000000E+00 0. -1.
         23    2    1    2    0    0 -0.31646135436E+03  0.14953406184E+01 -0.32996315749E+03  0.46667060106E+03  0.93572109893E+02 0.  0.
        254    2    1    2    0    0  0.31646135436E+03 -0.14953406184E+01  0.13587709211E+03  0.96388911319E+03  0.90026085860E+03 0.  0.
        -24    2    4    4    0    0  0.17718394689E+03 -0.39510253566E+03  0.27215336062E+03  0.51736486555E+03  0.78094735363E+02 0.  0.
         24    2    4    4    0    0  0.13927740747E+03  0.39360719504E+03 -0.13627626851E+03  0.44652424764E+03  0.80547266556E+02 0.  0.
         11    1    3    3    0    0 -0.28229150207E+03 -0.25722293899E+02 -0.26274175557E+03  0.38650143423E+03  0.00000000000E+00 0.  1.
        -11    1    3    3    0    0 -0.34169852289E+02  0.27217634517E+02 -0.67221401918E+02  0.80169166829E+02  0.00000000000E+00 0. -1.
          4    1    6    6  502    0  0.12183812879E+03  0.35717079319E+03 -0.14656178306E+03  0.40484053823E+03  0.00000000000E+00 0. -1.
          1    1    5    5  503    0  0.12458327149E+03 -0.27954233136E+03  0.23251074176E+03  0.38435159892E+03  0.00000000000E+00 0. -1.
         -2    1    5    5    0  503  0.52600675402E+02 -0.11556020430E+03  0.39642618856E+02  0.13301326664E+03  0.00000000000E+00 0.  1.
         -3    1    6    6    0  502  0.17439278675E+02  0.36436401854E+02  0.10285514556E+02  0.41683709413E+02  0.00000000000E+00 0.  1.
<mgrwt>
<rscale>  0 0.14173326E+04</rscale>
<asrwt>0</asrwt>
<pdfrwt beam="1">  1        1 0.12497275E+00 0.14173326E+04</pdfrwt>
<pdfrwt beam="2">  1       -1 0.95113359E-01 0.14173326E+04</pdfrwt>
<totfact> 0.22439031E+01</totfact>
</mgrwt>
</event>
<event>
12    1  0.1494110E-007  0.2309702E+04  0.7818608E-02  0.8474106E-01
         -2   -1    0    0    0  501 -0.00000000000E+00  0.00000000000E+00  0.69255901778E+03  0.69255901778E+03  0.00000000000E+00 0.  1.
          2   -1    0    0  501    0  0.00000000000E+00 -0.00000000000E+00 -0.19257281349E+04  0.19257281349E+04  0.00000000000E+00 0. -1.
         23    2    1    2    0    0 -0.39223573254E+03 -0.54135365072E+03  0.26087045697E+03  0.72555689012E+03  0.10708296062E+03 0.  0.
        254    2    1    2    0    0  0.39223573254E+03  0.54135365072E+03 -0.14940395740E+04  0.18927302625E+04  0.95045302503E+03 0.  0.
        -24    2    4    4    0    0 -0.93573349521E+02  0.19490468911E+03  0.49889058108E+02  0.23547109470E+03  0.78828349870E+02 0.  0.
         24    2    4    4    0    0  0.48580908206E+03  0.34644896162E+03 -0.15439286322E+04  0.16572591678E+04  0.82188690892E+02 0.  0.
         11    1    3    3    0    0 -0.33651327336E+03 -0.38924664873E+03  0.18637896693E+03  0.54725794285E+03  0.00000000000E+00 0.  1.
        -11    1    3    3    0    0 -0.55722459180E+02 -0.15210700199E+03  0.74491490036E+02  0.17829894727E+03  0.00000000000E+00 0. -1.
          4    1    6    6  502    0  0.32196550812E+03  0.26598694644E+03 -0.10075937920E+04  0.10907135709E+04  0.00000000000E+00 0. -1.
          3    1    5    5  503    0 -0.71101378623E+01  0.39502808335E+02  0.41055526809E+02  0.57415870701E+02  0.00000000000E+00 0. -1.
         -4    1    5    5    0  503 -0.86463211659E+02  0.15540188077E+03  0.88335312997E+01  0.17805522400E+03  0.00000000000E+00 0.  1.
         -3    1    6    6    0  502  0.16384357394E+03  0.80462015172E+02 -0.53633484017E+03  0.56654559692E+03  0.00000000000E+00 0.  1.
<mgrwt>
<rscale>  0 0.23097016E+04</rscale>
<asrwt>0</asrwt>
<pdfrwt beam="1">  1        2 0.29626586E+00 0.23097016E+04</pdfrwt>
<pdfrwt beam="2">  1       -2 0.10654754E+00 0.23097016E+04</pdfrwt>
<totfact> 0.47235538E+00</totfact>
</mgrwt>
</event>
<event>
12    1  0.1494110E-007  0.3056846E+04  0.7818608E-02  0.8227682E-01
         -1   -1    0    0    0  501 -0.00000000000E+00  0.00000000000E+00  0.14198420423E+04  0.14198420423E+04  0.00000000000E+00 0.  1.
          1   -1    0    0  501    0  0.00000000000E+00 -0.00000000000E+00 -0.16453075107E+04  0.16453075107E+04  0.00000000000E+00 0. -1.
         23    2    1    2    0    0 -0.10169854471E+04  0.41523585898E+03  0.75800390548E+03  0.13361675497E+04  0.63981104630E+02 0.  0.
        254    2    1    2    0    0  0.10169854471E+04 -0.41523585898E+03 -0.98346937391E+03  0.17289820034E+04  0.90304293386E+03 0.  0.
        -24    2    4    4    0    0  0.87685176833E+03 -0.62415664446E+03 -0.52586934290E+03  0.12008013720E+04  0.83335638603E+02 0.  0.
         24    2    4    4    0    0  0.14013367882E+03  0.20892078548E+03 -0.45760003101E+03  0.52818063144E+03  0.79319912417E+02 0.  0.
         13    1    3    3    0    0 -0.23102537997E+03  0.67664106330E+02  0.15446860135E+03  0.28602745721E+03  0.00000000000E+00 0. -1.
        -13    1    3    3    0    0 -0.78596006718E+03  0.34757175265E+03  0.60353530413E+03  0.10501400925E+04  0.00000000000E+00 0.  1.
          4    1    6    6  502    0  0.60792275280E+02  0.68301591058E+02 -0.24293616025E+03  0.25957423993E+03  0.00000000000E+00 0. -1.
          1    1    5    5  503    0  0.64583813467E+03 -0.46414120622E+03 -0.34727667500E+03  0.86783353502E+03  0.00000000000E+00 0. -1.
         -2    1    5    5    0  503  0.23101363366E+03 -0.16001543824E+03 -0.17859266790E+03  0.33296783695E+03  0.00000000000E+00 0.  1.
         -3    1    6    6    0  502  0.79341403536E+02  0.14061919442E+03 -0.21466387076E+03  0.26860639152E+03  0.00000000000E+00 0.  1.
<mgrwt>
<rscale>  0 0.30568459E+04</rscale>
<asrwt>0</asrwt>
<pdfrwt beam="1">  1        1 0.25312423E+00 0.30568459E+04</pdfrwt>
<pdfrwt beam="2">  1       -1 0.21843724E+00 0.30568459E+04</pdfrwt>
<totfact> 0.49603470E-01</totfact>
</mgrwt>
</event>
<event>
12    1  0.1494110E-007  0.2865313E+04  0.7818608E-02  0.8283273E-01
         -3   -1    0    0    0  501 -0.00000000000E+00  0.00000000000E+00  0.90150975937E+03  0.90150975937E+03  0.00000000000E+00 0. -1.
          3   -1    0    0  501    0  0.00000000000E+00 -0.00000000000E+00 -0.22767410410E+04  0.22767410410E+04  0.00000000000E+00 0.  1.
         23    2    1    2    0    0 -0.86495065719E+02 -0.86181016793E+03  0.44111714206E+03  0.97587382429E+03  0.86874771878E+02 0.  0.
        254    2    1    2    0    0  0.86495065719E+02  0.86181016793E+03 -0.18163484237E+04  0.22023769761E+04  0.89506680566E+03 0.  0.
        -24    2    4    4    0    0 -0.95192582837E+02  0.36393316514E+03 -0.15616866074E+04  0.16083446070E+04  0.79989614641E+02 0.  0.
         24    2    4    4    0    0  0.18168764856E+03  0.49787700278E+03 -0.25466181623E+03  0.59403236908E+03  0.84438754907E+02 0.  0.
         11    1    3    3    0    0 -0.73173450783E+02 -0.39221263113E+03  0.17210403425E+03  0.43451685873E+03  0.00000000000E+00 0.  1.
        -11    1    3    3    0    0 -0.13321614936E+02 -0.46959753680E+03  0.26901310780E+03  0.54135696556E+03  0.00000000000E+00 0. -1.
          2    1    6    6  502    0  0.23129301240E+02  0.45717315863E+02  0.36429116084E+00  0.51236415308E+02  0.00000000000E+00 0. -1.
          1    1    5    5  503    0 -0.54208369197E+02  0.30860723230E+03 -0.12048374540E+04  0.12449137567E+04  0.00000000000E+00 0. -1.
         -2    1    5    5    0  503 -0.40984213640E+02  0.55325932844E+02 -0.35684915344E+03  0.36343085027E+03  0.00000000000E+00 0.  1.
         -1    1    6    6    0  502  0.15855834732E+03  0.45215968692E+03 -0.25502610739E+03  0.54279595377E+03  0.00000000000E+00 0.  1.
<mgrwt>
<rscale>  0 0.28653127E+04</rscale>
<asrwt>0</asrwt>
<pdfrwt beam="1">  1        3 0.35026785E+00 0.28653127E+04</pdfrwt>
<pdfrwt beam="2">  1       -3 0.13869381E+00 0.28653127E+04</pdfrwt>
<totfact> 0.18234678E-02</totfact>
</mgrwt>
</event>
<event>
12    1  0.1494110E-007  0.1401417E+04  0.7818608E-02  0.8952793E-01
          2   -1    0    0  501    0  0.00000000000E+00  0.00000000000E+00  0.23228596077E+03  0.23228596077E+03  0.00000000000E+00 0.  1.
         -2   -1    0    0    0  501 -0.00000000000E+00 -0.00000000000E+00 -0.21137411739E+04  0.21137411739E+04  0.00000000000E+00 0. -1.
         23    2    1    2    0    0  0.33111150159E+03  0.23902647951E+03 -0.49713949631E+03  0.64997479166E+03  0.92471977398E+02 0.  0.
        254    2    1    2    0    0 -0.33111150159E+03 -0.23902647951E+03 -0.13843157168E+04  0.16960523430E+04  0.89078339793E+03 0.  0.
        -24    2    4    4    0    0  0.97146541464E+02 -0.11206131011E+02 -0.11390420146E+04  0.11459643319E+04  0.79085467112E+02 0.  0.
         24    2    4    4    0    0 -0.42825804305E+03 -0.22782034850E+03 -0.24527370225E+03  0.55008801113E+03  0.84442692670E+02 0.  0.
         11    1    3    3    0    0  0.80028323933E+02  0.87533084936E+02 -0.19985272037E+03  0.23239553229E+03  0.00000000000E+00 0. -1.
        -11    1    3    3    0    0  0.25108317766E+03  0.15149339457E+03 -0.29728677595E+03  0.41757925937E+03  0.00000000000E+00 0.  1.
          2    1    6    6  502    0 -0.29609553852E+03 -0.18469504604E+03 -0.14134709168E+03  0.37651537590E+03  0.00000000000E+00 0. -1.
          3    1    5    5  503    0  0.10840688718E+03  0.43405436863E+00 -0.93032023917E+03  0.93661517658E+03  0.00000000000E+00 0. -1.
         -4    1    5    5    0  503 -0.11260345712E+02 -0.11640185380E+02 -0.20872177539E+03  0.20934915529E+03  0.00000000000E+00 0.  1.
         -1    1    6    6    0  502 -0.13216250453E+03 -0.43125302461E+02 -0.10392661057E+03  0.17357263523E+03  0.00000000000E+00 0.  1.
<mgrwt>
<rscale>  0 0.14014170E+04</rscale>
<asrwt>0</asrwt>
<pdfrwt beam="1">  1        2 0.35736301E-01 0.14014170E+04</pdfrwt>
<pdfrwt beam="2">  1       -2 0.32519096E+00 0.14014170E+04</pdfrwt>
<totfact> 0.31851229E+00</totfact>
</mgrwt>
</event>
<event>
12    1  0.1494110E-007  0.2038531E+04  0.7818608E-02  0.8588815E-01
         -1   -1    0    0    0  501 -0.00000000000E+00  0.00000000000E+00  0.13811697522E+04  0.13811697522E+04  0.00000000000E+00 0.  1.
          1   -1    0    0  501    0  0.00000000000E+00 -0.00000000000E+00 -0.75219035938E+03  0.75219035938E+03  0.00000000000E+00 0. -1.
         23    2    1    2    0    0  0.71112487243E+03  0.26913335054E+03 -0.51348474909E+02  0.76758112341E+03  0.91721156645E+02 0.  0.
        254    2    1    2    0    0 -0.71112487243E+03 -0.26913335054E+03  0.68032786773E+03  0.13657789882E+04  0.90795093058E+03 0.  0.
        -24    2    4    4    0    0 -0.52405810649E+03  0.18657410300E+03  0.55035746805E+02  0.56568533571E+03  0.86741977813E+02 0.  0.
         24    2    4    4    0    0 -0.18706676594E+03 -0.45570745354E+03  0.62529212092E+03  0.80009365246E+03  0.80599988122E+02 0.  0.
         13    1    3    3    0    0  0.35744347359E+03  0.14140110646E+03  0.19648720112E+02  0.38489762524E+03  0.00000000000E+00 0.  1.
        -13    1    3    3    0    0  0.35368139884E+03  0.12773224408E+03 -0.70997195020E+02  0.38268349816E+03  0.00000000000E+00 0. -1.
          4    1    6    6  502    0 -0.10718759503E+03 -0.21158709782E+03  0.24338061542E+03  0.33984173442E+03  0.00000000000E+00 0. -1.
          1    1    5    5  503    0 -0.10682222530E+02 -0.80641857906E+01  0.53258852086E+01  0.14405069382E+02  0.00000000000E+00 0. -1.
         -2    1    5    5    0  503 -0.51337588396E+03  0.19463828879E+03  0.49709861597E+02  0.55128026633E+03  0.00000000000E+00 0.  1.
         -3    1    6    6    0  502 -0.79879170907E+02 -0.24412035572E+03  0.38191150550E+03  0.46025191803E+03  0.00000000000E+00 0.  1.
<mgrwt>
<rscale>  0 0.20385314E+04</rscale>
<asrwt>0</asrwt>
<pdfrwt beam="1">  1        1 0.11572159E+00 0.20385314E+04</pdfrwt>
<pdfrwt beam="2">  1       -1 0.21248765E+00 0.20385314E+04</pdfrwt>
<totfact> 0.27871579E+00</totfact>
</mgrwt>
</event>
<event>
12    1  0.1494110E-007  0.2364137E+04  0.7818608E-02  0.8453053E-01
         -1   -1    0    0    0  501 -0.00000000000E+00  0.00000000000E+00  0.31977944234E+03  0.31977944234E+03  0.00000000000E+00 0.  1.
          1   -1    0    0  501    0  0.00000000000E+00 -0.00000000000E+00 -0.43695301632E+04  0.43695301632E+04  0.00000000000E+00 0. -1.
         23    2    1    2    0    0 -0.13366123919E+03 -0.16061630133E+03  0.22250397912E+03  0.31808737075E+03  0.89490958150E+02 0.  0.
        254    2    1    2    0    0  0.13366123919E+03  0.16061630133E+03 -0.42722547000E+04  0.43712222348E+04  0.90097762531E+03 0.  0.
        -24    2    4    4    0    0  0.17334370366E+03 -0.33400414390E+03 -0.12618832781E+04  0.13193015910E+04  0.81243293671E+02 0.  0.
         24    2    4    4    0    0 -0.39682464478E+02  0.49462044524E+03 -0.30103714219E+04  0.30519206438E+04  0.75229218920E+02 0.  0.
         11    1    3    3    0    0 -0.52400764412E+02 -0.31369359249E+02  0.19556855485E+02  0.64127586943E+02  0.00000000000E+00 0. -1.
        -11    1    3    3    0    0 -0.81260474773E+02 -0.12924694208E+03  0.20294712363E+03  0.25395978380E+03  0.00000000000E+00 0.  1.
          2    1    6    6  502    0 -0.39219100109E+02  0.41386141989E+03 -0.26652448799E+04  0.26974709790E+04  0.00000000000E+00 0. -1.
          3    1    5    5  503    0  0.64374927828E+02 -0.19612860747E+03 -0.60148158160E+03  0.63591717622E+03  0.00000000000E+00 0. -1.
         -4    1    5    5    0  503  0.10896877583E+03 -0.13787553643E+03 -0.66040169647E+03  0.68338441477E+03  0.00000000000E+00 0.  1.
         -1    1    6    6    0  502 -0.46336436902E+00  0.80759025351E+02 -0.34512654197E+03  0.35444966477E+03  0.00000000000E+00 0.  1.
<mgrwt>
<rscale>  0 0.23641370E+04</rscale>
<asrwt>0</asrwt>
<pdfrwt beam="1">  1        1 0.67223538E+00 0.23641370E+04</pdfrwt>
<pdfrwt beam="2">  1       -1 0.49196839E-01 0.23641370E+04</pdfrwt>
<totfact> 0.16306704E-01</totfact>
</mgrwt>
</event>
<event>
12    1  0.1494110E-007  0.1744136E+04  0.7818608E-02  0.8736585E-01
          2   -1    0    0  501    0  0.00000000000E+00  0.00000000000E+00  0.56805900788E+03  0.56805900788E+03  0.00000000000E+00 0. -1.
         -2   -1    0    0    0  501 -0.00000000000E+00 -0.00000000000E+00 -0.13387744002E+04  0.13387744002E+04  0.00000000000E+00 0.  1.
         23    2    1    2    0    0  0.35729966591E+03 -0.36129171502E+03 -0.70409985948E+03  0.87308133165E+03  0.91212087771E+02 0.  0.
        254    2    1    2    0    0 -0.35729966591E+03  0.36129171502E+03 -0.66615532846E+02  0.10337520764E+04  0.89778113799E+03 0.  0.
        -24    2    4    4    0    0 -0.12380454508E+03  0.41615139363E+03  0.33857338624E+03  0.55651934974E+03  0.81069729044E+02 0.  0.
         24    2    4    4    0    0 -0.23349512084E+03 -0.54859678613E+02 -0.40518891908E+03  0.47723272670E+03  0.77739690606E+02 0.  0.
         11    1    3    3    0    0  0.25481474072E+03 -0.24959643408E+03 -0.55988161244E+03  0.66384964558E+03  0.00000000000E+00 0.  1.
        -11    1    3    3    0    0  0.10248492519E+03 -0.11169528093E+03 -0.14421824704E+03  0.20923168606E+03  0.00000000000E+00 0. -1.
          4    1    6    6  502    0 -0.18590930812E+03 -0.71470096304E+02 -0.34831100661E+03  0.40123659210E+03  0.00000000000E+00 0. -1.
          3    1    5    5  503    0 -0.12056509872E+03  0.27291040754E+03  0.23254126153E+03  0.37827433417E+03  0.00000000000E+00 0. -1.
         -4    1    5    5    0  503 -0.32394463571E+01  0.14324098609E+03  0.10603212471E+03  0.17824501558E+03  0.00000000000E+00 0.  1.
         -3    1    6    6    0  502 -0.47585812714E+02  0.16610417691E+02 -0.56877912473E+02  0.75996134604E+02  0.00000000000E+00 0.  1.
<mgrwt>
<rscale>  0 0.17441363E+04</rscale>
<asrwt>0</asrwt>
<pdfrwt beam="1">  1        2 0.87393694E-01 0.17441363E+04</pdfrwt>
<pdfrwt beam="2">  1       -2 0.20596529E+00 0.17441363E+04</pdfrwt>
<totfact> 0.61026383E+00</totfact>
</mgrwt>
</event>
<event>
12    1  0.1494110E-007  0.1769098E+04  0.7818608E-02  0.8722908E-01
         -2   -1    0    0    0  501 -0.00000000000E+00  0.00000000000E+00  0.34284225109E+03  0.34284225109E+03  0.00000000000E+00 0.  1.
          2   -1    0    0  501    0  0.00000000000E+00 -0.00000000000E+00 -0.22821770984E+04  0.22821770984E+04  0.00000000000E+00 0. -1.
         23    2    1    2    0    0  0.55908392315E+03 -0.30876855002E+03 -0.54111978206E+03  0.84313156509E+03  0.10073413970E+03 0.  0.
        254    2    1    2    0    0 -0.55908392315E+03  0.30876855002E+03 -0.13982150653E+04  0.17818877844E+04  0.90122464287E+03 0.  0.
        -24    2    4    4    0    0 -0.55212640086E+03  0.51823220535E+03 -0.13540201248E+04  0.15534927709E+04  0.81000677810E+02 0.  0.
         24    2    4    4    0    0 -0.69575222828E+01 -0.20946365533E+03 -0.44194940464E+02  0.22839501348E+03  0.79294762757E+02 0.  0.
         11    1    3    3    0    0  0.45229929581E+03 -0.29215739149E+03 -0.45473557061E+03  0.70478013137E+03  0.00000000000E+00 0. -1.
        -11    1    3    3    0    0  0.10678462734E+03 -0.16611158527E+02 -0.86384211456E+02  0.13835143372E+03  0.00000000000E+00 0.  1.
          2    1    6    6  502    0 -0.13497688578E+02 -0.46171192772E+02 -0.43671928994E+02  0.64970793600E+02  0.00000000000E+00 0. -1.
          3    1    5    5  503    0 -0.20863235850E+03  0.24780885038E+03 -0.55005016878E+03  0.63835090312E+03  0.00000000000E+00 0. -1.
         -4    1    5    5    0  503 -0.34349404236E+03  0.27042335497E+03 -0.80396995602E+03  0.91514186782E+03  0.00000000000E+00 0.  1.
         -1    1    6    6    0  502  0.65401662947E+01 -0.16329246255E+03 -0.52301147010E+00  0.16342421988E+03  0.00000000000E+00 0.  1.
<mgrwt>
<rscale>  0 0.17690978E+04</rscale>
<asrwt>0</asrwt>
<pdfrwt beam="1">  1        2 0.35110417E+00 0.17690978E+04</pdfrwt>
<pdfrwt beam="2">  1       -2 0.52744961E-01 0.17690978E+04</pdfrwt>
<totfact> 0.14899750E+01</totfact>
</mgrwt>
</event>
<event>
12    1  0.1494110E-007  0.1604216E+04  0.7818608E-02  0.8817962E-01
          2   -1    0    0  501    0  0.00000000000E+00  0.00000000000E+00  0.34424560674E+04  0.34424560674E+04  0.00000000000E+00 0. -1.
         -2   -1    0    0    0  501 -0.00000000000E+00 -0.00000000000E+00 -0.18689490809E+03  0.18689490809E+03  0.00000000000E+00 0.  1.
         23    2    1    2    0    0  0.51640389873E+02  0.54462278796E+03  0.15507786936E+04  0.16469830623E+04  0.91421770072E+02 0.  0.
        254    2    1    2    0    0 -0.51640389873E+02 -0.54462278796E+03  0.17047824657E+04  0.19823679132E+04  0.85101032702E+03 0.  0.
        -24    2    4    4    0    0  0.26255511657E+03 -0.19560274009E+03  0.17480783537E+03  0.37988826768E+03  0.81004292800E+02 0.  0.
         24    2    4    4    0    0 -0.31419550644E+03 -0.34902004787E+03  0.15299746304E+04  0.16024796455E+04  0.81146993667E+02 0.  0.
         11    1    3    3    0    0  0.95708009524E+01  0.29575956121E+03  0.95933901959E+03  0.10039405723E+04  0.00000000000E+00 0. -1.
        -11    1    3    3    0    0  0.42069588920E+02  0.24886322676E+03  0.59143967401E+03  0.64304248999E+03  0.00000000000E+00 0.  1.
          2    1    6    6  502    0 -0.30281152198E+03 -0.35075571790E+03  0.15090807318E+04  0.15786225155E+04  0.00000000000E+00 0. -1.
          3    1    5    5  503    0  0.14289714360E+03 -0.12314198222E+03  0.57162144189E+02  0.19710670248E+03  0.00000000000E+00 0. -1.
         -4    1    5    5    0  503  0.11965797297E+03 -0.72460757865E+02  0.11764569118E+03  0.18278156520E+03  0.00000000000E+00 0.  1.
         -1    1    6    6    0  502 -0.11383984458E+02  0.17356700261E+01  0.20893898617E+02  0.23857130004E+02  0.00000000000E+00 0.  1.
<mgrwt>
<rscale>  0 0.16042163E+04</rscale>
<asrwt>0</asrwt>
<pdfrwt beam="1">  1        2 0.52960858E+00 0.16042163E+04</pdfrwt>
<pdfrwt beam="2">  1       -2 0.28753065E-01 0.16042163E+04</pdfrwt>
<totfact> 0.95890955E+00</totfact>
</mgrwt>
</event>
<event>
12    1  0.1494110E-007  0.1399492E+04  0.7818608E-02  0.8954186E-01
          1   -1    0    0  501    0  0.00000000000E+00  0.00000000000E+00  0.15539426500E+04  0.15539426500E+04  0.00000000000E+00 0. -1.
         -1   -1    0    0    0  501 -0.00000000000E+00 -0.00000000000E+00 -0.31509837377E+03  0.31509837377E+03  0.00000000000E+00 0.  1.
         23    2    1    2    0    0 -0.15252475907E+03 -0.35760329056E+03  0.46847357607E+03  0.61886698431E+03  0.11128763296E+03 0.  0.
        254    2    1    2    0    0  0.15252475907E+03  0.35760329056E+03  0.77037070012E+03  0.12501740394E+04  0.90461052265E+03 0.  0.
        -24    2    4    4    0    0  0.38882642761E+03  0.27753211811E+03  0.84828431455E+03  0.97689227746E+03  0.80759990457E+02 0.  0.
         24    2    4    4    0    0 -0.23630166853E+03  0.80071172453E+02 -0.77913614430E+02  0.27328176196E+03  0.79765399127E+02 0.  0.
         11    1    3    3    0    0 -0.10243362003E+02 -0.13096682775E+03  0.20394052689E+03  0.24258807668E+03  0.00000000000E+00 0. -1.
        -11    1    3    3    0    0 -0.14228139707E+03 -0.22663646281E+03  0.26453304917E+03  0.37627890763E+03  0.00000000000E+00 0.  1.
          4    1    6    6  502    0 -0.16264078767E+03  0.17228738783E+02 -0.34404481213E+02  0.16713025932E+03  0.00000000000E+00 0. -1.
          1    1    5    5  503    0  0.32208844073E+03  0.24910195564E+03  0.76367086309E+03  0.86543973509E+03  0.00000000000E+00 0. -1.
         -2    1    5    5    0  503  0.66737986878E+02  0.28430162471E+02  0.84613451462E+02  0.11145254236E+03  0.00000000000E+00 0.  1.
         -3    1    6    6    0  502 -0.73660880864E+02  0.62842433671E+02 -0.43509133217E+02  0.10615150264E+03  0.00000000000E+00 0.  1.
<mgrwt>
<rscale>  0 0.13994925E+04</rscale>
<asrwt>0</asrwt>
<pdfrwt beam="1">  1        1 0.23906810E+00 0.13994925E+04</pdfrwt>
<pdfrwt beam="2">  1       -1 0.48476674E-01 0.13994925E+04</pdfrwt>
<totfact> 0.24917460E+01</totfact>
</mgrwt>
</event>
<event>
12    1  0.1494110E-007  0.2732430E+04  0.7818608E-02  0.8324559E-01
          2   -1    0    0  501    0  0.00000000000E+00  0.00000000000E+00  0.23947290124E+04  0.23947290124E+04  0.00000000000E+00 0. -1.
         -2   -1    0    0    0  501 -0.00000000000E+00 -0.00000000000E+00 -0.77943827673E+03  0.77943827673E+03  0.00000000000E+00 0.  1.
         23    2    1    2    0    0 -0.10041360455E+03  0.93884105070E+03  0.16152313155E+04  0.18737411418E+04  0.10211882060E+03 0.  0.
        254    2    1    2    0    0  0.10041360455E+03 -0.93884105070E+03  0.59420168783E-01  0.13004261473E+04  0.89420509429E+03 0.  0.
        -24    2    4    4    0    0  0.38776094530E+03 -0.11429612835E+03 -0.83551072382E+02  0.41929176161E+03  0.73502680237E+02 0.  0.
         24    2    4    4    0    0 -0.28734734075E+03 -0.82454492235E+03  0.83610492551E+02  0.88113438571E+03  0.83452190003E+02 0.  0.
         13    1    3    3    0    0 -0.34478831440E+02  0.59320980012E+03  0.93382663711E+03  0.11068508684E+04  0.00000000000E+00 0.  1.
        -13    1    3    3    0    0 -0.65934773106E+02  0.34563125058E+03  0.68140467843E+03  0.76689027342E+03  0.00000000000E+00 0. -1.
          2    1    6    6  502    0 -0.29219883781E+03 -0.80486728278E+03  0.76583989651E+02  0.85968401822E+03  0.00000000000E+00 0. -1.
          3    1    5    5  503    0  0.22579557458E+03 -0.35136248314E+02 -0.67652245101E+02  0.23831706551E+03  0.00000000000E+00 0. -1.
         -4    1    5    5    0  503  0.16196537072E+03 -0.79159880040E+02 -0.15898827281E+02  0.18097469610E+03  0.00000000000E+00 0.  1.
         -1    1    6    6    0  502  0.48514970612E+01 -0.19677639564E+02  0.70265029003E+01  0.21450367493E+02  0.00000000000E+00 0.  1.
<mgrwt>
<rscale>  0 0.27324300E+04</rscale>
<asrwt>0</asrwt>
<pdfrwt beam="1">  1        2 0.36841985E+00 0.27324300E+04</pdfrwt>
<pdfrwt beam="2">  1       -2 0.11991358E+00 0.27324300E+04</pdfrwt>
<totfact> 0.18629735E+00</totfact>
</mgrwt>
</event>
<event>
12    1  0.1494110E-007  0.1036935E+04  0.7818608E-02  0.9268938E-01
         -1   -1    0    0    0  501 -0.00000000000E+00  0.00000000000E+00  0.68597376970E+02  0.68597376970E+02  0.00000000000E+00 0.  1.
          1   -1    0    0  501    0  0.00000000000E+00 -0.00000000000E+00 -0.39186401132E+04  0.39186401132E+04  0.00000000000E+00 0. -1.
         23    2    1    2    0    0  0.48631065036E+02  0.65790677172E+02 -0.28279081256E+03  0.30779833978E+03  0.89865347124E+02 0.  0.
        254    2    1    2    0    0 -0.48631065036E+02 -0.65790677172E+02 -0.35672519237E+04  0.36794391504E+04  0.89793807181E+03 0.  0.
        -24    2    4    4    0    0  0.31414863262E+03 -0.45122789022E+02 -0.55636563758E+03  0.64571002234E+03  0.81690151186E+02 0.  0.
         24    2    4    4    0    0 -0.36277969766E+03 -0.20667888150E+02 -0.30108862861E+04  0.30337291281E+04  0.77716947907E+02 0.  0.
         11    1    3    3    0    0  0.53264487028E+02  0.33563575289E+02 -0.77064497536E+02  0.99511586989E+02  0.00000000000E+00 0.  1.
        -11    1    3    3    0    0 -0.46334219918E+01  0.32227101883E+02 -0.20572631502E+03  0.20828675279E+03  0.00000000000E+00 0. -1.
          2    1    6    6  502    0 -0.25488100499E+03 -0.47043610352E+02 -0.19860134560E+04  0.20028546816E+04  0.00000000000E+00 0. -1.
          3    1    5    5  503    0  0.29467370787E+03 -0.30909626791E+02 -0.54185098557E+03  0.61756820651E+03  0.00000000000E+00 0. -1.
         -4    1    5    5    0  503  0.19474924758E+02 -0.14213162231E+02 -0.14514652013E+02  0.28141815826E+02  0.00000000000E+00 0.  1.
         -1    1    6    6    0  502 -0.10789869267E+03  0.26375722203E+02 -0.10248728301E+04  0.10308744465E+04  0.00000000000E+00 0.  1.
<mgrwt>
<rscale>  0 0.10369348E+04</rscale>
<asrwt>0</asrwt>
<pdfrwt beam="1">  1        1 0.60286763E+00 0.10369348E+04</pdfrwt>
<pdfrwt beam="2">  1       -1 0.10553444E-01 0.10369348E+04</pdfrwt>
<totfact> 0.68450063E+00</totfact>
</mgrwt>
</event>
<event>
12    1  0.1494110E-007  0.2440837E+04  0.7818608E-02  0.8424371E-01
         -1   -1    0    0    0  501 -0.00000000000E+00  0.00000000000E+00  0.48741320534E+03  0.48741320534E+03  0.00000000000E+00 0.  1.
          1   -1    0    0  501    0  0.00000000000E+00 -0.00000000000E+00 -0.30557684545E+04  0.30557684545E+04  0.00000000000E+00 0. -1.
         23    2    1    2    0    0  0.20990520790E+02  0.59295736532E+03 -0.23774905352E+04  0.24530895150E+04  0.11466422538E+03 0.  0.
        254    2    1    2    0    0 -0.20990520790E+02 -0.59295736532E+03 -0.19086471393E+03  0.10900921448E+04  0.89433355417E+03 0.  0.
        -24    2    4    4    0    0  0.38872248638E+03 -0.69891797687E+02 -0.97077080086E+02  0.41450660177E+03  0.80010803251E+02 0.  0.
         24    2    4    4    0    0 -0.40971300717E+03 -0.52306556763E+03 -0.93787633840E+02  0.67558554304E+03  0.78468907320E+02 0.  0.
         11    1    3    3    0    0 -0.61674773873E+01  0.56250934431E+03 -0.21785012174E+04  0.22499605228E+04  0.00000000000E+00 0. -1.
        -11    1    3    3    0    0  0.27157998177E+02  0.30448021003E+02 -0.19898931787E+03  0.20312899221E+03  0.00000000000E+00 0.  1.
          4    1    6    6  502    0 -0.30374966961E+03 -0.32791828461E+03 -0.62935016570E+02  0.45139237863E+03  0.00000000000E+00 0. -1.
          3    1    5    5  503    0  0.29975271675E+03 -0.87252425278E+02 -0.70691550574E+02  0.32009681698E+03  0.00000000000E+00 0. -1.
         -4    1    5    5    0  503  0.88969769623E+02  0.17360627591E+02 -0.26385529513E+02  0.94409784794E+02  0.00000000000E+00 0.  1.
         -3    1    6    6    0  502 -0.10596333755E+03 -0.19514728302E+03 -0.30852617270E+02  0.22419316441E+03  0.00000000000E+00 0.  1.
<mgrwt>
<rscale>  0 0.24408375E+04</rscale>
<asrwt>0</asrwt>
<pdfrwt beam="1">  1        1 0.47011822E+00 0.24408375E+04</pdfrwt>
<pdfrwt beam="2">  1       -1 0.74986648E-01 0.24408375E+04</pdfrwt>
<totfact> 0.86910628E-01</totfact>
</mgrwt>
</event>
<event>
12    1  0.1494110E-007  0.1723838E+04  0.7818608E-02  0.8747884E-01
         -2   -1    0    0    0  501 -0.00000000000E+00  0.00000000000E+00  0.16772359309E+03  0.16772359309E+03  0.00000000000E+00 0.  1.
          2   -1    0    0  501    0  0.00000000000E+00 -0.00000000000E+00 -0.44293360072E+04  0.44293360072E+04  0.00000000000E+00 0. -1.
         23    2    1    2    0    0 -0.59752747728E+03  0.48046756193E+02 -0.11562882138E+04  0.13058348707E+04  0.94099411857E+02 0.  0.
        254    2    1    2    0    0  0.59752747728E+03 -0.48046756193E+02 -0.31053242003E+04  0.32912247296E+04  0.91091945565E+03 0.  0.
        -24    2    4    4    0    0  0.42273446830E+03  0.23919471591E+03 -0.67020948681E+03  0.83161226478E+03  0.80496334739E+02 0.  0.
         24    2    4    4    0    0  0.17479300899E+03 -0.28724147211E+03 -0.24351147135E+04  0.24596124648E+04  0.82762007245E+02 0.  0.
         13    1    3    3    0    0 -0.38511183695E+03  0.30486443509E+02 -0.64411226703E+03  0.75107999756E+03  0.00000000000E+00 0.  1.
        -13    1    3    3    0    0 -0.21241564034E+03  0.17560312684E+02 -0.51217594675E+03  0.55475487313E+03  0.00000000000E+00 0. -1.
          2    1    6    6  502    0  0.80125433591E+02 -0.60749182093E+02 -0.75061393733E+03  0.75731884379E+03  0.00000000000E+00 0. -1.
          3    1    5    5  503    0  0.44340454416E+02  0.30297933233E+02 -0.38057194275E+02  0.65820898597E+02  0.00000000000E+00 0. -1.
         -4    1    5    5    0  503  0.37839401388E+03  0.20889678268E+03 -0.63215229254E+03  0.76579136618E+03  0.00000000000E+00 0.  1.
         -1    1    6    6    0  502  0.94667575397E+02 -0.22649229001E+03 -0.16845007762E+04  0.17022936210E+04  0.00000000000E+00 0.  1.
<mgrwt>
<rscale>  0 0.17238378E+04</rscale>
<asrwt>0</asrwt>
<pdfrwt beam="1">  1        2 0.68143626E+00 0.17238378E+04</pdfrwt>
<pdfrwt beam="2">  1       -2 0.25803632E-01 0.17238378E+04</pdfrwt>
<totfact> 0.18973357E+00</totfact>
</mgrwt>
</event>
<event>
12    1  0.1494110E-007  0.2005410E+04  0.7818608E-02  0.8604096E-01
         -1   -1    0    0    0  501 -0.00000000000E+00  0.00000000000E+00  0.70786652762E+03  0.70786652762E+03  0.00000000000E+00 0.  1.
          1   -1    0    0  501    0  0.00000000000E+00 -0.00000000000E+00 -0.14203481630E+04  0.14203481630E+04  0.00000000000E+00 0. -1.
         23    2    1    2    0    0 -0.22942333175E+03  0.13605044607E+03  0.51408287064E+03  0.58619869592E+03  0.90569996049E+02 0.  0.
        254    2    1    2    0    0  0.22942333175E+03 -0.13605044607E+03 -0.12265645061E+04  0.15420159947E+04  0.89566067876E+03 0.  0.
        -24    2    4    4    0    0  0.34492812629E+03 -0.18947380734E+03 -0.11082956867E+03  0.41610445247E+03  0.77356228531E+02 0.  0.
         24    2    4    4    0    0 -0.11550479455E+03  0.53423361271E+02 -0.11157349374E+04  0.11259115423E+04  0.81344559919E+02 0.  0.
         11    1    3    3    0    0 -0.30088053296E+02 -0.10375238280E+02  0.87363892878E+02  0.92980569471E+02  0.00000000000E+00 0. -1.
        -11    1    3    3    0    0 -0.19933527845E+03  0.14642568435E+03  0.42671897776E+03  0.49321812645E+03  0.00000000000E+00 0.  1.
          2    1    6    6  502    0 -0.86819175672E+02  0.17988119905E+02 -0.94648492522E+03  0.95062866325E+03  0.00000000000E+00 0. -1.
          3    1    5    5  503    0  0.33855755338E+03 -0.19356721838E+03 -0.99503742224E+02  0.40248040909E+03  0.00000000000E+00 0. -1.
         -4    1    5    5    0  503  0.63705729147E+01  0.40934110420E+01 -0.11325826448E+02  0.13624043378E+02  0.00000000000E+00 0.  1.
         -1    1    6    6    0  502 -0.28685618876E+02  0.35435241366E+02 -0.16925001217E+03  0.17528287903E+03  0.00000000000E+00 0.  1.
<mgrwt>
<rscale>  0 0.20054096E+04</rscale>
<asrwt>0</asrwt>
<pdfrwt beam="1">  1        1 0.21851510E+00 0.20054096E+04</pdfrwt>
<pdfrwt beam="2">  1       -1 0.10890254E+00 0.20054096E+04</pdfrwt>
<totfact> 0.53869351E+00</totfact>
</mgrwt>
</event>
<event>
12    1  0.1494110E-007  0.1793122E+04  0.7818608E-02  0.8709966E-01
          1   -1    0    0  501    0  0.00000000000E+00  0.00000000000E+00  0.89499481098E+03  0.89499481098E+03  0.00000000000E+00 0. -1.
         -1   -1    0    0    0  501 -0.00000000000E+00 -0.00000000000E+00 -0.89812987934E+03  0.89812987934E+03  0.00000000000E+00 0.  1.
         23    2    1    2    0    0  0.53365666109E+03  0.21426089158E+03 -0.31755071688E+03  0.66328046051E+03  0.91680695482E+02 0.  0.
        254    2    1    2    0    0 -0.53365666109E+03 -0.21426089158E+03  0.31441564852E+03  0.11298442298E+04  0.92032256410E+03 0.  0.
        -24    2    4    4    0    0 -0.25429495830E+03  0.19505858786E+03 -0.21968597102E+03  0.39681995436E+03  0.80562843815E+02 0.  0.
         24    2    4    4    0    0 -0.27936170279E+03 -0.40931947944E+03  0.53410161953E+03  0.73302427544E+03  0.80465217083E+02 0.  0.
         13    1    3    3    0    0  0.31905999900E+03  0.10715843392E+03 -0.13840107668E+03  0.36391904450E+03  0.00000000000E+00 0.  1.
        -13    1    3    3    0    0  0.21459666209E+03  0.10710245766E+03 -0.17914964019E+03  0.29936141601E+03  0.00000000000E+00 0. -1.
          4    1    6    6  502    0 -0.28007556045E+02 -0.82577324777E+02  0.12356633213E+03  0.15123516853E+03  0.00000000000E+00 0. -1.
          3    1    5    5  503    0 -0.14187067984E+03  0.82187330081E+02 -0.70182249983E+02  0.17834683972E+03  0.00000000000E+00 0. -1.
         -4    1    5    5    0  503 -0.11242427846E+03  0.11287125778E+03 -0.14950372103E+03  0.21847311464E+03  0.00000000000E+00 0.  1.
         -3    1    6    6    0  502 -0.25135414674E+03 -0.32674215467E+03  0.41053528740E+03  0.58178910691E+03  0.00000000000E+00 0.  1.
<mgrwt>
<rscale>  0 0.17931219E+04</rscale>
<asrwt>0</asrwt>
<pdfrwt beam="1">  1        1 0.13769151E+00 0.17931219E+04</pdfrwt>
<pdfrwt beam="2">  1       -1 0.13817383E+00 0.17931219E+04</pdfrwt>
<totfact> 0.75246552E+00</totfact>
</mgrwt>
</event>
<event>
12    1  0.1494110E-007  0.1354146E+04  0.7818608E-02  0.8987696E-01
         -1   -1    0    0    0  501 -0.00000000000E+00  0.00000000000E+00  0.35007125952E+03  0.35007125952E+03  0.00000000000E+00 0.  1.
          1   -1    0    0  501    0  0.00000000000E+00 -0.00000000000E+00 -0.13095271758E+04  0.13095271758E+04  0.00000000000E+00 0. -1.
         23    2    1    2    0    0 -0.14864078698E+03  0.32365019643E+03 -0.31039531935E+03  0.48118572185E+03  0.91383321457E+02 0.  0.
        254    2    1    2    0    0  0.14864078698E+03 -0.32365019643E+03 -0.64906059690E+03  0.11784127134E+04  0.91680604903E+03 0.  0.
        -24    2    4    4    0    0  0.44735250309E+03  0.64763572364E+02 -0.45237225118E+03  0.64446055033E+03  0.79813313198E+02 0.  0.
         24    2    4    4    0    0 -0.29871171611E+03 -0.38841376880E+03 -0.19668834571E+03  0.53395216311E+03  0.79527743683E+02 0.  0.
         11    1    3    3    0    0 -0.64341115693E+02  0.17142012845E+03 -0.10164506067E+03  0.20941909647E+03  0.00000000000E+00 0.  1.
        -11    1    3    3    0    0 -0.84299671283E+02  0.15223006798E+03 -0.20875025868E+03  0.27176662539E+03  0.00000000000E+00 0. -1.
          4    1    6    6  502    0 -0.21908827032E+03 -0.33572423976E+03 -0.16153182911E+03  0.43220708830E+03  0.00000000000E+00 0. -1.
          1    1    5    5  503    0  0.34314589177E+03  0.23267408593E+02 -0.30840304611E+03  0.46195553269E+03  0.00000000000E+00 0. -1.
         -2    1    5    5    0  503  0.10420661132E+03  0.41496163771E+02 -0.14396920508E+03  0.18250501763E+03  0.00000000000E+00 0.  1.
         -3    1    6    6    0  502 -0.79623445787E+02 -0.52689529035E+02 -0.35156516603E+02  0.10174507481E+03  0.00000000000E+00 0.  1.
<mgrwt>
<rscale>  0 0.13541460E+04</rscale>
<asrwt>0</asrwt>
<pdfrwt beam="1">  1        1 0.20146572E+00 0.13541460E+04</pdfrwt>
<pdfrwt beam="2">  1       -1 0.53857116E-01 0.13541460E+04</pdfrwt>
<totfact> 0.30318789E+01</totfact>
</mgrwt>
</event>
<event>
12    1  0.1494110E-007  0.1352762E+04  0.7818608E-02  0.8988740E-01
          2   -1    0    0  501    0  0.00000000000E+00  0.00000000000E+00  0.75718147626E+03  0.75718147626E+03  0.00000000000E+00 0. -1.
         -2   -1    0    0    0  501 -0.00000000000E+00 -0.00000000000E+00 -0.60420307859E+03  0.60420307859E+03  0.00000000000E+00 0.  1.
         23    2    1    2    0    0  0.24385797678E+03  0.21136701038E+03 -0.14480140364E+03  0.36708955167E+03  0.98206754028E+02 0.  0.
        254    2    1    2    0    0 -0.24385797678E+03 -0.21136701038E+03  0.29777980131E+03  0.99429500319E+03  0.89208016309E+03 0.  0.
        -24    2    4    4    0    0  0.24153800153E+03 -0.34680715585E+03  0.20530161567E+03  0.47605107205E+03  0.76551030475E+02 0.  0.
         24    2    4    4    0    0 -0.48539597832E+03  0.13544014548E+03  0.92478185637E+02  0.51824393113E+03  0.77918345495E+02 0.  0.
         11    1    3    3    0    0  0.13948224600E+03  0.10978010984E+03 -0.26544416673E+02  0.17947583548E+03  0.00000000000E+00 0. -1.
        -11    1    3    3    0    0  0.10437573078E+03  0.10158690054E+03 -0.11825698696E+03  0.18761371619E+03  0.00000000000E+00 0.  1.
          4    1    6    6  502    0 -0.31566839032E+03  0.10800318924E+03  0.28702635033E+02  0.33486573846E+03  0.00000000000E+00 0. -1.
          3    1    5    5  503    0  0.24477930022E+03 -0.34848053920E+03  0.20359048789E+03  0.47202190498E+03  0.00000000000E+00 0. -1.
         -4    1    5    5    0  503 -0.32412986908E+01  0.16733833450E+01  0.17111277790E+01  0.40291670726E+01  0.00000000000E+00 0.  1.
         -3    1    6    6    0  502 -0.16972758799E+03  0.27436956234E+02  0.63775550604E+02  0.18337819267E+03  0.00000000000E+00 0.  1.
<mgrwt>
<rscale>  0 0.13527622E+04</rscale>
<asrwt>0</asrwt>
<pdfrwt beam="1">  1        2 0.11648946E+00 0.13527622E+04</pdfrwt>
<pdfrwt beam="2">  1       -2 0.92954319E-01 0.13527622E+04</pdfrwt>
<totfact> 0.35479004E+01</totfact>
</mgrwt>
</event>
<event>
12    1  0.1494110E-007  0.1288745E+04  0.7818608E-02  0.9038538E-01
         -2   -1    0    0    0  501 -0.00000000000E+00  0.00000000000E+00  0.64800393313E+03  0.64800393313E+03  0.00000000000E+00 0. -1.
          2   -1    0    0  501    0  0.00000000000E+00 -0.00000000000E+00 -0.64076169244E+03  0.64076169244E+03  0.00000000000E+00 0.  1.
         23    2    1    2    0    0  0.23825956347E+03 -0.22310139049E+03  0.51574691974E+02  0.34228113476E+03  0.89188431610E+02 0.  0.
        254    2    1    2    0    0 -0.23825956347E+03  0.22310139049E+03 -0.44332451291E+02  0.94648449081E+03  0.88731374107E+03 0.  0.
        -24    2    4    4    0    0 -0.26202204236E+03  0.37623725594E+03 -0.35844676202E+03  0.58703961604E+03  0.76950673569E+02 0.  0.
         24    2    4    4    0    0  0.23762478890E+02 -0.15313586544E+03  0.31411431072E+03  0.35944487477E+03  0.80731462953E+02 0.  0.
         13    1    3    3    0    0  0.49062368345E+02 -0.40533817655E+02 -0.25097570152E+02  0.68410484495E+02  0.00000000000E+00 0.  1.
        -13    1    3    3    0    0  0.18919719512E+03 -0.18256757284E+03  0.76672262126E+02  0.27387065026E+03  0.00000000000E+00 0. -1.
          2    1    6    6  502    0  0.17751533976E+02 -0.49639003975E+02  0.39383354766E+02  0.65804227119E+02  0.00000000000E+00 0. -1.
          3    1    5    5  503    0 -0.18445723608E+03  0.25037963396E+03 -0.19702595212E+03  0.36814896285E+03  0.00000000000E+00 0. -1.
         -4    1    5    5    0  503 -0.77564806284E+02  0.12585762198E+03 -0.16142080990E+03  0.21889065319E+03  0.00000000000E+00 0.  1.
         -1    1    6    6    0  502  0.60109449140E+01 -0.10349686147E+03  0.27473095596E+03  0.29364064765E+03  0.00000000000E+00 0.  1.
<mgrwt>
<rscale>  0 0.12887453E+04</rscale>
<asrwt>0</asrwt>
<pdfrwt beam="1">  1        2 0.98578722E-01 0.12887453E+04</pdfrwt>
<pdfrwt beam="2">  1       -2 0.99692913E-01 0.12887453E+04</pdfrwt>
<totfact> 0.37362554E+01</totfact>
</mgrwt>
</event>
<event>
12    1  0.1494110E-007  0.2799877E+04  0.7818608E-02  0.8303307E-01
         -2   -1    0    0    0  501 -0.00000000000E+00  0.00000000000E+00  0.54750685925E+03  0.54750685925E+03  0.00000000000E+00 0. -1.
          2   -1    0    0  501    0  0.00000000000E+00 -0.00000000000E+00 -0.35795490626E+04  0.35795490626E+04  0.00000000000E+00 0.  1.
         23    2    1    2    0    0  0.10235960206E+04  0.70763797972E+03 -0.15455174437E+04  0.19866332607E+04  0.97914350558E+02 0.  0.
        254    2    1    2    0    0 -0.10235960206E+04 -0.70763797972E+03 -0.14865247596E+04  0.21404226612E+04  0.90727778751E+03 0.  0.
        -24    2    4    4    0    0 -0.99368765843E+03 -0.73232856386E+03 -0.15826132724E+04  0.20086325861E+04  0.78865759920E+02 0.  0.
         24    2    4    4    0    0 -0.29908362131E+02  0.24690584145E+02  0.96088512724E+02  0.13179007506E+03  0.81433939703E+02 0.  0.
         13    1    3    3    0    0  0.66584916169E+02  0.76780037164E+02 -0.11302399985E+03  0.15199720297E+03  0.00000000000E+00 0.  1.
        -13    1    3    3    0    0  0.95701110439E+03  0.63085794255E+03 -0.14324934439E+04  0.18346360577E+04  0.00000000000E+00 0. -1.
          2    1    6    6  502    0 -0.83458661426E+01  0.33731984252E+01  0.10071631737E+03  0.10111779534E+03  0.00000000000E+00 0. -1.
          3    1    5    5  503    0 -0.89107347168E+03 -0.62802481067E+03 -0.13776026074E+04  0.17567629432E+04  0.00000000000E+00 0. -1.
         -4    1    5    5    0  503 -0.10261418674E+03 -0.10430375319E+03 -0.20501066498E+03  0.25186964289E+03  0.00000000000E+00 0.  1.
         -1    1    6    6    0  502 -0.21562495989E+02  0.21317385720E+02 -0.46278046494E+01  0.30672279718E+02  0.00000000000E+00 0.  1.
<mgrwt>
<rscale>  0 0.27998769E+04</rscale>
<asrwt>0</asrwt>
<pdfrwt beam="1">  1        2 0.55069986E+00 0.27998769E+04</pdfrwt>
<pdfrwt beam="2">  1       -2 0.84231824E-01 0.27998769E+04</pdfrwt>
<totfact> 0.76431151E-01</totfact>
</mgrwt>
</event>
<event>
12    1  0.1494110E-007  0.2729081E+04  0.7818608E-02  0.8325630E-01
         -1   -1    0    0    0  501 -0.00000000000E+00  0.00000000000E+00  0.26542939186E+04  0.26542939186E+04  0.00000000000E+00 0.  1.
          1   -1    0    0  501    0  0.00000000000E+00 -0.00000000000E+00 -0.70149395060E+03  0.70149395060E+03  0.00000000000E+00 0. -1.
         23    2    1    2    0    0  0.19318516141E+03 -0.12100983135E+04  0.83718512373E+03  0.14868579622E+04  0.90604820038E+02 0.  0.
        254    2    1    2    0    0 -0.19318516141E+03  0.12100983135E+04  0.11156148443E+04  0.18689299070E+04  0.86408569124E+03 0.  0.
        -24    2    4    4    0    0 -0.46783937122E+02 -0.31808742526E+02 -0.89417712656E+02  0.13089503511E+03  0.77054850641E+02 0.  0.
         24    2    4    4    0    0 -0.14640122429E+03  0.12419070560E+04  0.12050325569E+04  0.17380348719E+04  0.69966410208E+02 0.  0.
         11    1    3    3    0    0  0.39218141448E+02 -0.39004673115E+03  0.22510213712E+03  0.45204589063E+03  0.00000000000E+00 0.  1.
        -11    1    3    3    0    0  0.15396701996E+03 -0.82005158232E+03  0.61208298661E+03  0.10348120715E+04  0.00000000000E+00 0. -1.
          4    1    6    6  502    0 -0.11001513263E+03  0.11032059391E+04  0.10805536866E+04  0.15481482303E+04  0.00000000000E+00 0. -1.
          1    1    5    5  503    0 -0.61564276573E+02 -0.53814194894E+01 -0.42309698912E+02  0.74894795865E+02  0.00000000000E+00 0. -1.
         -2    1    5    5    0  503  0.14780339450E+02 -0.26427323036E+02 -0.47108013743E+02  0.56000239249E+02  0.00000000000E+00 0.  1.
         -3    1    6    6    0  502 -0.36386091664E+02  0.13870111692E+03  0.12447887036E+03  0.18988664163E+03  0.00000000000E+00 0.  1.
<mgrwt>
<rscale>  0 0.27290813E+04</rscale>
<asrwt>0</asrwt>
<pdfrwt beam="1">  1        1 0.10792215E+00 0.27290813E+04</pdfrwt>
<pdfrwt beam="2">  1       -1 0.40835291E+00 0.27290813E+04</pdfrwt>
<totfact> 0.14823925E-01</totfact>
</mgrwt>
</event>
<event>
12    1  0.1494110E-007  0.1998050E+04  0.7818608E-02  0.8607533E-01
          2   -1    0    0  501    0  0.00000000000E+00  0.00000000000E+00  0.35901947482E+04  0.35901947482E+04  0.00000000000E+00 0. -1.
         -2   -1    0    0    0  501 -0.00000000000E+00 -0.00000000000E+00 -0.27799340869E+03  0.27799340869E+03  0.00000000000E+00 0.  1.
         23    2    1    2    0    0 -0.39503113714E+02 -0.71669455429E+02  0.28455487593E+04  0.28484575658E+04  0.99326512073E+02 0.  0.
        254    2    1    2    0    0  0.39503113714E+02  0.71669455429E+02  0.46665258024E+03  0.10197305911E+04  0.90298883765E+03 0.  0.
        -24    2    4    4    0    0 -0.65468961430E+02  0.16751659572E+03 -0.23091296043E+03  0.30373072293E+03  0.81139152097E+02 0.  0.
         24    2    4    4    0    0  0.10497207514E+03 -0.95847140293E+02  0.69756554067E+03  0.71599986816E+03  0.76500436726E+02 0.  0.
         13    1    3    3    0    0  0.22054131002E+02 -0.10878797988E+02  0.20168339906E+03  0.20317708138E+03  0.00000000000E+00 0.  1.
        -13    1    3    3    0    0 -0.61557244716E+02 -0.60790657441E+02  0.26438653602E+04  0.26452804845E+04  0.00000000000E+00 0. -1.
          4    1    6    6  502    0  0.12430405268E+02 -0.28169395455E+02  0.31826845347E+03  0.31975434054E+03  0.00000000000E+00 0. -1.
          1    1    5    5  503    0 -0.17631508049E+02  0.22504112593E+02 -0.21277609018E+01  0.28667621564E+02  0.00000000000E+00 0. -1.
         -2    1    5    5    0  503 -0.47837453381E+02  0.14501248313E+03 -0.22878519953E+03  0.27506310136E+03  0.00000000000E+00 0.  1.
         -3    1    6    6    0  502  0.92541669876E+02 -0.67677744838E+02  0.37929708720E+03  0.39624552763E+03  0.00000000000E+00 0.  1.
<mgrwt>
<rscale>  0 0.19980495E+04</rscale>
<asrwt>0</asrwt>
<pdfrwt beam="1">  1        2 0.55233762E+00 0.19980495E+04</pdfrwt>
<pdfrwt beam="2">  1       -2 0.42768219E-01 0.19980495E+04</pdfrwt>
<totfact> 0.34011435E+00</totfact>
</mgrwt>
</event>
<event>
12    1  0.1494110E-007  0.1564626E+04  0.7818608E-02  0.8842579E-01
          2   -1    0    0  501    0  0.00000000000E+00  0.00000000000E+00  0.62449302940E+03  0.62449302940E+03  0.00000000000E+00 0.  1.
         -2   -1    0    0    0  501 -0.00000000000E+00 -0.00000000000E+00 -0.98001652106E+03  0.98001652106E+03  0.00000000000E+00 0. -1.
         23    2    1    2    0    0 -0.27154413855E+03 -0.29976678811E+03 -0.44406221587E+03  0.60709393973E+03  0.88178532876E+02 0.  0.
        254    2    1    2    0    0  0.27154413855E+03  0.29976678811E+03  0.88538724210E+02  0.99741561073E+03  0.90741525687E+03 0.  0.
        -24    2    4    4    0    0  0.51013381054E+03  0.56653913182E+01 -0.15579960253E+03  0.53984279417E+03  0.82994728502E+02 0.  0.
         24    2    4    4    0    0 -0.23858967199E+03  0.29410139680E+03  0.24433832674E+03  0.45757281655E+03  0.79063274380E+02 0.  0.
         13    1    3    3    0    0 -0.25313340918E+03 -0.30347212483E+03 -0.42328923198E+03  0.57909034468E+03  0.00000000000E+00 0. -1.
        -13    1    3    3    0    0 -0.18410729374E+02  0.37053367161E+01 -0.20772983891E+02  0.28003595055E+02  0.00000000000E+00 0.  1.
          2    1    6    6  502    0 -0.91863406194E+02  0.64697055715E+02  0.49756152317E+02  0.12288315226E+03  0.00000000000E+00 0. -1.
          3    1    5    5  503    0  0.18100282585E+03 -0.44784271452E+01 -0.14878699002E+02  0.18166853046E+03  0.00000000000E+00 0. -1.
         -4    1    5    5    0  503  0.32913098468E+03  0.10143818463E+02 -0.14092090353E+03  0.35817426371E+03  0.00000000000E+00 0.  1.
         -1    1    6    6    0  502 -0.14672626579E+03  0.22940434108E+03  0.19458217443E+03  0.33468966429E+03  0.00000000000E+00 0.  1.
<mgrwt>
<rscale>  0 0.15646258E+04</rscale>
<asrwt>0</asrwt>
<pdfrwt beam="1">  1        2 0.96075851E-01 0.15646258E+04</pdfrwt>
<pdfrwt beam="2">  1       -2 0.15077177E+00 0.15646258E+04</pdfrwt>
<totfact> 0.13414535E+01</totfact>
</mgrwt>
</event>
<event>
12    1  0.1494110E-007  0.1564969E+04  0.7818608E-02  0.8842363E-01
         -2   -1    0    0    0  501 -0.00000000000E+00  0.00000000000E+00  0.17469134749E+03  0.17469134749E+03  0.00000000000E+00 0.  1.
          2   -1    0    0  501    0  0.00000000000E+00 -0.00000000000E+00 -0.35049342555E+04  0.35049342555E+04  0.00000000000E+00 0. -1.
         23    2    1    2    0    0  0.96093972487E+02 -0.24607986246E+03 -0.21647033135E+04  0.21830413777E+04  0.99698902350E+02 0.  0.
        254    2    1    2    0    0 -0.96093972487E+02  0.24607986246E+03 -0.11655395945E+04  0.14965842253E+04  0.90082875547E+03 0.  0.
        -24    2    4    4    0    0 -0.24936379535E+03  0.36062164588E+03 -0.12058370168E+04  0.12855386185E+04  0.79601223451E+02 0.  0.
         24    2    4    4    0    0  0.15326982286E+03 -0.11454178342E+03  0.40297422221E+02  0.21104560678E+03  0.79403445492E+02 0.  0.
         13    1    3    3    0    0  0.30458548244E+01 -0.65720282652E+02 -0.87478286047E+03  0.87725337603E+03  0.00000000000E+00 0.  1.
        -13    1    3    3    0    0  0.93048117662E+02 -0.18035957981E+03 -0.12899204531E+04  0.13057880017E+04  0.00000000000E+00 0. -1.
          4    1    6    6  502    0  0.12743315321E+03 -0.95394385140E+02  0.63509786405E+02  0.17138491831E+03  0.00000000000E+00 0. -1.
          3    1    5    5  503    0 -0.17817980389E+03  0.28399376789E+03 -0.99910394519E+03  0.10538544473E+04  0.00000000000E+00 0. -1.
         -4    1    5    5    0  503 -0.71183991463E+02  0.76627877986E+02 -0.20673307156E+03  0.23168417124E+03  0.00000000000E+00 0.  1.
         -3    1    6    6    0  502  0.25836669653E+02 -0.19147398275E+02 -0.23212364184E+02  0.39660688477E+02  0.00000000000E+00 0.  1.
<mgrwt>
<rscale>  0 0.15649686E+04</rscale>
<asrwt>0</asrwt>
<pdfrwt beam="1">  1        2 0.53922063E+00 0.15649686E+04</pdfrwt>
<pdfrwt beam="2">  1       -2 0.26875593E-01 0.15649686E+04</pdfrwt>
<totfact> 0.98732080E+00</totfact>
</mgrwt>
</event>
<event>
12    1  0.1494110E-007  0.1731653E+04  0.7818608E-02  0.8743515E-01
         -2   -1    0    0    0  501 -0.00000000000E+00  0.00000000000E+00  0.19780270277E+03  0.19780270277E+03  0.00000000000E+00 0.  1.
          2   -1    0    0  501    0  0.00000000000E+00 -0.00000000000E+00 -0.37899133320E+04  0.37899133320E+04  0.00000000000E+00 0. -1.
         23    2    1    2    0    0 -0.29694945077E+03  0.22667881330E+03 -0.16196291419E+03  0.41758188801E+03  0.92630377883E+02 0.  0.
        254    2    1    2    0    0  0.29694945077E+03 -0.22667881330E+03 -0.34301477150E+04  0.35701341468E+04  0.91672363237E+03 0.  0.
        -24    2    4    4    0    0  0.24761639388E+03 -0.27873124138E+03 -0.45775695215E+03  0.59586276643E+03  0.80659938825E+02 0.  0.
         24    2    4    4    0    0  0.49333056891E+02  0.52052428083E+02 -0.29723907629E+04  0.29742713803E+04  0.77718664262E+02 0.  0.
         13    1    3    3    0    0 -0.16090079763E+03  0.17736301107E+03 -0.11317060913E+03  0.26486655347E+03  0.00000000000E+00 0.  1.
        -13    1    3    3    0    0 -0.13604865314E+03  0.49315802229E+02 -0.48792305055E+02  0.15271533454E+03  0.00000000000E+00 0. -1.
          4    1    6    6  502    0  0.24291942647E+02  0.64677589242E+02 -0.25579655266E+04  0.25588983810E+04  0.00000000000E+00 0. -1.
          1    1    5    5  503    0  0.19063053651E+03 -0.23359386409E+03 -0.40982990154E+03  0.50878938962E+03  0.00000000000E+00 0. -1.
         -2    1    5    5    0  503  0.56985857368E+02 -0.45137377292E+02 -0.47927050613E+02  0.87073376811E+02  0.00000000000E+00 0.  1.
         -3    1    6    6    0  502  0.25041114244E+02 -0.12625161160E+02 -0.41442523626E+03  0.41537299930E+03  0.00000000000E+00 0.  1.
<mgrwt>
<rscale>  0 0.17316525E+04</rscale>
<asrwt>0</asrwt>
<pdfrwt beam="1">  1        2 0.58306358E+00 0.17316525E+04</pdfrwt>
<pdfrwt beam="2">  1       -2 0.30431186E-01 0.17316525E+04</pdfrwt>
<totfact> 0.48001620E+00</totfact>
</mgrwt>
</event>
<event>
12    1  0.1494110E-007  0.1660621E+04  0.7818608E-02  0.8784148E-01
          2   -1    0    0  501    0  0.00000000000E+00  0.00000000000E+00  0.12330974706E+04  0.12330974706E+04  0.00000000000E+00 0. -1.
         -2   -1    0    0    0  501 -0.00000000000E+00 -0.00000000000E+00 -0.55909256203E+03  0.55909256203E+03  0.00000000000E+00 0.  1.
         23    2    1    2    0    0  0.21238122905E+03 -0.52366216299E+03  0.99109592804E+02  0.58100878010E+03  0.91764065746E+02 0.  0.
        254    2    1    2    0    0 -0.21238122905E+03  0.52366216299E+03  0.57489531574E+03  0.12111812525E+04  0.90395107997E+03 0.  0.
        -24    2    4    4    0    0 -0.11343098101E+03 -0.24760542585E+03  0.18190499072E+03  0.33650542712E+03  0.77275108982E+02 0.  0.
         24    2    4    4    0    0 -0.98950248045E+02  0.77126758884E+03  0.39299032502E+03  0.87467582540E+03  0.77275861642E+02 0.  0.
         13    1    3    3    0    0  0.83589771598E+02 -0.11362644876E+03  0.43640889357E+02  0.14765753282E+03  0.00000000000E+00 0. -1.
        -13    1    3    3    0    0  0.12879145745E+03 -0.41003571423E+03  0.55468703447E+02  0.43335124728E+03  0.00000000000E+00 0.  1.
          4    1    6    6  502    0 -0.35543649123E+02  0.15745331532E+03  0.11304757199E+03  0.19706509338E+03  0.00000000000E+00 0. -1.
          1    1    5    5  503    0 -0.32403403721E+02 -0.11150344241E+03  0.37111695310E+02  0.12190273242E+03  0.00000000000E+00 0. -1.
         -2    1    5    5    0  503 -0.81027577285E+02 -0.13610198344E+03  0.14479329541E+03  0.21460269470E+03  0.00000000000E+00 0.  1.
         -3    1    6    6    0  502 -0.63406598923E+02  0.61381427352E+03  0.27994275303E+03  0.67761073201E+03  0.00000000000E+00 0.  1.
<mgrwt>
<rscale>  0 0.16606211E+04</rscale>
<asrwt>0</asrwt>
<pdfrwt beam="1">  1        2 0.18970730E+00 0.16606211E+04</pdfrwt>
<pdfrwt beam="2">  1       -2 0.86014241E-01 0.16606211E+04</pdfrwt>
<totfact> 0.20262549E+01</totfact>
</mgrwt>
</event>
<event>
12    1  0.1494110E-007  0.1270148E+04  0.7818608E-02  0.9053579E-01
         -1   -1    0    0    0  501 -0.00000000000E+00  0.00000000000E+00  0.77918728845E+03  0.77918728845E+03  0.00000000000E+00 0.  1.
          1   -1    0    0  501    0  0.00000000000E+00 -0.00000000000E+00 -0.51761509312E+03  0.51761509312E+03  0.00000000000E+00 0. -1.
         23    2    1    2    0    0  0.21343953516E+03 -0.10789483598E+02 -0.16071564761E+03  0.28207415630E+03  0.89796782452E+02 0.  0.
        254    2    1    2    0    0 -0.21343953516E+03  0.10789483598E+02  0.42228784293E+03  0.10147282253E+04  0.89759317107E+03 0.  0.
        -24    2    4    4    0    0 -0.59957980971E+02 -0.43370306072E+03  0.19061151781E+03  0.48453818543E+03  0.82165674407E+02 0.  0.
         24    2    4    4    0    0 -0.15348155419E+03  0.44449254432E+03  0.23167632513E+03  0.53019003985E+03  0.79355839703E+02 0.  0.
         11    1    3    3    0    0  0.42657215576E+02 -0.71419817119E+01 -0.84697924157E+02  0.95101967908E+02  0.00000000000E+00 0.  1.
        -11    1    3    3    0    0  0.17078231958E+03 -0.36475018862E+01 -0.76017723455E+02  0.18697218839E+03  0.00000000000E+00 0. -1.
          4    1    6    6  502    0 -0.21956900058E+02  0.16288712978E+03  0.10184849962E+03  0.19335831863E+03  0.00000000000E+00 0. -1.
          1    1    5    5  503    0 -0.67656761362E+02 -0.24566873027E+03  0.13464281341E+03  0.28820001665E+03  0.00000000000E+00 0. -1.
         -2    1    5    5    0  503  0.76987803914E+01 -0.18803433045E+03  0.55968704399E+02  0.19633816878E+03  0.00000000000E+00 0.  1.
         -3    1    6    6    0  502 -0.13152465413E+03  0.28160541454E+03  0.12982782551E+03  0.33683172122E+03  0.00000000000E+00 0.  1.
<mgrwt>
<rscale>  0 0.12701482E+04</rscale>
<asrwt>0</asrwt>
<pdfrwt beam="1">  1        1 0.79633091E-01 0.12701482E+04</pdfrwt>
<pdfrwt beam="2">  1       -1 0.11987497E+00 0.12701482E+04</pdfrwt>
<totfact> 0.25826805E+01</totfact>
</mgrwt>
</event>
<event>
12    1  0.1494110E-007  0.1651434E+04  0.7818608E-02  0.8789559E-01
         -1   -1    0    0    0  501 -0.00000000000E+00  0.00000000000E+00  0.56613384470E+03  0.56613384470E+03  0.00000000000E+00 0.  1.
          1   -1    0    0  501    0  0.00000000000E+00 -0.00000000000E+00 -0.12043239846E+04  0.12043239846E+04  0.00000000000E+00 0. -1.
         23    2    1    2    0    0 -0.16165283674E+03  0.25731367054E+03 -0.74290973464E+03  0.80845779738E+03  0.96680771830E+02 0.  0.
        254    2    1    2    0    0  0.16165283674E+03 -0.25731367054E+03  0.10471959471E+03  0.96200003195E+03  0.90671710213E+03 0.  0.
        -24    2    4    4    0    0 -0.21429516117E+03  0.15653968824E+02  0.35859732846E+03  0.42561297631E+03  0.79918075476E+02 0.  0.
         24    2    4    4    0    0  0.37594799791E+03 -0.27296763937E+03 -0.25387773375E+03  0.53638705564E+03  0.86075202571E+02 0.  0.
         13    1    3    3    0    0 -0.81349242858E+02  0.10459388414E+03 -0.44368667596E+03  0.46305015531E+03  0.00000000000E+00 0.  1.
        -13    1    3    3    0    0 -0.80303593883E+02  0.15271978640E+03 -0.29922305869E+03  0.34540764207E+03  0.00000000000E+00 0. -1.
          2    1    6    6  502    0  0.34066702883E+03 -0.26315265553E+03 -0.20917548340E+03  0.47859975710E+03  0.00000000000E+00 0. -1.
          3    1    5    5  503    0 -0.21706384878E+03  0.23238566453E+02  0.35504985513E+03  0.41679388796E+03  0.00000000000E+00 0. -1.
         -4    1    5    5    0  503  0.27686876095E+01 -0.75845976296E+01  0.35474733306E+01  0.88190883493E+01  0.00000000000E+00 0.  1.
         -1    1    6    6    0  502  0.35280969080E+02 -0.98149838401E+01 -0.44702250343E+02  0.57787298542E+02  0.00000000000E+00 0.  1.
<mgrwt>
<rscale>  0 0.16514340E+04</rscale>
<asrwt>0</asrwt>
<pdfrwt beam="1">  1        1 0.18528061E+00 0.16514340E+04</pdfrwt>
<pdfrwt beam="2">  1       -1 0.87097516E-01 0.16514340E+04</pdfrwt>
<totfact> 0.13159909E+01</totfact>
</mgrwt>
</event>
<event>
12    1  0.1494110E-007  0.1537365E+04  0.7818608E-02  0.8859979E-01
          2   -1    0    0  501    0  0.00000000000E+00  0.00000000000E+00  0.35947791176E+04  0.35947791176E+04  0.00000000000E+00 0. -1.
         -2   -1    0    0    0  501 -0.00000000000E+00 -0.00000000000E+00 -0.16436960806E+03  0.16436960806E+03  0.00000000000E+00 0.  1.
         23    2    1    2    0    0 -0.48288446063E+03  0.11304292640E+03  0.12468630747E+04  0.13449929209E+04  0.91555036931E+02 0.  0.
        254    2    1    2    0    0  0.48288446063E+03 -0.11304292640E+03  0.21835464348E+04  0.24141558047E+04  0.90239520769E+03 0.  0.
        -24    2    4    4    0    0 -0.78525228454E+02 -0.38394997629E+03  0.89629669773E+03  0.98153587773E+03  0.80505360803E+02 0.  0.
         24    2    4    4    0    0  0.56140968908E+03  0.27090704989E+03  0.12872497371E+04  0.14326199270E+04  0.82562103001E+02 0.  0.
         11    1    3    3    0    0 -0.14496199005E+02 -0.81098375650E+01  0.18910238086E+02  0.25169552149E+02  0.00000000000E+00 0.  1.
        -11    1    3    3    0    0 -0.46838826162E+03  0.12115276396E+03  0.12279528366E+04  0.13198233687E+04  0.00000000000E+00 0. -1.
          2    1    6    6  502    0  0.40988113130E+03  0.18375368755E+03  0.10018823565E+04  0.10979691324E+04  0.00000000000E+00 0. -1.
          1    1    5    5  503    0 -0.69991577465E+02 -0.33666701387E+03  0.70631347982E+03  0.78557127680E+03  0.00000000000E+00 0. -1.
         -2    1    5    5    0  503 -0.85336509889E+01 -0.47282962415E+02  0.18998321791E+03  0.19596460094E+03  0.00000000000E+00 0.  1.
         -1    1    6    6    0  502  0.15152855778E+03  0.87153362341E+02  0.28536738060E+03  0.33465079456E+03  0.00000000000E+00 0.  1.
<mgrwt>
<rscale>  0 0.15373645E+04</rscale>
<asrwt>0</asrwt>
<pdfrwt beam="1">  1        2 0.55304288E+00 0.15373645E+04</pdfrwt>
<pdfrwt beam="2">  1       -2 0.25287635E-01 0.15373645E+04</pdfrwt>
<totfact> 0.95678297E+00</totfact>
</mgrwt>
</event>
<event>
12    1  0.1494110E-007  0.1498852E+04  0.7818608E-02  0.8885217E-01
         -2   -1    0    0    0  501 -0.00000000000E+00  0.00000000000E+00  0.24537199551E+03  0.24537199551E+03  0.00000000000E+00 0.  1.
          2   -1    0    0  501    0  0.00000000000E+00 -0.00000000000E+00 -0.22889287616E+04  0.22889287616E+04  0.00000000000E+00 0. -1.
         23    2    1    2    0    0 -0.59390913539E+02 -0.13199976797E+03 -0.14181433731E+04  0.14284828455E+04  0.92094483857E+02 0.  0.
        254    2    1    2    0    0  0.59390913539E+02  0.13199976797E+03 -0.62541339302E+03  0.11058179116E+04  0.90041108506E+03 0.  0.
        -24    2    4    4    0    0  0.43154803545E+03 -0.92563534251E+02 -0.43231898447E+03  0.62289313285E+03  0.79337480744E+02 0.  0.
         24    2    4    4    0    0 -0.37215712191E+03  0.22456330222E+03 -0.19309440855E+03  0.48292477875E+03  0.83673718795E+02 0.  0.
         13    1    3    3    0    0  0.23985067745E+02 -0.19171483138E+02 -0.21317732415E+03  0.21537734507E+03  0.00000000000E+00 0.  1.
        -13    1    3    3    0    0 -0.83375981285E+02 -0.11282828483E+03 -0.12049660490E+04  0.12131055005E+04  0.00000000000E+00 0. -1.
          2    1    6    6  502    0 -0.22282807833E+03  0.15264155031E+03 -0.77989218746E+02  0.28113006530E+03  0.00000000000E+00 0. -1.
          1    1    5    5  503    0  0.15284394465E+03 -0.71927276017E+02 -0.16729278670E+03  0.23774288829E+03  0.00000000000E+00 0. -1.
         -2    1    5    5    0  503  0.27870409081E+03 -0.20636258235E+02 -0.26502619777E+03  0.38515024456E+03  0.00000000000E+00 0.  1.
         -1    1    6    6    0  502 -0.14932904358E+03  0.71921751912E+02 -0.11510518981E+03  0.20179471345E+03  0.00000000000E+00 0.  1.
<mgrwt>
<rscale>  0 0.14988516E+04</rscale>
<asrwt>0</asrwt>
<pdfrwt beam="1">  1        2 0.35214287E+00 0.14988516E+04</pdfrwt>
<pdfrwt beam="2">  1       -2 0.37749540E-01 0.14988516E+04</pdfrwt>
<totfact> 0.29473941E+01</totfact>
</mgrwt>
</event>
<event>
12    1  0.1494110E-007  0.2287312E+04  0.7818608E-02  0.8482941E-01
          2   -1    0    0  501    0  0.00000000000E+00  0.00000000000E+00  0.32941693070E+04  0.32941693070E+04  0.00000000000E+00 0. -1.
         -2   -1    0    0    0  501 -0.00000000000E+00 -0.00000000000E+00 -0.39704976180E+03  0.39704976180E+03  0.00000000000E+00 0.  1.
         23    2    1    2    0    0 -0.29793625246E+03 -0.15586656982E+03 -0.23006720543E+03  0.41777572314E+03  0.92440454956E+02 0.  0.
        254    2    1    2    0    0  0.29793625246E+03  0.15586656982E+03  0.31271867507E+04  0.32734433457E+04  0.90723423974E+03 0.  0.
        -24    2    4    4    0    0  0.23429668136E+03 -0.36206500359E+03  0.14037031007E+04  0.14708549691E+04  0.83940118423E+02 0.  0.
         24    2    4    4    0    0  0.63639571101E+02  0.51793157342E+03  0.17234836500E+04  0.18025883766E+04  0.81399348678E+02 0.  0.
         13    1    3    3    0    0 -0.28451043292E+03 -0.11972830583E+03 -0.19155167105E+03  0.36328101566E+03  0.00000000000E+00 0.  1.
        -13    1    3    3    0    0 -0.13425819545E+02 -0.36138263998E+02 -0.38515534381E+02  0.54494707485E+02  0.00000000000E+00 0. -1.
          2    1    6    6  502    0  0.65150759470E+02  0.50683029962E+03  0.17116178698E+04  0.17862691025E+04  0.00000000000E+00 0. -1.
          1    1    5    5  503    0  0.10504729341E+03 -0.23709218642E+03  0.80469024479E+03  0.84544309611E+03  0.00000000000E+00 0. -1.
         -2    1    5    5    0  503  0.12924938796E+03 -0.12497281718E+03  0.59901285588E+03  0.62541187295E+03  0.00000000000E+00 0.  1.
         -1    1    6    6    0  502 -0.15111883690E+01  0.11101273793E+02  0.11865780159E+02  0.16319274154E+02  0.00000000000E+00 0.  1.
<mgrwt>
<rscale>  0 0.22873121E+04</rscale>
<asrwt>0</asrwt>
<pdfrwt beam="1">  1        2 0.50679526E+00 0.22873121E+04</pdfrwt>
<pdfrwt beam="2">  1       -2 0.61084581E-01 0.22873121E+04</pdfrwt>
<totfact> 0.25479028E+00</totfact>
</mgrwt>
</event>
<event>
12    1  0.1494110E-007  0.3568199E+04  0.7818608E-02  0.8097815E-01
          1   -1    0    0  501    0  0.00000000000E+00  0.00000000000E+00  0.24273635698E+04  0.24273635698E+04  0.00000000000E+00 0. -1.
         -1   -1    0    0    0  501 -0.00000000000E+00 -0.00000000000E+00 -0.13113035373E+04  0.13113035373E+04  0.00000000000E+00 0.  1.
         23    2    1    2    0    0 -0.10486686600E+04 -0.56118879204E+03 -0.70588686413E+03  0.13861912750E+04  0.92796374764E+02 0.  0.
        254    2    1    2    0    0  0.10486686600E+04  0.56118879204E+03  0.18219468966E+04  0.23524758321E+04  0.89443458556E+03 0.  0.
        -24    2    4    4    0    0  0.11426283657E+04  0.35616149886E+03  0.17086078026E+04  0.20876624851E+04  0.80891489683E+02 0.  0.
         24    2    4    4    0    0 -0.93959705721E+02  0.20502729318E+03  0.11333909393E+03  0.26481334697E+03  0.80098322531E+02 0.  0.
         13    1    3    3    0    0 -0.66971550524E+03 -0.30730371853E+03 -0.43823632549E+03  0.85732462367E+03  0.00000000000E+00 0.  1.
        -13    1    3    3    0    0 -0.37895315476E+03 -0.25388507351E+03 -0.26765053864E+03  0.52886665133E+03  0.00000000000E+00 0. -1.
          4    1    6    6  502    0 -0.20240927008E+02  0.12870218663E+03  0.82892800986E+02  0.15441879557E+03  0.00000000000E+00 0. -1.
          3    1    5    5  503    0  0.21766776787E+03  0.52605224922E+02  0.27269118088E+03  0.35285556109E+03  0.00000000000E+00 0. -1.
         -4    1    5    5    0  503  0.92496059784E+03  0.30355627394E+03  0.14359166218E+04  0.17348069240E+04  0.00000000000E+00 0.  1.
         -3    1    6    6    0  502 -0.73718778714E+02  0.76325106545E+02  0.30446292945E+02  0.11039455140E+03  0.00000000000E+00 0.  1.
<mgrwt>
<rscale>  0 0.35681987E+04</rscale>
<asrwt>0</asrwt>
<pdfrwt beam="1">  1        1 0.37344055E+00 0.35681987E+04</pdfrwt>
<pdfrwt beam="2">  1       -1 0.20173901E+00 0.35681987E+04</pdfrwt>
<totfact> 0.18064089E-01</totfact>
</mgrwt>
</event>
<event>
12    1  0.1494110E-007  0.1524736E+04  0.7818608E-02  0.8868169E-01
          1   -1    0    0  501    0  0.00000000000E+00  0.00000000000E+00  0.71133059157E+03  0.71133059157E+03  0.00000000000E+00 0. -1.
         -1   -1    0    0    0  501 -0.00000000000E+00 -0.00000000000E+00 -0.81706690793E+03  0.81706690793E+03  0.00000000000E+00 0.  1.
         23    2    1    2    0    0  0.26553190536E+01 -0.10896654222E+02  0.46077261617E+03  0.46949716454E+03  0.89389014439E+02 0.  0.
        254    2    1    2    0    0 -0.26553190536E+01  0.10896654222E+02 -0.56650893253E+03  0.10589003350E+04  0.89454556114E+03 0.  0.
        -24    2    4    4    0    0 -0.41252690870E+03 -0.19319016176E+02 -0.10107434869E+03  0.43250945520E+03  0.79351938122E+02 0.  0.
         24    2    4    4    0    0  0.40987158965E+03  0.30215670398E+02 -0.46543458385E+03  0.62639087977E+03  0.82634591306E+02 0.  0.
         13    1    3    3    0    0 -0.33940847190E+02 -0.11852170478E+01  0.36400461905E+03  0.36558548732E+03  0.00000000000E+00 0. -1.
        -13    1    3    3    0    0  0.36596166243E+02 -0.97114371746E+01  0.96767997122E+02  0.10391167722E+03  0.00000000000E+00 0.  1.
          2    1    6    6  502    0  0.11783899858E+03  0.41471156494E+02 -0.11201189495E+03  0.16778721947E+03  0.00000000000E+00 0. -1.
          3    1    5    5  503    0 -0.71894876974E+02 -0.23276902901E+02 -0.42979187514E+02  0.86936172581E+02  0.00000000000E+00 0. -1.
         -4    1    5    5    0  503 -0.34063203173E+03  0.39578867253E+01 -0.58095161174E+02  0.34557328261E+03  0.00000000000E+00 0.  1.
         -1    1    6    6    0  502  0.29203259106E+03 -0.11255486096E+02 -0.35342268890E+03  0.45860366029E+03  0.00000000000E+00 0.  1.
<mgrwt>
<rscale>  0 0.15247356E+04</rscale>
<asrwt>0</asrwt>
<pdfrwt beam="1">  1        1 0.10943548E+00 0.15247356E+04</pdfrwt>
<pdfrwt beam="2">  1       -1 0.12570260E+00 0.15247356E+04</pdfrwt>
<totfact> 0.14166955E+01</totfact>
</mgrwt>
</event>
<event>
12    1  0.1494110E-007  0.2471373E+04  0.7818608E-02  0.8413256E-01
         -2   -1    0    0    0  501 -0.00000000000E+00  0.00000000000E+00  0.13036925095E+04  0.13036925095E+04  0.00000000000E+00 0.  1.
          2   -1    0    0  501    0  0.00000000000E+00 -0.00000000000E+00 -0.11712278950E+04  0.11712278950E+04  0.00000000000E+00 0. -1.
         23    2    1    2    0    0 -0.24617809046E+03  0.49735714474E+03 -0.86248071776E+03  0.10298670537E+04  0.93730348319E+02 0.  0.
        254    2    1    2    0    0  0.24617809046E+03 -0.49735714474E+03  0.99494533232E+03  0.14450533508E+04  0.88898548399E+03 0.  0.
        -24    2    4    4    0    0  0.24872078095E+03 -0.30229301547E+03 -0.27379084502E+02  0.40116892095E+03  0.83329435357E+02 0.  0.
         24    2    4    4    0    0 -0.25426904807E+01 -0.19506412928E+03  0.10223244168E+04  0.10438844299E+04  0.80566803809E+02 0.  0.
         13    1    3    3    0    0 -0.22770784375E+03  0.46547748432E+03 -0.83916791166E+03  0.98626717195E+03  0.00000000000E+00 0. -1.
        -13    1    3    3    0    0 -0.18470246713E+02  0.31879660426E+02 -0.23312806097E+02  0.43599881773E+02  0.00000000000E+00 0.  1.
          2    1    6    6  502    0 -0.33987468082E+02 -0.73212731038E+02  0.29945271669E+03  0.31014058345E+03  0.00000000000E+00 0. -1.
          1    1    5    5  503    0  0.13985939130E+03 -0.10821707602E+03  0.10264024475E+01  0.17684071471E+03  0.00000000000E+00 0. -1.
         -2    1    5    5    0  503  0.10886138965E+03 -0.19407593945E+03 -0.28405486949E+02  0.22432820625E+03  0.00000000000E+00 0.  1.
         -1    1    6    6    0  502  0.31444777601E+02 -0.12185139824E+03  0.72287170013E+03  0.73374384641E+03  0.00000000000E+00 0.  1.
<mgrwt>
<rscale>  0 0.24713729E+04</rscale>
<asrwt>0</asrwt>
<pdfrwt beam="1">  1        2 0.18018891E+00 0.24713729E+04</pdfrwt>
<pdfrwt beam="2">  1       -2 0.20056808E+00 0.24713729E+04</pdfrwt>
<totfact> 0.23233659E+00</totfact>
</mgrwt>
</event>
<event>
12    1  0.1494110E-007  0.1318994E+04  0.7818608E-02  0.9014637E-01
          1   -1    0    0  501    0  0.00000000000E+00  0.00000000000E+00  0.11667372574E+04  0.11667372574E+04  0.00000000000E+00 0. -1.
         -1   -1    0    0    0  501 -0.00000000000E+00 -0.00000000000E+00 -0.37278004120E+03  0.37278004120E+03  0.00000000000E+00 0.  1.
         23    2    1    2    0    0 -0.72226747232E+02  0.42284939474E+03  0.33949706019E+03  0.55459775317E+03  0.91115861971E+02 0.  0.
        254    2    1    2    0    0  0.72226747232E+02 -0.42284939474E+03  0.45446015600E+03  0.98491954541E+03  0.76125827673E+03 0.  0.
        -24    2    4    4    0    0 -0.26134139367E+03  0.60664872792E+02  0.16665015038E+03  0.32586518881E+03  0.80226540621E+02 0.  0.
         24    2    4    4    0    0  0.33356814090E+03 -0.48351426753E+03  0.28781000562E+03  0.65905435659E+03  0.80400833845E+02 0.  0.
         11    1    3    3    0    0 -0.12018158253E+02  0.26828187305E+03  0.17228290161E+03  0.31906268620E+03  0.00000000000E+00 0.  1.
        -11    1    3    3    0    0 -0.60208588978E+02  0.15456752169E+03  0.16721415858E+03  0.23553506698E+03  0.00000000000E+00 0. -1.
          4    1    6    6  502    0  0.19951684878E+03 -0.22805936027E+03  0.12492760425E+03  0.32775745767E+03  0.00000000000E+00 0. -1.
          3    1    5    5  503    0 -0.31924847779E+02  0.24906422096E+02  0.54816063205E+02  0.68149296054E+02  0.00000000000E+00 0. -1.
         -4    1    5    5    0  503 -0.22941654589E+03  0.35758450696E+02  0.11183408718E+03  0.25771589276E+03  0.00000000000E+00 0.  1.
         -3    1    6    6    0  502  0.13405129212E+03 -0.25545490726E+03  0.16288240136E+03  0.33129689892E+03  0.00000000000E+00 0.  1.
<mgrwt>
<rscale>  0 0.13189941E+04</rscale>
<asrwt>0</asrwt>
<pdfrwt beam="1">  1        1 0.17949804E+00 0.13189941E+04</pdfrwt>
<pdfrwt beam="2">  1       -1 0.57350776E-01 0.13189941E+04</pdfrwt>
<totfact> 0.34147627E+01</totfact>
</mgrwt>
</event>
<event>
12    1  0.1494110E-007  0.2232524E+04  0.7818608E-02  0.8505012E-01
         -2   -1    0    0    0  501 -0.00000000000E+00  0.00000000000E+00  0.42877601741E+03  0.42877601741E+03  0.00000000000E+00 0. -1.
          2   -1    0    0  501    0  0.00000000000E+00 -0.00000000000E+00 -0.29060403955E+04  0.29060403955E+04  0.00000000000E+00 0.  1.
         23    2    1    2    0    0 -0.88681337665E+03 -0.21682119428E+03 -0.83370116327E+03  0.12397384940E+04  0.91894006898E+02 0.  0.
        254    2    1    2    0    0  0.88681337665E+03  0.21682119428E+03 -0.16435632148E+04  0.20950779189E+04  0.92444688870E+03 0.  0.
        -24    2    4    4    0    0  0.94835435707E+03  0.33333774151E+03 -0.95157625742E+03  0.13865898141E+04  0.81510136692E+02 0.  0.
         24    2    4    4    0    0 -0.61540980418E+02 -0.11651654723E+03 -0.69198695740E+03  0.70848810485E+03  0.75802687620E+02 0.  0.
         11    1    3    3    0    0 -0.25320861892E+03 -0.90139768066E+02 -0.28863435871E+03  0.39439773771E+03  0.00000000000E+00 0.  1.
        -11    1    3    3    0    0 -0.63360475773E+03 -0.12668142621E+03 -0.54506680456E+03  0.84534075626E+03  0.00000000000E+00 0. -1.
          2    1    6    6  502    0 -0.60513788471E+02 -0.12467063425E+03 -0.67984922253E+03  0.69382969886E+03  0.00000000000E+00 0. -1.
          3    1    5    5  503    0  0.78460208369E+03  0.28746390391E+03 -0.74961435847E+03  0.11225674199E+04  0.00000000000E+00 0. -1.
         -4    1    5    5    0  503  0.16375227338E+03  0.45873837590E+02 -0.20196189895E+03  0.26402239420E+03  0.00000000000E+00 0.  1.
         -1    1    6    6    0  502 -0.10271919472E+01  0.81540870210E+01 -0.12137734865E+02  0.14658405988E+02  0.00000000000E+00 0.  1.
<mgrwt>
<rscale>  0 0.22325236E+04</rscale>
<asrwt>0</asrwt>
<pdfrwt beam="1">  1        2 0.44708313E+00 0.22325236E+04</pdfrwt>
<pdfrwt beam="2">  1       -2 0.65965542E-01 0.22325236E+04</pdfrwt>
<totfact> 0.38433230E+00</totfact>
</mgrwt>
</event>
<event>
12    1  0.1494110E-007  0.1714468E+04  0.7818608E-02  0.8753156E-01
         -2   -1    0    0    0  501 -0.00000000000E+00  0.00000000000E+00  0.92676915762E+03  0.92676915762E+03  0.00000000000E+00 0.  1.
          2   -1    0    0  501    0  0.00000000000E+00 -0.00000000000E+00 -0.79291587911E+03  0.79291587911E+03  0.00000000000E+00 0. -1.
         23    2    1    2    0    0 -0.74535454273E+02  0.31069612944E+03  0.57931034005E+03  0.66762096189E+03  0.89608369449E+02 0.  0.
        254    2    1    2    0    0  0.74535454273E+02 -0.31069612944E+03 -0.44545706153E+03  0.10520640748E+04  0.89795278556E+03 0.  0.
        -24    2    4    4    0    0  0.21608208979E+03 -0.39893431421E+03  0.10346284727E+03  0.47293363067E+03  0.84389582731E+02 0.  0.
         24    2    4    4    0    0 -0.14154663552E+03  0.88238184762E+02 -0.54891990881E+03  0.57913044416E+03  0.79104853185E+02 0.  0.
         13    1    3    3    0    0 -0.45694329654E+02  0.14280813062E+03  0.18531898154E+03  0.23838049176E+03  0.00000000000E+00 0. -1.
        -13    1    3    3    0    0 -0.28841124619E+02  0.16788799883E+03  0.39399135851E+03  0.42924047013E+03  0.00000000000E+00 0.  1.
          4    1    6    6  502    0 -0.94023249106E+02  0.69191458589E+02 -0.25069386726E+03  0.27654157806E+03  0.00000000000E+00 0. -1.
          1    1    5    5  503    0  0.68485663698E+02 -0.14387311612E+03 -0.36484156157E+01  0.15938340757E+03  0.00000000000E+00 0. -1.
         -2    1    5    5    0  503  0.14759642610E+03 -0.25506119809E+03  0.10711126289E+03  0.31355022310E+03  0.00000000000E+00 0.  1.
         -3    1    6    6    0  502 -0.47523386415E+02  0.19046726173E+02 -0.29822604155E+03  0.30258886611E+03  0.00000000000E+00 0.  1.
<mgrwt>
<rscale>  0 0.17144678E+04</rscale>
<asrwt>0</asrwt>
<pdfrwt beam="1">  1        2 0.12198706E+00 0.17144678E+04</pdfrwt>
<pdfrwt beam="2">  1       -2 0.14257987E+00 0.17144678E+04</pdfrwt>
<totfact> 0.11341799E+01</totfact>
</mgrwt>
</event>
<event>
12    1  0.1494110E-007  0.1283178E+04  0.7818608E-02  0.9043013E-01
         -2   -1    0    0    0  501 -0.00000000000E+00  0.00000000000E+00  0.49913024173E+03  0.49913024173E+03  0.00000000000E+00 0.  1.
          2   -1    0    0  501    0  0.00000000000E+00 -0.00000000000E+00 -0.82470731437E+03  0.82470731437E+03  0.00000000000E+00 0. -1.
         23    2    1    2    0    0 -0.21748093723E+02 -0.11752904366E+03  0.22009710009E+03  0.26665877458E+03  0.91532032156E+02 0.  0.
        254    2    1    2    0    0  0.21748093723E+02  0.11752904366E+03 -0.54567417273E+03  0.10571787815E+04  0.89754142947E+03 0.  0.
        -24    2    4    4    0    0 -0.57194752068E+02 -0.22461430889E+03 -0.64101255576E+03  0.68617526041E+03  0.78845189663E+02 0.  0.
         24    2    4    4    0    0  0.78942845791E+02  0.34214335255E+03  0.95338383023E+02  0.37100352111E+03  0.72526952241E+02 0.  0.
         13    1    3    3    0    0 -0.17162430833E+02 -0.18802424228E+02  0.13145743847E+03  0.13389973233E+03  0.00000000000E+00 0.  1.
        -13    1    3    3    0    0 -0.45856628904E+01 -0.98726619430E+02  0.88639661622E+02  0.13275904226E+03  0.00000000000E+00 0. -1.
          4    1    6    6  502    0  0.22925711041E+02  0.10061669663E+03  0.63152100421E+02  0.12098551837E+03  0.00000000000E+00 0. -1.
          1    1    5    5  503    0 -0.27581149999E+02 -0.11114556017E+03 -0.42756039528E+03  0.44263071176E+03  0.00000000000E+00 0. -1.
         -2    1    5    5    0  503 -0.29613602069E+02 -0.11346874872E+03 -0.21345216048E+03  0.24354454865E+03  0.00000000000E+00 0.  1.
         -3    1    6    6    0  502  0.56017134749E+02  0.24152665592E+03  0.32186282602E+02  0.25001800274E+03  0.00000000000E+00 0.  1.
<mgrwt>
<rscale>  0 0.12831779E+04</rscale>
<asrwt>0</asrwt>
<pdfrwt beam="1">  1        2 0.12687805E+00 0.12831779E+04</pdfrwt>
<pdfrwt beam="2">  1       -2 0.76789269E-01 0.12831779E+04</pdfrwt>
<totfact> 0.49189092E+01</totfact>
</mgrwt>
</event>
<event>
12    1  0.1494110E-007  0.1310865E+04  0.7818608E-02  0.9020993E-01
          1   -1    0    0  501    0  0.00000000000E+00  0.00000000000E+00  0.12173664744E+04  0.12173664744E+04  0.00000000000E+00 0. -1.
         -1   -1    0    0    0  501 -0.00000000000E+00 -0.00000000000E+00 -0.35288628755E+03  0.35288628755E+03  0.00000000000E+00 0.  1.
         23    2    1    2    0    0 -0.26912172206E+02  0.16883311089E+03  0.57005506505E+03  0.60251730228E+03  0.93997010652E+02 0.  0.
        254    2    1    2    0    0  0.26912172206E+02 -0.16883311089E+03  0.29442512180E+03  0.96773545968E+03  0.90586802749E+03 0.  0.
        -24    2    4    4    0    0 -0.41178505785E+02 -0.35515366295E+03 -0.20864912427E+03  0.42144431144E+03  0.79063625865E+02 0.  0.
         24    2    4    4    0    0  0.68090677991E+02  0.18632055206E+03  0.50307424607E+03  0.54629114825E+03  0.77450842750E+02 0.  0.
         13    1    3    3    0    0 -0.20499199508E+02 -0.35220966521E+01  0.91386047454E+02  0.93723166904E+02  0.00000000000E+00 0.  1.
        -13    1    3    3    0    0 -0.64129726982E+01  0.17235520755E+03  0.47866901760E+03  0.50879413538E+03  0.00000000000E+00 0. -1.
          2    1    6    6  502    0  0.16605933279E+02  0.11077846288E+03  0.35516346898E+03  0.37240933737E+03  0.00000000000E+00 0. -1.
          3    1    5    5  503    0 -0.48728297423E+02 -0.21665179123E+03 -0.16282894464E+03  0.27536468696E+03  0.00000000000E+00 0. -1.
         -4    1    5    5    0  503  0.75497916384E+01 -0.13850187173E+03 -0.45820179625E+02  0.14607962447E+03  0.00000000000E+00 0.  1.
         -1    1    6    6    0  502  0.51484744712E+02  0.75542089179E+02  0.14791077709E+03  0.17388181088E+03  0.00000000000E+00 0.  1.
<mgrwt>
<rscale>  0 0.13108653E+04</rscale>
<asrwt>0</asrwt>
<pdfrwt beam="1">  1        1 0.18728715E+00 0.13108653E+04</pdfrwt>
<pdfrwt beam="2">  1       -1 0.54290199E-01 0.13108653E+04</pdfrwt>
<totfact> 0.34904255E+01</totfact>
</mgrwt>
</event>
<event>
12    1  0.1494110E-007  0.1715197E+04  0.7818608E-02  0.8752744E-01
          2   -1    0    0  501    0  0.00000000000E+00  0.00000000000E+00  0.27391749768E+04  0.27391749768E+04  0.00000000000E+00 0. -1.
         -2   -1    0    0    0  501 -0.00000000000E+00 -0.00000000000E+00 -0.26850239343E+03  0.26850239343E+03  0.00000000000E+00 0.  1.
         23    2    1    2    0    0  0.50192767849E+03  0.79934702487E+02  0.28037789134E+03  0.58729779029E+03  0.89364318603E+02 0.  0.
        254    2    1    2    0    0 -0.50192767849E+03 -0.79934702487E+02  0.21902946920E+04  0.24203795799E+04  0.89583788820E+03 0.  0.
        -24    2    4    4    0    0 -0.51144814046E+03  0.22318616877E+03  0.19364105016E+04  0.20168463840E+04  0.81193839880E+02 0.  0.
         24    2    4    4    0    0  0.95204619701E+01 -0.30312087126E+03  0.25388419043E+03  0.40353319594E+03  0.80055957200E+02 0.  0.
         11    1    3    3    0    0  0.11650023405E+03 -0.59884542728E+01  0.32651599455E+02  0.12113749653E+03  0.00000000000E+00 0. -1.
        -11    1    3    3    0    0  0.38542744444E+03  0.85923156760E+02  0.24772629189E+03  0.46616029377E+03  0.00000000000E+00 0.  1.
          2    1    6    6  502    0  0.30734970369E+02 -0.20557837207E+03  0.13304550068E+03  0.24679588878E+03  0.00000000000E+00 0. -1.
          3    1    5    5  503    0 -0.49006594122E+03  0.19675491610E+03  0.18527811431E+04  0.19265708105E+04  0.00000000000E+00 0. -1.
         -4    1    5    5    0  503 -0.21382199233E+02  0.26431252678E+02  0.83629358491E+02  0.90275573461E+02  0.00000000000E+00 0.  1.
         -1    1    6    6    0  502 -0.21214508398E+02 -0.97542499187E+02  0.12083868975E+03  0.15673730716E+03  0.00000000000E+00 0.  1.
<mgrwt>
<rscale>  0 0.17151968E+04</rscale>
<asrwt>0</asrwt>
<pdfrwt beam="1">  1        2 0.42141152E+00 0.17151968E+04</pdfrwt>
<pdfrwt beam="2">  1       -2 0.41308062E-01 0.17151968E+04</pdfrwt>
<totfact> 0.13313610E+01</totfact>
</mgrwt>
</event>
<event>
12    1  0.1494110E-007  0.3602353E+04  0.7818608E-02  0.8089953E-01
          1   -1    0    0  501    0  0.00000000000E+00  0.00000000000E+00  0.33900966146E+04  0.33900966146E+04  0.00000000000E+00 0. -1.
         -1   -1    0    0    0  501 -0.00000000000E+00 -0.00000000000E+00 -0.95697452730E+03  0.95697452730E+03  0.00000000000E+00 0.  1.
         23    2    1    2    0    0  0.16327794513E+04  0.28316843966E+03  0.76761237688E+03  0.18286434803E+04  0.92493864981E+02 0.  0.
        254    2    1    2    0    0 -0.16327794513E+04 -0.28316843966E+03  0.16655097105E+04  0.25184276616E+04  0.90686393088E+03 0.  0.
        -24    2    4    4    0    0 -0.80861646556E+03 -0.44084537202E+03  0.13109529852E+04  0.16040422124E+04  0.78412111743E+02 0.  0.
         24    2    4    4    0    0 -0.82416298578E+03  0.15767693236E+03  0.35455672525E+03  0.91438544921E+03  0.79269389965E+02 0.  0.
         11    1    3    3    0    0  0.47859236597E+03  0.59255953021E+02  0.26206515315E+03  0.54885340960E+03  0.00000000000E+00 0. -1.
        -11    1    3    3    0    0  0.11541870854E+04  0.22391248664E+03  0.50554722373E+03  0.12797900707E+04  0.00000000000E+00 0.  1.
          2    1    6    6  502    0 -0.16337433966E+03 -0.55502931843E+00  0.69434089527E+02  0.17751781799E+03  0.00000000000E+00 0. -1.
          3    1    5    5  503    0 -0.30871339755E+03 -0.18068193291E+03  0.57357353514E+03  0.67597080035E+03  0.00000000000E+00 0. -1.
         -4    1    5    5    0  503 -0.49990306801E+03 -0.26016343911E+03  0.73737945008E+03  0.92807141204E+03  0.00000000000E+00 0.  1.
         -1    1    6    6    0  502 -0.66078864612E+03  0.15823196168E+03  0.28512263572E+03  0.73686763122E+03  0.00000000000E+00 0.  1.
<mgrwt>
<rscale>  0 0.36023526E+04</rscale>
<asrwt>0</asrwt>
<pdfrwt beam="1">  1        1 0.52155332E+00 0.36023526E+04</pdfrwt>
<pdfrwt beam="2">  1       -1 0.14722685E+00 0.36023526E+04</pdfrwt>
<totfact> 0.90243815E-02</totfact>
</mgrwt>
</event>
<event>
12    1  0.1494110E-007  0.2230798E+04  0.7818608E-02  0.8505718E-01
         -2   -1    0    0    0  501 -0.00000000000E+00  0.00000000000E+00  0.58505514796E+03  0.58505514796E+03  0.00000000000E+00 0. -1.
          2   -1    0    0  501    0  0.00000000000E+00 -0.00000000000E+00 -0.21264916572E+04  0.21264916572E+04  0.00000000000E+00 0.  1.
         23    2    1    2    0    0  0.47390816996E+03 -0.56692535345E+03 -0.12318746847E+04  0.14391244411E+04  0.87009241439E+02 0.  0.
        254    2    1    2    0    0 -0.47390816996E+03  0.56692535345E+03 -0.30956182449E+03  0.12724223641E+04  0.98855290170E+03 0.  0.
        -24    2    4    4    0    0 -0.59826478012E+03  0.23472712286E+03 -0.53934547776E+03  0.84275316009E+03  0.79509591367E+02 0.  0.
         24    2    4    4    0    0  0.12435661016E+03  0.33219823058E+03  0.22978365327E+03  0.42966920398E+03  0.77426524180E+02 0.  0.
         13    1    3    3    0    0  0.24408177524E+03 -0.30219575688E+03 -0.56400739453E+03  0.68483759357E+03  0.00000000000E+00 0. -1.
        -13    1    3    3    0    0  0.22982639472E+03 -0.26472959657E+03 -0.66786729020E+03  0.75428684751E+03  0.00000000000E+00 0.  1.
          2    1    6    6  502    0  0.91761156568E+02  0.30760763991E+03  0.19201373150E+03  0.37404791548E+03  0.00000000000E+00 0. -1.
          1    1    5    5  503    0 -0.17571643345E+03  0.62435782131E+02 -0.20448875175E+03  0.27674923933E+03  0.00000000000E+00 0. -1.
         -2    1    5    5    0  503 -0.42254834667E+03  0.17229134073E+03 -0.33485672601E+03  0.56600392076E+03  0.00000000000E+00 0.  1.
         -1    1    6    6    0  502  0.32595453592E+02  0.24590590668E+02  0.37769921768E+02  0.55621288503E+02  0.00000000000E+00 0.  1.
<mgrwt>
<rscale>  0 0.22307980E+04</rscale>
<asrwt>0</asrwt>
<pdfrwt beam="1">  1        2 0.32715255E+00 0.22307980E+04</pdfrwt>
<pdfrwt beam="2">  1       -2 0.90008487E-01 0.22307980E+04</pdfrwt>
<totfact> 0.54697137E+00</totfact>
</mgrwt>
</event>
<event>
12    1  0.1494110E-007  0.1442592E+04  0.7818608E-02  0.8923552E-01
         -1   -1    0    0    0  501 -0.00000000000E+00  0.00000000000E+00  0.82330141601E+03  0.82330141601E+03  0.00000000000E+00 0.  1.
          1   -1    0    0  501    0  0.00000000000E+00 -0.00000000000E+00 -0.63192927433E+03  0.63192927433E+03  0.00000000000E+00 0. -1.
         23    2    1    2    0    0 -0.20258406959E+03  0.37518179505E+03  0.14946095124E+02  0.44532440009E+03  0.12762739112E+03 0.  0.
        254    2    1    2    0    0  0.20258406959E+03 -0.37518179505E+03  0.17642604655E+03  0.10099062903E+04  0.89832225878E+03 0.  0.
        -24    2    4    4    0    0  0.12929957697E+03 -0.16113985119E+03  0.53472029157E+03  0.57863876779E+03  0.78820055357E+02 0.  0.
         24    2    4    4    0    0  0.73284492628E+02 -0.21404194385E+03 -0.35829424501E+03  0.43126752247E+03  0.80201866205E+02 0.  0.
         11    1    3    3    0    0 -0.70992142282E+02  0.13959627938E+03  0.67278384671E+02  0.17045053983E+03  0.00000000000E+00 0.  1.
        -11    1    3    3    0    0 -0.13159192731E+03  0.23558551566E+03 -0.52332289547E+02  0.27487386026E+03  0.00000000000E+00 0. -1.
          4    1    6    6  502    0 -0.10908564689E+02 -0.59016289211E+02 -0.61012980836E+02  0.85583310325E+02  0.00000000000E+00 0. -1.
          1    1    5    5  503    0  0.91321765635E+02 -0.66673509011E+02  0.21242102837E+03  0.24064021895E+03  0.00000000000E+00 0. -1.
         -2    1    5    5    0  503  0.37977811332E+02 -0.94466342183E+02  0.32229926320E+03  0.33799854884E+03  0.00000000000E+00 0.  1.
         -3    1    6    6    0  502  0.84193057316E+02 -0.15502565464E+03 -0.29728126418E+03  0.34568421215E+03  0.00000000000E+00 0.  1.
<mgrwt>
<rscale>  0 0.14425925E+04</rscale>
<asrwt>0</asrwt>
<pdfrwt beam="1">  1        1 0.97219889E-01 0.14425925E+04</pdfrwt>
<pdfrwt beam="2">  1       -1 0.12666176E+00 0.14425925E+04</pdfrwt>
<totfact> 0.16712843E+01</totfact>
</mgrwt>
</event>
<event>
12    1  0.1494110E-007  0.1701249E+04  0.7818608E-02  0.8760652E-01
         -2   -1    0    0    0  501 -0.00000000000E+00  0.00000000000E+00  0.47337138389E+03  0.47337138389E+03  0.00000000000E+00 0.  1.
          2   -1    0    0  501    0  0.00000000000E+00 -0.00000000000E+00 -0.15285293060E+04  0.15285293060E+04  0.00000000000E+00 0. -1.
         23    2    1    2    0    0  0.31214403265E+03 -0.17261786048E+03  0.20232217155E+03  0.42020297976E+03  0.91681297004E+02 0.  0.
        254    2    1    2    0    0 -0.31214403265E+03  0.17261786048E+03 -0.12574800936E+04  0.15816977101E+04  0.89066303244E+03 0.  0.
        -24    2    4    4    0    0  0.19560177786E+03  0.25691382198E+03 -0.16332115801E+03  0.36995515553E+03  0.76995123370E+02 0.  0.
         24    2    4    4    0    0 -0.50774581051E+03 -0.84295961505E+02 -0.10941589356E+04  0.12117425546E+04  0.78896292205E+02 0.  0.
         13    1    3    3    0    0  0.19425972248E+03 -0.87402101171E+02  0.71864782468E+02  0.22481217500E+03  0.00000000000E+00 0.  1.
        -13    1    3    3    0    0  0.11788431017E+03 -0.85215759307E+02  0.13045738909E+03  0.19539080476E+03  0.00000000000E+00 0. -1.
          4    1    6    6  502    0 -0.25603430378E+03 -0.78246549268E+02 -0.60486674665E+03  0.66146796475E+03  0.00000000000E+00 0. -1.
          1    1    5    5  503    0  0.19537918988E+03  0.26162838316E+03 -0.15770792649E+03  0.36262132975E+03  0.00000000000E+00 0. -1.
         -2    1    5    5    0  503  0.22258798129E+00 -0.47145611771E+01 -0.56132315157E+01  0.73338257786E+01  0.00000000000E+00 0.  1.
         -3    1    6    6    0  502 -0.25171150673E+03 -0.60494122369E+01 -0.48929218896E+03  0.55027458981E+03  0.00000000000E+00 0.  1.
<mgrwt>
<rscale>  0 0.17012490E+04</rscale>
<asrwt>0</asrwt>
<pdfrwt beam="1">  1        2 0.23515835E+00 0.17012490E+04</pdfrwt>
<pdfrwt beam="2">  1       -2 0.72826367E-01 0.17012490E+04</pdfrwt>
<totfact> 0.19831951E+01</totfact>
</mgrwt>
</event>
<event>
12    1  0.1494110E-007  0.1508128E+04  0.7818608E-02  0.8879066E-01
         -2   -1    0    0    0  501 -0.00000000000E+00  0.00000000000E+00  0.25605251973E+03  0.25605251973E+03  0.00000000000E+00 0.  1.
          2   -1    0    0  501    0  0.00000000000E+00 -0.00000000000E+00 -0.22206858722E+04  0.22206858722E+04  0.00000000000E+00 0. -1.
         23    2    1    2    0    0 -0.29052477058E+03 -0.22092795240E+03 -0.13608499310E+03  0.40840090067E+03  0.12271254152E+03 0.  0.
        254    2    1    2    0    0  0.29052477058E+03  0.22092795240E+03 -0.18285483594E+04  0.20683374913E+04  0.89510729677E+03 0.  0.
        -24    2    4    4    0    0 -0.91177819505E+02  0.21983659077E+03 -0.15934348748E+04  0.16131046636E+04  0.80189987692E+02 0.  0.
         24    2    4    4    0    0  0.38170259008E+03  0.10913616242E+01 -0.23511348457E+03  0.45523282765E+03  0.79123437701E+02 0.  0.
         11    1    3    3    0    0 -0.21531330349E+03 -0.14693527296E+03 -0.36310638568E+02  0.26318863116E+03  0.00000000000E+00 0.  1.
        -11    1    3    3    0    0 -0.75211467091E+02 -0.73992679432E+02 -0.99774354532E+02  0.14521226950E+03  0.00000000000E+00 0. -1.
          4    1    6    6  502    0  0.27707732313E+03 -0.34559811413E+02 -0.17207249781E+03  0.32798653640E+03  0.00000000000E+00 0. -1.
          3    1    5    5  503    0 -0.40264457487E+02  0.10674462026E+03 -0.10230572357E+04  0.10293987313E+04  0.00000000000E+00 0. -1.
         -4    1    5    5    0  503 -0.50913362018E+02  0.11309197051E+03 -0.57037763907E+03  0.58370593227E+03  0.00000000000E+00 0.  1.
         -3    1    6    6    0  502  0.10462526696E+03  0.35651173038E+02 -0.63040986760E+02  0.12724629125E+03  0.00000000000E+00 0.  1.
<mgrwt>
<rscale>  0 0.15081276E+04</rscale>
<asrwt>0</asrwt>
<pdfrwt beam="1">  1        2 0.34164397E+00 0.15081276E+04</pdfrwt>
<pdfrwt beam="2">  1       -2 0.39392697E-01 0.15081276E+04</pdfrwt>
<totfact> 0.29615768E+01</totfact>
</mgrwt>
</event>
<event>
12    1  0.1494110E-007  0.3063899E+04  0.7818608E-02  0.8225716E-01
          1   -1    0    0  501    0  0.00000000000E+00  0.00000000000E+00  0.33776439266E+04  0.33776439266E+04  0.00000000000E+00 0. -1.
         -1   -1    0    0    0  501 -0.00000000000E+00 -0.00000000000E+00 -0.69482417845E+03  0.69482417845E+03  0.00000000000E+00 0.  1.
         23    2    1    2    0    0  0.59936304648E+03  0.17187152211E+03  0.28892416689E+04  0.29572008164E+04  0.92430328713E+02 0.  0.
        254    2    1    2    0    0 -0.59936304648E+03 -0.17187152211E+03 -0.20642192069E+03  0.11152672887E+04  0.90135189260E+03 0.  0.
        -24    2    4    4    0    0 -0.68510435085E+03 -0.35458424658E+03  0.54236840949E+02  0.77733024401E+03  0.78757309831E+02 0.  0.
         24    2    4    4    0    0  0.85741304371E+02  0.18271272448E+03 -0.26065876164E+03  0.33793704469E+03  0.74316520305E+02 0.  0.
         13    1    3    3    0    0  0.17341276688E+03  0.61306588847E+02  0.67242667979E+03  0.69712848547E+03  0.00000000000E+00 0.  1.
        -13    1    3    3    0    0  0.42595027960E+03  0.11056493326E+03  0.22168149891E+04  0.22600723309E+04  0.00000000000E+00 0. -1.
          4    1    6    6  502    0  0.86992867639E+01 -0.46168382874E+01 -0.32098324575E+01  0.10358369098E+02  0.00000000000E+00 0. -1.
          1    1    5    5  503    0 -0.48832847914E+02 -0.29123729504E+02 -0.16381423222E+02  0.59170851628E+02  0.00000000000E+00 0. -1.
         -2    1    5    5    0  503 -0.63627150294E+03 -0.32546051708E+03  0.70618264171E+02  0.71815939238E+03  0.00000000000E+00 0.  1.
         -3    1    6    6    0  502  0.77042017607E+02  0.18732956276E+03 -0.25744892918E+03  0.32757867559E+03  0.00000000000E+00 0.  1.
<mgrwt>
<rscale>  0 0.30638986E+04</rscale>
<asrwt>0</asrwt>
<pdfrwt beam="1">  1        1 0.51963752E+00 0.30638986E+04</pdfrwt>
<pdfrwt beam="2">  1       -1 0.10689603E+00 0.30638986E+04</pdfrwt>
<totfact> 0.21495218E-01</totfact>
</mgrwt>
</event>
<event>
12    1  0.1494110E-007  0.3985636E+04  0.7818608E-02  0.8007451E-01
         -1   -1    0    0    0  501 -0.00000000000E+00  0.00000000000E+00  0.23737518615E+04  0.23737518615E+04  0.00000000000E+00 0.  1.
          1   -1    0    0  501    0  0.00000000000E+00 -0.00000000000E+00 -0.16730153073E+04  0.16730153073E+04  0.00000000000E+00 0. -1.
         23    2    1    2    0    0  0.14359827524E+04 -0.69525293463E+03  0.13615553059E+04  0.20994788877E+04  0.92496706622E+02 0.  0.
        254    2    1    2    0    0 -0.14359827524E+04  0.69525293463E+03 -0.66081875177E+03  0.19472882810E+04  0.89990394964E+03 0.  0.
        -24    2    4    4    0    0  0.10449059595E+03  0.12852766259E+03 -0.10647890353E+03  0.21303636899E+03  0.81296327858E+02 0.  0.
         24    2    4    4    0    0 -0.15404733483E+04  0.56672527204E+03 -0.55433984824E+03  0.17342519121E+04  0.78111178651E+02 0.  0.
         13    1    3    3    0    0  0.12646015196E+04 -0.64123401118E+03  0.12252924103E+04  0.18739635939E+04  0.00000000000E+00 0.  1.
        -13    1    3    3    0    0  0.17138123274E+03 -0.54018923452E+02  0.13626289559E+03  0.22551529380E+03  0.00000000000E+00 0. -1.
          4    1    6    6  502    0 -0.63401998491E+03  0.25496395877E+03 -0.26526658253E+03  0.73304455618E+03  0.00000000000E+00 0. -1.
          3    1    5    5  503    0  0.57872342496E+02  0.11044876453E+03 -0.10500118787E+03  0.16301345670E+03  0.00000000000E+00 0. -1.
         -4    1    5    5    0  503  0.46618253456E+02  0.18078898064E+02 -0.14777156583E+01  0.50022912291E+02  0.00000000000E+00 0.  1.
         -3    1    6    6    0  502 -0.90645336342E+03  0.31176131327E+03 -0.28907326571E+03  0.10012073559E+04  0.00000000000E+00 0.  1.
<mgrwt>
<rscale>  0 0.39856358E+04</rscale>
<asrwt>0</asrwt>
<pdfrwt beam="1">  1        1 0.25738697E+00 0.39856358E+04</pdfrwt>
<pdfrwt beam="2">  1       -1 0.36519259E+00 0.39856358E+04</pdfrwt>
<totfact> 0.47928241E-02</totfact>
</mgrwt>
</event>
<event>
12    1  0.1494110E-007  0.1327080E+04  0.7818608E-02  0.9008362E-01
         -2   -1    0    0    0  501 -0.00000000000E+00  0.00000000000E+00  0.78409687026E+03  0.78409687026E+03  0.00000000000E+00 0.  1.
          2   -1    0    0  501    0  0.00000000000E+00 -0.00000000000E+00 -0.56151875570E+03  0.56151875570E+03  0.00000000000E+00 0. -1.
         23    2    1    2    0    0  0.77972396960E+02  0.29938271968E+02 -0.28628785584E+03  0.31129697291E+03  0.89269670827E+02 0.  0.
        254    2    1    2    0    0 -0.77972396960E+02 -0.29938271968E+02  0.50886597040E+03  0.10343186530E+04  0.89660164254E+03 0.  0.
        -24    2    4    4    0    0  0.27150806863E+03 -0.74548468153E+02 -0.11460859853E+03  0.31427875894E+03  0.79761532257E+02 0.  0.
         24    2    4    4    0    0 -0.34948046559E+03  0.44610196185E+02  0.62347456893E+03  0.72003989411E+03  0.74901572566E+02 0.  0.
         13    1    3    3    0    0  0.34734801607E+01  0.24963953010E+01  0.65859034373E+01  0.78530998982E+01  0.00000000000E+00 0.  1.
        -13    1    3    3    0    0  0.74498916799E+02  0.27441876667E+02 -0.29287375927E+03  0.30344387302E+03  0.00000000000E+00 0. -1.
          2    1    6    6  502    0 -0.22307780848E+02 -0.53720127367E+01  0.84479700537E+02  0.87540364462E+02  0.00000000000E+00 0. -1.
          3    1    5    5  503    0  0.54805668766E+02  0.17011056564E+02 -0.22321290229E+02  0.61573349526E+02  0.00000000000E+00 0. -1.
         -2    1    5    5    0  503  0.21670239986E+03 -0.91559524717E+02 -0.92287308303E+02  0.25270540941E+03  0.00000000000E+00 0.  1.
         -1    1    6    6    0  502 -0.32717268474E+03  0.49982208922E+02  0.53899486839E+03  0.63249952965E+03  0.00000000000E+00 0.  1.
<mgrwt>
<rscale>  0 0.13270796E+04</rscale>
<asrwt>0</asrwt>
<pdfrwt beam="1">  1        2 0.86387501E-01 0.13270796E+04</pdfrwt>
<pdfrwt beam="2">  1       -2 0.12063029E+00 0.13270796E+04</pdfrwt>
<totfact> 0.27534081E+01</totfact>
</mgrwt>
</event>
<event>
12    1  0.1494110E-007  0.2231186E+04  0.7818608E-02  0.8505559E-01
          2   -1    0    0  501    0  0.00000000000E+00  0.00000000000E+00  0.27230109003E+04  0.27230109003E+04  0.00000000000E+00 0. -1.
         -2   -1    0    0    0  501 -0.00000000000E+00 -0.00000000000E+00 -0.45704821763E+03  0.45704821763E+03  0.00000000000E+00 0.  1.
         23    2    1    2    0    0  0.14742272397E+03 -0.91535628822E+03  0.85485607419E+03  0.12658894343E+04  0.10993888452E+03 0.  0.
        254    2    1    2    0    0 -0.14742272397E+03  0.91535628822E+03  0.14111066085E+04  0.19141696837E+04  0.90178330179E+03 0.  0.
        -24    2    4    4    0    0  0.25940258154E+03  0.18413426424E+03  0.77062895734E+02  0.33727394860E+03  0.81362767440E+02 0.  0.
         24    2    4    4    0    0 -0.40682530550E+03  0.73122202398E+03  0.13340437128E+04  0.15768957351E+04  0.82067375768E+02 0.  0.
         11    1    3    3    0    0  0.22047699312E+02 -0.24078097942E+02  0.41269997249E+02  0.52621939516E+02  0.00000000000E+00 0. -1.
        -11    1    3    3    0    0  0.12537502465E+03 -0.89127819028E+03  0.81358607694E+03  0.12132674948E+04  0.00000000000E+00 0.  1.
          2    1    6    6  502    0 -0.22400395249E+02  0.49105055314E+02  0.12876962251E+03  0.13962342155E+03  0.00000000000E+00 0. -1.
          3    1    5    5  503    0  0.24213762386E+02 -0.60570757224E+01  0.12818535709E+02  0.28059032644E+02  0.00000000000E+00 0. -1.
         -4    1    5    5    0  503  0.23518881915E+03  0.19019133997E+03  0.64244360025E+02  0.30921491595E+03  0.00000000000E+00 0.  1.
         -1    1    6    6    0  502 -0.38442491025E+03  0.68211696866E+03  0.12052740903E+04  0.14372723135E+04  0.00000000000E+00 0.  1.
<mgrwt>
<rscale>  0 0.22311856E+04</rscale>
<asrwt>0</asrwt>
<pdfrwt beam="1">  1        2 0.41892475E+00 0.22311856E+04</pdfrwt>
<pdfrwt beam="2">  1       -2 0.70315112E-01 0.22311856E+04</pdfrwt>
<totfact> 0.43193898E+00</totfact>
</mgrwt>
</event>
<event>
12    1  0.1494110E-007  0.2417991E+04  0.7818608E-02  0.8432799E-01
         -1   -1    0    0    0  501 -0.00000000000E+00  0.00000000000E+00  0.85374272518E+03  0.85374272518E+03  0.00000000000E+00 0. -1.
          1   -1    0    0  501    0  0.00000000000E+00 -0.00000000000E+00 -0.17120735367E+04  0.17120735367E+04  0.00000000000E+00 0.  1.
         23    2    1    2    0    0  0.10643389455E+03  0.19249498126E+03 -0.14520421536E+04  0.14715029299E+04  0.92260312679E+02 0.  0.
        254    2    1    2    0    0 -0.10643389455E+03 -0.19249498126E+03  0.59371134205E+03  0.10943133320E+04  0.89255028941E+03 0.  0.
        -24    2    4    4    0    0  0.26581350334E+03 -0.46971118791E+02 -0.92424941298E+02  0.29611564063E+03  0.79240130564E+02 0.  0.
         24    2    4    4    0    0 -0.37224739790E+03 -0.14552386247E+03  0.68613628335E+03  0.79819769134E+03  0.81186423364E+02 0.  0.
         11    1    3    3    0    0  0.42093954391E+02  0.81297323430E+01 -0.29501734273E+03  0.29811612848E+03  0.00000000000E+00 0.  1.
        -11    1    3    3    0    0  0.64339940163E+02  0.18436524891E+03 -0.11570248109E+04  0.11733868015E+04  0.00000000000E+00 0. -1.
          2    1    6    6  502    0 -0.24113473655E+03 -0.95602533795E+02  0.36530576967E+03  0.44803360476E+03  0.00000000000E+00 0. -1.
          1    1    5    5  503    0  0.25064711743E+03 -0.49532056973E+02 -0.10501918527E+03  0.27623618774E+03  0.00000000000E+00 0. -1.
         -2    1    5    5    0  503  0.15166385919E+02  0.25609381822E+01  0.12594243968E+02  0.19879452894E+02  0.00000000000E+00 0.  1.
         -1    1    6    6    0  502 -0.13111266135E+03 -0.49921328672E+02  0.32083051368E+03  0.35016408658E+03  0.00000000000E+00 0.  1.
<mgrwt>
<rscale>  0 0.24179912E+04</rscale>
<asrwt>0</asrwt>
<pdfrwt beam="1">  1        1 0.26339593E+00 0.24179912E+04</pdfrwt>
<pdfrwt beam="2">  1       -1 0.13134503E+00 0.24179912E+04</pdfrwt>
<totfact> 0.20671984E+00</totfact>
</mgrwt>
</event>
<event>
12    1  0.1494110E-007  0.1457555E+04  0.7818608E-02  0.8913179E-01
          1   -1    0    0  501    0  0.00000000000E+00  0.00000000000E+00  0.10782721876E+04  0.10782721876E+04  0.00000000000E+00 0. -1.
         -1   -1    0    0    0  501 -0.00000000000E+00 -0.00000000000E+00 -0.49256273870E+03  0.49256273870E+03  0.00000000000E+00 0.  1.
         23    2    1    2    0    0  0.28768625617E+03 -0.16801902268E+02  0.53989721272E+03  0.61905322262E+03  0.93232002154E+02 0.  0.
        254    2    1    2    0    0 -0.28768625617E+03  0.16801902268E+02  0.45812236218E+02  0.95178170371E+03  0.90594920642E+03 0.  0.
        -24    2    4    4    0    0 -0.24974747811E+03  0.37497214977E+03  0.25881968651E+03  0.52569855525E+03  0.79958895322E+02 0.  0.
         24    2    4    4    0    0 -0.37938778059E+02 -0.35817024750E+03 -0.21300745029E+03  0.42608314846E+03  0.80308146839E+02 0.  0.
         11    1    3    3    0    0  0.53398703222E+02 -0.22137204393E+02  0.51827826846E+02  0.77637625928E+02  0.00000000000E+00 0.  1.
        -11    1    3    3    0    0  0.23428755295E+03  0.53353021244E+01  0.48806938587E+03  0.54141559669E+03  0.00000000000E+00 0. -1.
          4    1    6    6  502    0 -0.46699837980E+02 -0.32081913611E+03 -0.16246783932E+03  0.36263148205E+03  0.00000000000E+00 0. -1.
          1    1    5    5  503    0 -0.21250866989E+03  0.35840222792E+03  0.23945464435E+03  0.48057321862E+03  0.00000000000E+00 0. -1.
         -2    1    5    5    0  503 -0.37238808220E+02  0.16569921848E+02  0.19365042154E+02  0.45125336623E+02  0.00000000000E+00 0.  1.
         -3    1    6    6    0  502  0.87610599214E+01 -0.37351111391E+02 -0.50539610974E+02  0.63451666412E+02  0.00000000000E+00 0.  1.
<mgrwt>
<rscale>  0 0.14575551E+04</rscale>
<asrwt>0</asrwt>
<pdfrwt beam="1">  1        1 0.16588803E+00 0.14575551E+04</pdfrwt>
<pdfrwt beam="2">  1       -1 0.75778883E-01 0.14575551E+04</pdfrwt>
<totfact> 0.22365723E+01</totfact>
</mgrwt>
</event>
<event>
12    1  0.1494110E-007  0.1476595E+04  0.7818608E-02  0.8900168E-01
         -2   -1    0    0    0  501 -0.00000000000E+00  0.00000000000E+00  0.75347563229E+03  0.75347563229E+03  0.00000000000E+00 0. -1.
          2   -1    0    0  501    0  0.00000000000E+00 -0.00000000000E+00 -0.72342535602E+03  0.72342535602E+03  0.00000000000E+00 0.  1.
         23    2    1    2    0    0  0.21866112829E+03 -0.33270049983E+03  0.23376396701E+03  0.47054486066E+03  0.90909636482E+02 0.  0.
        254    2    1    2    0    0 -0.21866112829E+03  0.33270049983E+03 -0.20371369074E+03  0.10063561277E+04  0.90152708016E+03 0.  0.
        -24    2    4    4    0    0 -0.17092268521E+03 -0.23363093338E+03 -0.30017622565E+03  0.42435122544E+03  0.78550739867E+02 0.  0.
         24    2    4    4    0    0 -0.47738443078E+02  0.56633143322E+03  0.96462534912E+02  0.58200490222E+03  0.80090163973E+02 0.  0.
         13    1    3    3    0    0  0.27934979891E+02 -0.40016755744E+01  0.13260957383E+02  0.31180594921E+02  0.00000000000E+00 0.  1.
        -13    1    3    3    0    0  0.19072614840E+03 -0.32869882426E+03  0.22050300963E+03  0.43936426574E+03  0.00000000000E+00 0. -1.
          4    1    6    6  502    0 -0.62152690133E+02  0.49409243838E+03  0.10129323247E+03  0.50818364151E+03  0.00000000000E+00 0. -1.
          3    1    5    5  503    0 -0.16154069396E+03 -0.22827392655E+03 -0.30383882951E+03  0.41294359865E+03  0.00000000000E+00 0. -1.
         -4    1    5    5    0  503 -0.93819912462E+01 -0.53570068359E+01  0.36626038584E+01  0.11407626791E+02  0.00000000000E+00 0.  1.
         -3    1    6    6    0  502  0.14414247055E+02  0.72238994838E+02 -0.48306975586E+01  0.73821260706E+02  0.00000000000E+00 0.  1.
<mgrwt>
<rscale>  0 0.14765952E+04</rscale>
<asrwt>0</asrwt>
<pdfrwt beam="1">  1        2 0.11129621E+00 0.14765952E+04</pdfrwt>
<pdfrwt beam="2">  1       -2 0.11591933E+00 0.14765952E+04</pdfrwt>
<totfact> 0.21988706E+01</totfact>
</mgrwt>
</event>
<event>
12    1  0.1494110E-007  0.1200926E+04  0.7818608E-02  0.9112047E-01
         -2   -1    0    0    0  501 -0.00000000000E+00  0.00000000000E+00  0.97204958808E+03  0.97204958808E+03  0.00000000000E+00 0.  1.
          2   -1    0    0  501    0  0.00000000000E+00 -0.00000000000E+00 -0.37092313841E+03  0.37092313841E+03  0.00000000000E+00 0. -1.
         23    2    1    2    0    0  0.15412926330E+03 -0.14189017079E+03 -0.10157138524E+02  0.22963235795E+03  0.93483699023E+02 0.  0.
        254    2    1    2    0    0 -0.15412926330E+03  0.14189017079E+03  0.61128358819E+03  0.11133403685E+04  0.90662588792E+03 0.  0.
        -24    2    4    4    0    0 -0.48216320338E+03  0.12425794410E+03  0.12208145611E+03  0.51870928469E+03  0.78955992338E+02 0.  0.
         24    2    4    4    0    0  0.32803394008E+03  0.17632226687E+02  0.48920213208E+03  0.59463108385E+03  0.79688384238E+02 0.  0.
         13    1    3    3    0    0  0.80178574839E+02 -0.70749004731E+02 -0.51890781124E+02  0.11885570537E+03  0.00000000000E+00 0.  1.
        -13    1    3    3    0    0  0.73950688463E+02 -0.71141166054E+02  0.41733642601E+02  0.11077665258E+03  0.00000000000E+00 0. -1.
          4    1    6    6  502    0  0.24776091251E+01 -0.10558123093E+02  0.11036673670E+02  0.15473224484E+02  0.00000000000E+00 0. -1.
          1    1    5    5  503    0 -0.27194966163E+03  0.29468766993E+02  0.66488212913E+02  0.28150614406E+03  0.00000000000E+00 0. -1.
         -2    1    5    5    0  503 -0.21021354176E+03  0.94789177106E+02  0.55593243196E+02  0.23720314063E+03  0.00000000000E+00 0.  1.
         -3    1    6    6    0  502  0.32555633096E+03  0.28190349779E+02  0.47816545841E+03  0.57915785936E+03  0.00000000000E+00 0.  1.
<mgrwt>
<rscale>  0 0.12009258E+04</rscale>
<asrwt>0</asrwt>
<pdfrwt beam="1">  1        2 0.57065099E-01 0.12009258E+04</pdfrwt>
<pdfrwt beam="2">  1       -2 0.14954609E+00 0.12009258E+04</pdfrwt>
<totfact> 0.25773634E+01</totfact>
</mgrwt>
</event>
<event>
12    1  0.1872366E-007  0.1449913E+04  0.7818608E-02  0.8918461E-01
          2   -1    0    0  501    0  0.00000000000E+00  0.00000000000E+00  0.11021897859E+04  0.11021897859E+04  0.00000000000E+00 0. -1.
         -2   -1    0    0    0  501 -0.00000000000E+00 -0.00000000000E+00 -0.47683444965E+03  0.47683444965E+03  0.00000000000E+00 0.  1.
         23    2    1    2    0    0  0.25024789227E+03  0.95178878945E+02  0.56765240885E+03  0.63409471522E+03  0.90353882117E+02 0.  0.
        254    2    1    2    0    0 -0.25024789227E+03 -0.95178878945E+02  0.57702927352E+02  0.94492952028E+03  0.90436670875E+03 0.  0.
        -24    2    4    4    0    0 -0.33281400086E+03 -0.25196233336E+03 -0.31194600359E+03  0.52738602589E+03  0.81089669794E+02 0.  0.
         24    2    4    4    0    0  0.82566108584E+02  0.15678345441E+03  0.36964893095E+03  0.41754349439E+03  0.79397882187E+02 0.  0.
         13    1    3    3    0    0  0.24499177380E+03  0.99888447743E+02  0.49649885730E+03  0.56259202493E+03  0.00000000000E+00 0. -1.
        -13    1    3    3    0    0  0.52561184738E+01 -0.47095687984E+01  0.71153551555E+02  0.71502690289E+02  0.00000000000E+00 0.  1.
          4    1    6    6  502    0 -0.14257426676E+02  0.36756825209E+02  0.63383698552E+02  0.74644702806E+02  0.00000000000E+00 0. -1.
          1    1    5    5  503    0  0.19406216407E+01 -0.10873312504E+02 -0.16219167651E+01  0.11163581466E+02  0.00000000000E+00 0. -1.
         -4    1    5    5    0  503 -0.33475462250E+03 -0.24108902086E+03 -0.31032408683E+03  0.51622244442E+03  0.00000000000E+00 0.  1.
         -3    1    6    6    0  502  0.96823535260E+02  0.12002662921E+03  0.30626523239E+03  0.34289879159E+03  0.00000000000E+00 0.  1.
<mgrwt>
<rscale>  0 0.14499132E+04</rscale>
<asrwt>0</asrwt>
<pdfrwt beam="1">  1        2 0.16956766E+00 0.14499132E+04</pdfrwt>
<pdfrwt beam="2">  1       -2 0.73359147E-01 0.14499132E+04</pdfrwt>
<totfact> 0.35326604E+01</totfact>
</mgrwt>
</event>
<event>
12    1  0.1494110E-007  0.1156523E+04  0.7818608E-02  0.9151786E-01
         -2   -1    0    0    0  501 -0.00000000000E+00  0.00000000000E+00  0.14292732847E+04  0.14292732847E+04  0.00000000000E+00 0.  1.
          2   -1    0    0  501    0  0.00000000000E+00 -0.00000000000E+00 -0.23395568047E+03  0.23395568047E+03  0.00000000000E+00 0. -1.
         23    2    1    2    0    0  0.17120712463E+03  0.57436395944E+02  0.36993936009E+03  0.42177479811E+03  0.91804308589E+02 0.  0.
        254    2    1    2    0    0 -0.17120712463E+03 -0.57436395944E+02  0.82537824416E+03  0.12414541671E+04  0.90958693039E+03 0.  0.
        -24    2    4    4    0    0 -0.13172033483E+03  0.24427093836E+03 -0.65818448344E+02  0.29606576140E+03  0.79399804754E+02 0.  0.
         24    2    4    4    0    0 -0.39486789799E+02 -0.30170733430E+03  0.89119669251E+03  0.94538840569E+03  0.83313688788E+02 0.  0.
         13    1    3    3    0    0  0.11386595542E+02  0.38165422202E+02  0.52997865525E+02  0.66295005544E+02  0.00000000000E+00 0. -1.
        -13    1    3    3    0    0  0.15982052909E+03  0.19270973743E+02  0.31694149457E+03  0.35547979257E+03  0.00000000000E+00 0.  1.
          4    1    6    6  502    0  0.16607014143E+02 -0.49333616872E+02  0.95776918056E+02  0.10900833319E+03  0.00000000000E+00 0. -1.
          1    1    5    5  503    0 -0.34966130642E+02  0.14113724980E+03 -0.16680262147E+02  0.14635772859E+03  0.00000000000E+00 0. -1.
         -2    1    5    5    0  503 -0.96754204189E+02  0.10313368856E+03 -0.49138186198E+02  0.14970803281E+03  0.00000000000E+00 0.  1.
         -3    1    6    6    0  502 -0.56093803943E+02 -0.25237371743E+03  0.79541977445E+03  0.83638007250E+03  0.00000000000E+00 0.  1.
<mgrwt>
<rscale>  0 0.11565234E+04</rscale>
<asrwt>0</asrwt>
<pdfrwt beam="1">  1        2 0.35993182E-01 0.11565234E+04</pdfrwt>
<pdfrwt beam="2">  1       -2 0.21988819E+00 0.11565234E+04</pdfrwt>
<totfact> 0.14213579E+01</totfact>
</mgrwt>
</event>
<event>
12    1  0.1494110E-007  0.1403375E+04  0.7818608E-02  0.8951379E-01
         -2   -1    0    0    0  501 -0.00000000000E+00  0.00000000000E+00  0.21100160594E+03  0.21100160594E+03  0.00000000000E+00 0.  1.
          2   -1    0    0  501    0  0.00000000000E+00 -0.00000000000E+00 -0.23334687413E+04  0.23334687413E+04  0.00000000000E+00 0. -1.
         23    2    1    2    0    0  0.21180400321E+03  0.22139238659E+02 -0.39839892262E+01  0.23018654980E+03  0.87286275397E+02 0.  0.
        254    2    1    2    0    0 -0.21180400321E+03 -0.22139238659E+02 -0.21184831461E+04  0.23142837974E+04  0.90696613661E+03 0.  0.
        -24    2    4    4    0    0 -0.46750451194E+03  0.62335205749E+02 -0.18928435494E+04  0.19522837907E+04  0.78161054684E+02 0.  0.
         24    2    4    4    0    0  0.25570050873E+03 -0.84474444408E+02 -0.22563959672E+03  0.36200000670E+03  0.87247322687E+02 0.  0.
         13    1    3    3    0    0  0.20253013128E+02 -0.22063126546E+02 -0.14593170170E+02  0.33315562570E+02  0.00000000000E+00 0. -1.
        -13    1    3    3    0    0  0.19155099008E+03  0.44202365205E+02  0.10609180943E+02  0.19687098723E+03  0.00000000000E+00 0.  1.
          4    1    6    6  502    0  0.22637274020E+03 -0.81813466435E+02 -0.15718701894E+03  0.28748185981E+03  0.00000000000E+00 0. -1.
          1    1    5    5  503    0 -0.36792754921E+03  0.41825356564E+02 -0.16001036761E+04  0.16423921019E+04  0.00000000000E+00 0. -1.
         -2    1    5    5    0  503 -0.99576962737E+02  0.20509849185E+02 -0.29273987327E+03  0.30989168886E+03  0.00000000000E+00 0.  1.
         -3    1    6    6    0  502  0.29327768534E+02 -0.26609779731E+01 -0.68452577783E+02  0.74518146891E+02  0.00000000000E+00 0.  1.
<mgrwt>
<rscale>  0 0.14033754E+04</rscale>
<asrwt>0</asrwt>
<pdfrwt beam="1">  1        2 0.35899517E+00 0.14033754E+04</pdfrwt>
<pdfrwt beam="2">  1       -2 0.32461788E-01 0.14033754E+04</pdfrwt>
<totfact> 0.37419810E+01</totfact>
</mgrwt>
</event>
<event>
12    1  0.1494110E-007  0.2287849E+04  0.7818608E-02  0.8482727E-01
          2   -1    0    0  501    0  0.00000000000E+00  0.00000000000E+00  0.11088199730E+04  0.11088199730E+04  0.00000000000E+00 0. -1.
         -2   -1    0    0    0  501 -0.00000000000E+00 -0.00000000000E+00 -0.11801405222E+04  0.11801405222E+04  0.00000000000E+00 0.  1.
         23    2    1    2    0    0  0.79676944093E+03 -0.21896140315E+03  0.47214711452E+03  0.95583355023E+03  0.88933907696E+02 0.  0.
        254    2    1    2    0    0 -0.79676944093E+03  0.21896140315E+03 -0.54346766373E+03  0.13331269450E+04  0.89391538300E+03 0.  0.
        -24    2    4    4    0    0 -0.86427145652E+03 -0.34488458103E+02 -0.59652491553E+03  0.10537489749E+04  0.79939495500E+02 0.  0.
         24    2    4    4    0    0  0.67502015596E+02  0.25344986125E+03  0.53057251800E+02  0.27937797013E+03  0.80272186636E+02 0.  0.
         13    1    3    3    0    0  0.47995224582E+03 -0.13514984487E+03  0.33426063232E+03  0.60029143685E+03  0.00000000000E+00 0.  1.
        -13    1    3    3    0    0  0.31681719510E+03 -0.83811558279E+02  0.13788648221E+03  0.35554211338E+03  0.00000000000E+00 0. -1.
          2    1    6    6  502    0  0.73324152767E+02  0.19415102621E+03  0.13737877037E+02  0.20798985942E+03  0.00000000000E+00 0. -1.
          1    1    5    5  503    0 -0.73399475783E+03 -0.56466639170E+02 -0.51654835507E+03  0.89931028516E+03  0.00000000000E+00 0. -1.
         -2    1    5    5    0  503 -0.13027669869E+03  0.21978181067E+02 -0.79976560462E+02  0.15443868974E+03  0.00000000000E+00 0.  1.
         -3    1    6    6    0  502 -0.58221371714E+01  0.59298835042E+02  0.39319374763E+02  0.71388110707E+02  0.00000000000E+00 0.  1.
<mgrwt>
<rscale>  0 0.22878491E+04</rscale>
<asrwt>0</asrwt>
<pdfrwt beam="1">  1        2 0.17058769E+00 0.22878491E+04</pdfrwt>
<pdfrwt beam="2">  1       -2 0.18156008E+00 0.22878491E+04</pdfrwt>
<totfact> 0.34534752E+00</totfact>
</mgrwt>
</event>
<event>
12    1  0.1494110E-007  0.1153506E+04  0.7818608E-02  0.9154555E-01
          2   -1    0    0  501    0  0.00000000000E+00  0.00000000000E+00  0.24547666202E+04  0.24547666202E+04  0.00000000000E+00 0. -1.
         -2   -1    0    0    0  501 -0.00000000000E+00 -0.00000000000E+00 -0.13550952686E+03  0.13550952686E+03  0.00000000000E+00 0.  1.
         23    2    1    2    0    0  0.56793191188E+02  0.18925132223E+03  0.44515739049E+03  0.49551998227E+03  0.91287573026E+02 0.  0.
        254    2    1    2    0    0 -0.56793191188E+02 -0.18925132223E+03  0.18740997029E+04  0.20947561648E+04  0.91471971892E+03 0.  0.
        -24    2    4    4    0    0  0.26911558025E+03 -0.37819411059E+03  0.14347397361E+04  0.15104888558E+04  0.87432786946E+02 0.  0.
         24    2    4    4    0    0 -0.32590877144E+03  0.18894278837E+03  0.43935996677E+03  0.58426730904E+03  0.80094965115E+02 0.  0.
         11    1    3    3    0    0  0.71708436519E+02  0.18663779654E+03  0.38923692511E+03  0.43758559258E+03  0.00000000000E+00 0.  1.
        -11    1    3    3    0    0 -0.14915245331E+02  0.26135256813E+01  0.55920465386E+02  0.57934389690E+02  0.00000000000E+00 0. -1.
          2    1    6    6  502    0 -0.59200368618E+02  0.70977016469E+02  0.87657981156E+02  0.12738266040E+03  0.00000000000E+00 0. -1.
          3    1    5    5  503    0  0.10117062207E+03 -0.21424380765E+03  0.76186361311E+03  0.79785466651E+03  0.00000000000E+00 0. -1.
         -4    1    5    5    0  503  0.16794495818E+03 -0.16395030294E+03  0.67287612301E+03  0.71263418928E+03  0.00000000000E+00 0.  1.
         -1    1    6    6    0  502 -0.26670840282E+03  0.11796577190E+03  0.35170198562E+03  0.45688464864E+03  0.00000000000E+00 0.  1.
<mgrwt>
<rscale>  0 0.11535064E+04</rscale>
<asrwt>0</asrwt>
<pdfrwt beam="1">  1        2 0.37765637E+00 0.11535064E+04</pdfrwt>
<pdfrwt beam="2">  1       -2 0.20847621E-01 0.11535064E+04</pdfrwt>
<totfact> 0.73183116E+01</totfact>
</mgrwt>
</event>
<event>
12    1  0.1494110E-007  0.2046004E+04  0.7818608E-02  0.8585409E-01
         -1   -1    0    0    0  501 -0.00000000000E+00  0.00000000000E+00  0.93516173548E+03  0.93516173548E+03  0.00000000000E+00 0.  1.
          1   -1    0    0  501    0  0.00000000000E+00 -0.00000000000E+00 -0.11190934169E+04  0.11190934169E+04  0.00000000000E+00 0. -1.
         23    2    1    2    0    0  0.65901213035E+03 -0.46723160241E+03 -0.18391943100E+03  0.83403376455E+03  0.95831127856E+02 0.  0.
        254    2    1    2    0    0 -0.65901213035E+03  0.46723160241E+03 -0.12250386804E-01  0.12202213878E+04  0.91451510477E+03 0.  0.
        -24    2    4    4    0    0 -0.85494199236E+03  0.32207183050E+03 -0.14226814876E+03  0.92817480441E+03  0.81315232782E+02 0.  0.
         24    2    4    4    0    0  0.19592986201E+03  0.14515977190E+03  0.14225589837E+03  0.29204658339E+03  0.74797032340E+02 0.  0.
         13    1    3    3    0    0  0.41291574312E+03 -0.29159547868E+03 -0.67206180398E+02  0.50994509978E+03  0.00000000000E+00 0.  1.
        -13    1    3    3    0    0  0.24609638724E+03 -0.17563612372E+03 -0.11671325060E+03  0.32408866477E+03  0.00000000000E+00 0. -1.
          2    1    6    6  502    0  0.98380298730E+02  0.11803701738E+03  0.80872455798E+02  0.17364266399E+03  0.00000000000E+00 0. -1.
          1    1    5    5  503    0 -0.12789659688E+03  0.18151500511E+02 -0.18088384937E+02  0.13043851477E+03  0.00000000000E+00 0. -1.
         -2    1    5    5    0  503 -0.72704539548E+03  0.30392032999E+03 -0.12417976382E+03  0.79773628964E+03  0.00000000000E+00 0.  1.
         -1    1    6    6    0  502  0.97549563275E+02  0.27122754517E+02  0.61383442572E+02  0.11840391940E+03  0.00000000000E+00 0.  1.
<mgrwt>
<rscale>  0 0.20460042E+04</rscale>
<asrwt>0</asrwt>
<pdfrwt beam="1">  1        1 0.17216822E+00 0.20460042E+04</pdfrwt>
<pdfrwt beam="2">  1       -1 0.14387104E+00 0.20460042E+04</pdfrwt>
<totfact> 0.44217376E+00</totfact>
</mgrwt>
</event>
<event>
12    1  0.1494110E-007  0.1342479E+04  0.7818608E-02  0.8996541E-01
          2   -1    0    0  501    0  0.00000000000E+00  0.00000000000E+00  0.11724238042E+04  0.11724238042E+04  0.00000000000E+00 0.  1.
         -2   -1    0    0    0  501 -0.00000000000E+00 -0.00000000000E+00 -0.38429997796E+03  0.38429997796E+03  0.00000000000E+00 0. -1.
         23    2    1    2    0    0 -0.27888021715E+03  0.19430858060E+03  0.36805487648E+03  0.50860826608E+03  0.87681105217E+02 0.  0.
        254    2    1    2    0    0  0.27888021715E+03 -0.19430858060E+03  0.42006894979E+03  0.10481155161E+04  0.89808586033E+03 0.  0.
        -24    2    4    4    0    0  0.52099230691E+03 -0.52909618982E+02 -0.84651659103E+01  0.52981594358E+03  0.80005396054E+02 0.  0.
         24    2    4    4    0    0 -0.24211208976E+03 -0.14139896162E+03  0.42853411570E+03  0.51829957253E+03  0.79881338348E+02 0.  0.
         13    1    3    3    0    0 -0.84293233765E+02  0.51799343041E+02  0.16924109789E+03  0.19603844116E+03  0.00000000000E+00 0.  1.
        -13    1    3    3    0    0 -0.19458698338E+03  0.14250923756E+03  0.19881377859E+03  0.31256982492E+03  0.00000000000E+00 0. -1.
          4    1    6    6  502    0 -0.66944939396E+01  0.65919190429E+01  0.36310958906E+02  0.37506737827E+02  0.00000000000E+00 0. -1.
          3    1    5    5  503    0  0.15850058211E+03 -0.22886878843E+02  0.33685596537E+02  0.16364890212E+03  0.00000000000E+00 0. -1.
         -4    1    5    5    0  503  0.36249172480E+03 -0.30022740139E+02 -0.42150762447E+02  0.36616704146E+03  0.00000000000E+00 0.  1.
         -3    1    6    6    0  502 -0.23541759582E+03 -0.14799088066E+03  0.39222315680E+03  0.48079283471E+03  0.00000000000E+00 0.  1.
<mgrwt>
<rscale>  0 0.13424790E+04</rscale>
<asrwt>0</asrwt>
<pdfrwt beam="1">  1        2 0.18037289E+00 0.13424790E+04</pdfrwt>
<pdfrwt beam="2">  1       -2 0.59123074E-01 0.13424790E+04</pdfrwt>
<totfact> 0.51380340E+01</totfact>
</mgrwt>
</event>
<event>
12    1  0.1494110E-007  0.1406151E+04  0.7818608E-02  0.8949378E-01
          1   -1    0    0  501    0  0.00000000000E+00  0.00000000000E+00  0.10609791152E+04  0.10609791152E+04  0.00000000000E+00 0. -1.
         -1   -1    0    0    0  501 -0.00000000000E+00 -0.00000000000E+00 -0.46590500237E+03  0.46590500237E+03  0.00000000000E+00 0.  1.
         23    2    1    2    0    0 -0.94185725821E+02 -0.40124124439E+03  0.13808204651E+03  0.44516384668E+03  0.96118217159E+02 0.  0.
        254    2    1    2    0    0  0.94185725821E+02  0.40124124439E+03  0.45699206628E+03  0.10817202709E+04  0.88961312299E+03 0.  0.
        -24    2    4    4    0    0  0.34910522630E+03 -0.46437334126E+02 -0.37259354295E+02  0.36327915992E+03  0.80948153273E+02 0.  0.
         24    2    4    4    0    0 -0.25491950048E+03  0.44767857852E+03  0.49425142058E+03  0.71844111094E+03  0.80455588719E+02 0.  0.
         13    1    3    3    0    0 -0.74179048027E+02 -0.23543075720E+03  0.36073888259E+02  0.24946241804E+03  0.00000000000E+00 0.  1.
        -13    1    3    3    0    0 -0.20006677793E+02 -0.16581048719E+03  0.10200815825E+03  0.19570142863E+03  0.00000000000E+00 0. -1.
          2    1    6    6  502    0 -0.19954688164E+03  0.29354989251E+03  0.37116904980E+03  0.51357274158E+03  0.00000000000E+00 0. -1.
          3    1    5    5  503    0  0.24154280229E+03 -0.57917718059E+02  0.14341611996E+01  0.24839372823E+03  0.00000000000E+00 0. -1.
         -4    1    5    5    0  503  0.10756242401E+03  0.11480383933E+02 -0.38693515495E+02  0.11488543170E+03  0.00000000000E+00 0.  1.
         -1    1    6    6    0  502 -0.55372618841E+02  0.15412868601E+03  0.12308237078E+03  0.20486836936E+03  0.00000000000E+00 0.  1.
<mgrwt>
<rscale>  0 0.14061515E+04</rscale>
<asrwt>0</asrwt>
<pdfrwt beam="1">  1        1 0.16322756E+00 0.14061515E+04</pdfrwt>
<pdfrwt beam="2">  1       -1 0.71677693E-01 0.14061515E+04</pdfrwt>
<totfact> 0.25996064E+01</totfact>
</mgrwt>
</event>
<event>
12    1  0.1494110E-007  0.1934131E+04  0.7818608E-02  0.8638051E-01
         -1   -1    0    0    0  501 -0.00000000000E+00  0.00000000000E+00  0.41809141258E+03  0.41809141258E+03  0.00000000000E+00 0.  1.
          1   -1    0    0  501    0  0.00000000000E+00 -0.00000000000E+00 -0.22368687249E+04  0.22368687249E+04  0.00000000000E+00 0. -1.
         23    2    1    2    0    0 -0.58260896395E+03 -0.43830229196E+03 -0.97910063545E+03  0.12246885752E+04  0.98396889248E+02 0.  0.
        254    2    1    2    0    0  0.58260896395E+03  0.43830229196E+03 -0.83967667687E+03  0.14302715623E+04  0.89948747419E+03 0.  0.
        -24    2    4    4    0    0  0.30954794065E+03 -0.15595608710E+03 -0.65515162937E+03  0.74582397237E+03  0.82991033462E+02 0.  0.
         24    2    4    4    0    0  0.27306102330E+03  0.59425837906E+03 -0.18452504750E+03  0.68444758993E+03  0.81936967720E+02 0.  0.
         13    1    3    3    0    0 -0.49564892278E+03 -0.33060376277E+03 -0.76303973727E+03  0.96808901619E+03  0.00000000000E+00 0. -1.
        -13    1    3    3    0    0 -0.86960041167E+02 -0.10769852919E+03 -0.21606089818E+03  0.25659955898E+03  0.00000000000E+00 0.  1.
          2    1    6    6  502    0  0.27961902037E+02  0.13778531925E+03 -0.29706315941E+02  0.14369804234E+03  0.00000000000E+00 0. -1.
          3    1    5    5  503    0  0.18694144556E+03 -0.62226284821E+02 -0.30411715281E+03  0.36236232865E+03  0.00000000000E+00 0. -1.
         -4    1    5    5    0  503  0.12260649509E+03 -0.93729802275E+02 -0.35103447655E+03  0.38346164372E+03  0.00000000000E+00 0.  1.
         -1    1    6    6    0  502  0.24509912126E+03  0.45647305981E+03 -0.15481873156E+03  0.54074954759E+03  0.00000000000E+00 0.  1.
<mgrwt>
<rscale>  0 0.19341309E+04</rscale>
<asrwt>0</asrwt>
<pdfrwt beam="1">  1        1 0.34413364E+00 0.19341309E+04</pdfrwt>
<pdfrwt beam="2">  1       -1 0.64321757E-01 0.19341309E+04</pdfrwt>
<totfact> 0.47017184E+00</totfact>
</mgrwt>
</event>
<event>
12    1  0.1494110E-007  0.1521091E+04  0.7818608E-02  0.8870547E-01
         -2   -1    0    0    0  501 -0.00000000000E+00  0.00000000000E+00  0.69359988991E+03  0.69359988991E+03  0.00000000000E+00 0.  1.
          2   -1    0    0  501    0  0.00000000000E+00 -0.00000000000E+00 -0.83395289036E+03  0.83395289036E+03  0.00000000000E+00 0. -1.
         23    2    1    2    0    0  0.17725014683E+03  0.12668559425E+03 -0.46950144212E+03  0.52536679640E+03  0.90065599743E+02 0.  0.
        254    2    1    2    0    0 -0.17725014683E+03 -0.12668559425E+03  0.32914844167E+03  0.10021859839E+04  0.92117924166E+03 0.  0.
        -24    2    4    4    0    0 -0.42763017596E+03  0.23541991414E+03  0.21564487090E+03  0.53954181030E+03  0.79451566065E+02 0.  0.
         24    2    4    4    0    0  0.25038002913E+03 -0.36210550839E+03  0.11350357078E+03  0.46264417357E+03  0.85708882681E+02 0.  0.
         11    1    3    3    0    0  0.60406310330E+02  0.74321133185E+02 -0.28599711671E+03  0.30160720139E+03  0.00000000000E+00 0. -1.
        -11    1    3    3    0    0  0.11684383650E+03  0.52364461065E+02 -0.18350432542E+03  0.22375959501E+03  0.00000000000E+00 0.  1.
          2    1    6    6  502    0  0.20314714499E+03 -0.27680187399E+03  0.51748575101E+02  0.34722608627E+03  0.00000000000E+00 0. -1.
          1    1    5    5  503    0 -0.38378957441E+03  0.23134715251E+03  0.18012454954E+03  0.48297080217E+03  0.00000000000E+00 0. -1.
         -2    1    5    5    0  503 -0.43840601549E+02  0.40727616293E+01  0.35520321354E+02  0.56571008128E+02  0.00000000000E+00 0.  1.
         -1    1    6    6    0  502  0.47232884140E+02 -0.85303634394E+02  0.61754995675E+02  0.11541808730E+03  0.00000000000E+00 0.  1.
<mgrwt>
<rscale>  0 0.15210912E+04</rscale>
<asrwt>0</asrwt>
<pdfrwt beam="1">  1        2 0.12830044E+00 0.15210912E+04</pdfrwt>
<pdfrwt beam="2">  1       -2 0.10670768E+00 0.15210912E+04</pdfrwt>
<totfact> 0.22221885E+01</totfact>
</mgrwt>
</event>
<event>
12    1  0.1494110E-007  0.1992119E+04  0.7818608E-02  0.8610314E-01
          2   -1    0    0  501    0  0.00000000000E+00  0.00000000000E+00  0.12748858613E+04  0.12748858613E+04  0.00000000000E+00 0. -1.
         -2   -1    0    0    0  501 -0.00000000000E+00 -0.00000000000E+00 -0.77821474926E+03  0.77821474926E+03  0.00000000000E+00 0.  1.
         23    2    1    2    0    0  0.29855963167E+03 -0.74034017144E+03  0.21206142474E+03  0.83128988367E+03  0.93975527301E+02 0.  0.
        254    2    1    2    0    0 -0.29855963167E+03  0.74034017144E+03  0.28460968726E+03  0.12218107269E+04  0.88010076416E+03 0.  0.
        -24    2    4    4    0    0 -0.55256743920E+03  0.34104958440E+03 -0.17271799003E+02  0.65458498971E+03  0.80855425449E+02 0.  0.
         24    2    4    4    0    0  0.25400780753E+03  0.39929058703E+03  0.30188148626E+03  0.56722573714E+03  0.81606776394E+02 0.  0.
         13    1    3    3    0    0  0.25763393982E+03 -0.69617115336E+03  0.20816657864E+03  0.77094931492E+03  0.00000000000E+00 0.  1.
        -13    1    3    3    0    0  0.40925691849E+02 -0.44169018079E+02  0.38948461024E+01  0.60340568754E+02  0.00000000000E+00 0. -1.
          4    1    6    6  502    0  0.67846367749E+02  0.59211377752E+02  0.80423233097E+02  0.12073530260E+03  0.00000000000E+00 0. -1.
          3    1    5    5  503    0 -0.18284173233E+03  0.73568103443E+02  0.10821590020E+02  0.19738407164E+03  0.00000000000E+00 0. -1.
         -4    1    5    5    0  503 -0.36972570687E+03  0.26748148096E+03 -0.28093389023E+02  0.45720091807E+03  0.00000000000E+00 0.  1.
         -3    1    6    6    0  502  0.18616143978E+03  0.34007920928E+03  0.22145825316E+03  0.44649043455E+03  0.00000000000E+00 0.  1.
<mgrwt>
<rscale>  0 0.19921195E+04</rscale>
<asrwt>0</asrwt>
<pdfrwt beam="1">  1        2 0.19613629E+00 0.19921195E+04</pdfrwt>
<pdfrwt beam="2">  1       -2 0.11972535E+00 0.19921195E+04</pdfrwt>
<totfact> 0.84914813E+00</totfact>
</mgrwt>
</event>
<event>
12    1  0.1494110E-007  0.1170096E+04  0.7818608E-02  0.9139442E-01
         -2   -1    0    0    0  501 -0.00000000000E+00  0.00000000000E+00  0.35115331002E+03  0.35115331002E+03  0.00000000000E+00 0.  1.
          2   -1    0    0  501    0  0.00000000000E+00 -0.00000000000E+00 -0.97473367433E+03  0.97473367433E+03  0.00000000000E+00 0. -1.
         23    2    1    2    0    0 -0.72411404117E+02 -0.20537867385E+03 -0.16373282096E+03  0.28864797357E+03  0.95317390161E+02 0.  0.
        254    2    1    2    0    0  0.72411404117E+02  0.20537867385E+03 -0.45984754335E+03  0.10372390108E+04  0.90387011857E+03 0.  0.
        -24    2    4    4    0    0  0.99437984553E+02  0.53637524772E+02  0.26110773762E+03  0.29567782391E+03  0.80518495220E+02 0.  0.
         24    2    4    4    0    0 -0.27026580436E+02  0.15174114908E+03 -0.72095528098E+03  0.74156118687E+03  0.79879060623E+02 0.  0.
         13    1    3    3    0    0 -0.14740166582E+02 -0.10597217016E+02  0.10544702257E+02  0.20994386512E+02  0.00000000000E+00 0.  1.
        -13    1    3    3    0    0 -0.57671237535E+02 -0.19478145683E+03 -0.17427752322E+03  0.26765358706E+03  0.00000000000E+00 0. -1.
          2    1    6    6  502    0 -0.41537704348E+02  0.12391880912E+03 -0.66197129174E+03  0.67474976341E+03  0.00000000000E+00 0. -1.
          1    1    5    5  503    0  0.96390361129E+02  0.71699530757E+02  0.21970510159E+03  0.25040418545E+03  0.00000000000E+00 0. -1.
         -2    1    5    5    0  503  0.30476234241E+01 -0.18062005985E+02  0.41402636036E+02  0.45273638461E+02  0.00000000000E+00 0.  1.
         -1    1    6    6    0  502  0.14511123912E+02  0.27822339956E+02 -0.58983989235E+02  0.66811423453E+02  0.00000000000E+00 0.  1.
<mgrwt>
<rscale>  0 0.11700956E+04</rscale>
<asrwt>0</asrwt>
<pdfrwt beam="1">  1        2 0.14995903E+00 0.11700956E+04</pdfrwt>
<pdfrwt beam="2">  1       -2 0.54023586E-01 0.11700956E+04</pdfrwt>
<totfact> 0.83438775E+01</totfact>
</mgrwt>
</event>
<event>
12    1  0.1494110E-007  0.1083048E+04  0.7818608E-02  0.9221874E-01
         -2   -1    0    0    0  501 -0.00000000000E+00  0.00000000000E+00  0.20822935001E+03  0.20822935001E+03  0.00000000000E+00 0.  1.
          2   -1    0    0  501    0  0.00000000000E+00 -0.00000000000E+00 -0.14082937202E+04  0.14082937202E+04  0.00000000000E+00 0. -1.
         23    2    1    2    0    0 -0.38463747586E+02  0.90491511678E+02 -0.37024098797E+03  0.39382197401E+03  0.91373871936E+02 0.  0.
        254    2    1    2    0    0  0.38463747586E+02 -0.90491511678E+02 -0.82982338222E+03  0.12227010962E+04  0.89259338526E+03 0.  0.
        -24    2    4    4    0    0  0.26296594051E+03  0.60419286246E+02 -0.89068972900E+03  0.93407741229E+03  0.79817559435E+02 0.  0.
         24    2    4    4    0    0 -0.22450219293E+03 -0.15091079792E+03  0.60866346778E+02  0.28862368391E+03  0.80147459003E+02 0.  0.
         13    1    3    3    0    0 -0.23529366594E+01  0.14610640872E+02 -0.22895896459E+03  0.22943673333E+03  0.00000000000E+00 0. -1.
        -13    1    3    3    0    0 -0.36110810927E+02  0.75880870806E+02 -0.14128202339E+03  0.16438524068E+03  0.00000000000E+00 0.  1.
          4    1    6    6  502    0 -0.22993202997E+03 -0.14232691343E+03  0.52504904927E+02  0.27546769998E+03  0.00000000000E+00 0. -1.
          1    1    5    5  503    0  0.17347886800E+03  0.14318616101E+02 -0.46138858554E+03  0.49313220060E+03  0.00000000000E+00 0. -1.
         -2    1    5    5    0  503  0.89487072518E+02  0.46100670145E+02 -0.42930114346E+03  0.44094521169E+03  0.00000000000E+00 0.  1.
         -3    1    6    6    0  502  0.54298370413E+01 -0.85838844910E+01  0.83614418509E+01  0.13155983927E+02  0.00000000000E+00 0.  1.
<mgrwt>
<rscale>  0 0.10830477E+04</rscale>
<asrwt>0</asrwt>
<pdfrwt beam="1">  1        2 0.21666058E+00 0.10830477E+04</pdfrwt>
<pdfrwt beam="2">  1       -2 0.32035283E-01 0.10830477E+04</pdfrwt>
<totfact> 0.12882860E+02</totfact>
</mgrwt>
</event>
<event>
12    1  0.1494110E-007  0.2163564E+04  0.7818608E-02  0.8533749E-01
          1   -1    0    0  501    0  0.00000000000E+00  0.00000000000E+00  0.11731786908E+04  0.11731786908E+04  0.00000000000E+00 0. -1.
         -1   -1    0    0    0  501 -0.00000000000E+00 -0.00000000000E+00 -0.99750523601E+03  0.99750523601E+03  0.00000000000E+00 0.  1.
         23    2    1    2    0    0 -0.85689499140E+03  0.14539085201E+03 -0.14133299831E+03  0.88514573037E+03  0.90002341341E+02 0.  0.
        254    2    1    2    0    0  0.85689499140E+03 -0.14539085201E+03  0.31700645310E+03  0.12855381964E+04  0.89258491868E+03 0.  0.
        -24    2    4    4    0    0  0.26966487268E+03 -0.32889502625E+03 -0.20173653427E+03  0.47699365075E+03  0.77033964906E+02 0.  0.
         24    2    4    4    0    0  0.58723011872E+03  0.18350417424E+03  0.51874298737E+03  0.80854454569E+03  0.78339013978E+02 0.  0.
         11    1    3    3    0    0 -0.61652908678E+03  0.77577233594E+02 -0.69459901178E+02  0.62526076151E+03  0.00000000000E+00 0. -1.
        -11    1    3    3    0    0 -0.24036590463E+03  0.67813618412E+02 -0.71873097129E+02  0.25988496886E+03  0.00000000000E+00 0.  1.
          2    1    6    6  502    0  0.58837734925E+03  0.18447455565E+03  0.51998135866E+03  0.80659740897E+03  0.00000000000E+00 0. -1.
          1    1    5    5  503    0  0.11321334013E+03 -0.81499678678E+02 -0.62880653329E+02  0.15301449138E+03  0.00000000000E+00 0. -1.
         -2    1    5    5    0  503  0.15645153254E+03 -0.24739534757E+03 -0.13885588094E+03  0.32397915937E+03  0.00000000000E+00 0.  1.
         -1    1    6    6    0  502 -0.11472305288E+01 -0.97038140911E+00 -0.12383712874E+01  0.19471367211E+01  0.00000000000E+00 0.  1.
<mgrwt>
<rscale>  0 0.21635636E+04</rscale>
<asrwt>0</asrwt>
<pdfrwt beam="1">  1        1 0.18048903E+00 0.21635636E+04</pdfrwt>
<pdfrwt beam="2">  1       -1 0.15346234E+00 0.21635636E+04</pdfrwt>
<totfact> 0.33542280E+00</totfact>
</mgrwt>
</event>
<event>
12    1  0.1494110E-007  0.1581087E+04  0.7818608E-02  0.8832252E-01
          2   -1    0    0  501    0  0.00000000000E+00  0.00000000000E+00  0.19112446815E+04  0.19112446815E+04  0.00000000000E+00 0. -1.
         -2   -1    0    0    0  501 -0.00000000000E+00 -0.00000000000E+00 -0.32699043123E+03  0.32699043123E+03  0.00000000000E+00 0.  1.
         23    2    1    2    0    0  0.24362783427E+03 -0.21344005672E+03  0.11434250658E+04  0.11919835319E+04  0.92155736083E+02 0.  0.
        254    2    1    2    0    0 -0.24362783427E+03  0.21344005672E+03  0.44082918448E+03  0.10462515809E+04  0.89185246601E+03 0.  0.
        -24    2    4    4    0    0 -0.39089607857E+03  0.36831589687E+03 -0.77016351456E+01  0.54309939863E+03  0.80257694172E+02 0.  0.
         24    2    4    4    0    0  0.14726824430E+03 -0.15487584015E+03  0.44853081963E+03  0.50315218224E+03  0.79421412070E+02 0.  0.
         13    1    3    3    0    0  0.21446910896E+03 -0.13620942224E+03  0.84819476184E+03  0.88542891269E+03  0.00000000000E+00 0. -1.
        -13    1    3    3    0    0  0.29158725309E+02 -0.77230634485E+02  0.29523030398E+03  0.30655461920E+03  0.00000000000E+00 0.  1.
          2    1    6    6  502    0  0.15711373761E+03 -0.14638412957E+03  0.41693836409E+03  0.46898895444E+03  0.00000000000E+00 0. -1.
          1    1    5    5  503    0 -0.37077177181E+03  0.32223960540E+03  0.49286719954E+01  0.49125793822E+03  0.00000000000E+00 0. -1.
         -2    1    5    5    0  503 -0.20124306763E+02  0.46076291470E+02 -0.12630307141E+02  0.51841460403E+02  0.00000000000E+00 0.  1.
         -1    1    6    6    0  502 -0.98454933046E+01 -0.84917105841E+01  0.31592455536E+02  0.34163227802E+02  0.00000000000E+00 0.  1.
<mgrwt>
<rscale>  0 0.15810866E+04</rscale>
<asrwt>0</asrwt>
<pdfrwt beam="1">  1        2 0.29403764E+00 0.15810866E+04</pdfrwt>
<pdfrwt beam="2">  1       -2 0.50306221E-01 0.15810866E+04</pdfrwt>
<totfact> 0.26866050E+01</totfact>
</mgrwt>
</event>
<event>
12    1  0.1494110E-007  0.1266940E+04  0.7818608E-02  0.9056201E-01
          2   -1    0    0  501    0  0.00000000000E+00  0.00000000000E+00  0.35192234913E+04  0.35192234913E+04  0.00000000000E+00 0. -1.
         -2   -1    0    0    0  501 -0.00000000000E+00 -0.00000000000E+00 -0.11402629446E+03  0.11402629446E+03  0.00000000000E+00 0.  1.
         23    2    1    2    0    0 -0.59034814966E+02 -0.33427690000E+02  0.92480142123E+01  0.12015402383E+03  0.98736740062E+02 0.  0.
        254    2    1    2    0    0  0.59034814966E+02  0.33427690000E+02  0.33959491826E+04  0.35130957619E+04  0.89708888172E+03 0.  0.
        -24    2    4    4    0    0  0.41458735173E+03 -0.19451566120E+03  0.15487457270E+04  0.16165668281E+04  0.70398638041E+02 0.  0.
         24    2    4    4    0    0 -0.35555253677E+03  0.22794335120E+03  0.18472034557E+04  0.18965289338E+04  0.79281854962E+02 0.  0.
         13    1    3    3    0    0 -0.61249696399E+02 -0.58567751705E+02 -0.13937121600E+02  0.85883352329E+02  0.00000000000E+00 0.  1.
        -13    1    3    3    0    0  0.22148814333E+01  0.25140061705E+02  0.23185135813E+02  0.34270671498E+02  0.00000000000E+00 0. -1.
          4    1    6    6  502    0 -0.28641250408E+02  0.49513115242E+02  0.25913400908E+03  0.26537201146E+03  0.00000000000E+00 0. -1.
          1    1    5    5  503    0  0.10130314302E+03 -0.61213097980E+02  0.50544212310E+03  0.51911569996E+03  0.00000000000E+00 0. -1.
         -2    1    5    5    0  503  0.31328420871E+03 -0.13330256322E+03  0.10433036039E+04  0.10974511281E+04  0.00000000000E+00 0.  1.
         -3    1    6    6    0  502 -0.32691128636E+03  0.17843023596E+03  0.15880694466E+04  0.16311569224E+04  0.00000000000E+00 0.  1.
<mgrwt>
<rscale>  0 0.12669396E+04</rscale>
<asrwt>0</asrwt>
<pdfrwt beam="1">  1        2 0.54141892E+00 0.12669396E+04</pdfrwt>
<pdfrwt beam="2">  1       -2 0.17542509E-01 0.12669396E+04</pdfrwt>
<totfact> 0.21276583E+01</totfact>
</mgrwt>
</event>
<event>
12    1  0.1494110E-007  0.1845955E+04  0.7818608E-02  0.8682236E-01
         -2   -1    0    0    0  501 -0.00000000000E+00  0.00000000000E+00  0.41339707462E+03  0.41339707462E+03  0.00000000000E+00 0.  1.
          2   -1    0    0  501    0  0.00000000000E+00 -0.00000000000E+00 -0.20606998456E+04  0.20606998456E+04  0.00000000000E+00 0. -1.
         23    2    1    2    0    0  0.35814790993E+02 -0.27000845162E+03  0.23426424884E+03  0.37060373673E+03  0.90995209743E+02 0.  0.
        254    2    1    2    0    0 -0.35814790993E+02  0.27000845162E+03 -0.18815670198E+04  0.21034931834E+04  0.90011213727E+03 0.  0.
        -24    2    4    4    0    0  0.38388008313E+03 -0.35793814655E+02 -0.59366700087E+03  0.71258142802E+03  0.81772050544E+02 0.  0.
         24    2    4    4    0    0 -0.41969487412E+03  0.30580226628E+03 -0.12879000189E+04  0.13909117554E+04  0.79311028473E+02 0.  0.
         13    1    3    3    0    0  0.63343772464E+02 -0.13364379098E+03  0.12689603972E+03  0.19487355201E+03  0.00000000000E+00 0. -1.
        -13    1    3    3    0    0 -0.27528981471E+02 -0.13636466064E+03  0.10736820912E+03  0.17573018472E+03  0.00000000000E+00 0.  1.
          4    1    6    6  502    0 -0.38166969319E+02  0.35017937164E+01 -0.10460582789E+03  0.11140628050E+03  0.00000000000E+00 0. -1.
          3    1    5    5  503    0  0.24630546698E+03 -0.14855365556E+02 -0.30658596878E+03  0.39355053195E+03  0.00000000000E+00 0. -1.
         -4    1    5    5    0  503  0.13757461615E+03 -0.20938449098E+02 -0.28708103209E+03  0.31903089607E+03  0.00000000000E+00 0.  1.
         -3    1    6    6    0  502 -0.38152790480E+03  0.30230047256E+03 -0.11832941910E+04  0.12795054749E+04  0.00000000000E+00 0.  1.
<mgrwt>
<rscale>  0 0.18459548E+04</rscale>
<asrwt>0</asrwt>
<pdfrwt beam="1">  1        2 0.31703075E+00 0.18459548E+04</pdfrwt>
<pdfrwt beam="2">  1       -2 0.63599550E-01 0.18459548E+04</pdfrwt>
<totfact> 0.13299603E+01</totfact>
</mgrwt>
</event>
<event>
12    1  0.1494110E-007  0.1334931E+04  0.7818608E-02  0.9002314E-01
         -2   -1    0    0    0  501 -0.00000000000E+00  0.00000000000E+00  0.36838734260E+03  0.36838734260E+03  0.00000000000E+00 0.  1.
          2   -1    0    0  501    0  0.00000000000E+00 -0.00000000000E+00 -0.12093522665E+04  0.12093522665E+04  0.00000000000E+00 0. -1.
         23    2    1    2    0    0 -0.26962291360E+03  0.31979290971E+01 -0.39613242263E+03  0.48792182776E+03  0.91869861517E+02 0.  0.
        254    2    1    2    0    0  0.26962291360E+03 -0.31979290971E+01 -0.44483250129E+03  0.10898177814E+04  0.95766387636E+03 0.  0.
        -24    2    4    4    0    0  0.34213882685E+03  0.11725600482E+03  0.20284082057E+03  0.42229299684E+03  0.79868824866E+02 0.  0.
         24    2    4    4    0    0 -0.72515913253E+02 -0.12045393392E+03 -0.64767332186E+03  0.66752478453E+03  0.79629757252E+02 0.  0.
         13    1    3    3    0    0 -0.18536367495E+03  0.27837964710E+01 -0.19107473042E+03  0.26622733541E+03  0.00000000000E+00 0.  1.
        -13    1    3    3    0    0 -0.84259238649E+02  0.41413262616E+00 -0.20505769221E+03  0.22169449235E+03  0.00000000000E+00 0. -1.
          2    1    6    6  502    0 -0.83406745508E+02 -0.81968647841E+02 -0.40377192344E+03  0.42036568674E+03  0.00000000000E+00 0. -1.
          3    1    5    5  503    0  0.32088239499E+03  0.12891402523E+03  0.18494116301E+03  0.39215758452E+03  0.00000000000E+00 0. -1.
         -4    1    5    5    0  503  0.21256431856E+02 -0.11658020411E+02  0.17899657556E+02  0.30135412321E+02  0.00000000000E+00 0.  1.
         -3    1    6    6    0  502  0.10890832254E+02 -0.38485286077E+02 -0.24390139841E+03  0.24715909779E+03  0.00000000000E+00 0.  1.
<mgrwt>
<rscale>  0 0.13349308E+04</rscale>
<asrwt>0</asrwt>
<pdfrwt beam="1">  1        2 0.18605419E+00 0.13349308E+04</pdfrwt>
<pdfrwt beam="2">  1       -2 0.56674976E-01 0.13349308E+04</pdfrwt>
<totfact> 0.53387923E+01</totfact>
</mgrwt>
</event>
<event>
12    1  0.1494110E-007  0.1983596E+04  0.7818608E-02  0.8614329E-01
         -3   -1    0    0    0  501 -0.00000000000E+00  0.00000000000E+00  0.67483928210E+03  0.67483928210E+03  0.00000000000E+00 0.  1.
          3   -1    0    0  501    0  0.00000000000E+00 -0.00000000000E+00 -0.14576253244E+04  0.14576253244E+04  0.00000000000E+00 0. -1.
         23    2    1    2    0    0 -0.10957564660E+03  0.34981343675E+03 -0.10590247892E+04  0.11242431470E+04  0.89514728825E+02 0.  0.
        254    2    1    2    0    0  0.10957564660E+03 -0.34981343675E+03  0.27623874687E+03  0.10082214595E+04  0.89767834062E+03 0.  0.
        -24    2    4    4    0    0 -0.28341388352E+03  0.10685718911E+03  0.24822077750E+03  0.39933192758E+03  0.78169979954E+02 0.  0.
         24    2    4    4    0    0  0.39298953012E+03 -0.45667062587E+03  0.28017969368E+02  0.60888953190E+03  0.83502240260E+02 0.  0.
         11    1    3    3    0    0 -0.27269736632E+02  0.18639019664E+02 -0.59267081887E+02  0.67850118536E+02  0.00000000000E+00 0.  1.
        -11    1    3    3    0    0 -0.82305909970E+02  0.33117441709E+03 -0.99975770727E+03  0.10563930285E+04  0.00000000000E+00 0. -1.
          2    1    6    6  502    0  0.27604181626E+03 -0.37373584713E+03  0.14018488929E+02  0.46483769833E+03  0.00000000000E+00 0. -1.
          1    1    5    5  503    0 -0.26995057726E+03  0.11866281233E+03  0.23275950180E+03  0.37567427763E+03  0.00000000000E+00 0. -1.
         -2    1    5    5    0  503 -0.13463306259E+02 -0.11805623218E+02  0.15461275706E+02  0.23657649956E+02  0.00000000000E+00 0.  1.
         -1    1    6    6    0  502  0.11694771386E+03 -0.82934778734E+02  0.13999480439E+02  0.14405183356E+03  0.00000000000E+00 0.  1.
<mgrwt>
<rscale>  0 0.19835956E+04</rscale>
<asrwt>0</asrwt>
<pdfrwt beam="1">  1        3 0.22425005E+00 0.19835956E+04</pdfrwt>
<pdfrwt beam="2">  1       -3 0.10382143E+00 0.19835956E+04</pdfrwt>
<totfact> 0.20340443E-01</totfact>
</mgrwt>
</event>
<event>
12    1  0.1494110E-007  0.1443112E+04  0.7818608E-02  0.8923189E-01
          2   -1    0    0  501    0  0.00000000000E+00  0.00000000000E+00  0.52694773442E+03  0.52694773442E+03  0.00000000000E+00 0. -1.
         -2   -1    0    0    0  501 -0.00000000000E+00 -0.00000000000E+00 -0.98803606269E+03  0.98803606269E+03  0.00000000000E+00 0.  1.
         23    2    1    2    0    0 -0.26725187955E+03 -0.20858667834E+03  0.14040049783E+03  0.37767493350E+03  0.89409653301E+02 0.  0.
        254    2    1    2    0    0  0.26725187955E+03  0.20858667834E+03 -0.60148882609E+03  0.11373088636E+04  0.90374259268E+03 0.  0.
        -24    2    4    4    0    0 -0.12299323367E+03 -0.27025228427E+02  0.17716795546E+03  0.23170326806E+03  0.80250990563E+02 0.  0.
         24    2    4    4    0    0  0.39024511322E+03  0.23561190677E+03 -0.77865678155E+03  0.90560559555E+03  0.77529944050E+02 0.  0.
         13    1    3    3    0    0 -0.76598447284E+01 -0.17413087059E+02 -0.10486609586E+02  0.21722288157E+02  0.00000000000E+00 0.  1.
        -13    1    3    3    0    0 -0.25959203482E+03 -0.19117359128E+03  0.15088710741E+03  0.35595264534E+03  0.00000000000E+00 0. -1.
          2    1    6    6  502    0  0.37725936081E+03  0.22633844328E+03 -0.71111684530E+03  0.83620624483E+03  0.00000000000E+00 0. -1.
          3    1    5    5  503    0 -0.84222804372E+02 -0.27578979663E+02  0.56845890414E+02  0.10528787277E+03  0.00000000000E+00 0. -1.
         -4    1    5    5    0  503 -0.38770429298E+02  0.55375123629E+00  0.12032206505E+03  0.12641539529E+03  0.00000000000E+00 0.  1.
         -1    1    6    6    0  502  0.12985752410E+02  0.92734634905E+01 -0.67539936255E+02  0.69399350718E+02  0.00000000000E+00 0.  1.
<mgrwt>
<rscale>  0 0.14431124E+04</rscale>
<asrwt>0</asrwt>
<pdfrwt beam="1">  1        2 0.81068883E-01 0.14431124E+04</pdfrwt>
<pdfrwt beam="2">  1       -2 0.15200555E+00 0.14431124E+04</pdfrwt>
<totfact> 0.16236319E+01</totfact>
</mgrwt>
</event>
<event>
12    1  0.1494110E-007  0.1970888E+04  0.7818608E-02  0.8620354E-01
          1   -1    0    0  501    0  0.00000000000E+00  0.00000000000E+00  0.43387369963E+04  0.43387369963E+04  0.00000000000E+00 0. -1.
         -1   -1    0    0    0  501 -0.00000000000E+00 -0.00000000000E+00 -0.22382091069E+03  0.22382091069E+03  0.00000000000E+00 0.  1.
         23    2    1    2    0    0 -0.28953977544E+03 -0.70151589501E+03  0.12711914091E+04  0.14832898604E+04  0.90903129446E+02 0.  0.
        254    2    1    2    0    0  0.28953977544E+03  0.70151589501E+03  0.28437246765E+04  0.30792680466E+04  0.90507670080E+03 0.  0.
        -24    2    4    4    0    0 -0.16699104120E+03  0.20732362135E+03  0.18826742421E+04  0.19030878098E+04  0.80073827118E+02 0.  0.
         24    2    4    4    0    0  0.45653081663E+03  0.49419227366E+03  0.96105043438E+03  0.11761802368E+04  0.84472612172E+02 0.  0.
         11    1    3    3    0    0 -0.19103182004E+03 -0.47652947971E+03  0.77473148794E+03  0.92939893464E+03  0.00000000000E+00 0.  1.
        -11    1    3    3    0    0 -0.98507955394E+02 -0.22498641530E+03  0.49645992114E+03  0.55389092576E+03  0.00000000000E+00 0. -1.
          4    1    6    6  502    0  0.22700188381E+03  0.22304208883E+03  0.52257800839E+03  0.61185407043E+03  0.00000000000E+00 0. -1.
          3    1    5    5  503    0 -0.18480724397E+02  0.60645440912E+01  0.54175495703E+02  0.57561273474E+02  0.00000000000E+00 0. -1.
         -4    1    5    5    0  503 -0.14851031680E+03  0.20125907726E+03  0.18284987464E+04  0.18455265363E+04  0.00000000000E+00 0.  1.
         -3    1    6    6    0  502  0.22952893282E+03  0.27115018483E+03  0.43847242598E+03  0.56432616640E+03  0.00000000000E+00 0.  1.
<mgrwt>
<rscale>  0 0.19708882E+04</rscale>
<asrwt>0</asrwt>
<pdfrwt beam="1">  1        1 0.66749794E+00 0.19708882E+04</pdfrwt>
<pdfrwt beam="2">  1       -1 0.34433989E-01 0.19708882E+04</pdfrwt>
<totfact> 0.35116274E-01</totfact>
</mgrwt>
</event>
<event>
12    1  0.1494110E-007  0.1264215E+04  0.7818608E-02  0.9058434E-01
         -2   -1    0    0    0  501 -0.00000000000E+00  0.00000000000E+00  0.84313255243E+03  0.84313255243E+03  0.00000000000E+00 0.  1.
          2   -1    0    0  501    0  0.00000000000E+00 -0.00000000000E+00 -0.47389946870E+03  0.47389946870E+03  0.00000000000E+00 0. -1.
         23    2    1    2    0    0 -0.14184634240E+03  0.21768430467E+03 -0.71885981895E+02  0.28159091494E+03  0.81357283822E+02 0.  0.
        254    2    1    2    0    0  0.14184634240E+03 -0.21768430467E+03  0.44111906562E+03  0.10354411062E+04  0.90002522908E+03 0.  0.
        -24    2    4    4    0    0  0.18874215076E+03  0.42029285823E+02  0.65490443494E+03  0.68705832394E+03  0.75889796750E+02 0.  0.
         24    2    4    4    0    0 -0.46895808357E+02 -0.25971359049E+03 -0.21378536932E+03  0.34838278224E+03  0.77562960888E+02 0.  0.
         13    1    3    3    0    0  0.46507292082E+01  0.47405280607E+02 -0.12085380486E+02  0.49142103466E+02  0.00000000000E+00 0.  1.
        -13    1    3    3    0    0 -0.14649707161E+03  0.17027902406E+03 -0.59800601408E+02  0.23244881147E+03  0.00000000000E+00 0. -1.
          4    1    6    6  502    0 -0.96883036100E+01 -0.10803773662E+03 -0.42264636078E+02  0.11641441158E+03  0.00000000000E+00 0. -1.
          1    1    5    5  503    0  0.28633511836E+02  0.15596939777E+02  0.22858158473E+03  0.23089539495E+03  0.00000000000E+00 0. -1.
         -2    1    5    5    0  503  0.16010863892E+03  0.26432346046E+02  0.42632285021E+03  0.45616292899E+03  0.00000000000E+00 0.  1.
         -3    1    6    6    0  502 -0.37207504747E+02 -0.15167585387E+03 -0.17152073324E+03  0.23196837067E+03  0.00000000000E+00 0.  1.
<mgrwt>
<rscale>  0 0.12642153E+04</rscale>
<asrwt>0</asrwt>
<pdfrwt beam="1">  1        2 0.72907611E-01 0.12642153E+04</pdfrwt>
<pdfrwt beam="2">  1       -2 0.12971270E+00 0.12642153E+04</pdfrwt>
<totfact> 0.28105072E+01</totfact>
</mgrwt>
</event>
<event>
12    1  0.1494110E-007  0.1717776E+04  0.7818608E-02  0.8751290E-01
          2   -1    0    0  501    0  0.00000000000E+00  0.00000000000E+00  0.15288786779E+04  0.15288786779E+04  0.00000000000E+00 0. -1.
         -2   -1    0    0    0  501 -0.00000000000E+00 -0.00000000000E+00 -0.48250318920E+03  0.48250318920E+03  0.00000000000E+00 0.  1.
         23    2    1    2    0    0  0.39199828647E+03 -0.41326934092E+03  0.98762358674E+02  0.58443374540E+03  0.85758932697E+02 0.  0.
        254    2    1    2    0    0 -0.39199828647E+03  0.41326934092E+03  0.94761312998E+03  0.14269481217E+04  0.90208430485E+03 0.  0.
        -24    2    4    4    0    0 -0.26448619433E+03  0.51024382348E+03  0.13697429507E+03  0.59685050930E+03  0.84657347915E+02 0.  0.
         24    2    4    4    0    0 -0.12751209214E+03 -0.96974482557E+02  0.81063883490E+03  0.83009761235E+03  0.79141275408E+02 0.  0.
         11    1    3    3    0    0  0.32401898286E+03 -0.33184566092E+03  0.46318710308E+02  0.46610649732E+03  0.00000000000E+00 0.  1.
        -11    1    3    3    0    0  0.67979303614E+02 -0.81423680002E+02  0.52443648367E+02  0.11832724808E+03  0.00000000000E+00 0. -1.
          4    1    6    6  502    0 -0.12968371648E+03 -0.62543168486E+02  0.63773332538E+03  0.65378383931E+03  0.00000000000E+00 0. -1.
          3    1    5    5  503    0  0.19514748575E+01  0.39420757018E+02  0.33668454033E+01  0.39612371627E+02  0.00000000000E+00 0. -1.
         -4    1    5    5    0  503 -0.26643766919E+03  0.47082306646E+03  0.13360744967E+03  0.55723813767E+03  0.00000000000E+00 0.  1.
         -3    1    6    6    0  502  0.21716243411E+01 -0.34431314071E+02  0.17290550952E+03  0.17631377304E+03  0.00000000000E+00 0.  1.
<mgrwt>
<rscale>  0 0.17177763E+04</rscale>
<asrwt>0</asrwt>
<pdfrwt beam="1">  1        2 0.23521210E+00 0.17177763E+04</pdfrwt>
<pdfrwt beam="2">  1       -2 0.74231261E-01 0.17177763E+04</pdfrwt>
<totfact> 0.18978908E+01</totfact>
</mgrwt>
</event>
<event>
12    1  0.1494110E-007  0.2702666E+04  0.7818608E-02  0.8334140E-01
         -2   -1    0    0    0  501 -0.00000000000E+00  0.00000000000E+00  0.63227431281E+03  0.63227431281E+03  0.00000000000E+00 0. -1.
          2   -1    0    0  501    0  0.00000000000E+00 -0.00000000000E+00 -0.28881473313E+04  0.28881473313E+04  0.00000000000E+00 0.  1.
         23    2    1    2    0    0 -0.33585055758E+03  0.88023728151E+02  0.49334174312E+03  0.60982087828E+03  0.89172049126E+02 0.  0.
        254    2    1    2    0    0  0.33585055758E+03 -0.88023728151E+02 -0.27492147616E+04  0.29106007658E+04  0.89043317484E+03 0.  0.
        -24    2    4    4    0    0 -0.18003757573E+03  0.15992696100E+03 -0.29723250611E+03  0.39143268227E+03  0.82959149791E+02 0.  0.
         24    2    4    4    0    0  0.51588813331E+03 -0.24795068915E+03 -0.24519822555E+04  0.25191680836E+04  0.79816925476E+02 0.  0.
         13    1    3    3    0    0 -0.27363714601E+03  0.54284033239E+02  0.33204002185E+03  0.43367570839E+03  0.00000000000E+00 0. -1.
        -13    1    3    3    0    0 -0.62213411573E+02  0.33739694911E+02  0.16130172127E+03  0.17614516989E+03  0.00000000000E+00 0.  1.
          2    1    6    6  502    0  0.16386830384E+03 -0.38811546272E+02 -0.69843719969E+03  0.71845228028E+03  0.00000000000E+00 0. -1.
          3    1    5    5  503    0 -0.94387787951E+02  0.49980855306E+02 -0.18005398055E+03  0.20934797903E+03  0.00000000000E+00 0. -1.
         -4    1    5    5    0  503 -0.85649787778E+02  0.10994610569E+03 -0.11717852556E+03  0.18208470325E+03  0.00000000000E+00 0.  1.
         -1    1    6    6    0  502  0.35201982947E+03 -0.20913914288E+03 -0.17535450558E+04  0.18007158033E+04  0.00000000000E+00 0.  1.
<mgrwt>
<rscale>  0 0.27026664E+04</rscale>
<asrwt>0</asrwt>
<pdfrwt beam="1">  1        2 0.44433036E+00 0.27026664E+04</pdfrwt>
<pdfrwt beam="2">  1       -2 0.97272971E-01 0.27026664E+04</pdfrwt>
<totfact> 0.15795580E+00</totfact>
</mgrwt>
</event>
<event>
12    1  0.1494110E-007  0.2335394E+04  0.7818608E-02  0.8464095E-01
          2   -1    0    0  501    0  0.00000000000E+00  0.00000000000E+00  0.15490550589E+04  0.15490550589E+04  0.00000000000E+00 0.  1.
         -2   -1    0    0    0  501 -0.00000000000E+00 -0.00000000000E+00 -0.88022461014E+03  0.88022461014E+03  0.00000000000E+00 0. -1.
         23    2    1    2    0    0 -0.10662206244E+03  0.45363714605E+03 -0.62116560760E+03  0.78225527296E+03  0.94454621533E+02 0.  0.
        254    2    1    2    0    0  0.10662206244E+03 -0.45363714605E+03  0.12899960563E+04  0.16470243961E+04  0.91183584675E+03 0.  0.
        -24    2    4    4    0    0  0.39771371899E+03 -0.50843158270E+03  0.57087111010E+03  0.86519927147E+03  0.77440806091E+02 0.  0.
         24    2    4    4    0    0 -0.29109165655E+03  0.54794436655E+02  0.71912494625E+03  0.78182512460E+03  0.79831412033E+02 0.  0.
         11    1    3    3    0    0 -0.65138693303E+02  0.20055862711E+03 -0.20955192022E+03  0.29728575402E+03  0.00000000000E+00 0.  1.
        -11    1    3    3    0    0 -0.41483369140E+02  0.25307851894E+03 -0.41161368737E+03  0.48496951894E+03  0.00000000000E+00 0. -1.
          2    1    6    6  502    0 -0.68436174425E+02 -0.14704518207E+02  0.22044651980E+03  0.23129288990E+03  0.00000000000E+00 0. -1.
          3    1    5    5  503    0  0.91841220086E+02 -0.16869921486E+03  0.19020750100E+03  0.27032041772E+03  0.00000000000E+00 0. -1.
         -4    1    5    5    0  503  0.30587249891E+03 -0.33973236784E+03  0.38066360910E+03  0.59487885375E+03  0.00000000000E+00 0.  1.
         -1    1    6    6    0  502 -0.22265548212E+03  0.69498954862E+02  0.49867842645E+03  0.55053223470E+03  0.00000000000E+00 0.  1.
<mgrwt>
<rscale>  0 0.23353941E+04</rscale>
<asrwt>0</asrwt>
<pdfrwt beam="1">  1        2 0.23831616E+00 0.23353941E+04</pdfrwt>
<pdfrwt beam="2">  1       -2 0.13541917E+00 0.23353941E+04</pdfrwt>
<totfact> 0.42149810E+00</totfact>
</mgrwt>
</event>
<event>
12    1  0.1494110E-007  0.1454921E+04  0.7818608E-02  0.8914996E-01
          2   -1    0    0  501    0  0.00000000000E+00  0.00000000000E+00  0.32794600422E+04  0.32794600422E+04  0.00000000000E+00 0. -1.
         -2   -1    0    0    0  501 -0.00000000000E+00 -0.00000000000E+00 -0.16136756838E+03  0.16136756838E+03  0.00000000000E+00 0.  1.
         23    2    1    2    0    0 -0.88202930495E+02  0.35414675670E+03  0.15217137703E+04  0.15674912783E+04  0.90644505622E+02 0.  0.
        254    2    1    2    0    0  0.88202930495E+02 -0.35414675670E+03  0.15963787035E+04  0.18733363323E+04  0.90981556743E+03 0.  0.
        -24    2    4    4    0    0  0.44883362544E+02 -0.65587457209E+03  0.11539745784E+04  0.13301323680E+04  0.73544667635E+02 0.  0.
         24    2    4    4    0    0  0.43319567951E+02  0.30172781538E+03  0.44240412501E+03  0.54320396428E+03  0.80205220787E+02 0.  0.
         11    1    3    3    0    0 -0.69474344697E+02  0.18908494785E+03  0.99555979468E+03  0.10157357466E+04  0.00000000000E+00 0. -1.
        -11    1    3    3    0    0 -0.18728585798E+02  0.16506180885E+03  0.52615397566E+03  0.55175553171E+03  0.00000000000E+00 0.  1.
          2    1    6    6  502    0  0.13444235406E+02  0.24616786258E+03  0.30629599515E+03  0.39318774228E+03  0.00000000000E+00 0. -1.
          3    1    5    5  503    0  0.38451751144E+02 -0.62673736503E+03  0.11259227812E+04  0.12891781767E+04  0.00000000000E+00 0. -1.
         -4    1    5    5    0  503  0.64316114004E+01 -0.29137207051E+02  0.28051797201E+02  0.40954191314E+02  0.00000000000E+00 0.  1.
         -1    1    6    6    0  502  0.29875332544E+02  0.55559952806E+02  0.13610812986E+03  0.15001622201E+03  0.00000000000E+00 0.  1.
<mgrwt>
<rscale>  0 0.14549206E+04</rscale>
<asrwt>0</asrwt>
<pdfrwt beam="1">  1        2 0.50453227E+00 0.14549206E+04</pdfrwt>
<pdfrwt beam="2">  1       -2 0.24825782E-01 0.14549206E+04</pdfrwt>
<totfact> 0.16385185E+01</totfact>
</mgrwt>
</event>
<event>
12    1  0.1494110E-007  0.1511566E+04  0.7818608E-02  0.8876798E-01
          1   -1    0    0  501    0  0.00000000000E+00  0.00000000000E+00  0.17385172148E+04  0.17385172148E+04  0.00000000000E+00 0. -1.
         -1   -1    0    0    0  501 -0.00000000000E+00 -0.00000000000E+00 -0.32856034794E+03  0.32856034794E+03  0.00000000000E+00 0.  1.
         23    2    1    2    0    0  0.35981356448E+03  0.32279242266E+03  0.37996998056E+03  0.62187694649E+03  0.93236265123E+02 0.  0.
        254    2    1    2    0    0 -0.35981356448E+03 -0.32279242266E+03  0.10299868863E+04  0.14452006162E+04  0.89110666362E+03 0.  0.
        -24    2    4    4    0    0  0.65633012412E+02  0.26157312961E+03  0.22544770412E+03  0.36067748927E+03  0.80829385266E+02 0.  0.
         24    2    4    4    0    0 -0.42544657689E+03 -0.58436555227E+03  0.80453918216E+03  0.10845231270E+04  0.80120090016E+02 0.  0.
         11    1    3    3    0    0  0.43246737674E+01  0.25175556632E+02  0.37953054499E+02  0.45748724580E+02  0.00000000000E+00 0. -1.
        -11    1    3    3    0    0  0.35548889071E+03  0.29761686603E+03  0.34201692606E+03  0.57612822191E+03  0.00000000000E+00 0.  1.
          4    1    6    6  502    0 -0.36874759067E+03 -0.52643729562E+03  0.74505377324E+03  0.98397974413E+03  0.00000000000E+00 0. -1.
          1    1    5    5  503    0  0.41143094525E+02  0.23946033698E+03  0.17135552496E+03  0.29731586427E+03  0.00000000000E+00 0. -1.
         -2    1    5    5    0  503  0.24489917887E+02  0.22112792625E+02  0.54092179162E+02  0.63361624997E+02  0.00000000000E+00 0.  1.
         -3    1    6    6    0  502 -0.56698986224E+02 -0.57928256649E+02  0.59485408922E+02  0.10054338283E+03  0.00000000000E+00 0.  1.
<mgrwt>
<rscale>  0 0.15115658E+04</rscale>
<asrwt>0</asrwt>
<pdfrwt beam="1">  1        1 0.26746418E+00 0.15115658E+04</pdfrwt>
<pdfrwt beam="2">  1       -1 0.50547747E-01 0.15115658E+04</pdfrwt>
<totfact> 0.17046381E+01</totfact>
</mgrwt>
</event>
<event>
12    1  0.1494110E-007  0.1710495E+04  0.7818608E-02  0.8755401E-01
         -4   -1    0    0    0  501 -0.00000000000E+00  0.00000000000E+00  0.85351170523E+03  0.85351170523E+03  0.00000000000E+00 0.  1.
          4   -1    0    0  501    0  0.00000000000E+00 -0.00000000000E+00 -0.85698668878E+03  0.85698668878E+03  0.00000000000E+00 0. -1.
         23    2    1    2    0    0  0.26715809276E+03  0.70891585136E+02  0.55469284397E+03  0.62625052936E+03  0.90036164968E+02 0.  0.
        254    2    1    2    0    0 -0.26715809276E+03 -0.70891585136E+02 -0.55816782752E+03  0.10842478646E+04  0.88749256049E+03 0.  0.
        -24    2    4    4    0    0  0.31855940163E+03  0.28436230058E+02 -0.21937525669E+03  0.39593254666E+03  0.79676638428E+02 0.  0.
         24    2    4    4    0    0 -0.58571749439E+03 -0.99327815194E+02 -0.33879257083E+03  0.68831531798E+03  0.77888207104E+02 0.  0.
         13    1    3    3    0    0  0.17690619169E+03  0.37840308098E+02  0.26365193379E+03  0.31974995194E+03  0.00000000000E+00 0.  1.
        -13    1    3    3    0    0  0.90251901075E+02  0.33051277037E+02  0.29104091018E+03  0.30650057742E+03  0.00000000000E+00 0. -1.
          2    1    6    6  502    0 -0.23093664801E+02 -0.20052837485E+02 -0.23043757373E+02  0.38294234540E+02  0.00000000000E+00 0. -1.
          3    1    5    5  503    0  0.29327632568E+02  0.27330129972E+02 -0.21508364696E+02  0.45493469731E+02  0.00000000000E+00 0. -1.
         -4    1    5    5    0  503  0.28923176906E+03  0.11061000867E+01 -0.19786689199E+03  0.35043907693E+03  0.00000000000E+00 0.  1.
         -1    1    6    6    0  502 -0.56262382959E+03 -0.79274977708E+02 -0.31574881346E+03  0.65002108344E+03  0.00000000000E+00 0.  1.
<mgrwt>
<rscale>  0 0.17104949E+04</rscale>
<asrwt>0</asrwt>
<pdfrwt beam="1">  1        4 0.13184411E+00 0.17104949E+04</pdfrwt>
<pdfrwt beam="2">  1       -4 0.13130949E+00 0.17104949E+04</pdfrwt>
<totfact> 0.33471521E-01</totfact>
</mgrwt>
</event>
<event>
12    1  0.1494110E-007  0.2937155E+04  0.7818608E-02  0.8261908E-01
         -2   -1    0    0    0  501 -0.00000000000E+00  0.00000000000E+00  0.18635288742E+04  0.18635288742E+04  0.00000000000E+00 0.  1.
          2   -1    0    0  501    0  0.00000000000E+00 -0.00000000000E+00 -0.11573311443E+04  0.11573311443E+04  0.00000000000E+00 0. -1.
         23    2    1    2    0    0 -0.11216059694E+04 -0.21431686452E+03 -0.37897908554E+03  0.12066035701E+04  0.91298187174E+02 0.  0.
        254    2    1    2    0    0  0.11216059694E+04  0.21431686452E+03  0.10851768155E+04  0.18142564484E+04  0.89999226141E+03 0.  0.
        -24    2    4    4    0    0  0.11285739215E+04 -0.26725389721E+02  0.10734917002E+04  0.15599362145E+04  0.81383168406E+02 0.  0.
         24    2    4    4    0    0 -0.69679520932E+01  0.24104225424E+03  0.11685115218E+02  0.25432023386E+03  0.79951977749E+02 0.  0.
         11    1    3    3    0    0 -0.66136553836E+03 -0.13431405366E+03 -0.17717815956E+03  0.69773687058E+03  0.00000000000E+00 0. -1.
        -11    1    3    3    0    0 -0.46024043105E+03 -0.80002810856E+02 -0.20180092598E+03  0.50886669948E+03  0.00000000000E+00 0.  1.
          2    1    6    6  502    0 -0.63371410098E+00  0.15891559088E+03 -0.30435455556E+02  0.16180507895E+03  0.00000000000E+00 0. -1.
          1    1    5    5  503    0  0.76864556670E+03  0.15410566698E+02  0.75372768653E+03  0.10766424282E+04  0.00000000000E+00 0. -1.
         -2    1    5    5    0  503  0.35992835480E+03 -0.42135956418E+02  0.31976401372E+03  0.48329378631E+03  0.00000000000E+00 0.  1.
         -1    1    6    6    0  502 -0.63342379922E+01  0.82126663362E+02  0.42120570775E+02  0.92515154912E+02  0.00000000000E+00 0.  1.
<mgrwt>
<rscale>  0 0.29371551E+04</rscale>
<asrwt>0</asrwt>
<pdfrwt beam="1">  1        2 0.17805094E+00 0.29371551E+04</pdfrwt>
<pdfrwt beam="2">  1       -2 0.28669675E+00 0.29371551E+04</pdfrwt>
<totfact> 0.66273632E-01</totfact>
</mgrwt>
</event>
<event>
12    1  0.1494110E-007  0.2544986E+04  0.7818608E-02  0.8387132E-01
         -1   -1    0    0    0  501 -0.00000000000E+00  0.00000000000E+00  0.11929656857E+04  0.11929656857E+04  0.00000000000E+00 0.  1.
          1   -1    0    0  501    0  0.00000000000E+00 -0.00000000000E+00 -0.13573214352E+04  0.13573214352E+04  0.00000000000E+00 0. -1.
         23    2    1    2    0    0  0.61038302596E+03 -0.49957248369E+03 -0.86427998546E+03  0.11736774341E+04  0.91644537575E+02 0.  0.
        254    2    1    2    0    0 -0.61038302596E+03  0.49957248369E+03  0.69992423596E+03  0.13766096867E+04  0.88488427982E+03 0.  0.
        -24    2    4    4    0    0  0.14744276744E+03 -0.50287412415E+02 -0.41652457402E+02  0.17954559932E+03  0.78952526927E+02 0.  0.
         24    2    4    4    0    0 -0.75782579340E+03  0.54985989610E+03  0.74157669336E+03  0.11970640874E+04  0.79878650116E+02 0.  0.
         11    1    3    3    0    0  0.50662184508E+03 -0.41257540384E+03 -0.66085859402E+03  0.92931062571E+03  0.00000000000E+00 0. -1.
        -11    1    3    3    0    0  0.10376118088E+03 -0.86997079849E+02 -0.20342139144E+03  0.24436680841E+03  0.00000000000E+00 0.  1.
          4    1    6    6  502    0 -0.72126702485E+03  0.51512908969E+03  0.72119423697E+03  0.11426745939E+04  0.00000000000E+00 0. -1.
          3    1    5    5  503    0  0.77368630492E+02 -0.30130912962E+02  0.18448087554E+02  0.85053564502E+02  0.00000000000E+00 0. -1.
         -4    1    5    5    0  503  0.70074136948E+02 -0.20156499453E+02 -0.60100544956E+02  0.94492034813E+02  0.00000000000E+00 0.  1.
         -3    1    6    6    0  502 -0.36558768550E+02  0.34730806419E+02  0.20382456391E+02  0.54389493480E+02  0.00000000000E+00 0.  1.
<mgrwt>
<rscale>  0 0.25449856E+04</rscale>
<asrwt>0</asrwt>
<pdfrwt beam="1">  1        1 0.20881868E+00 0.25449856E+04</pdfrwt>
<pdfrwt beam="2">  1       -1 0.18353318E+00 0.25449856E+04</pdfrwt>
<totfact> 0.14307981E+00</totfact>
</mgrwt>
</event>
<event>
12    1  0.1494110E-007  0.2698391E+04  0.7818608E-02  0.8335527E-01
         -2   -1    0    0    0  501 -0.00000000000E+00  0.00000000000E+00  0.72768831301E+03  0.72768831301E+03  0.00000000000E+00 0.  1.
          2   -1    0    0  501    0  0.00000000000E+00 -0.00000000000E+00 -0.25015225773E+04  0.25015225773E+04  0.00000000000E+00 0. -1.
         23    2    1    2    0    0  0.50273842104E+03  0.51680016673E+03  0.35337217408E+03  0.80854796579E+03  0.95129318635E+02 0.  0.
        254    2    1    2    0    0 -0.50273842104E+03 -0.51680016673E+03 -0.21272064383E+04  0.24206629245E+04  0.90264801024E+03 0.  0.
        -24    2    4    4    0    0 -0.23782264961E+03  0.33272704649E+02 -0.15678129681E+04  0.15880681932E+04  0.79097393672E+02 0.  0.
         24    2    4    4    0    0 -0.26491577143E+03 -0.55007287138E+03 -0.55939347026E+03  0.83259473134E+03  0.86789413581E+02 0.  0.
         13    1    3    3    0    0  0.53306911518E+01  0.19067395858E+02 -0.25879913418E+01  0.19966961515E+02  0.00000000000E+00 0. -1.
        -13    1    3    3    0    0  0.49740772989E+03  0.49773277087E+03  0.35596016542E+03  0.78858100428E+03  0.00000000000E+00 0.  1.
          4    1    6    6  502    0 -0.51957147467E+02 -0.61659568113E+02 -0.10459109081E+03  0.13206340822E+03  0.00000000000E+00 0. -1.
          3    1    5    5  503    0 -0.49294671018E+02 -0.19689101501E+02 -0.23318764302E+03  0.23915288451E+03  0.00000000000E+00 0. -1.
         -4    1    5    5    0  503 -0.18852797859E+03  0.52961806150E+02 -0.13346253251E+04  0.13489153086E+04  0.00000000000E+00 0.  1.
         -3    1    6    6    0  502 -0.21295862396E+03 -0.48841330326E+03 -0.45480237945E+03  0.70053132312E+03  0.00000000000E+00 0.  1.
<mgrwt>
<rscale>  0 0.26983912E+04</rscale>
<asrwt>0</asrwt>
<pdfrwt beam="1">  1        2 0.38484963E+00 0.26983912E+04</pdfrwt>
<pdfrwt beam="2">  1       -2 0.11195205E+00 0.26983912E+04</pdfrwt>
<totfact> 0.19185156E+00</totfact>
</mgrwt>
</event>
<event>
12    1  0.1494110E-007  0.1563643E+04  0.7818608E-02  0.8843200E-01
         -1   -1    0    0    0  501 -0.00000000000E+00  0.00000000000E+00  0.49118792177E+03  0.49118792177E+03  0.00000000000E+00 0.  1.
          1   -1    0    0  501    0  0.00000000000E+00 -0.00000000000E+00 -0.12444214160E+04  0.12444214160E+04  0.00000000000E+00 0. -1.
         23    2    1    2    0    0 -0.21329190876E+03 -0.21360254039E+03 -0.71004053449E+03  0.77701046628E+03  0.92022934569E+02 0.  0.
        254    2    1    2    0    0  0.21329190876E+03  0.21360254039E+03 -0.43192959780E+02  0.95859887153E+03  0.90880508423E+03 0.  0.
        -24    2    4    4    0    0  0.51445572793E+03  0.91428928552E+02 -0.22872189920E+03  0.57602147502E+03  0.80393330212E+02 0.  0.
         24    2    4    4    0    0 -0.30116381916E+03  0.12217361184E+03  0.18552893942E+03  0.38257739650E+03  0.79488612714E+02 0.  0.
         11    1    3    3    0    0 -0.57834794248E+02 -0.72410907660E+02 -0.33047112454E+03  0.34321912407E+03  0.00000000000E+00 0. -1.
        -11    1    3    3    0    0 -0.15545711452E+03 -0.14119163273E+03 -0.37956940995E+03  0.43379134221E+03  0.00000000000E+00 0.  1.
          4    1    6    6  502    0 -0.22082766689E+02  0.45088705260E+00  0.38682141776E+02  0.44543910651E+02  0.00000000000E+00 0. -1.
          3    1    5    5  503    0  0.22279677549E+03  0.44822564118E+02 -0.56729510038E+02  0.23423429025E+03  0.00000000000E+00 0. -1.
         -4    1    5    5    0  503  0.29165895244E+03  0.46606364434E+02 -0.17199238916E+03  0.34178718477E+03  0.00000000000E+00 0.  1.
         -3    1    6    6    0  502 -0.27908105248E+03  0.12172272478E+03  0.14684679764E+03  0.33803348585E+03  0.00000000000E+00 0.  1.
<mgrwt>
<rscale>  0 0.15636429E+04</rscale>
<asrwt>0</asrwt>
<pdfrwt beam="1">  1        1 0.19144945E+00 0.15636429E+04</pdfrwt>
<pdfrwt beam="2">  1       -1 0.75567373E-01 0.15636429E+04</pdfrwt>
<totfact> 0.16799704E+01</totfact>
</mgrwt>
</event>
<event>
12    1  0.1494110E-007  0.1626619E+04  0.7818608E-02  0.8804360E-01
          2   -1    0    0  501    0  0.00000000000E+00  0.00000000000E+00  0.12580739662E+04  0.12580739662E+04  0.00000000000E+00 0. -1.
         -2   -1    0    0    0  501 -0.00000000000E+00 -0.00000000000E+00 -0.52578164976E+03  0.52578164976E+03  0.00000000000E+00 0.  1.
         23    2    1    2    0    0 -0.17250943009E+03 -0.40019602816E+03 -0.13495605488E+03  0.46340041552E+03  0.81304636568E+02 0.  0.
        254    2    1    2    0    0  0.17250943009E+03  0.40019602816E+03  0.86724837134E+03  0.13204552005E+04  0.89530209115E+03 0.  0.
        -24    2    4    4    0    0 -0.18871481813E+01 -0.18544791834E+03 -0.56818556606E+02  0.20977881149E+03  0.79901875007E+02 0.  0.
         24    2    4    4    0    0  0.17439657827E+03  0.58564394649E+03  0.92406692794E+03  0.11106763890E+04  0.79431449219E+02 0.  0.
         11    1    3    3    0    0 -0.14997562208E+03 -0.33473236097E+03 -0.14303515838E+03  0.39369721517E+03  0.00000000000E+00 0.  1.
        -11    1    3    3    0    0 -0.22533808013E+02 -0.65463667187E+02  0.80791035007E+01  0.69703200346E+02  0.00000000000E+00 0. -1.
          4    1    6    6  502    0  0.17862484575E+02  0.10559537630E+03  0.11645153368E+03  0.15821002353E+03  0.00000000000E+00 0. -1.
          3    1    5    5  503    0 -0.60660364045E+01 -0.40472958954E+02 -0.49959137963E+02  0.64581519572E+02  0.00000000000E+00 0. -1.
         -4    1    5    5    0  503  0.41788882232E+01 -0.14497495938E+03 -0.68594186421E+01  0.14519729191E+03  0.00000000000E+00 0.  1.
         -3    1    6    6    0  502  0.15653409370E+03  0.48004857020E+03  0.80761539427E+03  0.95246636544E+03  0.00000000000E+00 0.  1.
<mgrwt>
<rscale>  0 0.16266188E+04</rscale>
<asrwt>0</asrwt>
<pdfrwt beam="1">  1        2 0.19354984E+00 0.16266188E+04</pdfrwt>
<pdfrwt beam="2">  1       -2 0.80889485E-01 0.16266188E+04</pdfrwt>
<totfact> 0.22575240E+01</totfact>
</mgrwt>
</event>
<event>
12    1  0.1494110E-007  0.2058118E+04  0.7818608E-02  0.8579920E-01
          2   -1    0    0  501    0  0.00000000000E+00  0.00000000000E+00  0.12149574324E+04  0.12149574324E+04  0.00000000000E+00 0. -1.
         -2   -1    0    0    0  501 -0.00000000000E+00 -0.00000000000E+00 -0.87160452774E+03  0.87160452774E+03  0.00000000000E+00 0.  1.
         23    2    1    2    0    0 -0.36896678128E+03  0.70616756000E+03  0.35318773123E+03  0.87637871597E+03  0.92135616557E+02 0.  0.
        254    2    1    2    0    0  0.36896678128E+03 -0.70616756000E+03 -0.98348266158E+01  0.12101832441E+04  0.91084447194E+03 0.  0.
        -24    2    4    4    0    0  0.24714954392E+03 -0.80164362095E+03 -0.28059736748E+03  0.88820888272E+03  0.80403635737E+02 0.  0.
         24    2    4    4    0    0  0.12181723736E+03  0.95476060952E+02  0.27076254086E+03  0.32197436140E+03  0.80000114588E+02 0.  0.
         13    1    3    3    0    0 -0.39650559235E+02  0.14595797959E+03  0.50014098910E+02  0.15930256980E+03  0.00000000000E+00 0.  1.
        -13    1    3    3    0    0 -0.32931622204E+03  0.56020958040E+03  0.30317363232E+03  0.71707614617E+03  0.00000000000E+00 0. -1.
          2    1    6    6  502    0  0.11042807287E+03  0.58983629338E+02  0.24712752903E+03  0.27702967966E+03  0.00000000000E+00 0. -1.
          3    1    5    5  503    0  0.45279510727E+02 -0.27166477896E+03 -0.10049677373E+03  0.29317501215E+03  0.00000000000E+00 0. -1.
         -4    1    5    5    0  503  0.20187003319E+03 -0.52997884199E+03 -0.18010059374E+03  0.59503387057E+03  0.00000000000E+00 0.  1.
         -1    1    6    6    0  502  0.11389164485E+02  0.36492431613E+02  0.23635011836E+02  0.44944681746E+02  0.00000000000E+00 0.  1.
<mgrwt>
<rscale>  0 0.20581180E+04</rscale>
<asrwt>0</asrwt>
<pdfrwt beam="1">  1        2 0.18691653E+00 0.20581180E+04</pdfrwt>
<pdfrwt beam="2">  1       -2 0.13409300E+00 0.20581180E+04</pdfrwt>
<totfact> 0.68875648E+00</totfact>
</mgrwt>
</event>
<event>
12    1  0.1711130E-007  0.2716958E+04  0.7818608E-02  0.8329524E-01
         -2   -1    0    0    0  501 -0.00000000000E+00  0.00000000000E+00  0.12437666505E+04  0.12437666505E+04  0.00000000000E+00 0.  1.
          2   -1    0    0  501    0  0.00000000000E+00 -0.00000000000E+00 -0.14837712822E+04  0.14837712822E+04  0.00000000000E+00 0. -1.
         23    2    1    2    0    0 -0.55331331272E+02 -0.10861514920E+04  0.41837490846E+03  0.11687944964E+04  0.90864684301E+02 0.  0.
        254    2    1    2    0    0  0.55331331272E+02  0.10861514920E+04 -0.65837954025E+03  0.15587434363E+04  0.90190402007E+03 0.  0.
        -24    2    4    4    0    0  0.42592719332E+03  0.88070218861E+03 -0.45935883669E+03  0.10834303942E+04  0.75898347552E+02 0.  0.
         24    2    4    4    0    0 -0.37059586205E+03  0.20544930343E+03 -0.19902070355E+03  0.47531304215E+03  0.82234654162E+02 0.  0.
         11    1    3    3    0    0 -0.19005712471E+02 -0.74683556927E+02  0.49286910005E+02  0.91477047830E+02  0.00000000000E+00 0. -1.
        -11    1    3    3    0    0 -0.36325618800E+02 -0.10114679351E+04  0.36908799846E+03  0.10773174485E+04  0.00000000000E+00 0.  1.
          2    1    6    6  502    0 -0.10263070168E+03  0.43012637157E+02 -0.15996549229E+02  0.11242347384E+03  0.00000000000E+00 0. -1.
          3    1    5    5  503    0  0.72437313668E+01  0.37935158723E+02 -0.67541811008E+01  0.39206719753E+02  0.00000000000E+00 0. -1.
         -4    1    5    5    0  503  0.41868346196E+03  0.84276702988E+03 -0.45260465559E+03  0.10442236744E+04  0.00000000000E+00 0.  1.
         -1    1    6    6    0  502 -0.26796516037E+03  0.16243666627E+03 -0.18302415433E+03  0.36288956831E+03  0.00000000000E+00 0.  1.
<mgrwt>
<rscale>  0 0.27169580E+04</rscale>
<asrwt>0</asrwt>
<pdfrwt beam="1">  1        2 0.22827250E+00 0.27169580E+04</pdfrwt>
<pdfrwt beam="2">  1       -2 0.19134872E+00 0.27169580E+04</pdfrwt>
<totfact> 0.17245013E+00</totfact>
</mgrwt>
</event>
<event>
12    1  0.1494110E-007  0.1360842E+04  0.7818608E-02  0.8982662E-01
         -4   -1    0    0    0  501 -0.00000000000E+00  0.00000000000E+00  0.56952244406E+03  0.56952244406E+03  0.00000000000E+00 0. -1.
          4   -1    0    0  501    0  0.00000000000E+00 -0.00000000000E+00 -0.81291345308E+03  0.81291345308E+03  0.00000000000E+00 0.  1.
         23    2    1    2    0    0 -0.23843718383E+03 -0.98284831181E+02  0.18074881773E+03  0.32492654834E+03  0.79968293941E+02 0.  0.
        254    2    1    2    0    0  0.23843718383E+03  0.98284831181E+02 -0.42413982675E+03  0.10575093488E+04  0.93376615461E+03 0.  0.
        -24    2    4    4    0    0  0.27906316505E+03  0.24262972432E+03  0.18804271017E+03  0.42244251722E+03  0.79700604146E+02 0.  0.
         24    2    4    4    0    0 -0.40625981218E+02 -0.14434489313E+03 -0.61218253692E+03  0.63506683158E+03  0.77823541007E+02 0.  0.
         13    1    3    3    0    0 -0.46338845594E+01 -0.84517982903E+01 -0.69922885599E+01  0.11907891491E+02  0.00000000000E+00 0.  1.
        -13    1    3    3    0    0 -0.23380329927E+03 -0.89833032890E+02  0.18774110629E+03  0.31301865685E+03  0.00000000000E+00 0. -1.
          4    1    6    6  502    0  0.71576819688E+01 -0.49251243354E+02 -0.97175860814E+02  0.10917905160E+03  0.00000000000E+00 0. -1.
          3    1    5    5  503    0  0.79617436373E+02  0.10310868457E+03  0.34875296824E+02  0.13485778931E+03  0.00000000000E+00 0. -1.
         -4    1    5    5    0  503  0.19944572867E+03  0.13952103974E+03  0.15316741335E+03  0.28758472791E+03  0.00000000000E+00 0.  1.
         -3    1    6    6    0  502 -0.47783663187E+02 -0.95093649781E+02 -0.51500667611E+03  0.52588777998E+03  0.00000000000E+00 0.  1.
<mgrwt>
<rscale>  0 0.13608416E+04</rscale>
<asrwt>0</asrwt>
<pdfrwt beam="1">  1        4 0.12506361E+00 0.13608416E+04</pdfrwt>
<pdfrwt beam="2">  1       -4 0.87618837E-01 0.13608416E+04</pdfrwt>
<totfact> 0.10478086E+00</totfact>
</mgrwt>
</event>
<event>
12    1  0.1494110E-007  0.1053377E+04  0.7818608E-02  0.9251864E-01
         -1   -1    0    0    0  501 -0.00000000000E+00  0.00000000000E+00  0.25070542211E+03  0.25070542211E+03  0.00000000000E+00 0.  1.
          1   -1    0    0  501    0  0.00000000000E+00 -0.00000000000E+00 -0.11064815194E+04  0.11064815194E+04  0.00000000000E+00 0. -1.
         23    2    1    2    0    0 -0.55015505037E+02  0.19817736294E+02 -0.19805669366E+00  0.10753741498E+03  0.90248589618E+02 0.  0.
        254    2    1    2    0    0  0.55015505037E+02 -0.19817736294E+02 -0.85557804060E+03  0.12496495265E+04  0.90895033260E+03 0.  0.
        -24    2    4    4    0    0  0.25809932764E+03 -0.91846909508E+02 -0.95786159454E+03  0.99961188367E+03  0.81694344805E+02 0.  0.
         24    2    4    4    0    0 -0.20308382260E+03  0.72029173214E+02  0.10228355394E+03  0.25003764286E+03  0.75004377479E+02 0.  0.
         11    1    3    3    0    0 -0.68237766795E+02  0.30220306843E+02 -0.23996170503E+02  0.78393086186E+02  0.00000000000E+00 0.  1.
        -11    1    3    3    0    0  0.13222261758E+02 -0.10402570549E+02  0.23798113810E+02  0.29144328795E+02  0.00000000000E+00 0. -1.
          2    1    6    6  502    0 -0.32769804541E+02  0.57250587769E+01 -0.10968829912E+02  0.35027869152E+02  0.00000000000E+00 0. -1.
          3    1    5    5  503    0  0.14794445742E+03 -0.57867172786E+02 -0.40884034396E+03  0.43861896792E+03  0.00000000000E+00 0. -1.
         -4    1    5    5    0  503  0.11015487022E+03 -0.33979736721E+02 -0.54902125058E+03  0.56099291576E+03  0.00000000000E+00 0.  1.
         -1    1    6    6    0  502 -0.17031401806E+03  0.66304114437E+02  0.11325238386E+03  0.21500977370E+03  0.00000000000E+00 0.  1.
<mgrwt>
<rscale>  0 0.10533773E+04</rscale>
<asrwt>0</asrwt>
<pdfrwt beam="1">  1        1 0.17022793E+00 0.10533773E+04</pdfrwt>
<pdfrwt beam="2">  1       -1 0.38570065E-01 0.10533773E+04</pdfrwt>
<totfact> 0.81495886E+01</totfact>
</mgrwt>
</event>
<event>
12    1  0.1494110E-007  0.2240922E+04  0.7818608E-02  0.8501586E-01
         -2   -1    0    0    0  501 -0.00000000000E+00  0.00000000000E+00  0.15688997912E+04  0.15688997912E+04  0.00000000000E+00 0.  1.
          2   -1    0    0  501    0  0.00000000000E+00 -0.00000000000E+00 -0.80019984011E+03  0.80019984011E+03  0.00000000000E+00 0. -1.
         23    2    1    2    0    0  0.73520292122E+03 -0.50554589629E+03  0.63372276954E+03  0.10982050918E+04  0.91377712823E+02 0.  0.
        254    2    1    2    0    0 -0.73520292122E+03  0.50554589629E+03  0.13497718151E+03  0.12708945395E+04  0.89490452134E+03 0.  0.
        -24    2    4    4    0    0 -0.25775624176E+03  0.40489230709E+03 -0.33307253101E+03  0.58977596643E+03  0.80760876407E+02 0.  0.
         24    2    4    4    0    0 -0.47744667946E+03  0.10065358920E+03  0.46804971252E+03  0.68111857304E+03  0.82252661964E+02 0.  0.
         11    1    3    3    0    0  0.35015796947E+03 -0.21344590763E+03  0.33955504787E+03  0.53241655647E+03  0.00000000000E+00 0.  1.
        -11    1    3    3    0    0  0.38504495175E+03 -0.29209998866E+03  0.29416772167E+03  0.56578853533E+03  0.00000000000E+00 0. -1.
          2    1    6    6  502    0  0.13493046634E+00  0.53453452028E+01 -0.43260847222E+00  0.53645197044E+01  0.00000000000E+00 0. -1.
          1    1    5    5  503    0 -0.11756336279E+02  0.70371703048E+02 -0.53915497680E+02  0.89427450610E+02  0.00000000000E+00 0. -1.
         -2    1    5    5    0  503 -0.24599990548E+03  0.33452060405E+03 -0.27915703333E+03  0.50034851582E+03  0.00000000000E+00 0.  1.
         -1    1    6    6    0  502 -0.47758160993E+03  0.95308243993E+02  0.46848232100E+03  0.67575405333E+03  0.00000000000E+00 0.  1.
<mgrwt>
<rscale>  0 0.22409225E+04</rscale>
<asrwt>0</asrwt>
<pdfrwt beam="1">  1        2 0.12310767E+00 0.22409225E+04</pdfrwt>
<pdfrwt beam="2">  1       -2 0.24136920E+00 0.22409225E+04</pdfrwt>
<totfact> 0.22782061E+00</totfact>
</mgrwt>
</event>
<event>
12    1  0.1494110E-007  0.1086358E+04  0.7818608E-02  0.9218591E-01
          2   -1    0    0  501    0  0.00000000000E+00  0.00000000000E+00  0.29113833810E+03  0.29113833810E+03  0.00000000000E+00 0. -1.
         -2   -1    0    0    0  501 -0.00000000000E+00 -0.00000000000E+00 -0.10134138337E+04  0.10134138337E+04  0.00000000000E+00 0.  1.
         23    2    1    2    0    0  0.88652713973E+02  0.14677997089E+02 -0.24688816470E+03  0.27794496083E+03  0.90691168761E+02 0.  0.
        254    2    1    2    0    0 -0.88652713973E+02 -0.14677997089E+02 -0.47538733094E+03  0.10266072110E+04  0.90545817352E+03 0.  0.
        -24    2    4    4    0    0  0.38894123484E+03  0.56771750394E+02 -0.32011620421E+03  0.51322862229E+03  0.80193009240E+02 0.  0.
         24    2    4    4    0    0 -0.47759394882E+03 -0.71449747483E+02 -0.15527112673E+03  0.51337858873E+03  0.79040535191E+02 0.  0.
         13    1    3    3    0    0  0.40259364353E+02 -0.37302902978E+02 -0.85215579904E+02  0.10136083093E+03  0.00000000000E+00 0. -1.
        -13    1    3    3    0    0  0.48393349620E+02  0.51980900067E+02 -0.16167258480E+03  0.17658412990E+03  0.00000000000E+00 0.  1.
          4    1    6    6  502    0 -0.91615067119E+02 -0.11445080850E+02 -0.63711708022E+02  0.11217616564E+03  0.00000000000E+00 0. -1.
          1    1    5    5  503    0  0.10123250616E+03 -0.52798138330E+00 -0.44063866741E+02  0.11040798622E+03  0.00000000000E+00 0. -1.
         -2    1    5    5    0  503  0.28770872868E+03  0.57299731777E+02 -0.27605233747E+03  0.40282063607E+03  0.00000000000E+00 0.  1.
         -3    1    6    6    0  502 -0.38597888170E+03 -0.60004666634E+02 -0.91559418712E+02  0.40120242309E+03  0.00000000000E+00 0.  1.
<mgrwt>
<rscale>  0 0.10863584E+04</rscale>
<asrwt>0</asrwt>
<pdfrwt beam="1">  1        2 0.44790514E-01 0.10863584E+04</pdfrwt>
<pdfrwt beam="2">  1       -2 0.15590982E+00 0.10863584E+04</pdfrwt>
<totfact> 0.30449733E+01</totfact>
</mgrwt>
</event>
<event>
12    1  0.1760560E-007  0.1589689E+04  0.7818608E-02  0.8826907E-01
         -1   -1    0    0    0  501 -0.00000000000E+00  0.00000000000E+00  0.48975602010E+03  0.48975602010E+03  0.00000000000E+00 0.  1.
          1   -1    0    0  501    0  0.00000000000E+00 -0.00000000000E+00 -0.12899853017E+04  0.12899853017E+04  0.00000000000E+00 0. -1.
         23    2    1    2    0    0  0.22614556034E+03 -0.16793966376E+03  0.23025596829E+03  0.37670643821E+03  0.97695365934E+02 0.  0.
        254    2    1    2    0    0 -0.22614556034E+03  0.16793966376E+03 -0.10304852499E+04  0.14030348836E+04  0.90953916309E+03 0.  0.
        -24    2    4    4    0    0  0.23800326972E+03  0.21589296112E+03 -0.82131437360E+03  0.88533246610E+03  0.77465787167E+02 0.  0.
         24    2    4    4    0    0 -0.46414883006E+03 -0.47953297355E+02 -0.20917087626E+03  0.51770241747E+03  0.80806450286E+02 0.  0.
         11    1    3    3    0    0  0.24654674959E+02 -0.64016138526E+01  0.65749593505E+02  0.70511294864E+02  0.00000000000E+00 0. -1.
        -11    1    3    3    0    0  0.20149088538E+03 -0.16153804991E+03  0.16450637479E+03  0.30619514334E+03  0.00000000000E+00 0.  1.
          4    1    6    6  502    0 -0.46003924356E+03 -0.42434934853E+02 -0.21414715198E+03  0.50921098968E+03  0.00000000000E+00 0. -1.
          3    1    5    5  503    0  0.21613037216E+03  0.15899256902E+03 -0.69745075338E+03  0.74728075592E+03  0.00000000000E+00 0. -1.
         -4    1    5    5    0  503  0.21872897553E+02  0.56900392100E+02 -0.12386362022E+03  0.13805171017E+03  0.00000000000E+00 0.  1.
         -3    1    6    6    0  502 -0.41095864999E+01 -0.55183625016E+01  0.49762757190E+01  0.84914277910E+01  0.00000000000E+00 0.  1.
<mgrwt>
<rscale>  0 0.15896894E+04</rscale>
<asrwt>0</asrwt>
<pdfrwt beam="1">  1        1 0.19845927E+00 0.15896894E+04</pdfrwt>
<pdfrwt beam="2">  1       -1 0.75347081E-01 0.15896894E+04</pdfrwt>
<totfact> 0.15638428E+01</totfact>
</mgrwt>
</event>
<event>
12    1  0.1494110E-007  0.1169069E+04  0.7818608E-02  0.9140369E-01
         -1   -1    0    0    0  501 -0.00000000000E+00  0.00000000000E+00  0.36066220444E+03  0.36066220444E+03  0.00000000000E+00 0.  1.
          1   -1    0    0  501    0  0.00000000000E+00 -0.00000000000E+00 -0.94737048535E+03  0.94737048535E+03  0.00000000000E+00 0. -1.
         23    2    1    2    0    0  0.19046660653E+03 -0.11732413980E+03 -0.13626369366E+03  0.27668982870E+03  0.89145864279E+02 0.  0.
        254    2    1    2    0    0 -0.19046660653E+03  0.11732413980E+03 -0.45044458725E+03  0.10313428611E+04  0.90040284815E+03 0.  0.
        -24    2    4    4    0    0  0.18555922372E+03 -0.27623215208E+03 -0.30997680848E+03  0.46350646137E+03  0.89533181501E+02 0.  0.
         24    2    4    4    0    0 -0.37602583024E+03  0.39355629189E+03 -0.14046777877E+03  0.56783639972E+03  0.80156098202E+02 0.  0.
         11    1    3    3    0    0  0.32945605907E+02 -0.57344564176E+02 -0.67942819572E+02  0.94815814718E+02  0.00000000000E+00 0. -1.
        -11    1    3    3    0    0  0.15752100062E+03 -0.59979575625E+02 -0.68320874085E+02  0.18187401399E+03  0.00000000000E+00 0.  1.
          4    1    6    6  502    0 -0.28282797625E+03  0.33994198514E+03 -0.10374818021E+03  0.45422010337E+03  0.00000000000E+00 0. -1.
          1    1    5    5  503    0  0.18698570435E+03 -0.26091460512E+03 -0.26590865660E+03  0.41683029935E+03  0.00000000000E+00 0. -1.
         -2    1    5    5    0  503 -0.14264806362E+01 -0.15317546967E+02 -0.44068151874E+02  0.46676162028E+02  0.00000000000E+00 0.  1.
         -3    1    6    6    0  502 -0.93197853995E+02  0.53614306747E+02 -0.36719598565E+02  0.11361629635E+03  0.00000000000E+00 0.  1.
<mgrwt>
<rscale>  0 0.11690692E+04</rscale>
<asrwt>0</asrwt>
<pdfrwt beam="1">  1        1 0.14574930E+00 0.11690692E+04</pdfrwt>
<pdfrwt beam="2">  1       -1 0.55486493E-01 0.11690692E+04</pdfrwt>
<totfact> 0.54250770E+01</totfact>
</mgrwt>
</event>
<event>
12    1  0.1494110E-007  0.2558406E+04  0.7818608E-02  0.8382468E-01
          2   -1    0    0  501    0  0.00000000000E+00  0.00000000000E+00  0.72371419136E+03  0.72371419136E+03  0.00000000000E+00 0. -1.
         -2   -1    0    0    0  501 -0.00000000000E+00 -0.00000000000E+00 -0.22610591844E+04  0.22610591844E+04  0.00000000000E+00 0.  1.
         23    2    1    2    0    0 -0.69871527351E+03  0.54858377592E+03 -0.14683802392E+04  0.17174450708E+04  0.65801609007E+02 0.  0.
        254    2    1    2    0    0  0.69871527351E+03 -0.54858377592E+03 -0.68964753908E+02  0.12673283050E+04  0.90123121493E+03 0.  0.
        -24    2    4    4    0    0 -0.14701031249E+02  0.11793216055E+03 -0.23400009944E+03  0.27416904022E+03  0.79300071024E+02 0.  0.
         24    2    4    4    0    0  0.71341630476E+03 -0.66651593647E+03  0.16503534554E+03  0.99315926479E+03  0.76956757272E+02 0.  0.
         13    1    3    3    0    0 -0.62158214814E+03  0.47633062913E+03 -0.12541419098E+04  0.14785557700E+04  0.00000000000E+00 0.  1.
        -13    1    3    3    0    0 -0.77133125374E+02  0.72253146790E+02 -0.21423832942E+03  0.23888930081E+03  0.00000000000E+00 0. -1.
          4    1    6    6  502    0  0.64191716639E+03 -0.56507176784E+03  0.14098060556E+03  0.86674060853E+03  0.00000000000E+00 0. -1.
          3    1    5    5  503    0 -0.46853577213E+02  0.79819727397E+02 -0.16227481907E+03  0.18681424861E+03  0.00000000000E+00 0. -1.
         -4    1    5    5    0  503  0.32152545965E+02  0.38112433154E+02 -0.71725280379E+02  0.87354791616E+02  0.00000000000E+00 0.  1.
         -3    1    6    6    0  502  0.71499138368E+02 -0.10144416863E+03  0.24054739977E+02  0.12641865626E+03  0.00000000000E+00 0.  1.
<mgrwt>
<rscale>  0 0.25584062E+04</rscale>
<asrwt>0</asrwt>
<pdfrwt beam="1">  1        2 0.11134065E+00 0.25584062E+04</pdfrwt>
<pdfrwt beam="2">  1       -2 0.34785525E+00 0.25584062E+04</pdfrwt>
<totfact> 0.55961382E-01</totfact>
</mgrwt>
</event>
<event>
12    1  0.1494110E-007  0.2618315E+04  0.7818608E-02  0.8362006E-01
         -2   -1    0    0    0  501 -0.00000000000E+00  0.00000000000E+00  0.12308443377E+04  0.12308443377E+04  0.00000000000E+00 0.  1.
          2   -1    0    0  501    0  0.00000000000E+00 -0.00000000000E+00 -0.13924535158E+04  0.13924535158E+04  0.00000000000E+00 0. -1.
         23    2    1    2    0    0  0.86511586581E+03 -0.66178889063E+03 -0.45375357169E+03  0.11835643024E+04  0.92423789967E+02 0.  0.
        254    2    1    2    0    0 -0.86511586581E+03  0.66178889063E+03  0.29214439362E+03  0.14397335512E+04  0.89503874475E+03 0.  0.
        -24    2    4    4    0    0  0.16638032609E+03  0.17869565930E+03 -0.13419768522E+02  0.25733126758E+03  0.80154472924E+02 0.  0.
         24    2    4    4    0    0 -0.10314961919E+04  0.48309323134E+03  0.30556416214E+03  0.11824022836E+04  0.85686865877E+02 0.  0.
         13    1    3    3    0    0  0.49118068397E+03 -0.34028508316E+03 -0.28787784075E+03  0.66326921632E+03  0.00000000000E+00 0. -1.
        -13    1    3    3    0    0  0.37393518184E+03 -0.32150380747E+03 -0.16587573094E+03  0.52029508604E+03  0.00000000000E+00 0.  1.
          2    1    6    6  502    0 -0.42771780213E+03  0.24502260932E+03  0.14508999232E+03  0.51383820723E+03  0.00000000000E+00 0. -1.
          1    1    5    5  503    0  0.88405017978E+01  0.45729329679E+02 -0.20883845179E+02  0.51043717090E+02  0.00000000000E+00 0. -1.
         -2    1    5    5    0  503  0.15753982429E+03  0.13296632962E+03  0.74640766567E+01  0.20628755049E+03  0.00000000000E+00 0.  1.
         -1    1    6    6    0  502 -0.60377838976E+03  0.23807062202E+03  0.16047416983E+03  0.66856407636E+03  0.00000000000E+00 0.  1.
<mgrwt>
<rscale>  0 0.26183151E+04</rscale>
<asrwt>0</asrwt>
<pdfrwt beam="1">  1        2 0.21422362E+00 0.26183151E+04</pdfrwt>
<pdfrwt beam="2">  1       -2 0.18936067E+00 0.26183151E+04</pdfrwt>
<totfact> 0.20209679E+00</totfact>
</mgrwt>
</event>
<event>
12    1  0.1494110E-007  0.1156233E+04  0.7818608E-02  0.9152053E-01
         -2   -1    0    0    0  501 -0.00000000000E+00  0.00000000000E+00  0.53243001881E+03  0.53243001881E+03  0.00000000000E+00 0.  1.
          2   -1    0    0  501    0  0.00000000000E+00 -0.00000000000E+00 -0.62772277870E+03  0.62772277870E+03  0.00000000000E+00 0. -1.
         23    2    1    2    0    0  0.12168452579E+02 -0.96635824366E+02 -0.18791333713E+03  0.23076733790E+03  0.91954272238E+02 0.  0.
        254    2    1    2    0    0 -0.12168452579E+02  0.96635824366E+02  0.92620577236E+02  0.92938545961E+03  0.91961524967E+03 0.  0.
        -24    2    4    4    0    0  0.33209318141E+03 -0.25475662377E+03  0.52136262951E+02  0.42927420005E+03  0.79820614012E+02 0.  0.
         24    2    4    4    0    0 -0.34426163399E+03  0.35139244813E+03  0.40484314284E+02  0.50011125956E+03  0.80495757635E+02 0.  0.
         13    1    3    3    0    0  0.16281146200E+02  0.13759187130E+02 -0.17025250046E+02  0.27280947403E+02  0.00000000000E+00 0.  1.
        -13    1    3    3    0    0 -0.41126936201E+01 -0.11039501150E+03 -0.17088808708E+03  0.20348639050E+03  0.00000000000E+00 0. -1.
          4    1    6    6  502    0 -0.18944337281E+03  0.14688370689E+03 -0.41744350421E+01  0.23975204016E+03  0.00000000000E+00 0. -1.
          1    1    5    5  503    0  0.23207390941E+03 -0.13366554607E+03  0.48526743192E+02  0.27217571978E+03  0.00000000000E+00 0. -1.
         -2    1    5    5    0  503  0.10001927200E+03 -0.12109107769E+03  0.36095197587E+01  0.15709848027E+03  0.00000000000E+00 0.  1.
         -3    1    6    6    0  502 -0.15481826118E+03  0.20450874124E+03  0.44658749326E+02  0.26035921940E+03  0.00000000000E+00 0.  1.
<mgrwt>
<rscale>  0 0.11562326E+04</rscale>
<asrwt>0</asrwt>
<pdfrwt beam="1">  1        2 0.96572735E-01 0.11562326E+04</pdfrwt>
<pdfrwt beam="2">  1       -2 0.81912311E-01 0.11562326E+04</pdfrwt>
<totfact> 0.60900769E+01</totfact>
</mgrwt>
</event>
<event>
12    1  0.1494110E-007  0.1954787E+04  0.7818608E-02  0.8628056E-01
         -2   -1    0    0    0  501 -0.00000000000E+00  0.00000000000E+00  0.64134419619E+03  0.64134419619E+03  0.00000000000E+00 0.  1.
          2   -1    0    0  501    0  0.00000000000E+00 -0.00000000000E+00 -0.14895241219E+04  0.14895241219E+04  0.00000000000E+00 0. -1.
         23    2    1    2    0    0  0.62418489827E+03 -0.25286749511E+03 -0.75448591451E+03  0.10152267715E+04  0.88812415443E+02 0.  0.
        254    2    1    2    0    0 -0.62418489827E+03  0.25286749511E+03 -0.93694011173E+02  0.11156415465E+04  0.88449349080E+03 0.  0.
        -24    2    4    4    0    0  0.36798061893E+02  0.20238267995E+03 -0.33841242787E+03  0.40460008313E+03  0.82857766274E+02 0.  0.
         24    2    4    4    0    0 -0.66098296017E+03  0.50484815160E+02  0.24471841669E+03  0.71104146338E+03  0.79029545045E+02 0.  0.
         11    1    3    3    0    0  0.17207311002E+03 -0.11284518624E+03 -0.24054600831E+03  0.31655263916E+03  0.00000000000E+00 0.  1.
        -11    1    3    3    0    0  0.45211178825E+03 -0.14002230887E+03 -0.51393990621E+03  0.69867413238E+03  0.00000000000E+00 0. -1.
          2    1    6    6  502    0 -0.62188754225E+03  0.34841921481E+02  0.24393238157E+03  0.66892531831E+03  0.00000000000E+00 0. -1.
          3    1    5    5  503    0  0.27976187340E+02  0.13613351903E+03 -0.14905881328E+03  0.20379777202E+03  0.00000000000E+00 0. -1.
         -4    1    5    5    0  503  0.88218745532E+01  0.66249160925E+02 -0.18935361458E+03  0.20080231112E+03  0.00000000000E+00 0.  1.
         -1    1    6    6    0  502 -0.39095417919E+02  0.15642893679E+02  0.78603512549E+00  0.42116145077E+02  0.00000000000E+00 0.  1.
<mgrwt>
<rscale>  0 0.19547866E+04</rscale>
<asrwt>0</asrwt>
<pdfrwt beam="1">  1        2 0.22915755E+00 0.19547866E+04</pdfrwt>
<pdfrwt beam="2">  1       -2 0.98668339E-01 0.19547866E+04</pdfrwt>
<totfact> 0.10231663E+01</totfact>
</mgrwt>
</event>
<event>
12    1  0.1494110E-007  0.1826787E+04  0.7818608E-02  0.8692183E-01
         -1   -1    0    0    0  501 -0.00000000000E+00  0.00000000000E+00  0.73868501745E+03  0.73868501745E+03  0.00000000000E+00 0.  1.
          1   -1    0    0  501    0  0.00000000000E+00 -0.00000000000E+00 -0.11294228585E+04  0.11294228585E+04  0.00000000000E+00 0. -1.
         23    2    1    2    0    0 -0.82154035239E+02  0.62622355581E+03 -0.43984618655E+03  0.77497897977E+03  0.90678133576E+02 0.  0.
        254    2    1    2    0    0  0.82154035239E+02 -0.62622355581E+03  0.49108345517E+02  0.10931288962E+04  0.89085011459E+03 0.  0.
        -24    2    4    4    0    0  0.23666301719E+03 -0.27601711448E+03  0.41569161865E+03  0.55750099755E+03  0.76243093243E+02 0.  0.
         24    2    4    4    0    0 -0.15450898195E+03 -0.35020644133E+03 -0.36658327313E+03  0.53562789861E+03  0.77436248472E+02 0.  0.
         13    1    3    3    0    0 -0.22478013055E+02  0.26313127198E+03 -0.13209708829E+03  0.29528455445E+03  0.00000000000E+00 0.  1.
        -13    1    3    3    0    0 -0.59676022184E+02  0.36309228383E+03 -0.30774909826E+03  0.47969442532E+03  0.00000000000E+00 0. -1.
          2    1    6    6  502    0 -0.11746737671E+03 -0.29193952097E+03 -0.25788999718E+03  0.40685933581E+03  0.00000000000E+00 0. -1.
          1    1    5    5  503    0  0.10981984705E+03 -0.87981521948E+02  0.19966899415E+03  0.24427209058E+03  0.00000000000E+00 0. -1.
         -2    1    5    5    0  503  0.12684317014E+03 -0.18803559254E+03  0.21602262450E+03  0.31322890698E+03  0.00000000000E+00 0.  1.
         -1    1    6    6    0  502 -0.37041605237E+02 -0.58266920361E+02 -0.10869327595E+03  0.12876856279E+03  0.00000000000E+00 0.  1.
<mgrwt>
<rscale>  0 0.18267871E+04</rscale>
<asrwt>0</asrwt>
<pdfrwt beam="1">  1        1 0.17375736E+00 0.18267871E+04</pdfrwt>
<pdfrwt beam="2">  1       -1 0.11364385E+00 0.18267871E+04</pdfrwt>
<totfact> 0.80128081E+00</totfact>
</mgrwt>
</event>
<event>
12    1  0.1494110E-007  0.2156144E+04  0.7818608E-02  0.8536907E-01
         -2   -1    0    0    0  501 -0.00000000000E+00  0.00000000000E+00  0.40658262223E+03  0.40658262223E+03  0.00000000000E+00 0.  1.
          2   -1    0    0  501    0  0.00000000000E+00 -0.00000000000E+00 -0.28585563509E+04  0.28585563509E+04  0.00000000000E+00 0. -1.
         23    2    1    2    0    0  0.87011736512E+03  0.18291823639E+03 -0.10099338546E+04  0.13482854414E+04  0.85696736347E+02 0.  0.
        254    2    1    2    0    0 -0.87011736512E+03 -0.18291823639E+03 -0.14420398741E+04  0.19168535317E+04  0.89681946530E+03 0.  0.
        -24    2    4    4    0    0 -0.93996098771E+03 -0.39737262336E+03 -0.11767741769E+04  0.15598109599E+04  0.82347477289E+02 0.  0.
         24    2    4    4    0    0  0.69843622587E+02  0.21445438697E+03 -0.26526569721E+03  0.35704257183E+03  0.79023365410E+02 0.  0.
         11    1    3    3    0    0  0.26711472728E+02  0.21951933531E+02 -0.41987421796E+02  0.54390566738E+02  0.00000000000E+00 0.  1.
        -11    1    3    3    0    0  0.84340589239E+03  0.16096630286E+03 -0.96794643278E+03  0.12938948747E+04  0.00000000000E+00 0. -1.
          2    1    6    6  502    0  0.40269371451E+02  0.64861879074E+02 -0.14096343571E+03  0.16031024871E+03  0.00000000000E+00 0. -1.
          3    1    5    5  503    0 -0.49236668822E+03 -0.19621537649E+03 -0.55050387832E+03  0.76418580835E+03  0.00000000000E+00 0. -1.
         -4    1    5    5    0  503 -0.44759429949E+03 -0.20115724686E+03 -0.62627029859E+03  0.79562515156E+03  0.00000000000E+00 0.  1.
         -1    1    6    6    0  502  0.29574251136E+02  0.14959250789E+03 -0.12430226149E+03  0.19673232312E+03  0.00000000000E+00 0.  1.
<mgrwt>
<rscale>  0 0.21561441E+04</rscale>
<asrwt>0</asrwt>
<pdfrwt beam="1">  1        2 0.43977790E+00 0.21561441E+04</pdfrwt>
<pdfrwt beam="2">  1       -2 0.62551173E-01 0.21561441E+04</pdfrwt>
<totfact> 0.46369043E+00</totfact>
</mgrwt>
</event>
<event>
12    1  0.1538633E-007  0.1602709E+04  0.7818608E-02  0.8818886E-01
          1   -1    0    0  501    0  0.00000000000E+00  0.00000000000E+00  0.21058715366E+04  0.21058715366E+04  0.00000000000E+00 0. -1.
         -1   -1    0    0    0  501 -0.00000000000E+00 -0.00000000000E+00 -0.30494213206E+03  0.30494213206E+03  0.00000000000E+00 0.  1.
         23    2    1    2    0    0  0.42565593590E+03 -0.28868860582E+03  0.35498673952E+03  0.63155102016E+03  0.91197691474E+02 0.  0.
        254    2    1    2    0    0 -0.42565593590E+03  0.28868860582E+03  0.14459426651E+04  0.17792626485E+04  0.90027845410E+03 0.  0.
        -24    2    4    4    0    0  0.26968953001E+02  0.45968557633E+03  0.36712829038E+03  0.59422610456E+03  0.79267447493E+02 0.  0.
         24    2    4    4    0    0 -0.45262488890E+03 -0.17099697050E+03  0.10788143747E+04  0.11850365440E+04  0.79761529300E+02 0.  0.
         13    1    3    3    0    0  0.26430850654E+03 -0.16164134526E+03  0.26355782821E+03  0.40675501218E+03  0.00000000000E+00 0. -1.
        -13    1    3    3    0    0  0.16134742937E+03 -0.12704726057E+03  0.91428911311E+02  0.22479600798E+03  0.00000000000E+00 0.  1.
          2    1    6    6  502    0 -0.12667313421E+03 -0.83233546934E+02  0.29627247395E+03  0.33279315661E+03  0.00000000000E+00 0. -1.
          1    1    5    5  503    0 -0.12339614970E+02  0.18326096055E+03  0.18605700439E+03  0.26144608362E+03  0.00000000000E+00 0. -1.
         -4    1    5    5    0  503  0.39308567971E+02  0.27642461578E+03  0.18107128599E+03  0.33278002094E+03  0.00000000000E+00 0.  1.
         -1    1    6    6    0  502 -0.32595175469E+03 -0.87763423571E+02  0.78254190073E+03  0.85224338736E+03  0.00000000000E+00 0.  1.
<mgrwt>
<rscale>  0 0.16027089E+04</rscale>
<asrwt>0</asrwt>
<pdfrwt beam="1">  1        1 0.32398023E+00 0.16027089E+04</pdfrwt>
<pdfrwt beam="2">  1       -1 0.46914175E-01 0.16027089E+04</pdfrwt>
<totfact> 0.10978385E+01</totfact>
</mgrwt>
</event>
<event>
12    1  0.1494110E-007  0.1299744E+04  0.7818608E-02  0.9029768E-01
          2   -1    0    0  501    0  0.00000000000E+00  0.00000000000E+00  0.23690957572E+04  0.23690957572E+04  0.00000000000E+00 0. -1.
         -2   -1    0    0    0  501 -0.00000000000E+00 -0.00000000000E+00 -0.17826795853E+03  0.17826795853E+03  0.00000000000E+00 0.  1.
         23    2    1    2    0    0  0.21003568403E+03  0.22233885974E+03  0.80236817624E+03  0.86344637684E+03  0.90528439291E+02 0.  0.
        254    2    1    2    0    0 -0.21003568403E+03 -0.22233885974E+03  0.13884596225E+04  0.16839173389E+04  0.90233470731E+03 0.  0.
        -24    2    4    4    0    0 -0.20191012695E+03  0.27876267909E+03  0.94968148381E+03  0.10130103241E+04  0.76280176907E+02 0.  0.
         24    2    4    4    0    0 -0.81255570784E+01 -0.50110153883E+03  0.43877813865E+03  0.67090701484E+03  0.80132332481E+02 0.  0.
         11    1    3    3    0    0  0.19551392005E+03  0.17464248179E+03  0.72931736306E+03  0.77500290673E+03  0.00000000000E+00 0. -1.
        -11    1    3    3    0    0  0.14521763980E+02  0.47696377956E+02  0.73050813177E+02  0.88443470109E+02  0.00000000000E+00 0.  1.
          4    1    6    6  502    0  0.21627329739E+02 -0.35135384553E+03  0.27248930897E+03  0.44516029659E+03  0.00000000000E+00 0. -1.
          1    1    5    5  503    0 -0.12883062650E+03  0.23028144570E+03  0.67864091888E+03  0.72813485794E+03  0.00000000000E+00 0. -1.
         -2    1    5    5    0  503 -0.73079500449E+02  0.48481233390E+02  0.27104056493E+03  0.28487546615E+03  0.00000000000E+00 0.  1.
         -3    1    6    6    0  502 -0.29752886817E+02 -0.14974769330E+03  0.16628882969E+03  0.22574671825E+03  0.00000000000E+00 0.  1.
<mgrwt>
<rscale>  0 0.12997444E+04</rscale>
<asrwt>0</asrwt>
<pdfrwt beam="1">  1        2 0.36447625E+00 0.12997444E+04</pdfrwt>
<pdfrwt beam="2">  1       -2 0.27425841E-01 0.12997444E+04</pdfrwt>
<totfact> 0.49329491E+01</totfact>
</mgrwt>
</event>
<event>
12    1  0.1494110E-007  0.1724794E+04  0.7818608E-02  0.8747348E-01
          1   -1    0    0  501    0  0.00000000000E+00  0.00000000000E+00  0.64428989124E+03  0.64428989124E+03  0.00000000000E+00 0. -1.
         -1   -1    0    0    0  501 -0.00000000000E+00 -0.00000000000E+00 -0.11543387880E+04  0.11543387880E+04  0.00000000000E+00 0.  1.
         23    2    1    2    0    0  0.49521145644E+03 -0.33468439008E+03 -0.41879475472E+03  0.73544467797E+03  0.90784361153E+02 0.  0.
        254    2    1    2    0    0 -0.49521145644E+03  0.33468439008E+03 -0.91254142026E+02  0.10631840012E+04  0.87451979653E+03 0.  0.
        -24    2    4    4    0    0  0.15339523507E+03 -0.10767872544E+03  0.13290375731E+03  0.24285733196E+03  0.78685887701E+02 0.  0.
         24    2    4    4    0    0 -0.64860669151E+03  0.44236311552E+03 -0.22415789934E+03  0.82032666929E+03  0.79456367098E+02 0.  0.
         11    1    3    3    0    0  0.36311345589E+03 -0.27413634310E+03 -0.27842828531E+03  0.53340831126E+03  0.00000000000E+00 0.  1.
        -11    1    3    3    0    0  0.13209800054E+03 -0.60548046977E+02 -0.14036646941E+03  0.20203636672E+03  0.00000000000E+00 0. -1.
          2    1    6    6  502    0 -0.60719400763E+03  0.39612814407E+03 -0.22202620745E+03  0.75822009089E+03  0.00000000000E+00 0. -1.
          3    1    5    5  503    0  0.12485508304E+03 -0.53578562847E+02  0.62374764386E+02  0.14949938257E+03  0.00000000000E+00 0. -1.
         -4    1    5    5    0  503  0.28540152034E+02 -0.54100162591E+02  0.70528992923E+02  0.93357949384E+02  0.00000000000E+00 0.  1.
         -1    1    6    6    0  502 -0.41412683875E+02  0.46234971444E+02 -0.21316918823E+01  0.62106578399E+02  0.00000000000E+00 0.  1.
<mgrwt>
<rscale>  0 0.17247943E+04</rscale>
<asrwt>0</asrwt>
<pdfrwt beam="1">  1        1 0.99121522E-01 0.17247943E+04</pdfrwt>
<pdfrwt beam="2">  1       -1 0.17759058E+00 0.17247943E+04</pdfrwt>
<totfact> 0.63466146E+00</totfact>
</mgrwt>
</event>
<event>
12    1  0.1494110E-007  0.2657556E+04  0.7818608E-02  0.8348909E-01
         -2   -1    0    0    0  501 -0.00000000000E+00  0.00000000000E+00  0.67534362152E+03  0.67534362152E+03  0.00000000000E+00 0.  1.
          2   -1    0    0  501    0  0.00000000000E+00 -0.00000000000E+00 -0.26144486715E+04  0.26144486715E+04  0.00000000000E+00 0. -1.
         23    2    1    2    0    0 -0.62956882774E+03 -0.73694105608E+03 -0.39594215272E+02  0.97445293566E+03  0.92475904642E+02 0.  0.
        254    2    1    2    0    0  0.62956882774E+03  0.73694105608E+03 -0.18995108347E+04  0.23153393574E+04  0.90178484106E+03 0.  0.
        -24    2    4    4    0    0  0.19196220463E+03  0.62409205429E+03 -0.16845595334E+04  0.18084888053E+04  0.80935512694E+02 0.  0.
         24    2    4    4    0    0  0.43760662310E+03  0.11284900180E+03 -0.21495130131E+03  0.50685055203E+03  0.80367694789E+02 0.  0.
         13    1    3    3    0    0 -0.63809057288E+02 -0.37810066048E+02  0.81541128643E+00  0.74174535941E+02  0.00000000000E+00 0.  1.
        -13    1    3    3    0    0 -0.56575977045E+03 -0.69913099004E+03 -0.40409626558E+02  0.90027839972E+03  0.00000000000E+00 0. -1.
          4    1    6    6  502    0  0.77587910089E+01  0.80152799157E+01 -0.20960644451E+02  0.23744308073E+02  0.00000000000E+00 0. -1.
          3    1    5    5  503    0  0.12554008194E+02  0.84120603917E+02 -0.15984816697E+03  0.18106715773E+03  0.00000000000E+00 0. -1.
         -4    1    5    5    0  503  0.17940819644E+03  0.53997145037E+03 -0.15247113664E+04  0.16274216476E+04  0.00000000000E+00 0.  1.
         -3    1    6    6    0  502  0.42984783209E+03  0.10483372188E+03 -0.19399065686E+03  0.48310624395E+03  0.00000000000E+00 0.  1.
<mgrwt>
<rscale>  0 0.26575562E+04</rscale>
<asrwt>0</asrwt>
<pdfrwt beam="1">  1        2 0.40222287E+00 0.26575562E+04</pdfrwt>
<pdfrwt beam="2">  1       -2 0.10389902E+00 0.26575562E+04</pdfrwt>
<totfact> 0.19801902E+00</totfact>
</mgrwt>
</event>
<event>
12    1  0.1494110E-007  0.1538174E+04  0.7818608E-02  0.8859457E-01
         -2   -1    0    0    0  501 -0.00000000000E+00  0.00000000000E+00  0.17157248276E+04  0.17157248276E+04  0.00000000000E+00 0. -1.
          2   -1    0    0  501    0  0.00000000000E+00 -0.00000000000E+00 -0.34474901268E+03  0.34474901268E+03  0.00000000000E+00 0.  1.
         23    2    1    2    0    0 -0.15204111524E+02 -0.15874607769E+03 -0.18032343250E+03  0.25746918566E+03  0.91336515518E+02 0.  0.
        254    2    1    2    0    0  0.15204111524E+02  0.15874607769E+03  0.15512992474E+04  0.18030046546E+04  0.90491156878E+03 0.  0.
        -24    2    4    4    0    0 -0.26008447187E+02 -0.19909391630E+03  0.82218826227E+01  0.21646125979E+03  0.80455272079E+02 0.  0.
         24    2    4    4    0    0  0.41212558711E+02  0.35783999399E+03  0.15430773648E+04  0.15865433948E+04  0.79273284236E+02 0.  0.
         11    1    3    3    0    0 -0.24007536895E+01  0.11640627175E+02 -0.57918063928E+01  0.13221680702E+02  0.00000000000E+00 0. -1.
        -11    1    3    3    0    0 -0.12803357835E+02 -0.17038670487E+03 -0.17453162611E+03  0.24424750496E+03  0.00000000000E+00 0.  1.
          4    1    6    6  502    0  0.23297323066E+02  0.25255351428E+02  0.18953660513E+03  0.19262586203E+03  0.00000000000E+00 0. -1.
          3    1    5    5  503    0  0.11809302668E+02 -0.54649254556E+02  0.33271373285E+02  0.65061393570E+02  0.00000000000E+00 0. -1.
         -4    1    5    5    0  503 -0.37817749855E+02 -0.14444466174E+03 -0.25049490662E+02  0.15139986622E+03  0.00000000000E+00 0.  1.
         -3    1    6    6    0  502  0.17915235645E+02  0.33258464256E+03  0.13535407597E+04  0.13939175328E+04  0.00000000000E+00 0.  1.
<mgrwt>
<rscale>  0 0.15381735E+04</rscale>
<asrwt>0</asrwt>
<pdfrwt beam="1">  1        2 0.53038311E-01 0.15381735E+04</pdfrwt>
<pdfrwt beam="2">  1       -2 0.26395766E+00 0.15381735E+04</pdfrwt>
<totfact> 0.47838757E+00</totfact>
</mgrwt>
</event>
<event>
12    1  0.1494110E-007  0.1564302E+04  0.7818608E-02  0.8842784E-01
          1   -1    0    0  501    0  0.00000000000E+00  0.00000000000E+00  0.29072214879E+04  0.29072214879E+04  0.00000000000E+00 0. -1.
         -1   -1    0    0    0  501 -0.00000000000E+00 -0.00000000000E+00 -0.21042788032E+03  0.21042788032E+03  0.00000000000E+00 0.  1.
         23    2    1    2    0    0  0.50880605562E+03 -0.12175289217E+03  0.93219338423E+03  0.10723906374E+04  0.85614277461E+02 0.  0.
        254    2    1    2    0    0 -0.50880605562E+03  0.12175289217E+03  0.17646002234E+04  0.20452587309E+04  0.89194280025E+03 0.  0.
        -24    2    4    4    0    0 -0.57178713293E+03 -0.12650542463E+03  0.57081723935E+03  0.82154352709E+03  0.78468454339E+02 0.  0.
         24    2    4    4    0    0  0.62981077311E+02  0.24825831680E+03  0.11937829840E+04  0.12237152038E+04  0.82233077728E+02 0.  0.
         11    1    3    3    0    0  0.38761473657E+03 -0.12372114626E+03  0.75589591246E+03  0.85844669987E+03  0.00000000000E+00 0.  1.
        -11    1    3    3    0    0  0.12119131905E+03  0.19682540919E+01  0.17629747177E+03  0.21394393749E+03  0.00000000000E+00 0. -1.
          2    1    6    6  502    0  0.34958339549E+02  0.22942039033E+03  0.96849244842E+03  0.99590834099E+03  0.00000000000E+00 0. -1.
          3    1    5    5  503    0 -0.53385667363E+03 -0.98344231117E+02  0.53588849318E+03  0.76279159205E+03  0.00000000000E+00 0. -1.
         -2    1    5    5    0  503 -0.37930459298E+02 -0.28161193516E+02  0.34928746170E+02  0.58751935047E+02  0.00000000000E+00 0.  1.
         -1    1    6    6    0  502  0.28022737762E+02  0.18837926471E+02  0.22529053558E+03  0.22780686278E+03  0.00000000000E+00 0.  1.
<mgrwt>
<rscale>  0 0.15643023E+04</rscale>
<asrwt>0</asrwt>
<pdfrwt beam="1">  1        1 0.44726481E+00 0.15643023E+04</pdfrwt>
<pdfrwt beam="2">  1       -1 0.32373522E-01 0.15643023E+04</pdfrwt>
<totfact> 0.60198694E+00</totfact>
</mgrwt>
</event>
<event>
12    1  0.1494110E-007  0.2253240E+04  0.7818608E-02  0.8496589E-01
          1   -1    0    0  501    0  0.00000000000E+00  0.00000000000E+00  0.48394182597E+03  0.48394182597E+03  0.00000000000E+00 0. -1.
         -1   -1    0    0    0  501 -0.00000000000E+00 -0.00000000000E+00 -0.26227797081E+04  0.26227797081E+04  0.00000000000E+00 0.  1.
         23    2    1    2    0    0  0.94358914843E+02 -0.83734856646E+03 -0.14817042659E+04  0.17069680006E+04  0.90752393985E+02 0.  0.
        254    2    1    2    0    0 -0.94358914843E+02  0.83734856646E+03 -0.65713361623E+03  0.13997535334E+04  0.90411787850E+03 0.  0.
        -24    2    4    4    0    0 -0.21528174097E+02  0.66501960380E+03  0.42248054367E+02  0.67136184295E+03  0.78913182358E+02 0.  0.
         24    2    4    4    0    0 -0.72830740746E+02  0.17232896266E+03 -0.69938167060E+03  0.72839169049E+03  0.80113328706E+02 0.  0.
         11    1    3    3    0    0  0.32305216746E+02 -0.19823728071E+03 -0.43261968307E+03  0.47697110675E+03  0.00000000000E+00 0. -1.
        -11    1    3    3    0    0  0.62053698097E+02 -0.63911128575E+03 -0.10490845828E+04  0.12299968939E+04  0.00000000000E+00 0.  1.
          4    1    6    6  502    0 -0.75928441451E+02  0.14831502262E+03 -0.48871000135E+03  0.51633316722E+03  0.00000000000E+00 0. -1.
          1    1    5    5  503    0  0.20986470912E+02  0.46415961568E+03  0.24301852365E+02  0.46526891237E+03  0.00000000000E+00 0. -1.
         -2    1    5    5    0  503 -0.42514645009E+02  0.20085998812E+03  0.17946202002E+02  0.20609293058E+03  0.00000000000E+00 0.  1.
         -3    1    6    6    0  502  0.30977007045E+01  0.24013940043E+02 -0.21067166925E+03  0.21205852327E+03  0.00000000000E+00 0.  1.
<mgrwt>
<rscale>  0 0.22532402E+04</rscale>
<asrwt>0</asrwt>
<pdfrwt beam="1">  1        1 0.74452588E-01 0.22532402E+04</pdfrwt>
<pdfrwt beam="2">  1       -1 0.40350457E+00 0.22532402E+04</pdfrwt>
<totfact> 0.28502196E-01</totfact>
</mgrwt>
</event>
<event>
12    1  0.1494110E-007  0.1902375E+04  0.7818608E-02  0.8653675E-01
          2   -1    0    0  501    0  0.00000000000E+00  0.00000000000E+00  0.32239428547E+04  0.32239428547E+04  0.00000000000E+00 0. -1.
         -2   -1    0    0    0  501 -0.00000000000E+00 -0.00000000000E+00 -0.28063708793E+03  0.28063708793E+03  0.00000000000E+00 0.  1.
         23    2    1    2    0    0 -0.39001060211E+03 -0.37503784390E+03  0.20246595316E+04  0.20976875189E+04  0.91022271935E+02 0.  0.
        254    2    1    2    0    0  0.39001060211E+03  0.37503784390E+03  0.91864623518E+03  0.14068924237E+04  0.91797262073E+03 0.  0.
        -24    2    4    4    0    0  0.22769135579E+03  0.40785511383E+03  0.41724731483E+01  0.47391153591E+03  0.79909867737E+02 0.  0.
         24    2    4    4    0    0  0.16231924632E+03 -0.32817269933E+02  0.91447376204E+03  0.93298088781E+03  0.82259131017E+02 0.  0.
         11    1    3    3    0    0 -0.58206278414E+02 -0.36710696607E+02  0.16892456122E+03  0.18240381980E+03  0.00000000000E+00 0.  1.
        -11    1    3    3    0    0 -0.33180432370E+03 -0.33832714729E+03  0.18557349704E+04  0.19152836991E+04  0.00000000000E+00 0. -1.
          4    1    6    6  502    0  0.34340971414E+02  0.15128067960E+01  0.67949847444E+02  0.76149672814E+02  0.00000000000E+00 0. -1.
          1    1    5    5  503    0  0.64117604747E+02  0.17890392012E+03 -0.22003514298E+02  0.19131605921E+03  0.00000000000E+00 0. -1.
         -2    1    5    5    0  503  0.16357375104E+03  0.22895119371E+03  0.26175987446E+02  0.28259547670E+03  0.00000000000E+00 0.  1.
         -3    1    6    6    0  502  0.12797827491E+03 -0.34330076729E+02  0.84652391459E+03  0.85683121500E+03  0.00000000000E+00 0.  1.
<mgrwt>
<rscale>  0 0.19023753E+04</rscale>
<asrwt>0</asrwt>
<pdfrwt beam="1">  1        2 0.49599118E+00 0.19023753E+04</pdfrwt>
<pdfrwt beam="2">  1       -2 0.43174939E-01 0.19023753E+04</pdfrwt>
<totfact> 0.59844274E+00</totfact>
</mgrwt>
</event>
<event>
12    1  0.1494110E-007  0.1185942E+04  0.7818608E-02  0.9125251E-01
         -2   -1    0    0    0  501 -0.00000000000E+00  0.00000000000E+00  0.18381165851E+03  0.18381165851E+03  0.00000000000E+00 0.  1.
          2   -1    0    0  501    0  0.00000000000E+00 -0.00000000000E+00 -0.19129079231E+04  0.19129079231E+04  0.00000000000E+00 0. -1.
         23    2    1    2    0    0  0.11395946306E+03  0.17601373469E+03 -0.54467869224E+03  0.59082709919E+03  0.91837842615E+02 0.  0.
        254    2    1    2    0    0 -0.11395946306E+03 -0.17601373469E+03 -0.11844175723E+04  0.15058924824E+04  0.90603509252E+03 0.  0.
        -24    2    4    4    0    0  0.38273750709E+03  0.12018836427E+02 -0.54574295881E+03  0.67153501728E+03  0.80569538806E+02 0.  0.
         24    2    4    4    0    0 -0.49669697015E+03 -0.18803257112E+03 -0.63867461350E+03  0.83435746511E+03  0.78631988929E+02 0.  0.
         11    1    3    3    0    0  0.70223683203E+02  0.13017835651E+03 -0.47088262200E+03  0.49356682819E+03  0.00000000000E+00 0. -1.
        -11    1    3    3    0    0  0.43735779862E+02  0.45835378175E+02 -0.73796070247E+02  0.97260271008E+02  0.00000000000E+00 0.  1.
          4    1    6    6  502    0 -0.43003384156E+03 -0.17842620627E+03 -0.52055992222E+03  0.69838932451E+03  0.00000000000E+00 0. -1.
          3    1    5    5  503    0  0.16817377528E+02  0.18574206457E+02 -0.41484540967E+02  0.48464342270E+02  0.00000000000E+00 0. -1.
         -4    1    5    5    0  503  0.36592012956E+03 -0.65553700301E+01 -0.50425841784E+03  0.62307067501E+03  0.00000000000E+00 0.  1.
         -3    1    6    6    0  502 -0.66663128598E+02 -0.96063648462E+01 -0.11811469129E+03  0.13596814060E+03  0.00000000000E+00 0.  1.
<mgrwt>
<rscale>  0 0.11859423E+04</rscale>
<asrwt>0</asrwt>
<pdfrwt beam="1">  1        2 0.29429351E+00 0.11859423E+04</pdfrwt>
<pdfrwt beam="2">  1       -2 0.28278719E-01 0.11859423E+04</pdfrwt>
<totfact> 0.84504353E+01</totfact>
</mgrwt>
</event>
<event>
12    1  0.1494110E-007  0.1849458E+04  0.7818608E-02  0.8680432E-01
          2   -1    0    0  501    0  0.00000000000E+00  0.00000000000E+00  0.18978823993E+04  0.18978823993E+04  0.00000000000E+00 0.  1.
         -2   -1    0    0    0  501 -0.00000000000E+00 -0.00000000000E+00 -0.45056708696E+03  0.45056708696E+03  0.00000000000E+00 0. -1.
         23    2    1    2    0    0 -0.30301494400E+03 -0.27010161260E+03  0.12409350426E+04  0.13087220333E+04  0.89781084434E+02 0.  0.
        254    2    1    2    0    0  0.30301494400E+03  0.27010161260E+03  0.20638026970E+03  0.10397274529E+04  0.93470178301E+03 0.  0.
        -24    2    4    4    0    0  0.27220904078E+03 -0.30863221746E+03 -0.44082668065E+00  0.41910214863E+03  0.79339833108E+02 0.  0.
         24    2    4    4    0    0  0.30805903222E+02  0.57873383006E+03  0.20682109638E+03  0.62062530427E+03  0.80740031310E+02 0.  0.
         11    1    3    3    0    0 -0.10959163809E+02 -0.12499793768E+02  0.13914705381E+03  0.14013654305E+03  0.00000000000E+00 0. -1.
        -11    1    3    3    0    0 -0.29205578019E+03 -0.25760181883E+03  0.11017879888E+04  0.11685854903E+04  0.00000000000E+00 0.  1.
          2    1    6    6  502    0 -0.57883452939E+01  0.21921840708E+03  0.11568250390E+03  0.24793679971E+03  0.00000000000E+00 0. -1.
          3    1    5    5  503    0  0.35699826711E+02 -0.56310907695E+02 -0.27687920173E+02  0.72194299471E+02  0.00000000000E+00 0. -1.
         -4    1    5    5    0  503  0.23650921407E+03 -0.25232130977E+03  0.27247093492E+02  0.34690784916E+03  0.00000000000E+00 0.  1.
         -1    1    6    6    0  502  0.36594248515E+02  0.35951542299E+03  0.91138592485E+02  0.37268850456E+03  0.00000000000E+00 0.  1.
<mgrwt>
<rscale>  0 0.18494576E+04</rscale>
<asrwt>0</asrwt>
<pdfrwt beam="1">  1        2 0.29198190E+00 0.18494576E+04</pdfrwt>
<pdfrwt beam="2">  1       -2 0.69318014E-01 0.18494576E+04</pdfrwt>
<totfact> 0.13595953E+01</totfact>
</mgrwt>
</event>
<event>
12    1  0.1494110E-007  0.1722551E+04  0.7818608E-02  0.8748606E-01
          1   -1    0    0  501    0  0.00000000000E+00  0.00000000000E+00  0.21895572222E+04  0.21895572222E+04  0.00000000000E+00 0. -1.
         -1   -1    0    0    0  501 -0.00000000000E+00 -0.00000000000E+00 -0.33878777368E+03  0.33878777368E+03  0.00000000000E+00 0.  1.
         23    2    1    2    0    0 -0.30221144997E+03  0.61771187710E+02  0.15093718287E+04  0.15442380659E+04  0.10639758750E+03 0.  0.
        254    2    1    2    0    0  0.30221144997E+03 -0.61771187710E+02  0.34139761980E+03  0.98410693001E+03  0.86992337293E+03 0.  0.
        -24    2    4    4    0    0 -0.52137431553E+02  0.81993016616E+02  0.53392321085E+03  0.54864862458E+03  0.80623517810E+02 0.  0.
         24    2    4    4    0    0  0.35434888152E+03 -0.14376420433E+03 -0.19252559105E+03  0.43545830543E+03  0.79539652229E+02 0.  0.
         13    1    3    3    0    0 -0.12553855003E+02  0.31095979677E+02  0.20634215357E+03  0.20904938069E+03  0.00000000000E+00 0.  1.
        -13    1    3    3    0    0 -0.28965759496E+03  0.30675208033E+02  0.13030296752E+04  0.13351886852E+04  0.00000000000E+00 0. -1.
          4    1    6    6  502    0  0.50938438965E+02  0.44334204777E+01 -0.11831313273E+02  0.52481994580E+02  0.00000000000E+00 0. -1.
          1    1    5    5  503    0 -0.43640748494E+01 -0.22253136742E+01 -0.10281121304E+01  0.50054155464E+01  0.00000000000E+00 0. -1.
         -2    1    5    5    0  503 -0.47773356704E+02  0.84218330290E+02  0.53495132298E+03  0.54364320903E+03  0.00000000000E+00 0.  1.
         -3    1    6    6    0  502  0.30341044255E+03 -0.14819762480E+03 -0.18069427778E+03  0.38297631085E+03  0.00000000000E+00 0.  1.
<mgrwt>
<rscale>  0 0.17225507E+04</rscale>
<asrwt>0</asrwt>
<pdfrwt beam="1">  1        1 0.33685495E+00 0.17225507E+04</pdfrwt>
<pdfrwt beam="2">  1       -1 0.52121197E-01 0.17225507E+04</pdfrwt>
<totfact> 0.78017104E+00</totfact>
</mgrwt>
</event>
<event>
12    1  0.1494110E-007  0.1871448E+04  0.7818608E-02  0.8669200E-01
          2   -1    0    0  501    0  0.00000000000E+00  0.00000000000E+00  0.13820263335E+04  0.13820263335E+04  0.00000000000E+00 0. -1.
         -2   -1    0    0    0  501 -0.00000000000E+00 -0.00000000000E+00 -0.63354777364E+03  0.63354777364E+03  0.00000000000E+00 0.  1.
         23    2    1    2    0    0  0.16509532576E+03 -0.69000507637E+03  0.40065113756E+03  0.81991234260E+03  0.91495592917E+02 0.  0.
        254    2    1    2    0    0 -0.16509532576E+03  0.69000507637E+03  0.34782742235E+03  0.11956617646E+04  0.89736261764E+03 0.  0.
        -24    2    4    4    0    0  0.87642152155E+02  0.78606842680E+02 -0.25828252030E+03  0.29484821884E+03  0.79783640621E+02 0.  0.
         24    2    4    4    0    0 -0.25273747792E+03  0.61139823369E+03  0.60610994265E+03  0.90081354574E+03  0.80073395829E+02 0.  0.
         13    1    3    3    0    0  0.13574993545E+03 -0.40392310846E+03  0.26632624956E+03  0.50250531711E+03  0.00000000000E+00 0. -1.
        -13    1    3    3    0    0  0.29345390314E+02 -0.28608196791E+03  0.13432488800E+03  0.31740702549E+03  0.00000000000E+00 0.  1.
          2    1    6    6  502    0 -0.57238993405E+02  0.14407516457E+03  0.19022792631E+03  0.24539889845E+03  0.00000000000E+00 0. -1.
          3    1    5    5  503    0  0.23279055810E+02 -0.12796240638E+02 -0.26535403228E+02  0.37547114913E+02  0.00000000000E+00 0. -1.
         -4    1    5    5    0  503  0.64363096345E+02  0.91403083318E+02 -0.23174711707E+03  0.25730110393E+03  0.00000000000E+00 0.  1.
         -1    1    6    6    0  502 -0.19549848451E+03  0.46732306911E+03  0.41588201634E+03  0.65541464729E+03  0.00000000000E+00 0.  1.
<mgrwt>
<rscale>  0 0.18714483E+04</rscale>
<asrwt>0</asrwt>
<pdfrwt beam="1">  1        2 0.21261944E+00 0.18714483E+04</pdfrwt>
<pdfrwt beam="2">  1       -2 0.97468888E-01 0.18714483E+04</pdfrwt>
<totfact> 0.12208499E+01</totfact>
</mgrwt>
</event>
<event>
12    1  0.1494110E-007  0.3674240E+04  0.7818608E-02  0.8073695E-01
         -3   -1    0    0    0  501 -0.00000000000E+00  0.00000000000E+00  0.18039555008E+04  0.18039555008E+04  0.00000000000E+00 0.  1.
          3   -1    0    0  501    0  0.00000000000E+00 -0.00000000000E+00 -0.18708939930E+04  0.18708939930E+04  0.00000000000E+00 0. -1.
         23    2    1    2    0    0 -0.49653350880E+03  0.15889050988E+04 -0.50586768640E+03  0.17422381861E+04  0.91251533387E+02 0.  0.
        254    2    1    2    0    0  0.49653350880E+03 -0.15889050988E+04  0.43892919422E+03  0.19326113078E+04  0.87815869347E+03 0.  0.
        -24    2    4    4    0    0 -0.14830088459E+03 -0.29983044474E+02  0.13121911451E+03  0.21577881987E+03  0.80311317783E+02 0.  0.
         24    2    4    4    0    0  0.64483439339E+03 -0.15589220544E+04  0.30771007971E+03  0.17168324879E+04  0.82334269312E+02 0.  0.
         13    1    3    3    0    0 -0.58509743684E+02  0.21816709252E+03 -0.37888639910E+02  0.22903235448E+03  0.00000000000E+00 0.  1.
        -13    1    3    3    0    0 -0.43802376512E+03  0.13707380063E+04 -0.46797904649E+03  0.15132058316E+04  0.00000000000E+00 0. -1.
          4    1    6    6  502    0  0.25274071352E+03 -0.70127021356E+03  0.15816180841E+03  0.76201898817E+03  0.00000000000E+00 0. -1.
          3    1    5    5  503    0  0.14335979693E+01  0.10303300276E+02  0.27040769563E+02  0.28972684002E+02  0.00000000000E+00 0. -1.
         -4    1    5    5    0  503 -0.14973448256E+03 -0.40286344750E+02  0.10417834495E+03  0.18680613586E+03  0.00000000000E+00 0.  1.
         -3    1    6    6    0  502  0.39209367987E+03 -0.85765184081E+03  0.14954827130E+03  0.95481349974E+03  0.00000000000E+00 0.  1.
<mgrwt>
<rscale>  0 0.36742398E+04</rscale>
<asrwt>0</asrwt>
<pdfrwt beam="1">  1        3 0.28782984E+00 0.36742398E+04</pdfrwt>
<pdfrwt beam="2">  1       -3 0.27753162E+00 0.36742398E+04</pdfrwt>
<totfact> 0.47998198E-03</totfact>
</mgrwt>
</event>
<event>
12    1  0.1795255E-007  0.1810883E+04  0.7818608E-02  0.8700533E-01
          2   -1    0    0  501    0  0.00000000000E+00  0.00000000000E+00  0.12371712985E+04  0.12371712985E+04  0.00000000000E+00 0. -1.
         -2   -1    0    0    0  501 -0.00000000000E+00 -0.00000000000E+00 -0.66266024726E+03  0.66266024726E+03  0.00000000000E+00 0.  1.
         23    2    1    2    0    0  0.42016316033E+03 -0.50794083202E+03  0.12493054295E+03  0.67713421569E+03  0.91444712030E+02 0.  0.
        254    2    1    2    0    0 -0.42016316033E+03  0.50794083202E+03  0.44958050834E+03  0.12226973301E+04  0.92645839488E+03 0.  0.
        -24    2    4    4    0    0  0.24142574350E+03 -0.33031854941E+02  0.58835346195E+01  0.25641282807E+03  0.79595410383E+02 0.  0.
         24    2    4    4    0    0 -0.66158890383E+03  0.54097268696E+03  0.44369697372E+03  0.96628450204E+03  0.80544451613E+02 0.  0.
         13    1    3    3    0    0  0.29234825863E+01 -0.72883391490E+01  0.13980932027E+02  0.16035370228E+02  0.00000000000E+00 0. -1.
        -13    1    3    3    0    0  0.41723967775E+03 -0.50065249287E+03  0.11094961092E+03  0.66109884546E+03  0.00000000000E+00 0.  1.
          2    1    6    6  502    0 -0.73419575389E+02  0.38481171755E+02  0.62867310188E+02  0.10403621158E+03  0.00000000000E+00 0. -1.
          3    1    5    5  503    0  0.11436018884E+02  0.17332603781E+02  0.27968076620E+01  0.20952895142E+02  0.00000000000E+00 0. -1.
         -4    1    5    5    0  503  0.22998972462E+03 -0.50364458722E+02  0.30867269575E+01  0.23545993293E+03  0.00000000000E+00 0.  1.
         -1    1    6    6    0  502 -0.58816932844E+03  0.50249151521E+03  0.38082966353E+03  0.86224829046E+03  0.00000000000E+00 0.  1.
<mgrwt>
<rscale>  0 0.18108829E+04</rscale>
<asrwt>0</asrwt>
<pdfrwt beam="1">  1        2 0.19033404E+00 0.18108829E+04</pdfrwt>
<pdfrwt beam="2">  1       -2 0.10194773E+00 0.18108829E+04</pdfrwt>
<totfact> 0.13396455E+01</totfact>
</mgrwt>
</event>
<event>
12    1  0.1494110E-007  0.1701475E+04  0.7818608E-02  0.8760523E-01
         -1   -1    0    0    0  501 -0.00000000000E+00  0.00000000000E+00  0.10478361364E+04  0.10478361364E+04  0.00000000000E+00 0. -1.
          1   -1    0    0  501    0  0.00000000000E+00 -0.00000000000E+00 -0.69071348799E+03  0.69071348799E+03  0.00000000000E+00 0.  1.
         23    2    1    2    0    0  0.17338193351E+02  0.10222860246E+03  0.74070543306E+03  0.75453797562E+03  0.99658005149E+02 0.  0.
        254    2    1    2    0    0 -0.17338193351E+02 -0.10222860246E+03 -0.38358278466E+03  0.98401164875E+03  0.90021768039E+03 0.  0.
        -24    2    4    4    0    0 -0.30741520504E+03  0.22992806472E+03  0.41775695500E+01  0.39200283547E+03  0.79232238971E+02 0.  0.
         24    2    4    4    0    0  0.29007701169E+03 -0.33215666719E+03 -0.38776035421E+03  0.59200881329E+03  0.75124020435E+02 0.  0.
         11    1    3    3    0    0  0.18827826814E+02  0.11092949418E+03  0.45532322309E+03  0.46901927170E+03  0.00000000000E+00 0. -1.
        -11    1    3    3    0    0 -0.14896334635E+01 -0.87008917200E+01  0.28538220996E+03  0.28551870392E+03  0.00000000000E+00 0.  1.
          4    1    6    6  502    0  0.10892163181E+02 -0.14019030706E+02  0.32529380366E+00  0.17756076615E+02  0.00000000000E+00 0. -1.
          3    1    5    5  503    0 -0.15227351325E+03  0.65283955671E+02  0.56785067957E+01  0.16577533937E+03  0.00000000000E+00 0. -1.
         -4    1    5    5    0  503 -0.15514169179E+03  0.16464410905E+03 -0.15009372457E+01  0.22622749610E+03  0.00000000000E+00 0.  1.
         -3    1    6    6    0  502  0.27918484850E+03 -0.31813763648E+03 -0.38808564801E+03  0.57425273667E+03  0.00000000000E+00 0.  1.
<mgrwt>
<rscale>  0 0.17014753E+04</rscale>
<asrwt>0</asrwt>
<pdfrwt beam="1">  1        1 0.10626361E+00 0.17014753E+04</pdfrwt>
<pdfrwt beam="2">  1       -1 0.16120556E+00 0.17014753E+04</pdfrwt>
<totfact> 0.75702062E+00</totfact>
</mgrwt>
</event>
<event>
12    1  0.1494110E-007  0.2754444E+04  0.7818608E-02  0.8317553E-01
         -1   -1    0    0    0  501 -0.00000000000E+00  0.00000000000E+00  0.79376997471E+03  0.79376997471E+03  0.00000000000E+00 0.  1.
          1   -1    0    0  501    0  0.00000000000E+00 -0.00000000000E+00 -0.23895345379E+04  0.23895345379E+04  0.00000000000E+00 0. -1.
         23    2    1    2    0    0  0.27527935677E+02 -0.12218730998E+04 -0.10905157107E+04  0.16401384631E+04  0.84249651879E+02 0.  0.
        254    2    1    2    0    0 -0.27527935677E+02  0.12218730998E+04 -0.50524885250E+03  0.15431660495E+04  0.79520651041E+03 0.  0.
        -24    2    4    4    0    0 -0.20428160411E+03  0.22978856615E+03 -0.42321056175E+03  0.52894233158E+03  0.78352100473E+02 0.  0.
         24    2    4    4    0    0  0.17675366843E+03  0.99208453361E+03 -0.82038290750E+02  0.10142237179E+04  0.80286285828E+02 0.  0.
         11    1    3    3    0    0  0.41119430180E+02 -0.11819208393E+04 -0.10467262320E+04  0.15793237422E+04  0.00000000000E+00 0. -1.
        -11    1    3    3    0    0 -0.13591494503E+02 -0.39952260410E+02 -0.43789478677E+02  0.60814720894E+02  0.00000000000E+00 0.  1.
          4    1    6    6  502    0  0.16583352949E+03  0.75969935720E+03 -0.78667276688E+02  0.78155768389E+03  0.00000000000E+00 0. -1.
          1    1    5    5  503    0 -0.11943285919E+03  0.16852555188E+03 -0.32706077611E+03  0.38682531039E+03  0.00000000000E+00 0. -1.
         -2    1    5    5    0  503 -0.84848744927E+02  0.61263014265E+02 -0.96149785645E+02  0.14211702119E+03  0.00000000000E+00 0.  1.
         -3    1    6    6    0  502  0.10920138948E+02  0.23238517641E+03 -0.33710140617E+01  0.23266603402E+03  0.00000000000E+00 0.  1.
<mgrwt>
<rscale>  0 0.27544442E+04</rscale>
<asrwt>0</asrwt>
<pdfrwt beam="1">  1        1 0.36762070E+00 0.27544442E+04</pdfrwt>
<pdfrwt beam="2">  1       -1 0.12211846E+00 0.27544442E+04</pdfrwt>
<totfact> 0.83214397E-01</totfact>
</mgrwt>
</event>
<event>
12    1  0.1494110E-007  0.2303086E+04  0.7818608E-02  0.8476705E-01
         -2   -1    0    0    0  501 -0.00000000000E+00  0.00000000000E+00  0.29797449257E+03  0.29797449257E+03  0.00000000000E+00 0.  1.
          2   -1    0    0  501    0  0.00000000000E+00 -0.00000000000E+00 -0.44502166567E+04  0.44502166567E+04  0.00000000000E+00 0. -1.
         23    2    1    2    0    0  0.16355403618E+03  0.21103960137E+03 -0.36927260269E+04  0.37035073582E+04  0.91943494901E+02 0.  0.
        254    2    1    2    0    0 -0.16355403618E+03 -0.21103960137E+03 -0.45951613716E+03  0.10446837910E+04  0.89940063754E+03 0.  0.
        -24    2    4    4    0    0  0.31286694668E+03 -0.21541882566E+03 -0.40077301083E+03  0.55808400184E+03  0.80918169300E+02 0.  0.
         24    2    4    4    0    0 -0.47642098287E+03  0.43792242901E+01 -0.58743126324E+02  0.48659978918E+03  0.79576814555E+02 0.  0.
         13    1    3    3    0    0  0.43029711842E+02  0.56825065817E+01 -0.68231283665E+03  0.68369192919E+03  0.00000000000E+00 0.  1.
        -13    1    3    3    0    0  0.12052432434E+03  0.20535709479E+03 -0.30104131903E+04  0.30198154290E+04  0.00000000000E+00 0. -1.
          2    1    6    6  502    0 -0.45379516636E+03  0.73410015771E+01 -0.37462930391E+02  0.45539808351E+03  0.00000000000E+00 0. -1.
          1    1    5    5  503    0  0.23065075312E+03 -0.16552514105E+03 -0.34543498051E+03  0.44712824558E+03  0.00000000000E+00 0. -1.
         -2    1    5    5    0  503  0.82216193561E+02 -0.49893684609E+02 -0.55338030327E+02  0.11095575626E+03  0.00000000000E+00 0.  1.
         -1    1    6    6    0  502 -0.22625816513E+02 -0.29617772871E+01 -0.21280195933E+02  0.31201705667E+02  0.00000000000E+00 0.  1.
<mgrwt>
<rscale>  0 0.23030858E+04</rscale>
<asrwt>0</asrwt>
<pdfrwt beam="1">  1        2 0.68464870E+00 0.23030858E+04</pdfrwt>
<pdfrwt beam="2">  1       -2 0.45842231E-01 0.23030858E+04</pdfrwt>
<totfact> 0.56761078E-01</totfact>
</mgrwt>
</event>
<event>
12    1  0.1494110E-007  0.1536425E+04  0.7818608E-02  0.8860585E-01
         -2   -1    0    0    0  501 -0.00000000000E+00  0.00000000000E+00  0.19016386997E+03  0.19016386997E+03  0.00000000000E+00 0.  1.
          2   -1    0    0  501    0  0.00000000000E+00 -0.00000000000E+00 -0.31033792976E+04  0.31033792976E+04  0.00000000000E+00 0. -1.
         23    2    1    2    0    0  0.43207967406E+03  0.12485904233E+03 -0.47800135341E+03  0.66250937429E+03  0.90281515095E+02 0.  0.
        254    2    1    2    0    0 -0.43207967406E+03 -0.12485904233E+03 -0.24352140742E+04  0.26310337933E+04  0.88870051704E+03 0.  0.
        -24    2    4    4    0    0 -0.10546895886E+03  0.94683075114E+01  0.32892532600E+02  0.13650595951E+03  0.79615376348E+02 0.  0.
         24    2    4    4    0    0 -0.32661071520E+03 -0.13432734984E+03 -0.24681066069E+04  0.24945278338E+04  0.80003091739E+02 0.  0.
         13    1    3    3    0    0  0.33156288046E+03  0.13408922254E+03 -0.36592528747E+03  0.51167878529E+03  0.00000000000E+00 0.  1.
        -13    1    3    3    0    0  0.10051679360E+03 -0.92301802059E+01 -0.11207606594E+03  0.15083058900E+03  0.00000000000E+00 0. -1.
          2    1    6    6  502    0 -0.62014367768E+02 -0.59492001419E+02 -0.67814929345E+03  0.68357263275E+03  0.00000000000E+00 0. -1.
          1    1    5    5  503    0 -0.59096700648E+02  0.43815948593E+02  0.92661480203E+01  0.74149301263E+02  0.00000000000E+00 0. -1.
         -2    1    5    5    0  503 -0.46372258210E+02 -0.34347641082E+02  0.23626384580E+02  0.62356658247E+02  0.00000000000E+00 0.  1.
         -3    1    6    6    0  502 -0.26459634743E+03 -0.74835348425E+02 -0.17899573134E+04  0.18109552011E+04  0.00000000000E+00 0.  1.
<mgrwt>
<rscale>  0 0.15364252E+04</rscale>
<asrwt>0</asrwt>
<pdfrwt beam="1">  1        2 0.47744292E+00 0.15364252E+04</pdfrwt>
<pdfrwt beam="2">  1       -2 0.29255983E-01 0.15364252E+04</pdfrwt>
<totfact> 0.15628000E+01</totfact>
</mgrwt>
</event>
<event>
12    1  0.1494110E-007  0.1904869E+04  0.7818608E-02  0.8652436E-01
         -2   -1    0    0    0  501 -0.00000000000E+00  0.00000000000E+00  0.44864511164E+03  0.44864511164E+03  0.00000000000E+00 0.  1.
          2   -1    0    0  501    0  0.00000000000E+00 -0.00000000000E+00 -0.20219360005E+04  0.20219360005E+04  0.00000000000E+00 0. -1.
         23    2    1    2    0    0 -0.45058560833E+03  0.55316617512E+03 -0.84079311408E+03  0.11065914168E+04  0.92689240194E+02 0.  0.
        254    2    1    2    0    0  0.45058560833E+03 -0.55316617512E+03 -0.73249777473E+03  0.13639896953E+04  0.90271517726E+03 0.  0.
        -24    2    4    4    0    0  0.39227541524E+03 -0.77545454135E+03 -0.69559675170E+03  0.11159543069E+04  0.79305907260E+02 0.  0.
         24    2    4    4    0    0  0.58310193091E+02  0.22228836623E+03 -0.36901023031E+02  0.24803538846E+03  0.85718563041E+02 0.  0.
         11    1    3    3    0    0 -0.11454153967E+03  0.10798686421E+03 -0.13789030986E+03  0.20927174846E+03  0.00000000000E+00 0. -1.
        -11    1    3    3    0    0 -0.33604406866E+03  0.44517931091E+03 -0.70290280423E+03  0.89731966831E+03  0.00000000000E+00 0.  1.
          4    1    6    6  502    0 -0.13924248044E+02  0.18957424715E+02 -0.21231293458E+02  0.31686534322E+02  0.00000000000E+00 0. -1.
          1    1    5    5  503    0  0.64124961998E+02 -0.12436071534E+03 -0.76560763998E+02  0.15949654809E+03  0.00000000000E+00 0. -1.
         -2    1    5    5    0  503  0.32815045324E+03 -0.65109382602E+03 -0.61903598771E+03  0.95645775877E+03  0.00000000000E+00 0.  1.
         -3    1    6    6    0  502  0.72234441135E+02  0.20333094152E+03 -0.15669729572E+02  0.21634885414E+03  0.00000000000E+00 0.  1.
<mgrwt>
<rscale>  0 0.19048692E+04</rscale>
<asrwt>0</asrwt>
<pdfrwt beam="1">  1        2 0.31106707E+00 0.19048692E+04</pdfrwt>
<pdfrwt beam="2">  1       -2 0.69022326E-01 0.19048692E+04</pdfrwt>
<totfact> 0.11656928E+01</totfact>
</mgrwt>
</event>
<event>
12    1  0.1494110E-007  0.3157383E+04  0.7818608E-02  0.8200164E-01
         -1   -1    0    0    0  501 -0.00000000000E+00  0.00000000000E+00  0.95458218860E+03  0.95458218860E+03  0.00000000000E+00 0.  1.
          1   -1    0    0  501    0  0.00000000000E+00 -0.00000000000E+00 -0.26108452375E+04  0.26108452375E+04  0.00000000000E+00 0. -1.
         23    2    1    2    0    0 -0.25695397911E+02  0.10941108653E+04 -0.18242070670E+04  0.21294741972E+04  0.95864978791E+02 0.  0.
        254    2    1    2    0    0  0.25695397911E+02 -0.10941108653E+04  0.16794401807E+03  0.14359532290E+04  0.91434000440E+03 0.  0.
        -24    2    4    4    0    0  0.36938516763E+03 -0.98327024377E+03  0.84143595562E+02  0.10567678466E+04  0.80077229399E+02 0.  0.
         24    2    4    4    0    0 -0.34368976972E+03 -0.11084062148E+03  0.83800422506E+02  0.37918538233E+03  0.79691543994E+02 0.  0.
         11    1    3    3    0    0 -0.30104104922E+02  0.10642820265E+04 -0.17976500732E+04  0.20892937263E+04  0.00000000000E+00 0. -1.
        -11    1    3    3    0    0  0.44087070109E+01  0.29828838770E+02 -0.26556993778E+02  0.40180470858E+02  0.00000000000E+00 0.  1.
          2    1    6    6  502    0 -0.32115304522E+03 -0.89674192719E+02  0.94329271544E+02  0.34652380981E+03  0.00000000000E+00 0. -1.
          3    1    5    5  503    0  0.23756535168E+03 -0.54061828282E+03  0.23940915048E+02  0.59099796231E+03  0.00000000000E+00 0. -1.
         -2    1    5    5    0  503  0.13181981595E+03 -0.44265196094E+03  0.60202680514E+02  0.46576988433E+03  0.00000000000E+00 0.  1.
         -1    1    6    6    0  502 -0.22536724496E+02 -0.21166428766E+02 -0.10528849038E+02  0.32661572524E+02  0.00000000000E+00 0.  1.
<mgrwt>
<rscale>  0 0.31573827E+04</rscale>
<asrwt>0</asrwt>
<pdfrwt beam="1">  1        1 0.40166849E+00 0.31573827E+04</pdfrwt>
<pdfrwt beam="2">  1       -1 0.14685880E+00 0.31573827E+04</pdfrwt>
<totfact> 0.35146509E-01</totfact>
</mgrwt>
</event>
<event>
12    1  0.1494110E-007  0.1517459E+04  0.7818608E-02  0.8872925E-01
          1   -1    0    0  501    0  0.00000000000E+00  0.00000000000E+00  0.10481152690E+04  0.10481152690E+04  0.00000000000E+00 0. -1.
         -1   -1    0    0    0  501 -0.00000000000E+00 -0.00000000000E+00 -0.54924330453E+03  0.54924330453E+03  0.00000000000E+00 0.  1.
         23    2    1    2    0    0 -0.39340831501E+03 -0.31674999935E+02 -0.13758498401E+03  0.42763539384E+03  0.90382488899E+02 0.  0.
        254    2    1    2    0    0  0.39340831501E+03  0.31674999935E+02  0.63645694849E+03  0.11697231797E+04  0.89855520804E+03 0.  0.
        -24    2    4    4    0    0  0.10828798943E+03 -0.32023897658E+03  0.61938551293E+03  0.71000924946E+03  0.78711053361E+02 0.  0.
         24    2    4    4    0    0  0.28512032558E+03  0.35191397652E+03  0.17071435561E+02  0.45971393023E+03  0.76866226684E+02 0.  0.
         11    1    3    3    0    0 -0.19978181735E+03  0.26624589472E+02 -0.52667429143E+02  0.20831586930E+03  0.00000000000E+00 0. -1.
        -11    1    3    3    0    0 -0.19362649765E+03 -0.58299589407E+02 -0.84917554870E+02  0.21931952454E+03  0.00000000000E+00 0.  1.
          4    1    6    6  502    0  0.38949815230E+02  0.28038159386E+02  0.22182467190E+02  0.52870486463E+02  0.00000000000E+00 0. -1.
          1    1    5    5  503    0  0.46211997027E+02 -0.91414128388E+02  0.26011406978E+03  0.27955575622E+03  0.00000000000E+00 0. -1.
         -2    1    5    5    0  503  0.62075992399E+02 -0.22882484820E+03  0.35927144315E+03  0.43045349325E+03  0.00000000000E+00 0.  1.
         -3    1    6    6    0  502  0.24617051035E+03  0.32387581713E+03 -0.51110316292E+01  0.40684344376E+03  0.00000000000E+00 0.  1.
<mgrwt>
<rscale>  0 0.15174588E+04</rscale>
<asrwt>0</asrwt>
<pdfrwt beam="1">  1        1 0.16124850E+00 0.15174588E+04</pdfrwt>
<pdfrwt beam="2">  1       -1 0.84498970E-01 0.15174588E+04</pdfrwt>
<totfact> 0.18604648E+01</totfact>
</mgrwt>
</event>
<event>
12    1  0.1494110E-007  0.1164641E+04  0.7818608E-02  0.9144382E-01
         -2   -1    0    0    0  501 -0.00000000000E+00  0.00000000000E+00  0.15601773939E+03  0.15601773939E+03  0.00000000000E+00 0.  1.
          2   -1    0    0  501    0  0.00000000000E+00 -0.00000000000E+00 -0.21734529807E+04  0.21734529807E+04  0.00000000000E+00 0. -1.
         23    2    1    2    0    0  0.17594670734E+03 -0.34393988526E+02 -0.14527273359E+03  0.24473742996E+03  0.81560114191E+02 0.  0.
        254    2    1    2    0    0 -0.17594670734E+03  0.34393988526E+02 -0.18721625077E+04  0.20847332902E+04  0.89943329124E+03 0.  0.
        -24    2    4    4    0    0  0.22733280137E+03 -0.29680834946E+03 -0.90952835371E+03  0.98677178310E+03  0.81861632224E+02 0.  0.
         24    2    4    4    0    0 -0.40327950871E+03  0.33120233799E+03 -0.96263415404E+03  0.10979615071E+04  0.80781220725E+02 0.  0.
         11    1    3    3    0    0  0.13091357739E+03  0.97411990309E+01 -0.78772844627E+02  0.15309610300E+03  0.00000000000E+00 0.  1.
        -11    1    3    3    0    0  0.45033129946E+02 -0.44135187557E+02 -0.66499888966E+02  0.91641326954E+02  0.00000000000E+00 0. -1.
          4    1    6    6  502    0 -0.22952683647E+02  0.15973268585E+01 -0.63776563078E+02  0.67799905146E+02  0.00000000000E+00 0. -1.
          1    1    5    5  503    0 -0.30374261624E+01  0.32051263156E+01 -0.12315731527E+02  0.13083425982E+02  0.00000000000E+00 0. -1.
         -2    1    5    5    0  503  0.23037022753E+03 -0.30001347578E+03 -0.89721262218E+03  0.97368835712E+03  0.00000000000E+00 0.  1.
         -3    1    6    6    0  502 -0.38032682506E+03  0.32960501113E+03 -0.89885759096E+03  0.10301616019E+04  0.00000000000E+00 0.  1.
<mgrwt>
<rscale>  0 0.11646411E+04</rscale>
<asrwt>0</asrwt>
<pdfrwt beam="1">  1        2 0.33437737E+00 0.11646411E+04</pdfrwt>
<pdfrwt beam="2">  1       -2 0.24002730E-01 0.11646411E+04</pdfrwt>
<totfact> 0.81882201E+01</totfact>
</mgrwt>
</event>
<event>
12    1  0.1494110E-007  0.1557820E+04  0.7818608E-02  0.8846888E-01
         -1   -1    0    0    0  501 -0.00000000000E+00  0.00000000000E+00  0.85957073511E+03  0.85957073511E+03  0.00000000000E+00 0.  1.
          1   -1    0    0  501    0  0.00000000000E+00 -0.00000000000E+00 -0.70581875588E+03  0.70581875588E+03  0.00000000000E+00 0. -1.
         23    2    1    2    0    0  0.17057688104E+03 -0.70277087633E+02  0.53513559940E+03  0.57400742452E+03  0.95284165852E+02 0.  0.
        254    2    1    2    0    0 -0.17057688104E+03  0.70277087633E+02 -0.38138362018E+03  0.99138206647E+03  0.89629771537E+03 0.  0.
        -24    2    4    4    0    0 -0.48692701208E+03  0.23788716627E+03 -0.22941875100E+03  0.59439131447E+03  0.83545511151E+02 0.  0.
         24    2    4    4    0    0  0.31635013104E+03 -0.16761007864E+03 -0.15196486918E+03  0.39699075200E+03  0.79610249602E+02 0.  0.
         11    1    3    3    0    0  0.28841924418E+02  0.49711690795E+01  0.20342906050E+03  0.20552360395E+03  0.00000000000E+00 0.  1.
        -11    1    3    3    0    0  0.14173495662E+03 -0.75248256713E+02  0.33170653891E+03  0.36848382057E+03  0.00000000000E+00 0. -1.
          4    1    6    6  502    0  0.10502266609E+03 -0.94985602294E+02 -0.40547445167E+02  0.14729602963E+03  0.00000000000E+00 0. -1.
          3    1    5    5  503    0 -0.34748521508E+03  0.12658729865E+03 -0.14961506176E+03  0.39894233366E+03  0.00000000000E+00 0. -1.
         -4    1    5    5    0  503 -0.13944179700E+03  0.11129986762E+03 -0.79803689240E+02  0.19544898081E+03  0.00000000000E+00 0.  1.
         -3    1    6    6    0  502  0.21132746495E+03 -0.72624476342E+02 -0.11141742401E+03  0.24969472237E+03  0.00000000000E+00 0.  1.
<mgrwt>
<rscale>  0 0.15578205E+04</rscale>
<asrwt>0</asrwt>
<pdfrwt beam="1">  1        1 0.10858750E+00 0.15578205E+04</pdfrwt>
<pdfrwt beam="2">  1       -1 0.13224165E+00 0.15578205E+04</pdfrwt>
<totfact> 0.12581174E+01</totfact>
</mgrwt>
</event>
<event>
12    1  0.1494110E-007  0.1281735E+04  0.7818608E-02  0.9044176E-01
         -1   -1    0    0    0  501 -0.00000000000E+00  0.00000000000E+00  0.46309582026E+03  0.46309582026E+03  0.00000000000E+00 0.  1.
          1   -1    0    0  501    0  0.00000000000E+00 -0.00000000000E+00 -0.88688142974E+03  0.88688142974E+03  0.00000000000E+00 0. -1.
         23    2    1    2    0    0 -0.19052317556E+03  0.23268861344E+03 -0.22297230225E+03  0.38564807495E+03  0.92545766475E+02 0.  0.
        254    2    1    2    0    0  0.19052317556E+03 -0.23268861344E+03 -0.20081330724E+03  0.96432917505E+03  0.89395844547E+03 0.  0.
        -24    2    4    4    0    0  0.56707580465E+02 -0.49519055140E+03 -0.36123159932E+03  0.62074502600E+03  0.80041783327E+02 0.  0.
         24    2    4    4    0    0  0.13381559510E+03  0.26250193795E+03  0.16041829208E+03  0.34358414905E+03  0.74176533509E+02 0.  0.
         11    1    3    3    0    0 -0.21583743874E+02  0.50920595306E+02 -0.53077620877E+01  0.55560213862E+02  0.00000000000E+00 0. -1.
        -11    1    3    3    0    0 -0.16893943169E+03  0.18176801814E+03 -0.21766454016E+03  0.33008786109E+03  0.00000000000E+00 0.  1.
          4    1    6    6  502    0  0.13918585797E+03  0.24151611975E+03  0.13361259017E+03  0.30911982047E+03  0.00000000000E+00 0. -1.
          1    1    5    5  503    0  0.49511769000E+02 -0.49504098014E+03 -0.35450265488E+03  0.61089206870E+03  0.00000000000E+00 0. -1.
         -2    1    5    5    0  503  0.71958114645E+01 -0.14957125926E+00 -0.67289444433E+01  0.98529572980E+01  0.00000000000E+00 0.  1.
         -3    1    6    6    0  502 -0.53702628783E+01  0.20985818209E+02  0.26805701914E+02  0.34464328579E+02  0.00000000000E+00 0.  1.
<mgrwt>
<rscale>  0 0.12817349E+04</rscale>
<asrwt>0</asrwt>
<pdfrwt beam="1">  1        1 0.13644330E+00 0.12817349E+04</pdfrwt>
<pdfrwt beam="2">  1       -1 0.71245511E-01 0.12817349E+04</pdfrwt>
<totfact> 0.36526259E+01</totfact>
</mgrwt>
</event>
<event>
12    1  0.1494110E-007  0.3671030E+04  0.7818608E-02  0.8074412E-01
         -2   -1    0    0    0  501 -0.00000000000E+00  0.00000000000E+00  0.16335517140E+04  0.16335517140E+04  0.00000000000E+00 0.  1.
          2   -1    0    0  501    0  0.00000000000E+00 -0.00000000000E+00 -0.20624481133E+04  0.20624481133E+04  0.00000000000E+00 0. -1.
         23    2    1    2    0    0 -0.11768649832E+04  0.11094904926E+04 -0.79722975804E+03  0.18058242957E+04  0.97189290159E+02 0.  0.
        254    2    1    2    0    0  0.11768649832E+04 -0.11094904926E+04  0.36833335872E+03  0.18901755316E+04  0.90615326265E+03 0.  0.
        -24    2    4    4    0    0  0.10874555753E+04 -0.11619389526E+04  0.10534845331E+03  0.15968881089E+04  0.79319468349E+02 0.  0.
         24    2    4    4    0    0  0.89409407912E+02  0.52448460052E+02  0.26298490541E+03  0.29328742267E+03  0.78176522296E+02 0.  0.
         11    1    3    3    0    0 -0.96939940413E+03  0.96187436510E+03 -0.67791155151E+03  0.15246316180E+04  0.00000000000E+00 0. -1.
        -11    1    3    3    0    0 -0.20746557906E+03  0.14761612746E+03 -0.11931820653E+03  0.28119267770E+03  0.00000000000E+00 0.  1.
          2    1    6    6  502    0  0.17771008263E+01 -0.14734570671E+01 -0.53903719168E+01  0.58638956741E+01  0.00000000000E+00 0. -1.
          3    1    5    5  503    0  0.80504344258E+02 -0.98793072576E+02  0.28293096675E+02  0.13054317275E+03  0.00000000000E+00 0. -1.
         -4    1    5    5    0  503  0.10069512310E+04 -0.10631458800E+04  0.77055356632E+02  0.14663449362E+04  0.00000000000E+00 0.  1.
         -1    1    6    6    0  502  0.87632307086E+02  0.53921917119E+02  0.26837527733E+03  0.28742352700E+03  0.00000000000E+00 0.  1.
<mgrwt>
<rscale>  0 0.36710302E+04</rscale>
<asrwt>0</asrwt>
<pdfrwt beam="1">  1        2 0.31729971E+00 0.36710302E+04</pdfrwt>
<pdfrwt beam="2">  1       -2 0.25131565E+00 0.36710302E+04</pdfrwt>
<totfact> 0.31520428E-01</totfact>
</mgrwt>
</event>
<event>
12    1  0.1494110E-007  0.2225402E+04  0.7818608E-02  0.8507929E-01
          2   -1    0    0  501    0  0.00000000000E+00  0.00000000000E+00  0.25198913719E+04  0.25198913719E+04  0.00000000000E+00 0. -1.
         -2   -1    0    0    0  501 -0.00000000000E+00 -0.00000000000E+00 -0.49133229295E+03  0.49133229295E+03  0.00000000000E+00 0.  1.
         23    2    1    2    0    0  0.48279021790E+03  0.47534657210E+03 -0.21660557672E+02  0.68412523772E+03  0.92289777458E+02 0.  0.
        254    2    1    2    0    0 -0.48279021790E+03 -0.47534657210E+03  0.20502196366E+04  0.23270984272E+04  0.86772447993E+03 0.  0.
        -24    2    4    4    0    0 -0.28720634446E+03 -0.71290534142E+03  0.13051516181E+04  0.15168800105E+04  0.82357207787E+02 0.  0.
         24    2    4    4    0    0 -0.19558387344E+03  0.23755876932E+03  0.74506801850E+03  0.81021841669E+03  0.81488098002E+02 0.  0.
         13    1    3    3    0    0  0.13532519480E+03  0.83278752149E+02 -0.20745331463E+02  0.16024552313E+03  0.00000000000E+00 0. -1.
        -13    1    3    3    0    0  0.34746502310E+03  0.39206781995E+03 -0.91522620903E+00  0.52387971459E+03  0.00000000000E+00 0.  1.
          4    1    6    6  502    0 -0.17884594682E+03  0.16859350305E+03  0.54254582416E+03  0.59562203894E+03  0.00000000000E+00 0. -1.
          3    1    5    5  503    0 -0.24395490195E+03 -0.57721639470E+03  0.11187459346E+04  0.12822968559E+04  0.00000000000E+00 0. -1.
         -4    1    5    5    0  503 -0.43251442509E+02 -0.13568894672E+03  0.18640568353E+03  0.23458315454E+03  0.00000000000E+00 0.  1.
         -3    1    6    6    0  502 -0.16737926622E+02  0.68965266279E+02  0.20252219434E+03  0.21459637775E+03  0.00000000000E+00 0.  1.
<mgrwt>
<rscale>  0 0.22254024E+04</rscale>
<asrwt>0</asrwt>
<pdfrwt beam="1">  1        2 0.38767559E+00 0.22254024E+04</pdfrwt>
<pdfrwt beam="2">  1       -2 0.75589585E-01 0.22254024E+04</pdfrwt>
<totfact> 0.48524186E+00</totfact>
</mgrwt>
</event>
<event>
12    1  0.1494110E-007  0.2693537E+04  0.7818608E-02  0.8337105E-01
         -2   -1    0    0    0  501 -0.00000000000E+00  0.00000000000E+00  0.66838227678E+03  0.66838227678E+03  0.00000000000E+00 0.  1.
          2   -1    0    0  501    0  0.00000000000E+00 -0.00000000000E+00 -0.27136944233E+04  0.27136944233E+04  0.00000000000E+00 0. -1.
         23    2    1    2    0    0  0.28914783732E+03  0.15159838392E+03 -0.23516887649E+04  0.23760060773E+04  0.91522078206E+02 0.  0.
        254    2    1    2    0    0 -0.28914783732E+03 -0.15159838392E+03  0.30637661835E+03  0.10060706228E+04  0.90095667148E+03 0.  0.
        -24    2    4    4    0    0 -0.50541635086E+03 -0.20797811231E+02  0.47125980084E+03  0.69601382718E+03  0.80443837981E+02 0.  0.
         24    2    4    4    0    0  0.21626851354E+03 -0.13080057269E+03 -0.16488318249E+03  0.31005679559E+03  0.71189134411E+02 0.  0.
         11    1    3    3    0    0  0.11610595047E+03  0.59964938986E+02 -0.12730108611E+04  0.12797003705E+04  0.00000000000E+00 0.  1.
        -11    1    3    3    0    0  0.17304188685E+03  0.91633444931E+02 -0.10786779038E+04  0.10963057069E+04  0.00000000000E+00 0. -1.
          4    1    6    6  502    0  0.11548948984E+03 -0.93915665126E+02 -0.61552249589E+02  0.16107965064E+03  0.00000000000E+00 0. -1.
          3    1    5    5  503    0 -0.28059078178E+02  0.99533481675E+01  0.97493037348E+01  0.31327782099E+02  0.00000000000E+00 0. -1.
         -4    1    5    5    0  503 -0.47735727268E+03 -0.30751159398E+02  0.46151049710E+03  0.66468604508E+03  0.00000000000E+00 0.  1.
         -3    1    6    6    0  502  0.10077902370E+03 -0.36884907560E+02 -0.10333093290E+03  0.14897714495E+03  0.00000000000E+00 0.  1.
<mgrwt>
<rscale>  0 0.26935369E+04</rscale>
<asrwt>0</asrwt>
<pdfrwt beam="1">  1        2 0.41749144E+00 0.26935369E+04</pdfrwt>
<pdfrwt beam="2">  1       -2 0.10282804E+00 0.26935369E+04</pdfrwt>
<totfact> 0.17673417E+00</totfact>
</mgrwt>
</event>
<event>
12    1  0.1494110E-007  0.1298753E+04  0.7818608E-02  0.9030554E-01
         -2   -1    0    0    0  501 -0.00000000000E+00  0.00000000000E+00  0.41665886217E+03  0.41665886217E+03  0.00000000000E+00 0.  1.
          2   -1    0    0  501    0  0.00000000000E+00 -0.00000000000E+00 -0.10120753481E+04  0.10120753481E+04  0.00000000000E+00 0. -1.
         23    2    1    2    0    0 -0.14645885984E+03 -0.47928437406E+02 -0.47813620772E+03  0.51092760973E+03  0.93195796644E+02 0.  0.
        254    2    1    2    0    0  0.14645885984E+03  0.47928437406E+02 -0.11728027822E+03  0.91780660054E+03  0.89714377867E+03 0.  0.
        -24    2    4    4    0    0  0.43714104626E+03  0.23826763372E+02 -0.32518735105E+03  0.55099648963E+03  0.78678518782E+02 0.  0.
         24    2    4    4    0    0 -0.29068218642E+03  0.24101674035E+02  0.20790707283E+03  0.36681011091E+03  0.79039751622E+02 0.  0.
         13    1    3    3    0    0 -0.12646134706E+03 -0.49226282642E+02 -0.47017055777E+03  0.48936290480E+03  0.00000000000E+00 0. -1.
        -13    1    3    3    0    0 -0.19997512775E+02  0.12978452356E+01 -0.79656499538E+01  0.21564704928E+02  0.00000000000E+00 0.  1.
          4    1    6    6  502    0 -0.26718577299E+03  0.38629456510E+02  0.16697737486E+03  0.31743017486E+03  0.00000000000E+00 0. -1.
          3    1    5    5  503    0  0.40099931039E+03  0.13007745066E+01 -0.30530327447E+03  0.50399625827E+03  0.00000000000E+00 0. -1.
         -4    1    5    5    0  503  0.36141735875E+02  0.22525988865E+02 -0.19884076583E+02  0.47000231360E+02  0.00000000000E+00 0.  1.
         -3    1    6    6    0  502 -0.23496413438E+02 -0.14527782475E+02  0.40929697976E+02  0.49379936052E+02  0.00000000000E+00 0.  1.
<mgrwt>
<rscale>  0 0.12987535E+04</rscale>
<asrwt>0</asrwt>
<pdfrwt beam="1">  1        2 0.15570390E+00 0.12987535E+04</pdfrwt>
<pdfrwt beam="2">  1       -2 0.64101364E-01 0.12987535E+04</pdfrwt>
<totfact> 0.54569053E+01</totfact>
</mgrwt>
</event>
<event>
12    1  0.1494110E-007  0.1145754E+04  0.7818608E-02  0.9161710E-01
         -2   -1    0    0    0  501 -0.00000000000E+00  0.00000000000E+00  0.14378442337E+03  0.14378442337E+03  0.00000000000E+00 0.  1.
          2   -1    0    0  501    0  0.00000000000E+00 -0.00000000000E+00 -0.22824993698E+04  0.22824993698E+04  0.00000000000E+00 0. -1.
         23    2    1    2    0    0 -0.16177200623E+03  0.29942981168E+01 -0.69220847916E+03  0.71704012623E+03  0.93887252528E+02 0.  0.
        254    2    1    2    0    0  0.16177200623E+03 -0.29942981168E+01 -0.14465064673E+04  0.17092436669E+04  0.89607689696E+03 0.  0.
        -24    2    4    4    0    0 -0.77666919333E+02  0.27022840477E+03 -0.12600982604E+04  0.12934589497E+04  0.78312754902E+02 0.  0.
         24    2    4    4    0    0  0.23943892556E+03 -0.27322270288E+03 -0.18640820692E+03  0.41578471728E+03  0.78404509268E+02 0.  0.
         13    1    3    3    0    0 -0.26716854096E+02 -0.18095545850E+02 -0.29927558573E+03  0.30101015812E+03  0.00000000000E+00 0.  1.
        -13    1    3    3    0    0 -0.13505515213E+03  0.21089843966E+02 -0.39293289342E+03  0.41602996812E+03  0.00000000000E+00 0. -1.
          2    1    6    6  502    0  0.19512564523E+03 -0.24928744444E+03 -0.13606901090E+03  0.34457658526E+03  0.00000000000E+00 0. -1.
          3    1    5    5  503    0 -0.15163695387E+02  0.18713670659E+03 -0.83033324004E+03  0.85129511576E+03  0.00000000000E+00 0. -1.
         -4    1    5    5    0  503 -0.62503223947E+02  0.83091698176E+02 -0.42976502034E+03  0.44216383391E+03  0.00000000000E+00 0.  1.
         -1    1    6    6    0  502  0.44313280331E+02 -0.23935258445E+02 -0.50339196016E+02  0.71208132022E+02  0.00000000000E+00 0.  1.
<mgrwt>
<rscale>  0 0.11457536E+04</rscale>
<asrwt>0</asrwt>
<pdfrwt beam="1">  1        2 0.35115373E+00 0.11457536E+04</pdfrwt>
<pdfrwt beam="2">  1       -2 0.22120682E-01 0.11457536E+04</pdfrwt>
<totfact> 0.82498861E+01</totfact>
</mgrwt>
</event>
<event>
12    1  0.1582602E-007  0.2526238E+04  0.7818608E-02  0.8393697E-01
          2   -1    0    0  501    0  0.00000000000E+00  0.00000000000E+00  0.16334748352E+04  0.16334748352E+04  0.00000000000E+00 0. -1.
         -2   -1    0    0    0  501 -0.00000000000E+00 -0.00000000000E+00 -0.97673342009E+03  0.97673342009E+03  0.00000000000E+00 0.  1.
         23    2    1    2    0    0 -0.63822664278E+03 -0.30300189568E+02 -0.63466465490E+03  0.90512661370E+03  0.90573801943E+02 0.  0.
        254    2    1    2    0    0  0.63822664278E+03  0.30300189568E+02  0.12914060700E+04  0.17050816416E+04  0.91176884010E+03 0.  0.
        -24    2    4    4    0    0  0.97559563835E+02  0.33497933691E+03  0.12226500959E+03  0.37901168827E+03  0.83499117525E+02 0.  0.
         24    2    4    4    0    0  0.54066707894E+03 -0.30467914734E+03  0.11691410604E+04  0.13260699533E+04  0.80127578500E+02 0.  0.
         11    1    3    3    0    0 -0.11494269307E+02 -0.11117939944E+01 -0.36436684303E+02  0.38222850179E+02  0.00000000000E+00 0. -1.
        -11    1    3    3    0    0 -0.62673237347E+03 -0.29188395574E+02 -0.59822797060E+03  0.86690376352E+03  0.00000000000E+00 0.  1.
          2    1    6    6  502    0  0.27465550038E+03 -0.19504968643E+03  0.58997127670E+03  0.67937186532E+03  0.00000000000E+00 0. -1.
          3    1    5    5  503    0  0.10122796699E+03  0.29661931183E+03  0.13067858121E+03  0.33956885758E+03  0.00000000000E+00 0. -1.
         -4    1    5    5    0  503 -0.36684031529E+01  0.38360025077E+02 -0.84135716226E+01  0.39442830693E+02  0.00000000000E+00 0.  1.
         -1    1    6    6    0  502  0.26601157857E+03 -0.10962946091E+03  0.57916978370E+03  0.64669808796E+03  0.00000000000E+00 0.  1.
<mgrwt>
<rscale>  0 0.25262379E+04</rscale>
<asrwt>0</asrwt>
<pdfrwt beam="1">  1        2 0.25130382E+00 0.25262379E+04</pdfrwt>
<pdfrwt beam="2">  1       -2 0.15026668E+00 0.25262379E+04</pdfrwt>
<totfact> 0.28352290E+00</totfact>
</mgrwt>
</event>
<event>
12    1  0.1494110E-007  0.1053050E+04  0.7818608E-02  0.9252201E-01
         -1   -1    0    0    0  501 -0.00000000000E+00  0.00000000000E+00  0.25090059837E+03  0.25090059837E+03  0.00000000000E+00 0.  1.
          1   -1    0    0  501    0  0.00000000000E+00 -0.00000000000E+00 -0.11049330220E+04  0.11049330220E+04  0.00000000000E+00 0. -1.
         23    2    1    2    0    0 -0.88440496081E+01  0.76650897685E+02 -0.17891594947E+03  0.21549610603E+03  0.92054752243E+02 0.  0.
        254    2    1    2    0    0  0.88440496081E+01 -0.76650897685E+02 -0.67511647418E+03  0.11403375144E+04  0.91576952100E+03 0.  0.
        -24    2    4    4    0    0 -0.12774858700E+03  0.65637708569E+02  0.18912426585E+03  0.25032309330E+03  0.79155876839E+02 0.  0.
         24    2    4    4    0    0  0.13659263661E+03 -0.14228860625E+03 -0.86424074003E+03  0.89001442105E+03  0.79435616055E+02 0.  0.
         13    1    3    3    0    0  0.27145538727E+01  0.30541360146E+02 -0.30043820305E+00  0.30663231164E+02  0.00000000000E+00 0.  1.
        -13    1    3    3    0    0 -0.11558603481E+02  0.46109537539E+02 -0.17861551127E+03  0.18483287487E+03  0.00000000000E+00 0. -1.
          4    1    6    6  502    0  0.57417517356E+02 -0.50565848441E+02 -0.50804257730E+03  0.51377128830E+03  0.00000000000E+00 0. -1.
          1    1    5    5  503    0 -0.12596445820E+03  0.48132302308E+02  0.18966859840E+03  0.23271858644E+03  0.00000000000E+00 0. -1.
         -2    1    5    5    0  503 -0.17841287999E+01  0.17505406260E+02 -0.54433254627E+00  0.17604506861E+02  0.00000000000E+00 0.  1.
         -3    1    6    6    0  502  0.79175119256E+02 -0.91722757813E+02 -0.35619816273E+03  0.37624313275E+03  0.00000000000E+00 0.  1.
<mgrwt>
<rscale>  0 0.10530496E+04</rscale>
<asrwt>0</asrwt>
<pdfrwt beam="1">  1        1 0.16998970E+00 0.10530496E+04</pdfrwt>
<pdfrwt beam="2">  1       -1 0.38600091E-01 0.10530496E+04</pdfrwt>
<totfact> 0.81600759E+01</totfact>
</mgrwt>
</event>
<event>
12    1  0.1494110E-007  0.1211569E+04  0.7818608E-02  0.9102790E-01
         -2   -1    0    0    0  501 -0.00000000000E+00  0.00000000000E+00  0.30141119721E+03  0.30141119721E+03  0.00000000000E+00 0.  1.
          2   -1    0    0  501    0  0.00000000000E+00 -0.00000000000E+00 -0.12175231603E+04  0.12175231603E+04  0.00000000000E+00 0. -1.
         23    2    1    2    0    0  0.15144911746E+03 -0.62677879350E+02 -0.42980618976E+03  0.46900552059E+03  0.91473853359E+02 0.  0.
        254    2    1    2    0    0 -0.15144911746E+03  0.62677879350E+02 -0.48630577333E+03  0.10499288369E+04  0.91596501334E+03 0.  0.
        -24    2    4    4    0    0 -0.50387930503E+03  0.71095252679E+02 -0.10702775229E+03  0.52594690882E+03  0.78843656356E+02 0.  0.
         24    2    4    4    0    0  0.35243018757E+03 -0.84173733290E+01 -0.37927802104E+03  0.52398192809E+03  0.80170782904E+02 0.  0.
         11    1    3    3    0    0  0.13440457053E+03 -0.74014734689E+02 -0.41823232285E+03  0.44548966925E+03  0.00000000000E+00 0. -1.
        -11    1    3    3    0    0  0.17044546933E+02  0.11336855339E+02 -0.11573866911E+02  0.23515851344E+02  0.00000000000E+00 0.  1.
          2    1    6    6  502    0  0.22306343645E+03  0.23335559015E+02 -0.27469525876E+03  0.35462561975E+03  0.00000000000E+00 0. -1.
          3    1    5    5  503    0 -0.26349046563E+03  0.32783528298E+02 -0.15802733700E+02  0.26599193897E+03  0.00000000000E+00 0. -1.
         -4    1    5    5    0  503 -0.24038883941E+03  0.38311724381E+02 -0.91225018587E+02  0.25995496985E+03  0.00000000000E+00 0.  1.
         -3    1    6    6    0  502  0.12936675112E+03 -0.31752932344E+02 -0.10458276228E+03  0.16935630834E+03  0.00000000000E+00 0.  1.
<mgrwt>
<rscale>  0 0.12115694E+04</rscale>
<asrwt>0</asrwt>
<pdfrwt beam="1">  1        2 0.18731126E+00 0.12115694E+04</pdfrwt>
<pdfrwt beam="2">  1       -2 0.46370953E-01 0.12115694E+04</pdfrwt>
<totfact> 0.80352468E+01</totfact>
</mgrwt>
</event>
<event>
12    1  0.1494110E-007  0.1407458E+04  0.7818608E-02  0.8948438E-01
         -2   -1    0    0    0  501 -0.00000000000E+00  0.00000000000E+00  0.20238669379E+03  0.20238669379E+03  0.00000000000E+00 0.  1.
          2   -1    0    0  501    0  0.00000000000E+00 -0.00000000000E+00 -0.24469703051E+04  0.24469703051E+04  0.00000000000E+00 0. -1.
         23    2    1    2    0    0 -0.54610259619E+02  0.28500310835E+03 -0.13077203713E+03  0.33160060854E+03  0.92997772352E+02 0.  0.
        254    2    1    2    0    0  0.54610259619E+02 -0.28500310835E+03 -0.21138115742E+04  0.23177563904E+04  0.90531003619E+03 0.  0.
        -24    2    4    4    0    0  0.23002035924E+03  0.12208713551E+03 -0.16457959415E+04  0.16682342675E+04  0.80911407104E+02 0.  0.
         24    2    4    4    0    0 -0.17541009962E+03 -0.40709024386E+03 -0.46801563273E+03  0.64952212292E+03  0.79681779531E+02 0.  0.
         13    1    3    3    0    0 -0.56472256862E+02  0.14972437389E+03 -0.29770535157E+02  0.16276605511E+03  0.00000000000E+00 0. -1.
        -13    1    3    3    0    0  0.18619972431E+01  0.13527873446E+03 -0.10100150197E+03  0.16883455343E+03  0.00000000000E+00 0.  1.
          4    1    6    6  502    0 -0.22389089156E+02 -0.11824020583E+03 -0.16156334503E+03  0.20145652644E+03  0.00000000000E+00 0. -1.
          3    1    5    5  503    0 -0.65780249048E+01  0.46099622319E+01 -0.34056747516E+02  0.34991201963E+02  0.00000000000E+00 0. -1.
         -4    1    5    5    0  503  0.23659838414E+03  0.11747717327E+03 -0.16117391940E+04  0.16332430655E+04  0.00000000000E+00 0.  1.
         -3    1    6    6    0  502 -0.15302101046E+03 -0.28885003803E+03 -0.30645228770E+03  0.44806559648E+03  0.00000000000E+00 0.  1.
<mgrwt>
<rscale>  0 0.14074576E+04</rscale>
<asrwt>0</asrwt>
<pdfrwt beam="1">  1        2 0.37645696E+00 0.14074576E+04</pdfrwt>
<pdfrwt beam="2">  1       -2 0.31136415E-01 0.14074576E+04</pdfrwt>
<totfact> 0.34868677E+01</totfact>
</mgrwt>
</event>
<event>
12    1  0.1494110E-007  0.1164488E+04  0.7818608E-02  0.9144521E-01
          2   -1    0    0  501    0  0.00000000000E+00  0.00000000000E+00  0.64634872914E+03  0.64634872914E+03  0.00000000000E+00 0.  1.
         -2   -1    0    0    0  501 -0.00000000000E+00 -0.00000000000E+00 -0.52449676093E+03  0.52449676093E+03  0.00000000000E+00 0. -1.
         23    2    1    2    0    0  0.58523683867E+01  0.21094529694E+03  0.82285014644E+02  0.24458193331E+03  0.92289381576E+02 0.  0.
        254    2    1    2    0    0 -0.58523683867E+01 -0.21094529694E+03  0.39566953573E+02  0.92626355676E+03  0.90103632793E+03 0.  0.
        -24    2    4    4    0    0 -0.13590497300E+03  0.24313822798E+03  0.26883591172E+03  0.39506576425E+03  0.78853351602E+02 0.  0.
         24    2    4    4    0    0  0.13005260462E+03 -0.45408352492E+03 -0.22926895815E+03  0.53119779251E+03  0.80630713889E+02 0.  0.
         13    1    3    3    0    0  0.16313704118E+02  0.19949513053E+03  0.97684661197E+02  0.22272569919E+03  0.00000000000E+00 0.  1.
        -13    1    3    3    0    0 -0.10461335731E+02  0.11450166412E+02 -0.15399646553E+02  0.21856234124E+02  0.00000000000E+00 0. -1.
          4    1    6    6  502    0  0.94866982071E+01 -0.42362523068E+02 -0.50058832101E+02  0.66260602736E+02  0.00000000000E+00 0. -1.
          1    1    5    5  503    0 -0.20543472072E+02  0.11445477722E+03  0.98238399626E+02  0.15222586323E+03  0.00000000000E+00 0. -1.
         -2    1    5    5    0  503 -0.11536150093E+03  0.12868345076E+03  0.17059751210E+03  0.24283990102E+03  0.00000000000E+00 0.  1.
         -3    1    6    6    0  502  0.12056590641E+03 -0.41172100185E+03 -0.17921012605E+03  0.46493718977E+03  0.00000000000E+00 0.  1.
<mgrwt>
<rscale>  0 0.11644876E+04</rscale>
<asrwt>0</asrwt>
<pdfrwt beam="1">  1        2 0.99438266E-01 0.11644876E+04</pdfrwt>
<pdfrwt beam="2">  1       -2 0.80691809E-01 0.11644876E+04</pdfrwt>
<totfact> 0.60740806E+01</totfact>
</mgrwt>
</event>
<event>
12    1  0.1494110E-007  0.2179742E+04  0.7818608E-02  0.8526907E-01
         -2   -1    0    0    0  501 -0.00000000000E+00  0.00000000000E+00  0.30916758045E+03  0.30916758045E+03  0.00000000000E+00 0.  1.
          2   -1    0    0  501    0  0.00000000000E+00 -0.00000000000E+00 -0.38419905929E+04  0.38419905929E+04  0.00000000000E+00 0. -1.
         23    2    1    2    0    0  0.80061341370E+03  0.45988679444E+03 -0.16078178906E+04  0.18563285262E+04  0.91648927247E+02 0.  0.
        254    2    1    2    0    0 -0.80061341370E+03 -0.45988679444E+03 -0.19250051218E+04  0.22948296472E+04  0.84149907218E+03 0.  0.
        -24    2    4    4    0    0 -0.17916643494E+03 -0.44454794727E+03 -0.34762669267E+03  0.59746310795E+03  0.79964736420E+02 0.  0.
         24    2    4    4    0    0 -0.62144697877E+03 -0.15338847165E+02 -0.15773784292E+04  0.16973665392E+04  0.80615333437E+02 0.  0.
         13    1    3    3    0    0  0.52418608071E+03  0.28280416043E+03 -0.11163924543E+04  0.12653384339E+04  0.00000000000E+00 0.  1.
        -13    1    3    3    0    0  0.27642733300E+03  0.17708263401E+03 -0.49142543637E+03  0.59099009230E+03  0.00000000000E+00 0. -1.
          2    1    6    6  502    0 -0.28955568062E+03  0.33053504676E+02 -0.73006946960E+03  0.78608934403E+03  0.00000000000E+00 0. -1.
          1    1    5    5  503    0 -0.17499220701E+03 -0.41815042972E+03 -0.34677645929E+03  0.57072407266E+03  0.00000000000E+00 0. -1.
         -2    1    5    5    0  503 -0.41742279282E+01 -0.26397517548E+02 -0.85023337937E+00  0.26739035291E+02  0.00000000000E+00 0.  1.
         -1    1    6    6    0  502 -0.33189129814E+03 -0.48392351841E+02 -0.84730895955E+03  0.91127719517E+03  0.00000000000E+00 0.  1.
<mgrwt>
<rscale>  0 0.21797421E+04</rscale>
<asrwt>0</asrwt>
<pdfrwt beam="1">  1        2 0.59107547E+00 0.21797421E+04</pdfrwt>
<pdfrwt beam="2">  1       -2 0.47564243E-01 0.21797421E+04</pdfrwt>
<totfact> 0.17598341E+00</totfact>
</mgrwt>
</event>
<event>
12    1  0.1494110E-007  0.1832915E+04  0.7818608E-02  0.8688989E-01
         -1   -1    0    0    0  501 -0.00000000000E+00  0.00000000000E+00  0.97359438280E+03  0.97359438280E+03  0.00000000000E+00 0.  1.
          1   -1    0    0  501    0  0.00000000000E+00 -0.00000000000E+00 -0.86267420753E+03  0.86267420753E+03  0.00000000000E+00 0. -1.
         23    2    1    2    0    0 -0.12726825232E+03 -0.35551403197E+03  0.62936704277E+03  0.73941543212E+03  0.89693209133E+02 0.  0.
        254    2    1    2    0    0  0.12726825232E+03  0.35551403197E+03 -0.51844686750E+03  0.10968531582E+04  0.88978214260E+03 0.  0.
        -24    2    4    4    0    0  0.22137409581E+03  0.21308613321E+03 -0.74025549747E+03  0.80575345388E+03  0.82754072097E+02 0.  0.
         24    2    4    4    0    0 -0.94105843488E+02  0.14242789875E+03  0.22180862997E+03  0.29109970433E+03  0.79989708134E+02 0.  0.
         11    1    3    3    0    0 -0.11160954127E+03 -0.31623840672E+03  0.60182757934E+03  0.68895562618E+03  0.00000000000E+00 0.  1.
        -11    1    3    3    0    0 -0.15658711050E+02 -0.39275625246E+02  0.27539463432E+02  0.50459805948E+02  0.00000000000E+00 0. -1.
          2    1    6    6  502    0 -0.33426913716E+02  0.59158048229E+02  0.15241983859E+03  0.16687971844E+03  0.00000000000E+00 0. -1.
          3    1    5    5  503    0  0.21140420834E+03  0.21527699863E+03 -0.67055454749E+03  0.73530900076E+03  0.00000000000E+00 0. -1.
         -4    1    5    5    0  503  0.99698874662E+01 -0.21908654164E+01 -0.69700949981E+02  0.70444453122E+02  0.00000000000E+00 0.  1.
         -1    1    6    6    0  502 -0.60678929772E+02  0.83269850525E+02  0.69388791386E+02  0.12421998589E+03  0.00000000000E+00 0.  1.
<mgrwt>
<rscale>  0 0.18329155E+04</rscale>
<asrwt>0</asrwt>
<pdfrwt beam="1">  1        1 0.13271911E+00 0.18329155E+04</pdfrwt>
<pdfrwt beam="2">  1       -1 0.14978375E+00 0.18329155E+04</pdfrwt>
<totfact> 0.64411702E+00</totfact>
</mgrwt>
</event>
<event>
12    1  0.1494110E-007  0.1487141E+04  0.7818608E-02  0.8893050E-01
          1   -1    0    0  501    0  0.00000000000E+00  0.00000000000E+00  0.40422452881E+04  0.40422452881E+04  0.00000000000E+00 0. -1.
         -1   -1    0    0    0  501 -0.00000000000E+00 -0.00000000000E+00 -0.13677962925E+03  0.13677962925E+03  0.00000000000E+00 0.  1.
         23    2    1    2    0    0  0.35538049910E+03  0.70944093703E+02  0.56418575634E+03  0.67667032933E+03  0.90822923160E+02 0.  0.
        254    2    1    2    0    0 -0.35538049910E+03 -0.70944093703E+02  0.33412799025E+04  0.35023545881E+04  0.98539733598E+03 0.  0.
        -24    2    4    4    0    0 -0.12864604152E+03 -0.12992074691E+03  0.32212265117E+04  0.32273882688E+04  0.79407767452E+02 0.  0.
         24    2    4    4    0    0 -0.22673445757E+03  0.58976653209E+02  0.12005339082E+03  0.27496631921E+03  0.79415994483E+02 0.  0.
         11    1    3    3    0    0  0.31601884271E+03  0.31026929634E+02  0.47873497457E+03  0.57447171836E+03  0.00000000000E+00 0.  1.
        -11    1    3    3    0    0  0.39361656382E+02  0.39917164069E+02  0.85450781771E+02  0.10219861098E+03  0.00000000000E+00 0. -1.
          2    1    6    6  502    0 -0.13239644489E+03  0.42238615303E+02  0.11260593863E+03  0.17886591810E+03  0.00000000000E+00 0. -1.
          3    1    5    5  503    0 -0.81830573411E+01 -0.50313900731E+02  0.58775635450E+03  0.58996269652E+03  0.00000000000E+00 0. -1.
         -4    1    5    5    0  503 -0.12046298418E+03 -0.79606846181E+02  0.26334701572E+04  0.26374255723E+04  0.00000000000E+00 0.  1.
         -1    1    6    6    0  502 -0.94338012685E+02  0.16738037907E+02  0.74474521849E+01  0.96100401115E+02  0.00000000000E+00 0.  1.
<mgrwt>
<rscale>  0 0.14871406E+04</rscale>
<asrwt>0</asrwt>
<pdfrwt beam="1">  1        1 0.62188380E+00 0.14871406E+04</pdfrwt>
<pdfrwt beam="2">  1       -1 0.21043023E-01 0.14871406E+04</pdfrwt>
<totfact> 0.16344296E+00</totfact>
</mgrwt>
</event>
<event>
12    1  0.1494110E-007  0.1992199E+04  0.7818608E-02  0.8610277E-01
          3   -1    0    0  501    0  0.00000000000E+00  0.00000000000E+00  0.25657211998E+04  0.25657211998E+04  0.00000000000E+00 0. -1.
         -3   -1    0    0    0  501 -0.00000000000E+00 -0.00000000000E+00 -0.38671929000E+03  0.38671929000E+03  0.00000000000E+00 0.  1.
         23    2    1    2    0    0 -0.10916993146E+03 -0.63816893015E+03  0.15464801897E+04  0.16789876234E+04  0.90668653644E+02 0.  0.
        254    2    1    2    0    0  0.10916993146E+03  0.63816893015E+03  0.63252172002E+03  0.12734528664E+04  0.89577944793E+03 0.  0.
        -24    2    4    4    0    0  0.38504904059E+03  0.17005210934E+03 -0.91769520980E+01  0.42886243879E+03  0.81598354175E+02 0.  0.
         24    2    4    4    0    0 -0.27587910913E+03  0.46811682082E+03  0.64169867211E+03  0.84459042762E+03  0.79455420523E+02 0.  0.
         13    1    3    3    0    0 -0.96713556771E+02 -0.57079957904E+03  0.12984133633E+04  0.14216338958E+04  0.00000000000E+00 0.  1.
        -13    1    3    3    0    0 -0.12456374692E+02 -0.67369351110E+02  0.24806682640E+03  0.25735372758E+03  0.00000000000E+00 0. -1.
          4    1    6    6  502    0 -0.11101785402E+03  0.14376922305E+03  0.26099407577E+03  0.31798185640E+03  0.00000000000E+00 0. -1.
          1    1    5    5  503    0  0.13145333146E+03  0.17758469434E+02 -0.10331933455E+02  0.13304920307E+03  0.00000000000E+00 0. -1.
         -2    1    5    5    0  503  0.25359570913E+03  0.15229363990E+03  0.11549813573E+01  0.29581323572E+03  0.00000000000E+00 0.  1.
         -3    1    6    6    0  502 -0.16486125511E+03  0.32434759777E+03  0.38070459634E+03  0.52660857123E+03  0.00000000000E+00 0.  1.
<mgrwt>
<rscale>  0 0.19921987E+04</rscale>
<asrwt>0</asrwt>
<pdfrwt beam="1">  1        3 0.39472633E+00 0.19921987E+04</pdfrwt>
<pdfrwt beam="2">  1       -3 0.59495277E-01 0.19921987E+04</pdfrwt>
<totfact> 0.79952465E-02</totfact>
</mgrwt>
</event>
<event>
12    1  0.1494110E-007  0.2984077E+04  0.7818608E-02  0.8248292E-01
         -2   -1    0    0    0  501 -0.00000000000E+00  0.00000000000E+00  0.13336481761E+04  0.13336481761E+04  0.00000000000E+00 0.  1.
          2   -1    0    0  501    0  0.00000000000E+00 -0.00000000000E+00 -0.16692399499E+04  0.16692399499E+04  0.00000000000E+00 0. -1.
         23    2    1    2    0    0 -0.78757783477E+03  0.23605695286E+03  0.92108815971E+03  0.12377823500E+04  0.87749742191E+02 0.  0.
        254    2    1    2    0    0  0.78757783477E+03 -0.23605695286E+03 -0.12566799335E+04  0.17651057761E+04  0.92755173150E+03 0.  0.
        -24    2    4    4    0    0  0.30579261935E+03  0.30677786364E+03 -0.20614590980E+03  0.48578554303E+03  0.76613797830E+02 0.  0.
         24    2    4    4    0    0  0.48178521541E+03 -0.54283481650E+03 -0.10505340237E+04  0.12793202330E+04  0.79068905979E+02 0.  0.
         13    1    3    3    0    0 -0.67477918064E+03  0.21706312824E+03  0.74983757557E+03  0.10318428824E+04  0.00000000000E+00 0.  1.
        -13    1    3    3    0    0 -0.11279865412E+03  0.18993824612E+02  0.17125058413E+03  0.20593946759E+03  0.00000000000E+00 0. -1.
          2    1    6    6  502    0  0.26568204036E+03 -0.25213925971E+03 -0.48594732886E+03  0.60852769804E+03  0.00000000000E+00 0. -1.
          3    1    5    5  503    0  0.32561133749E+02  0.43989066577E+02 -0.55233883869E+02  0.77756333096E+02  0.00000000000E+00 0. -1.
         -4    1    5    5    0  503  0.27323148560E+03  0.26278879706E+03 -0.15091202593E+03  0.40802920993E+03  0.00000000000E+00 0.  1.
         -1    1    6    6    0  502  0.21610317505E+03 -0.29069555678E+03 -0.56458669486E+03  0.67079253500E+03  0.00000000000E+00 0.  1.
<mgrwt>
<rscale>  0 0.29840770E+04</rscale>
<asrwt>0</asrwt>
<pdfrwt beam="1">  1        2 0.25680614E+00 0.29840770E+04</pdfrwt>
<pdfrwt beam="2">  1       -2 0.20517664E+00 0.29840770E+04</pdfrwt>
<totfact> 0.10759482E+00</totfact>
</mgrwt>
</event>
<event>
12    1  0.1494110E-007  0.3285747E+04  0.7818608E-02  0.8166532E-01
          1   -1    0    0  501    0  0.00000000000E+00  0.00000000000E+00  0.17634115077E+04  0.17634115077E+04  0.00000000000E+00 0. -1.
         -1   -1    0    0    0  501 -0.00000000000E+00 -0.00000000000E+00 -0.15305744721E+04  0.15305744721E+04  0.00000000000E+00 0.  1.
         23    2    1    2    0    0 -0.48724239255E+03  0.30577985108E+02  0.15545597164E+04  0.16320370414E+04  0.92459884601E+02 0.  0.
        254    2    1    2    0    0  0.48724239255E+03 -0.30577985108E+02 -0.13217226808E+04  0.16619489384E+04  0.88135308847E+03 0.  0.
        -24    2    4    4    0    0  0.83503792424E+02  0.90507213661E+02 -0.12090467153E+04  0.12185893339E+04  0.89451471389E+02 0.  0.
         24    2    4    4    0    0  0.40373860013E+03 -0.12108519877E+03 -0.11267596550E+03  0.44335960452E+03  0.78774254195E+02 0.  0.
         13    1    3    3    0    0 -0.35770387897E+03  0.61807562032E+01  0.10013553277E+04  0.10633450799E+04  0.00000000000E+00 0. -1.
        -13    1    3    3    0    0 -0.12953851358E+03  0.24397228905E+02  0.55320438875E+03  0.56869196144E+03  0.00000000000E+00 0.  1.
          4    1    6    6  502    0  0.33917268835E+03 -0.85053198294E+02 -0.11845788661E+03  0.36919429839E+03  0.00000000000E+00 0. -1.
          1    1    5    5  503    0 -0.18415797954E+02  0.24336696171E+02 -0.26649178104E+03  0.26823364024E+03  0.00000000000E+00 0. -1.
         -2    1    5    5    0  503  0.10191959038E+03  0.66170517490E+02 -0.94255493429E+03  0.95035569364E+03  0.00000000000E+00 0.  1.
         -3    1    6    6    0  502  0.64565911778E+02 -0.36032000475E+02  0.57819211055E+01  0.74165306132E+02  0.00000000000E+00 0.  1.
<mgrwt>
<rscale>  0 0.32857466E+04</rscale>
<asrwt>0</asrwt>
<pdfrwt beam="1">  1        1 0.27129408E+00 0.32857466E+04</pdfrwt>
<pdfrwt beam="2">  1       -1 0.23547300E+00 0.32857466E+04</pdfrwt>
<totfact> 0.31120780E-01</totfact>
</mgrwt>
</event>
<event>
12    1  0.1494110E-007  0.2010039E+04  0.7818608E-02  0.8601941E-01
          1   -1    0    0  501    0  0.00000000000E+00  0.00000000000E+00  0.19268692836E+04  0.19268692836E+04  0.00000000000E+00 0. -1.
         -1   -1    0    0    0  501 -0.00000000000E+00 -0.00000000000E+00 -0.52419969430E+03  0.52419969430E+03  0.00000000000E+00 0.  1.
         23    2    1    2    0    0  0.61376097662E+02  0.78816278872E+03  0.40459331432E+03  0.89285563946E+03  0.92346283277E+02 0.  0.
        254    2    1    2    0    0 -0.61376097662E+02 -0.78816278872E+03  0.99807627494E+03  0.15582133384E+04  0.89827888233E+03 0.  0.
        -24    2    4    4    0    0 -0.35948803143E+03 -0.73285305904E+03  0.92455451025E+03  0.12359414512E+04  0.80280616417E+02 0.  0.
         24    2    4    4    0    0  0.29811193376E+03 -0.55309729681E+02  0.73521764693E+02  0.32227188724E+03  0.80770218344E+02 0.  0.
         11    1    3    3    0    0  0.98782505922E+00  0.18680512007E+03  0.13818625263E+03  0.23236301147E+03  0.00000000000E+00 0. -1.
        -11    1    3    3    0    0  0.60388272603E+02  0.60135766865E+03  0.26640706169E+03  0.66049262799E+03  0.00000000000E+00 0.  1.
          2    1    6    6  502    0  0.30051969630E+03 -0.61421918342E+02  0.74447303420E+02  0.31563767345E+03  0.00000000000E+00 0. -1.
          1    1    5    5  503    0 -0.21612393174E+03 -0.36269650861E+03  0.44514186330E+03  0.61352228133E+03  0.00000000000E+00 0. -1.
         -2    1    5    5    0  503 -0.14336409969E+03 -0.37015655043E+03  0.47941264695E+03  0.62241916982E+03  0.00000000000E+00 0.  1.
         -1    1    6    6    0  502 -0.24077625341E+01  0.61121886602E+01 -0.92553872667E+00  0.66342137871E+01  0.00000000000E+00 0.  1.
<mgrwt>
<rscale>  0 0.20100391E+04</rscale>
<asrwt>0</asrwt>
<pdfrwt beam="1">  1        1 0.29644142E+00 0.20100391E+04</pdfrwt>
<pdfrwt beam="2">  1       -1 0.80646108E-01 0.20100391E+04</pdfrwt>
<totfact> 0.47473891E+00</totfact>
</mgrwt>
</event>
<event>
12    1  0.1494110E-007  0.2134540E+04  0.7818608E-02  0.8546179E-01
          2   -1    0    0  501    0  0.00000000000E+00  0.00000000000E+00  0.21785887751E+04  0.21785887751E+04  0.00000000000E+00 0. -1.
         -2   -1    0    0    0  501 -0.00000000000E+00 -0.00000000000E+00 -0.52284542169E+03  0.52284542169E+03  0.00000000000E+00 0.  1.
         23    2    1    2    0    0  0.67866649701E+03 -0.11475472197E+03  0.36777363705E+01  0.69582850053E+03  0.10201429329E+03 0.  0.
        254    2    1    2    0    0 -0.67866649701E+03  0.11475472197E+03  0.16520656170E+04  0.20056056962E+04  0.90519420319E+03 0.  0.
        -24    2    4    4    0    0 -0.33502961517E+03 -0.37969880446E+03  0.58586177781E+03  0.77856130768E+03  0.80670081059E+02 0.  0.
         24    2    4    4    0    0 -0.34363688184E+03  0.49445352643E+03  0.10662038392E+04  0.12270443886E+04  0.79225680137E+02 0.  0.
         13    1    3    3    0    0  0.64931652299E+03 -0.94476460213E+02  0.20309645824E+02  0.65646799639E+03  0.00000000000E+00 0.  1.
        -13    1    3    3    0    0  0.29349974013E+02 -0.20278261761E+02 -0.16631909454E+02  0.39360504147E+02  0.00000000000E+00 0. -1.
          4    1    6    6  502    0 -0.19806831263E+03  0.33943894576E+03  0.73448858574E+03  0.83302061015E+03  0.00000000000E+00 0. -1.
          3    1    5    5  503    0 -0.33638452270E+03 -0.35905766629E+03  0.55977287740E+03  0.74526681739E+03  0.00000000000E+00 0. -1.
         -4    1    5    5    0  503  0.13549075304E+01 -0.20641138162E+02  0.26088900410E+02  0.33294490290E+02  0.00000000000E+00 0.  1.
         -3    1    6    6    0  502 -0.14556856921E+03  0.15501458067E+03  0.33171525348E+03  0.39402377841E+03  0.00000000000E+00 0.  1.
<mgrwt>
<rscale>  0 0.21345399E+04</rscale>
<asrwt>0</asrwt>
<pdfrwt beam="1">  1        2 0.33516750E+00 0.21345399E+04</pdfrwt>
<pdfrwt beam="2">  1       -2 0.80437758E-01 0.21345399E+04</pdfrwt>
<totfact> 0.66609296E+00</totfact>
</mgrwt>
</event>
<event>
12    1  0.1494110E-007  0.1933122E+04  0.7818608E-02  0.8638543E-01
         -1   -1    0    0    0  501 -0.00000000000E+00  0.00000000000E+00  0.46603510627E+03  0.46603510627E+03  0.00000000000E+00 0.  1.
          1   -1    0    0  501    0  0.00000000000E+00 -0.00000000000E+00 -0.20046571246E+04  0.20046571246E+04  0.00000000000E+00 0. -1.
         23    2    1    2    0    0 -0.49444345092E+03 -0.51246303783E+03 -0.28249492903E+03  0.77151334975E+03  0.91305928647E+02 0.  0.
        254    2    1    2    0    0  0.49444345092E+03  0.51246303783E+03 -0.12561270893E+04  0.16991788811E+04  0.89569018877E+03 0.  0.
        -24    2    4    4    0    0 -0.15855479555E+03  0.38348550236E+03 -0.74422816269E+03  0.85577059484E+03  0.79164380554E+02 0.  0.
         24    2    4    4    0    0  0.65299824647E+03  0.12897753548E+03 -0.51189892663E+03  0.84340828629E+03  0.79089264406E+02 0.  0.
         13    1    3    3    0    0 -0.34596184855E+03 -0.41428724597E+03 -0.21999588538E+03  0.58285651099E+03  0.00000000000E+00 0.  1.
        -13    1    3    3    0    0 -0.14848160237E+03 -0.98175791868E+02 -0.62499043643E+02  0.18865683875E+03  0.00000000000E+00 0. -1.
          2    1    6    6  502    0  0.12866404017E+03  0.47183951349E+02 -0.76314793147E+02  0.15685887973E+03  0.00000000000E+00 0. -1.
          1    1    5    5  503    0 -0.10166550968E+02  0.16087741260E+01 -0.73145908913E+01  0.12627357312E+02  0.00000000000E+00 0. -1.
         -2    1    5    5    0  503 -0.14838824458E+03  0.38187672823E+03 -0.73691357179E+03  0.84314323753E+03  0.00000000000E+00 0.  1.
         -1    1    6    6    0  502  0.52433420631E+03  0.81793584128E+02 -0.43558413349E+03  0.68654940656E+03  0.00000000000E+00 0.  1.
<mgrwt>
<rscale>  0 0.19331224E+04</rscale>
<asrwt>0</asrwt>
<pdfrwt beam="1">  1        1 0.30840879E+00 0.19331224E+04</pdfrwt>
<pdfrwt beam="2">  1       -1 0.71697708E-01 0.19331224E+04</pdfrwt>
<totfact> 0.54198588E+00</totfact>
</mgrwt>
</event>
<event>
12    1  0.1494110E-007  0.1700012E+04  0.7818608E-02  0.8761358E-01
          2   -1    0    0  501    0  0.00000000000E+00  0.00000000000E+00  0.29166301330E+04  0.29166301330E+04  0.00000000000E+00 0. -1.
         -2   -1    0    0    0  501 -0.00000000000E+00 -0.00000000000E+00 -0.24772079051E+03  0.24772079051E+03  0.00000000000E+00 0.  1.
         23    2    1    2    0    0 -0.48364638300E+03 -0.20837828275E+03  0.41253029050E+03  0.67997577337E+03  0.12186254258E+03 0.  0.
        254    2    1    2    0    0  0.48364638300E+03  0.20837828275E+03  0.22563790520E+04  0.24843751501E+04  0.89640288252E+03 0.  0.
        -24    2    4    4    0    0 -0.77654892562E+02  0.15090720540E+03  0.16172912915E+04  0.16281016472E+04  0.79250141437E+02 0.  0.
         24    2    4    4    0    0  0.56130127556E+03  0.57471077351E+02  0.63908776046E+03  0.85627350294E+03  0.80056852278E+02 0.  0.
         13    1    3    3    0    0 -0.17169155808E+03 -0.33053205562E+02  0.19177206666E+03  0.25951306531E+03  0.00000000000E+00 0. -1.
        -13    1    3    3    0    0 -0.31195482492E+03 -0.17532507718E+03  0.22075822383E+03  0.42046270806E+03  0.00000000000E+00 0.  1.
          2    1    6    6  502    0  0.55175303584E+03  0.52145761314E+02  0.63827864244E+03  0.84531072298E+03  0.00000000000E+00 0. -1.
          1    1    5    5  503    0 -0.66131815847E+02  0.14506934321E+03  0.11920771392E+04  0.12026913308E+04  0.00000000000E+00 0. -1.
         -2    1    5    5    0  503 -0.11523076715E+02  0.58378621818E+01  0.42521415233E+03  0.42541031637E+03  0.00000000000E+00 0.  1.
         -1    1    6    6    0  502  0.95482397156E+01  0.53253160370E+01  0.80911801677E+00  0.10962779963E+02  0.00000000000E+00 0.  1.
<mgrwt>
<rscale>  0 0.17000117E+04</rscale>
<asrwt>0</asrwt>
<pdfrwt beam="1">  1        2 0.44871230E+00 0.17000117E+04</pdfrwt>
<pdfrwt beam="2">  1       -2 0.38110893E-01 0.17000117E+04</pdfrwt>
<totfact> 0.12187097E+01</totfact>
</mgrwt>
</event>
<event>
12    1  0.1494110E-007  0.1588367E+04  0.7818608E-02  0.8827726E-01
          1   -1    0    0  501    0  0.00000000000E+00  0.00000000000E+00  0.12564946896E+04  0.12564946896E+04  0.00000000000E+00 0. -1.
         -1   -1    0    0    0  501 -0.00000000000E+00 -0.00000000000E+00 -0.50197410782E+03  0.50197410782E+03  0.00000000000E+00 0.  1.
         23    2    1    2    0    0  0.26887208053E+03 -0.26242298563E+03 -0.16923109171E+03  0.42268095925E+03  0.94138259165E+02 0.  0.
        254    2    1    2    0    0 -0.26887208053E+03  0.26242298563E+03  0.92375167345E+03  0.13357878381E+04  0.88873729258E+03 0.  0.
        -24    2    4    4    0    0  0.15468868605E+03 -0.16673372647E+03  0.59927884195E+03  0.64615116997E+03  0.81532072893E+02 0.  0.
         24    2    4    4    0    0 -0.42356076658E+03  0.42915671210E+03  0.32447283150E+03  0.68963666816E+03  0.82078676701E+02 0.  0.
         11    1    3    3    0    0  0.78533984543E+02 -0.50804844559E+02 -0.41029495470E+01  0.93624532863E+02  0.00000000000E+00 0. -1.
        -11    1    3    3    0    0  0.19033809598E+03 -0.21161814107E+03 -0.16512814217E+03  0.32905642639E+03  0.00000000000E+00 0.  1.
          4    1    6    6  502    0 -0.18344881888E+03  0.24009324747E+03  0.17863406463E+03  0.35101049226E+03  0.00000000000E+00 0. -1.
          1    1    5    5  503    0  0.40000085164E+02 -0.90610245206E+02  0.18875044911E+03  0.21315946000E+03  0.00000000000E+00 0. -1.
         -2    1    5    5    0  503  0.11468860089E+03 -0.76123481267E+02  0.41052839284E+03  0.43299170997E+03  0.00000000000E+00 0.  1.
         -3    1    6    6    0  502 -0.24011194770E+03  0.18906346463E+03  0.14583876686E+03  0.33862617590E+03  0.00000000000E+00 0.  1.
<mgrwt>
<rscale>  0 0.15883675E+04</rscale>
<asrwt>0</asrwt>
<pdfrwt beam="1">  1        1 0.19330687E+00 0.15883675E+04</pdfrwt>
<pdfrwt beam="2">  1       -1 0.77226786E-01 0.15883675E+04</pdfrwt>
<totfact> 0.15697463E+01</totfact>
</mgrwt>
</event>
<event>
12    1  0.1494110E-007  0.2269769E+04  0.7818608E-02  0.8489937E-01
          2   -1    0    0  501    0  0.00000000000E+00  0.00000000000E+00  0.78813689005E+03  0.78813689005E+03  0.00000000000E+00 0.  1.
         -2   -1    0    0    0  501 -0.00000000000E+00 -0.00000000000E+00 -0.16341874051E+04  0.16341874051E+04  0.00000000000E+00 0. -1.
         23    2    1    2    0    0 -0.84363370233E+03  0.26164939861E+03  0.26447745379E+02  0.88840235046E+03  0.91547919542E+02 0.  0.
        254    2    1    2    0    0  0.84363370233E+03 -0.26164939861E+03 -0.87249826043E+03  0.15339219447E+04  0.90082467021E+03 0.  0.
        -24    2    4    4    0    0 -0.18078500974E+03 -0.14214695069E+02 -0.20086332953E+03  0.28141845368E+03  0.77233358195E+02 0.  0.
         24    2    4    4    0    0  0.10244187121E+04 -0.24743470354E+03 -0.67163493091E+03  0.12525034910E+04  0.83748936955E+02 0.  0.
         13    1    3    3    0    0 -0.94908614859E+02  0.16781577488E+02  0.28997747568E+02  0.10064857615E+03  0.00000000000E+00 0. -1.
        -13    1    3    3    0    0 -0.74872508747E+03  0.24486782112E+03 -0.25500021893E+01  0.78775377431E+03  0.00000000000E+00 0.  1.
          4    1    6    6  502    0  0.11522121980E+03 -0.55745559799E+02 -0.83628646025E+02  0.15289619801E+03  0.00000000000E+00 0. -1.
          3    1    5    5  503    0 -0.10547265165E+03  0.28521759772E+02 -0.12762931006E+03  0.16800955869E+03  0.00000000000E+00 0. -1.
         -4    1    5    5    0  503 -0.75312358094E+02 -0.42736454841E+02 -0.73234019468E+02  0.11340889498E+03  0.00000000000E+00 0.  1.
         -3    1    6    6    0  502  0.90919749226E+03 -0.19168914374E+03 -0.58800628488E+03  0.10996072930E+04  0.00000000000E+00 0.  1.
<mgrwt>
<rscale>  0 0.22697695E+04</rscale>
<asrwt>0</asrwt>
<pdfrwt beam="1">  1        2 0.12125183E+00 0.22697695E+04</pdfrwt>
<pdfrwt beam="2">  1       -2 0.25141344E+00 0.22697695E+04</pdfrwt>
<totfact> 0.20111124E+00</totfact>
</mgrwt>
</event>
<event>
12    1  0.1494110E-007  0.1812072E+04  0.7818608E-02  0.8699906E-01
         -1   -1    0    0    0  501 -0.00000000000E+00  0.00000000000E+00  0.63300095665E+03  0.63300095665E+03  0.00000000000E+00 0.  1.
          1   -1    0    0  501    0  0.00000000000E+00 -0.00000000000E+00 -0.12968400903E+04  0.12968400903E+04  0.00000000000E+00 0. -1.
         23    2    1    2    0    0 -0.21900621383E+03 -0.16943309121E+03 -0.90835023273E+03  0.95372602873E+03  0.88441497477E+02 0.  0.
        254    2    1    2    0    0  0.21900621383E+03  0.16943309121E+03  0.24451109907E+03  0.97611501823E+03  0.90351732531E+03 0.  0.
        -24    2    4    4    0    0 -0.28576686280E+03 -0.54038246805E+02 -0.10441876070E+03  0.31870685345E+03  0.78025309091E+02 0.  0.
         24    2    4    4    0    0  0.50477307663E+03  0.22347133802E+03  0.34892985978E+03  0.65740816478E+03  0.75486093186E+02 0.  0.
         13    1    3    3    0    0 -0.25872053484E+02 -0.65751432418E+02 -0.19207125692E+03  0.20465576403E+03  0.00000000000E+00 0.  1.
        -13    1    3    3    0    0 -0.19313416035E+03 -0.10368165880E+03 -0.71627897581E+03  0.74907026470E+03  0.00000000000E+00 0. -1.
          4    1    6    6  502    0  0.38066314119E+02 -0.23041330781E+01  0.16621012048E+02  0.41600617079E+02  0.00000000000E+00 0. -1.
          1    1    5    5  503    0 -0.89062746388E+02  0.60670870582E+00  0.72649787581E+00  0.89067775816E+02  0.00000000000E+00 0. -1.
         -4    1    5    5    0  503 -0.19670411641E+03 -0.54644955511E+02 -0.10514525858E+03  0.22963907764E+03  0.00000000000E+00 0.  1.
         -3    1    6    6    0  502  0.46670676251E+03  0.22577547110E+03  0.33230884773E+03  0.61580754770E+03  0.00000000000E+00 0.  1.
<mgrwt>
<rscale>  0 0.18120718E+04</rscale>
<asrwt>0</asrwt>
<pdfrwt beam="1">  1        1 0.19951386E+00 0.18120718E+04</pdfrwt>
<pdfrwt beam="2">  1       -1 0.97384765E-01 0.18120718E+04</pdfrwt>
<totfact> 0.86784589E+00</totfact>
</mgrwt>
</event>
<event>
12    1  0.1494110E-007  0.1757828E+04  0.7818608E-02  0.8729053E-01
          2   -1    0    0  501    0  0.00000000000E+00  0.00000000000E+00  0.99314952254E+03  0.99314952254E+03  0.00000000000E+00 0.  1.
         -2   -1    0    0    0  501 -0.00000000000E+00 -0.00000000000E+00 -0.77781858568E+03  0.77781858568E+03  0.00000000000E+00 0. -1.
         23    2    1    2    0    0 -0.50722944445E+03 -0.28009230520E+03 -0.21916139813E+03  0.62651548370E+03  0.93576301161E+02 0.  0.
        254    2    1    2    0    0  0.50722944445E+03  0.28009230520E+03  0.43449233498E+03  0.11444526245E+04  0.88614604432E+03 0.  0.
        -24    2    4    4    0    0  0.61187173135E+03 -0.12787058297E+03  0.25083653549E+03  0.67795647290E+03  0.77253543612E+02 0.  0.
         24    2    4    4    0    0 -0.10464228689E+03  0.40796288817E+03  0.18365579949E+03  0.46649615162E+03  0.80656558691E+02 0.  0.
         11    1    3    3    0    0 -0.43880657788E+03 -0.27383853042E+03 -0.18149269385E+03  0.54815905672E+03  0.00000000000E+00 0. -1.
        -11    1    3    3    0    0 -0.68422866566E+02 -0.62537747783E+01 -0.37668704279E+02  0.78356426987E+02  0.00000000000E+00 0.  1.
          2    1    6    6  502    0 -0.30865264502E+02  0.33322408413E+02  0.76992997291E+01  0.46068716843E+02  0.00000000000E+00 0. -1.
          1    1    5    5  503    0  0.28031255456E+02  0.38532292418E+01  0.26537501355E+02  0.38792236804E+02  0.00000000000E+00 0. -1.
         -2    1    5    5    0  503  0.58384047589E+03 -0.13172381221E+03  0.22429903414E+03  0.63916423610E+03  0.00000000000E+00 0.  1.
         -1    1    6    6    0  502 -0.73777022392E+02  0.37464047976E+03  0.17595649976E+03  0.42042743478E+03  0.00000000000E+00 0.  1.
<mgrwt>
<rscale>  0 0.17578284E+04</rscale>
<asrwt>0</asrwt>
<pdfrwt beam="1">  1        2 0.15279223E+00 0.17578284E+04</pdfrwt>
<pdfrwt beam="2">  1       -2 0.11966440E+00 0.17578284E+04</pdfrwt>
<totfact> 0.12889109E+01</totfact>
</mgrwt>
</event>
<event>
12    1  0.1494110E-007  0.1477584E+04  0.7818608E-02  0.8899498E-01
          2   -1    0    0  501    0  0.00000000000E+00  0.00000000000E+00  0.52971595785E+04  0.52971595785E+04  0.00000000000E+00 0. -1.
         -2   -1    0    0    0  501 -0.00000000000E+00 -0.00000000000E+00 -0.10303890042E+03  0.10303890042E+03  0.00000000000E+00 0.  1.
         23    2    1    2    0    0  0.31560225111E+03 -0.43765445181E+02  0.28023703626E+04  0.28221692843E+04  0.99194884596E+02 0.  0.
        254    2    1    2    0    0 -0.31560225111E+03  0.43765445181E+02  0.23917503155E+04  0.25780291946E+04  0.90787926592E+03 0.  0.
        -24    2    4    4    0    0 -0.64686928144E+02 -0.24695434915E+03  0.20223642134E+04  0.20400081907E+04  0.80657035861E+02 0.  0.
         24    2    4    4    0    0 -0.25091532297E+03  0.29071979433E+03  0.36938610215E+03  0.53802100391E+03  0.74458109556E+02 0.  0.
         11    1    3    3    0    0  0.54963800099E+02 -0.38950701607E+02  0.39234412543E+03  0.39808553006E+03  0.00000000000E+00 0.  1.
        -11    1    3    3    0    0  0.26063845101E+03 -0.48147435733E+01  0.24100262372E+04  0.24240837543E+04  0.00000000000E+00 0. -1.
          2    1    6    6  502    0 -0.23043176708E+03  0.25854695608E+03  0.35825670648E+03  0.49829027235E+03  0.00000000000E+00 0. -1.
          1    1    5    5  503    0 -0.71953132356E+02 -0.24250899994E+03  0.20022347264E+04  0.20181505811E+04  0.00000000000E+00 0. -1.
         -2    1    5    5    0  503  0.72662042117E+01 -0.44453492061E+01  0.20129486920E+02  0.21857609588E+02  0.00000000000E+00 0.  1.
         -1    1    6    6    0  502 -0.20483555890E+02  0.32172838252E+02  0.11129395666E+02  0.39730731568E+02  0.00000000000E+00 0.  1.
<mgrwt>
<rscale>  0 0.14775838E+04</rscale>
<asrwt>0</asrwt>
<pdfrwt beam="1">  1        2 0.81494742E+00 0.14775838E+04</pdfrwt>
<pdfrwt beam="2">  1       -2 0.15852143E-01 0.14775838E+04</pdfrwt>
<totfact> 0.43582561E-01</totfact>
</mgrwt>
</event>
<event>
12    1  0.1494110E-007  0.1483376E+04  0.7818608E-02  0.8895584E-01
         -1   -1    0    0    0  501 -0.00000000000E+00  0.00000000000E+00  0.80082217074E+03  0.80082217074E+03  0.00000000000E+00 0.  1.
          1   -1    0    0  501    0  0.00000000000E+00 -0.00000000000E+00 -0.68692039802E+03  0.68692039802E+03  0.00000000000E+00 0. -1.
         23    2    1    2    0    0  0.40756356086E+03  0.20933193836E+03  0.83529010570E+02  0.47432214408E+03  0.89869261713E+02 0.  0.
        254    2    1    2    0    0 -0.40756356086E+03 -0.20933193836E+03  0.30372762148E+02  0.10134204247E+04  0.90342157154E+03 0.  0.
        -24    2    4    4    0    0 -0.28278859549E+03  0.14590410044E+03 -0.34440963035E+03  0.47622764914E+03  0.83170812565E+02 0.  0.
         24    2    4    4    0    0 -0.12477496537E+03 -0.35523603880E+03  0.37478239250E+03  0.53719277555E+03  0.79704461154E+02 0.  0.
         11    1    3    3    0    0  0.26854233284E+03  0.15795553482E+03  0.17429180815E+02  0.31203959981E+03  0.00000000000E+00 0. -1.
        -11    1    3    3    0    0  0.13902122802E+03  0.51376403544E+02  0.66099829755E+02  0.16228254427E+03  0.00000000000E+00 0.  1.
          2    1    6    6  502    0 -0.12312228274E+03 -0.24132913195E+03  0.26166895988E+03  0.37665566636E+03  0.00000000000E+00 0. -1.
          3    1    5    5  503    0 -0.17125406733E+03  0.10832752068E+03 -0.26767838771E+03  0.33572984163E+03  0.00000000000E+00 0. -1.
         -4    1    5    5    0  503 -0.11153452815E+03  0.37576579756E+02 -0.76731242639E+02  0.14049780750E+03  0.00000000000E+00 0.  1.
         -1    1    6    6    0  502 -0.16526826279E+01 -0.11390690685E+03  0.11311343262E+03  0.16053710919E+03  0.00000000000E+00 0.  1.
<mgrwt>
<rscale>  0 0.14833760E+04</rscale>
<asrwt>0</asrwt>
<pdfrwt beam="1">  1        1 0.10568006E+00 0.14833760E+04</pdfrwt>
<pdfrwt beam="2">  1       -1 0.12320341E+00 0.14833760E+04</pdfrwt>
<totfact> 0.15759254E+01</totfact>
</mgrwt>
</event>
<event>
12    1  0.1494110E-007  0.2041780E+04  0.7818608E-02  0.8587333E-01
          2   -1    0    0  501    0  0.00000000000E+00  0.00000000000E+00  0.11363378798E+04  0.11363378798E+04  0.00000000000E+00 0.  1.
         -2   -1    0    0    0  501 -0.00000000000E+00 -0.00000000000E+00 -0.91717092806E+03  0.91717092806E+03  0.00000000000E+00 0. -1.
         23    2    1    2    0    0 -0.44573312216E+03  0.40454172632E+03 -0.47076746371E+03  0.76960339350E+03  0.91298159200E+02 0.  0.
        254    2    1    2    0    0  0.44573312216E+03 -0.40454172632E+03  0.68993441548E+03  0.12839054144E+04  0.90003977185E+03 0.  0.
        -24    2    4    4    0    0  0.35211628610E+02 -0.46498427578E+03  0.71862079978E+03  0.86037613689E+03  0.79881208943E+02 0.  0.
         24    2    4    4    0    0  0.41052149355E+03  0.60442549460E+02 -0.28686384300E+02  0.42352927750E+03  0.79830707130E+02 0.  0.
         13    1    3    3    0    0 -0.22806077191E+03  0.22596943557E+03 -0.30527195472E+03  0.44301790916E+03  0.00000000000E+00 0. -1.
        -13    1    3    3    0    0 -0.21767235025E+03  0.17857229075E+03 -0.16549550899E+03  0.32658548435E+03  0.00000000000E+00 0.  1.
          4    1    6    6  502    0  0.39705369535E+03  0.46179917079E+02 -0.15767694494E+02  0.40004105030E+03  0.00000000000E+00 0. -1.
          1    1    5    5  503    0  0.41666404495E+02 -0.40644288436E+03  0.57710811436E+03  0.70709665759E+03  0.00000000000E+00 0. -1.
         -2    1    5    5    0  503 -0.64547758844E+01 -0.58541391422E+02  0.14151268542E+03  0.15327947930E+03  0.00000000000E+00 0.  1.
         -3    1    6    6    0  502  0.13467798205E+02  0.14262632381E+02 -0.12918689806E+02  0.23488227205E+02  0.00000000000E+00 0.  1.
<mgrwt>
<rscale>  0 0.20417797E+04</rscale>
<asrwt>0</asrwt>
<pdfrwt beam="1">  1        2 0.17482121E+00 0.20417797E+04</pdfrwt>
<pdfrwt beam="2">  1       -2 0.14110322E+00 0.20417797E+04</pdfrwt>
<totfact> 0.67434327E+00</totfact>
</mgrwt>
</event>
<event>
12    1  0.1712159E-007  0.1894452E+04  0.7818608E-02  0.8657623E-01
         -2   -1    0    0    0  501 -0.00000000000E+00  0.00000000000E+00  0.47794910920E+03  0.47794910920E+03  0.00000000000E+00 0. -1.
          2   -1    0    0  501    0  0.00000000000E+00 -0.00000000000E+00 -0.18772640626E+04  0.18772640626E+04  0.00000000000E+00 0.  1.
         23    2    1    2    0    0  0.34806866385E+03  0.18031737679E+03  0.21984467298E+03  0.45853660444E+03  0.90873462827E+02 0.  0.
        254    2    1    2    0    0 -0.34806866385E+03 -0.18031737679E+03 -0.16191596264E+04  0.18966765673E+04  0.90666308753E+03 0.  0.
        -24    2    4    4    0    0 -0.47064204436E+03 -0.17091717589E+02 -0.16076196948E+04  0.16769360326E+04  0.76663639797E+02 0.  0.
         24    2    4    4    0    0  0.12257338051E+03 -0.16322565920E+03 -0.11539931541E+02  0.21974053469E+03  0.80534980814E+02 0.  0.
         11    1    3    3    0    0  0.33896318034E+03  0.18580673083E+03  0.19815129303E+03  0.43437784678E+03  0.00000000000E+00 0. -1.
        -11    1    3    3    0    0  0.91054835121E+01 -0.54893540388E+01  0.21693379955E+02  0.24158757659E+02  0.00000000000E+00 0.  1.
          4    1    6    6  502    0  0.37675420251E+02 -0.94025500866E+02  0.24902998258E+02  0.10430911478E+03  0.00000000000E+00 0. -1.
          1    1    5    5  503    0 -0.42987522376E+03 -0.19808755705E+02 -0.15280566722E+04  0.15874956026E+04  0.00000000000E+00 0. -1.
         -2    1    5    5    0  503 -0.40766820599E+02  0.27170381158E+01 -0.79563022593E+02  0.89440430019E+02  0.00000000000E+00 0.  1.
         -3    1    6    6    0  502  0.84897960259E+02 -0.69200158331E+02 -0.36442929799E+02  0.11543141991E+03  0.00000000000E+00 0.  1.
<mgrwt>
<rscale>  0 0.18944516E+04</rscale>
<asrwt>0</asrwt>
<pdfrwt beam="1">  1        2 0.28880986E+00 0.18944516E+04</pdfrwt>
<pdfrwt beam="2">  1       -2 0.73530632E-01 0.18944516E+04</pdfrwt>
<totfact> 0.12218929E+01</totfact>
</mgrwt>
</event>
<event>
12    1  0.1494110E-007  0.1307146E+04  0.7818608E-02  0.9023918E-01
         -2   -1    0    0    0  501 -0.00000000000E+00  0.00000000000E+00  0.81774720368E+03  0.81774720368E+03  0.00000000000E+00 0.  1.
          2   -1    0    0  501    0  0.00000000000E+00 -0.00000000000E+00 -0.52235876660E+03  0.52235876660E+03  0.00000000000E+00 0. -1.
         23    2    1    2    0    0  0.20250201985E+03 -0.13195588596E+03 -0.16023789055E+03  0.30520336878E+03  0.95149833738E+02 0.  0.
        254    2    1    2    0    0 -0.20250201985E+03  0.13195588596E+03  0.45562632764E+03  0.10349026015E+04  0.89722272612E+03 0.  0.
        -24    2    4    4    0    0 -0.37341966667E+03  0.25859994393E+03  0.60624656236E+03  0.76182464693E+03  0.80781927714E+02 0.  0.
         24    2    4    4    0    0  0.17091764682E+03 -0.12664405798E+03 -0.15062023472E+03  0.27307795457E+03  0.81446637435E+02 0.  0.
         13    1    3    3    0    0  0.12395380161E+03 -0.70683575187E+02 -0.14673071172E+03  0.20467196803E+03  0.00000000000E+00 0. -1.
        -13    1    3    3    0    0  0.78548218248E+02 -0.61272310768E+02 -0.13507178834E+02  0.10053140075E+03  0.00000000000E+00 0.  1.
          2    1    6    6  502    0  0.16229399626E+03 -0.10358461395E+03 -0.15609144722E+03  0.24785813153E+03  0.00000000000E+00 0. -1.
          1    1    5    5  503    0 -0.20547368888E+03  0.10788681561E+03  0.25970721802E+03  0.34829131614E+03  0.00000000000E+00 0. -1.
         -2    1    5    5    0  503 -0.16794597779E+03  0.15071312832E+03  0.34653934434E+03  0.41353333080E+03  0.00000000000E+00 0.  1.
         -1    1    6    6    0  502  0.86236505512E+01 -0.23059444029E+02  0.54712125010E+01  0.25219823037E+02  0.00000000000E+00 0.  1.
<mgrwt>
<rscale>  0 0.13071456E+04</rscale>
<asrwt>0</asrwt>
<pdfrwt beam="1">  1        2 0.80362887E-01 0.13071456E+04</pdfrwt>
<pdfrwt beam="2">  1       -2 0.12580726E+00 0.13071456E+04</pdfrwt>
<totfact> 0.27031517E+01</totfact>
</mgrwt>
</event>
<event>
12    1  0.1494110E-007  0.1593129E+04  0.7818608E-02  0.8824780E-01
         -1   -1    0    0    0  501 -0.00000000000E+00  0.00000000000E+00  0.18120231314E+04  0.18120231314E+04  0.00000000000E+00 0.  1.
          1   -1    0    0  501    0  0.00000000000E+00 -0.00000000000E+00 -0.35016940571E+03  0.35016940571E+03  0.00000000000E+00 0. -1.
         23    2    1    2    0    0 -0.22912541543E+03 -0.42866394196E+03  0.78979219622E+03  0.93220200282E+03  0.94750354743E+02 0.  0.
        254    2    1    2    0    0  0.22912541543E+03  0.42866394196E+03  0.67206152951E+03  0.12299905343E+04  0.90827241725E+03 0.  0.
        -24    2    4    4    0    0  0.37409687307E+03  0.10745143499E+02  0.68030241159E+03  0.78034199846E+03  0.77835305600E+02 0.  0.
         24    2    4    4    0    0 -0.14497145763E+03  0.41791879846E+03 -0.82408820829E+01  0.44964853586E+03  0.80268599240E+02 0.  0.
         13    1    3    3    0    0 -0.42284561499E+01 -0.10977422467E+02  0.10742695800E+01  0.11812607696E+02  0.00000000000E+00 0. -1.
        -13    1    3    3    0    0 -0.22489695928E+03 -0.41768651950E+03  0.78871792664E+03  0.92038939513E+03  0.00000000000E+00 0.  1.
          2    1    6    6  502    0 -0.11032851408E+03  0.38393886396E+03 -0.19060819692E+02  0.39993092795E+03  0.00000000000E+00 0. -1.
          1    1    5    5  503    0  0.27940079386E+03 -0.25902660118E+02  0.50808373075E+03  0.58041780543E+03  0.00000000000E+00 0. -1.
         -2    1    5    5    0  503  0.94696079203E+02  0.36647803618E+02  0.17221868084E+03  0.19992419303E+03  0.00000000000E+00 0.  1.
         -1    1    6    6    0  502 -0.34642943553E+02  0.33979934503E+02  0.10819937609E+02  0.49717607914E+02  0.00000000000E+00 0.  1.
<mgrwt>
<rscale>  0 0.15931291E+04</rscale>
<asrwt>0</asrwt>
<pdfrwt beam="1">  1        1 0.53872217E-01 0.15931291E+04</pdfrwt>
<pdfrwt beam="2">  1       -1 0.27877279E+00 0.15931291E+04</pdfrwt>
<totfact> 0.31186393E+00</totfact>
</mgrwt>
</event>
<event>
12    1  0.1494110E-007  0.2005611E+04  0.7818608E-02  0.8604002E-01
          2   -1    0    0  501    0  0.00000000000E+00  0.00000000000E+00  0.36916022460E+04  0.36916022460E+04  0.00000000000E+00 0. -1.
         -2   -1    0    0    0  501 -0.00000000000E+00 -0.00000000000E+00 -0.27240721773E+03  0.27240721773E+03  0.00000000000E+00 0.  1.
         23    2    1    2    0    0 -0.52646430134E+03  0.38356561082E+03  0.18606846271E+04  0.19738198885E+04  0.97623934216E+02 0.  0.
        254    2    1    2    0    0  0.52646430134E+03 -0.38356561082E+03  0.15585104012E+04  0.19901895752E+04  0.10524317727E+04 0.  0.
        -24    2    4    4    0    0  0.11797940558E+03 -0.51584947326E+03  0.21376058829E+03  0.57636615463E+03  0.80526616043E+02 0.  0.
         24    2    4    4    0    0  0.40848489576E+03  0.13228386244E+03  0.13447498129E+04  0.14138234205E+04  0.78649061607E+02 0.  0.
         11    1    3    3    0    0 -0.16235763252E+03  0.15333430722E+03  0.74908621742E+03  0.78166589521E+03  0.00000000000E+00 0.  1.
        -11    1    3    3    0    0 -0.36410666882E+03  0.23023130360E+03  0.11115984097E+04  0.11921539933E+04  0.00000000000E+00 0. -1.
          4    1    6    6  502    0  0.30821008370E+03  0.63356157880E+02  0.95131587955E+03  0.10020026752E+04  0.00000000000E+00 0. -1.
          1    1    5    5  503    0  0.11987023795E+03 -0.50622651913E+03  0.19570452000E+03  0.55581869505E+03  0.00000000000E+00 0. -1.
         -2    1    5    5    0  503 -0.18908323665E+01 -0.96229541292E+01  0.18056068285E+02  0.20547459578E+02  0.00000000000E+00 0.  1.
         -3    1    6    6    0  502  0.10027481206E+03  0.68927704557E+02  0.39343393332E+03  0.41182074532E+03  0.00000000000E+00 0.  1.
<mgrwt>
<rscale>  0 0.20056112E+04</rscale>
<asrwt>0</asrwt>
<pdfrwt beam="1">  1        2 0.56793877E+00 0.20056112E+04</pdfrwt>
<pdfrwt beam="2">  1       -2 0.41908806E-01 0.20056112E+04</pdfrwt>
<totfact> 0.29883033E+00</totfact>
</mgrwt>
</event>
<event>
12    1  0.1494110E-007  0.1606870E+04  0.7818608E-02  0.8816339E-01
         -2   -1    0    0    0  501 -0.00000000000E+00  0.00000000000E+00  0.50402068906E+03  0.50402068906E+03  0.00000000000E+00 0.  1.
          2   -1    0    0  501    0  0.00000000000E+00 -0.00000000000E+00 -0.12807163882E+04  0.12807163882E+04  0.00000000000E+00 0. -1.
         23    2    1    2    0    0  0.31832963707E+03  0.85255032553E+02 -0.77095794707E+03  0.84404356871E+03  0.97114423843E+02 0.  0.
        254    2    1    2    0    0 -0.31832963707E+03 -0.85255032553E+02 -0.57377520691E+01  0.94069350856E+03  0.88106139220E+03 0.  0.
        -24    2    4    4    0    0 -0.24352343634E+03 -0.15468129749E+03 -0.41498127118E+03  0.51164179146E+03  0.79610925736E+02 0.  0.
         24    2    4    4    0    0 -0.74806200730E+02  0.69426264939E+02  0.40924351911E+03  0.42905171709E+03  0.78671113329E+02 0.  0.
         11    1    3    3    0    0  0.21365741977E+03  0.20665485835E+02 -0.56166242574E+03  0.60128299146E+03  0.00000000000E+00 0. -1.
        -11    1    3    3    0    0  0.10467221730E+03  0.64589546718E+02 -0.20929552133E+03  0.24276057726E+03  0.00000000000E+00 0.  1.
          4    1    6    6  502    0 -0.56407476068E+02  0.77696082266E+02  0.23819278572E+03  0.25681566876E+03  0.00000000000E+00 0. -1.
          3    1    5    5  503    0 -0.24100433675E+03 -0.12941075037E+03 -0.38607985089E+03  0.47316792358E+03  0.00000000000E+00 0. -1.
         -4    1    5    5    0  503 -0.25190995894E+01 -0.25270547124E+02 -0.28901420296E+02  0.38473867882E+02  0.00000000000E+00 0.  1.
         -3    1    6    6    0  502 -0.18398724662E+02 -0.82698173263E+01  0.17105073340E+03  0.17223604833E+03  0.00000000000E+00 0.  1.
<mgrwt>
<rscale>  0 0.16068697E+04</rscale>
<asrwt>0</asrwt>
<pdfrwt beam="1">  1        2 0.19703329E+00 0.16068697E+04</pdfrwt>
<pdfrwt beam="2">  1       -2 0.77541646E-01 0.16068697E+04</pdfrwt>
<totfact> 0.24110064E+01</totfact>
</mgrwt>
</event>
<event>
12    1  0.1494110E-007  0.1729982E+04  0.7818608E-02  0.8744447E-01
          1   -1    0    0  501    0  0.00000000000E+00  0.00000000000E+00  0.95756802179E+03  0.95756802179E+03  0.00000000000E+00 0. -1.
         -1   -1    0    0    0  501 -0.00000000000E+00 -0.00000000000E+00 -0.78136429883E+03  0.78136429883E+03  0.00000000000E+00 0.  1.
         23    2    1    2    0    0  0.16263934987E+02 -0.46755051163E+03 -0.35447771632E+03  0.59407334265E+03  0.91655270289E+02 0.  0.
        254    2    1    2    0    0 -0.16263934987E+02  0.46755051163E+03  0.53068143928E+03  0.11448589780E+04  0.90011737730E+03 0.  0.
        -24    2    4    4    0    0 -0.55523543099E+02 -0.88072753064E+02 -0.18942040298E+03  0.23084132559E+03  0.81042919888E+02 0.  0.
         24    2    4    4    0    0  0.39259608112E+02  0.55562326470E+03  0.72010184226E+03  0.91401765238E+03  0.81382286338E+02 0.  0.
         13    1    3    3    0    0 -0.15062054591E+01 -0.24276993080E+03 -0.23926236304E+03  0.34086065529E+03  0.00000000000E+00 0. -1.
        -13    1    3    3    0    0  0.17770140446E+02 -0.22478058083E+03 -0.11521535328E+03  0.25321268737E+03  0.00000000000E+00 0.  1.
          2    1    6    6  502    0  0.55350129374E+02  0.48397146617E+03  0.65189148065E+03  0.81379021832E+03  0.00000000000E+00 0. -1.
          1    1    5    5  503    0 -0.71018010086E+02 -0.91609462078E+02 -0.16307217589E+03  0.20007095204E+03  0.00000000000E+00 0. -1.
         -2    1    5    5    0  503  0.15494466987E+02  0.35367090145E+01 -0.26348227082E+02  0.30770373547E+02  0.00000000000E+00 0.  1.
         -1    1    6    6    0  502 -0.16090521262E+02  0.71651798533E+02  0.68210361606E+02  0.10022743406E+03  0.00000000000E+00 0.  1.
<mgrwt>
<rscale>  0 0.17299820E+04</rscale>
<asrwt>0</asrwt>
<pdfrwt beam="1">  1        1 0.14731816E+00 0.17299820E+04</pdfrwt>
<pdfrwt beam="2">  1       -1 0.12020989E+00 0.17299820E+04</pdfrwt>
<totfact> 0.95661036E+00</totfact>
</mgrwt>
</event>
<event>
12    1  0.1494110E-007  0.2202809E+04  0.7818608E-02  0.8517260E-01
          2   -1    0    0  501    0  0.00000000000E+00  0.00000000000E+00  0.19802058307E+04  0.19802058307E+04  0.00000000000E+00 0.  1.
         -2   -1    0    0    0  501 -0.00000000000E+00 -0.00000000000E+00 -0.61260885859E+03  0.61260885859E+03  0.00000000000E+00 0. -1.
         23    2    1    2    0    0  0.14984499158E+03 -0.88493327091E+03  0.34296702362E+03  0.96510928537E+03  0.90824765041E+02 0.  0.
        254    2    1    2    0    0 -0.14984499158E+03  0.88493327091E+03  0.10246299485E+04  0.16277054039E+04  0.89106561774E+03 0.  0.
        -24    2    4    4    0    0 -0.29106418605E+03  0.38033797362E+02  0.58667526433E+03  0.66050330014E+03  0.76888318818E+02 0.  0.
         24    2    4    4    0    0  0.14121919447E+03  0.84689947355E+03  0.43795468414E+03  0.96720210376E+03  0.80585513437E+02 0.  0.
         13    1    3    3    0    0  0.23705137710E+02 -0.17907590072E+03  0.31590221837E+02  0.18337953508E+03  0.00000000000E+00 0. -1.
        -13    1    3    3    0    0  0.12613985387E+03 -0.70585737020E+03  0.31137680179E+03  0.78172975029E+03  0.00000000000E+00 0.  1.
          4    1    6    6  502    0  0.12730368514E+03  0.69566395664E+03  0.39167506904E+03  0.80843300806E+03  0.00000000000E+00 0. -1.
          3    1    5    5  503    0 -0.25020685415E+03  0.90802877867E+01  0.51981556369E+03  0.57696979275E+03  0.00000000000E+00 0. -1.
         -4    1    5    5    0  503 -0.40857331900E+02  0.28953509576E+02  0.66859700640E+02  0.83533507387E+02  0.00000000000E+00 0.  1.
         -3    1    6    6    0  502  0.13915509329E+02  0.15123551691E+03  0.46279615094E+02  0.15876909570E+03  0.00000000000E+00 0.  1.
<mgrwt>
<rscale>  0 0.22028088E+04</rscale>
<asrwt>0</asrwt>
<pdfrwt beam="1">  1        2 0.30464705E+00 0.22028088E+04</pdfrwt>
<pdfrwt beam="2">  1       -2 0.94247518E-01 0.22028088E+04</pdfrwt>
<totfact> 0.59455518E+00</totfact>
</mgrwt>
</event>
<event>
12    1  0.1494110E-007  0.2428516E+04  0.7818608E-02  0.8428904E-01
         -2   -1    0    0    0  501 -0.00000000000E+00  0.00000000000E+00  0.36681012559E+04  0.36681012559E+04  0.00000000000E+00 0.  1.
          2   -1    0    0  501    0  0.00000000000E+00 -0.00000000000E+00 -0.40195806830E+03  0.40195806830E+03  0.00000000000E+00 0. -1.
         23    2    1    2    0    0  0.52333267085E+03  0.19775946639E+03  0.28857649992E+04  0.29409002628E+04  0.90933132478E+02 0.  0.
        254    2    1    2    0    0 -0.52333267085E+03 -0.19775946639E+03  0.38037818846E+03  0.11291590614E+04  0.90406124169E+03 0.  0.
        -24    2    4    4    0    0 -0.61430221304E+03 -0.14649179954E+03  0.59904676885E+03  0.87398131053E+03  0.78480848676E+02 0.  0.
         24    2    4    4    0    0  0.90969542182E+02 -0.51267666859E+02 -0.21866858039E+03  0.25517775086E+03  0.79974403482E+02 0.  0.
         11    1    3    3    0    0  0.11468639726E+03  0.50361842853E+01  0.55506109761E+03  0.56680786423E+03  0.00000000000E+00 0. -1.
        -11    1    3    3    0    0  0.40864627359E+03  0.19272328211E+03  0.23307039016E+04  0.23740923986E+04  0.00000000000E+00 0.  1.
          2    1    6    6  502    0  0.10503254643E+03 -0.36685429766E+02 -0.18635734682E+03  0.21704081939E+03  0.00000000000E+00 0. -1.
          3    1    5    5  503    0 -0.17354206889E+03 -0.20173496334E+02  0.12762175925E+03  0.21635880630E+03  0.00000000000E+00 0. -1.
         -4    1    5    5    0  503 -0.44076014415E+03 -0.12631830320E+03  0.47142500960E+03  0.65762250423E+03  0.00000000000E+00 0.  1.
         -1    1    6    6    0  502 -0.14063004247E+02 -0.14582237093E+02 -0.32311233572E+02  0.38136931471E+02  0.00000000000E+00 0.  1.
<mgrwt>
<rscale>  0 0.24285163E+04</rscale>
<asrwt>0</asrwt>
<pdfrwt beam="1">  1        2 0.61839705E-01 0.24285163E+04</pdfrwt>
<pdfrwt beam="2">  1       -2 0.56432325E+00 0.24285163E+04</pdfrwt>
<totfact> 0.50718767E-02</totfact>
</mgrwt>
</event>
<event>
12    1  0.1494110E-007  0.2377327E+04  0.7818608E-02  0.8448041E-01
         -1   -1    0    0    0  501 -0.00000000000E+00  0.00000000000E+00  0.85439310855E+03  0.85439310855E+03  0.00000000000E+00 0.  1.
          1   -1    0    0  501    0  0.00000000000E+00 -0.00000000000E+00 -0.16537133500E+04  0.16537133500E+04  0.00000000000E+00 0. -1.
         23    2    1    2    0    0 -0.62316867033E+03 -0.41981966598E+03 -0.10622613709E+04  0.13043601753E+04  0.91479523658E+02 0.  0.
        254    2    1    2    0    0  0.62316867033E+03  0.41981966598E+03  0.26294112943E+03  0.12037462832E+04  0.90292819939E+03 0.  0.
        -24    2    4    4    0    0 -0.17124582848E+03  0.20720847215E+03 -0.10431607991E+03  0.29940149963E+03  0.80615933631E+02 0.  0.
         24    2    4    4    0    0  0.79441449882E+03  0.21261119383E+03  0.36725720934E+03  0.90434478361E+03  0.81631575773E+02 0.  0.
         13    1    3    3    0    0 -0.60736586052E+03 -0.41295072099E+03 -0.10063775394E+04  0.12458801461E+04  0.00000000000E+00 0. -1.
        -13    1    3    3    0    0 -0.15802809819E+02 -0.68689449868E+01 -0.55883831449E+02  0.58480029248E+02  0.00000000000E+00 0.  1.
          2    1    6    6  502    0  0.34886354222E+03  0.80266722659E+02  0.11793071179E+03  0.37690339696E+03  0.00000000000E+00 0. -1.
          1    1    5    5  503    0 -0.13614844264E+03  0.20413670127E+03 -0.92796699607E+02  0.26233455491E+03  0.00000000000E+00 0. -1.
         -2    1    5    5    0  503 -0.35097385838E+02  0.30717708742E+01 -0.11519380301E+02  0.37066944729E+02  0.00000000000E+00 0.  1.
         -1    1    6    6    0  502  0.44555095659E+03  0.13234447117E+03  0.24932649755E+03  0.52744138665E+03  0.00000000000E+00 0.  1.
<mgrwt>
<rscale>  0 0.23773273E+04</rscale>
<asrwt>0</asrwt>
<pdfrwt beam="1">  1        1 0.25441744E+00 0.23773273E+04</pdfrwt>
<pdfrwt beam="2">  1       -1 0.13144510E+00 0.23773273E+04</pdfrwt>
<totfact> 0.22696736E+00</totfact>
</mgrwt>
</event>
<event>
12    1  0.1494110E-007  0.1979454E+04  0.7818608E-02  0.8616287E-01
          2   -1    0    0  501    0  0.00000000000E+00  0.00000000000E+00  0.88762729116E+03  0.88762729116E+03  0.00000000000E+00 0. -1.
         -2   -1    0    0    0  501 -0.00000000000E+00 -0.00000000000E+00 -0.11035711168E+04  0.11035711168E+04  0.00000000000E+00 0.  1.
         23    2    1    2    0    0 -0.15555806174E+03  0.39915269809E+03  0.57158318879E+03  0.71981429574E+03  0.88904958712E+02 0.  0.
        254    2    1    2    0    0  0.15555806174E+03 -0.39915269809E+03 -0.78752701440E+03  0.12713841122E+04  0.90149740728E+03 0.  0.
        -24    2    4    4    0    0  0.12118373925E+03 -0.51286571147E+03 -0.92835302930E+03  0.10704113082E+04  0.78894138004E+02 0.  0.
         24    2    4    4    0    0  0.34374322491E+02  0.11371301338E+03  0.14082601490E+03  0.20097280400E+03  0.80286101012E+02 0.  0.
         11    1    3    3    0    0 -0.36373078406E+02  0.41486309279E+02  0.40140295950E+02  0.68230184298E+02  0.00000000000E+00 0.  1.
        -11    1    3    3    0    0 -0.11918498333E+03  0.35766638881E+03  0.53144289284E+03  0.65158411144E+03  0.00000000000E+00 0. -1.
          2    1    6    6  502    0 -0.70437644587E+01  0.71100977489E+02  0.34900787624E+02  0.79517473516E+02  0.00000000000E+00 0. -1.
          1    1    5    5  503    0  0.10057644056E+03 -0.48909941387E+03 -0.84759798216E+03  0.98374600198E+03  0.00000000000E+00 0. -1.
         -2    1    5    5    0  503  0.20607298688E+02 -0.23766297597E+02 -0.80755047135E+02  0.86665306198E+02  0.00000000000E+00 0.  1.
         -1    1    6    6    0  502  0.41418086949E+02  0.42612035896E+02  0.10592522728E+03  0.12145533049E+03  0.00000000000E+00 0.  1.
<mgrwt>
<rscale>  0 0.19794543E+04</rscale>
<asrwt>0</asrwt>
<pdfrwt beam="1">  1        2 0.13655805E+00 0.19794543E+04</pdfrwt>
<pdfrwt beam="2">  1       -2 0.16978017E+00 0.19794543E+04</pdfrwt>
<totfact> 0.59488599E+00</totfact>
</mgrwt>
</event>
<event>
12    1  0.1494110E-007  0.2031439E+04  0.7818608E-02  0.8592062E-01
         -2   -1    0    0    0  501 -0.00000000000E+00  0.00000000000E+00  0.59261007396E+03  0.59261007396E+03  0.00000000000E+00 0.  1.
          2   -1    0    0  501    0  0.00000000000E+00 -0.00000000000E+00 -0.17409184522E+04  0.17409184522E+04  0.00000000000E+00 0. -1.
         23    2    1    2    0    0 -0.34660388866E+03  0.36201129178E+03 -0.11932214900E+04  0.12974443964E+04  0.91640637740E+02 0.  0.
        254    2    1    2    0    0  0.34660388866E+03 -0.36201129178E+03  0.44913111766E+02  0.10360841298E+04  0.90568576523E+03 0.  0.
        -24    2    4    4    0    0  0.50610408686E+03 -0.37531750118E+03  0.31722193242E+03  0.70986383554E+03  0.79198088208E+02 0.  0.
         24    2    4    4    0    0 -0.15950019820E+03  0.13306209400E+02 -0.27230882065E+03  0.32622029423E+03  0.81548869553E+02 0.  0.
         13    1    3    3    0    0 -0.30560177241E+03  0.26985361956E+03 -0.98658842069E+03  0.10675065017E+04  0.00000000000E+00 0. -1.
        -13    1    3    3    0    0 -0.41002116248E+02  0.92157672221E+02 -0.20663306934E+03  0.22993789473E+03  0.00000000000E+00 0.  1.
          2    1    6    6  502    0 -0.12312745564E+02 -0.13872708947E+02 -0.39825105228E+01  0.18971456110E+02  0.00000000000E+00 0. -1.
          1    1    5    5  503    0  0.13904066602E+03 -0.11196436234E+03  0.13003085968E+03  0.22085368394E+03  0.00000000000E+00 0. -1.
         -2    1    5    5    0  503  0.36706342084E+03 -0.26335313884E+03  0.18719107274E+03  0.48901015160E+03  0.00000000000E+00 0.  1.
         -1    1    6    6    0  502 -0.14718745264E+03  0.27178918347E+02 -0.26832631013E+03  0.30724883812E+03  0.00000000000E+00 0.  1.
<mgrwt>
<rscale>  0 0.20314387E+04</rscale>
<asrwt>0</asrwt>
<pdfrwt beam="1">  1        2 0.26783360E+00 0.20314387E+04</pdfrwt>
<pdfrwt beam="2">  1       -2 0.91170783E-01 0.20314387E+04</pdfrwt>
<totfact> 0.88453778E+00</totfact>
</mgrwt>
</event>
<event>
12    1  0.1494110E-007  0.1336030E+04  0.7818608E-02  0.9001471E-01
          2   -1    0    0  501    0  0.00000000000E+00  0.00000000000E+00  0.18198265549E+04  0.18198265549E+04  0.00000000000E+00 0.  1.
         -2   -1    0    0    0  501 -0.00000000000E+00 -0.00000000000E+00 -0.24521248881E+03  0.24521248881E+03  0.00000000000E+00 0. -1.
         23    2    1    2    0    0  0.45295212097E+02  0.52409448668E+02 -0.10681232779E+03  0.15603601066E+03  0.90221708613E+02 0.  0.
        254    2    1    2    0    0 -0.45295212097E+02 -0.52409448668E+02  0.16814263939E+04  0.19090030330E+04  0.90127656997E+03 0.  0.
        -24    2    4    4    0    0  0.40536829095E+03 -0.57012772656E+02  0.10456592299E+04  0.11257653817E+04  0.79815801640E+02 0.  0.
         24    2    4    4    0    0 -0.45066350305E+03  0.46033239887E+01  0.63576716400E+03  0.78323765128E+03  0.78374409017E+02 0.  0.
         13    1    3    3    0    0  0.22533050890E+02 -0.24172233398E+02 -0.23107603834E+02  0.40323648208E+02  0.00000000000E+00 0. -1.
        -13    1    3    3    0    0  0.22762161207E+02  0.76581682066E+02 -0.83704723960E+02  0.11571236245E+03  0.00000000000E+00 0.  1.
          4    1    6    6  502    0 -0.15142985903E+03  0.23917984027E+02  0.16632834832E+03  0.22620387181E+03  0.00000000000E+00 0. -1.
          3    1    5    5  503    0  0.71480202665E+02  0.17097126547E+02  0.22464613971E+03  0.23636332033E+03  0.00000000000E+00 0. -1.
         -4    1    5    5    0  503  0.33388808829E+03 -0.74109899203E+02  0.82101309015E+03  0.88940206142E+03  0.00000000000E+00 0.  1.
         -3    1    6    6    0  502 -0.29923364402E+03 -0.19314660038E+02  0.46943881568E+03  0.55703377947E+03  0.00000000000E+00 0.  1.
<mgrwt>
<rscale>  0 0.13360302E+04</rscale>
<asrwt>0</asrwt>
<pdfrwt beam="1">  1        2 0.27997331E+00 0.13360302E+04</pdfrwt>
<pdfrwt beam="2">  1       -2 0.37725000E-01 0.13360302E+04</pdfrwt>
<totfact> 0.54540156E+01</totfact>
</mgrwt>
</event>
<event>
12    1  0.1494110E-007  0.2578230E+04  0.7818608E-02  0.8375634E-01
          2   -1    0    0  501    0  0.00000000000E+00  0.00000000000E+00  0.19690438368E+04  0.19690438368E+04  0.00000000000E+00 0. -1.
         -2   -1    0    0    0  501 -0.00000000000E+00 -0.00000000000E+00 -0.84397158660E+03  0.84397158660E+03  0.00000000000E+00 0.  1.
         23    2    1    2    0    0  0.68943792107E+03 -0.62155240170E+03  0.12006583648E+04  0.15202878356E+04  0.89680316234E+02 0.  0.
        254    2    1    2    0    0 -0.68943792107E+03  0.62155240170E+03 -0.75586114639E+02  0.12927275877E+04  0.89653740597E+03 0.  0.
        -24    2    4    4    0    0 -0.35613383711E+03  0.54914421890E+03 -0.43603101415E+03  0.79031308206E+03  0.77981018803E+02 0.  0.
         24    2    4    4    0    0 -0.33330408396E+03  0.72408182796E+02  0.36044489951E+03  0.50241450567E+03  0.78519122579E+02 0.  0.
         13    1    3    3    0    0  0.33980306727E+03 -0.31957384818E+03  0.67452052112E+03  0.82010456795E+03  0.00000000000E+00 0.  1.
        -13    1    3    3    0    0  0.34963485380E+03 -0.30197855351E+03  0.52613784371E+03  0.70018326770E+03  0.00000000000E+00 0. -1.
          2    1    6    6  502    0 -0.25621200131E+03  0.75275525746E+02  0.31467966855E+03  0.41271574745E+03  0.00000000000E+00 0. -1.
          1    1    5    5  503    0 -0.16250961129E+03  0.23527215581E+03 -0.23608640127E+03  0.37080877811E+03  0.00000000000E+00 0. -1.
         -2    1    5    5    0  503 -0.19362422582E+03  0.31387206309E+03 -0.19994461288E+03  0.41950430395E+03  0.00000000000E+00 0.  1.
         -1    1    6    6    0  502 -0.77092082644E+02 -0.28673429508E+01  0.45765230951E+02  0.89698758219E+02  0.00000000000E+00 0.  1.
<mgrwt>
<rscale>  0 0.25782297E+04</rscale>
<asrwt>0</asrwt>
<pdfrwt beam="1">  1        2 0.30292982E+00 0.25782297E+04</pdfrwt>
<pdfrwt beam="2">  1       -2 0.12984178E+00 0.25782297E+04</pdfrwt>
<totfact> 0.26837078E+00</totfact>
</mgrwt>
</event>
<event>
12    1  0.1494110E-007  0.3259070E+04  0.7818608E-02  0.8173389E-01
         -1   -1    0    0    0  501 -0.00000000000E+00  0.00000000000E+00  0.14485173055E+04  0.14485173055E+04  0.00000000000E+00 0.  1.
          1   -1    0    0  501    0  0.00000000000E+00 -0.00000000000E+00 -0.18331738979E+04  0.18331738979E+04  0.00000000000E+00 0. -1.
         23    2    1    2    0    0 -0.96843175419E+03 -0.66060418869E+03 -0.11256896793E+04  0.16284342170E+04  0.10179778211E+03 0.  0.
        254    2    1    2    0    0  0.96843175419E+03  0.66060418869E+03  0.74103308688E+03  0.16532569864E+04  0.89992814747E+03 0.  0.
        -24    2    4    4    0    0  0.31053633180E+03 -0.87675858188E+02  0.53770107551E+03  0.63327786467E+03  0.88309330172E+02 0.  0.
         24    2    4    4    0    0  0.65789542240E+03  0.74828004688E+03  0.20333201137E+03  0.10199791217E+04  0.79145982655E+02 0.  0.
         13    1    3    3    0    0 -0.21777487486E+03 -0.10283640397E+03 -0.25306865984E+03  0.34934935050E+03  0.00000000000E+00 0.  1.
        -13    1    3    3    0    0 -0.75065687933E+03 -0.55776778472E+03 -0.87262101943E+03  0.12790848665E+04  0.00000000000E+00 0. -1.
          2    1    6    6  502    0  0.11668606358E+03  0.17672668049E+03  0.57609232320E+02  0.21946931603E+03  0.00000000000E+00 0. -1.
          3    1    5    5  503    0  0.11806420124E+03 -0.40788312073E+02  0.13164405027E+03  0.18147451058E+03  0.00000000000E+00 0. -1.
         -4    1    5    5    0  503  0.19247213055E+03 -0.46887546115E+02  0.40605702524E+03  0.45180335409E+03  0.00000000000E+00 0.  1.
         -1    1    6    6    0  502  0.54120935882E+03  0.57155336639E+03  0.14572277905E+03  0.80050980571E+03  0.00000000000E+00 0.  1.
<mgrwt>
<rscale>  0 0.32590699E+04</rscale>
<asrwt>0</asrwt>
<pdfrwt beam="1">  1        1 0.28202675E+00 0.32590699E+04</pdfrwt>
<pdfrwt beam="2">  1       -1 0.22284882E+00 0.32590699E+04</pdfrwt>
<totfact> 0.33915503E-01</totfact>
</mgrwt>
</event>
<event>
12    1  0.1494110E-007  0.2535496E+04  0.7818608E-02  0.8390448E-01
          2   -1    0    0  501    0  0.00000000000E+00  0.00000000000E+00  0.25593989571E+04  0.25593989571E+04  0.00000000000E+00 0. -1.
         -2   -1    0    0    0  501 -0.00000000000E+00 -0.00000000000E+00 -0.62795425205E+03  0.62795425205E+03  0.00000000000E+00 0.  1.
         23    2    1    2    0    0  0.64082620951E+03 -0.83414843268E+03  0.12938058315E+04  0.16699153366E+04  0.90674489869E+02 0.  0.
        254    2    1    2    0    0 -0.64082620951E+03  0.83414843268E+03  0.63763887349E+03  0.15174378726E+04  0.88857893602E+03 0.  0.
        -24    2    4    4    0    0 -0.67971043406E+03  0.69141027285E+03  0.81678910417E+03  0.12702024007E+04  0.78836910348E+02 0.  0.
         24    2    4    4    0    0  0.38884224553E+02  0.14273815983E+03 -0.17915023068E+03  0.24723547187E+03  0.84524601219E+02 0.  0.
         11    1    3    3    0    0  0.21481029279E+01 -0.10551975260E+02  0.29553550293E+02  0.31454266213E+02  0.00000000000E+00 0. -1.
        -11    1    3    3    0    0  0.63867810658E+03 -0.82359645742E+03  0.12642522812E+04  0.16384610704E+04  0.00000000000E+00 0.  1.
          2    1    6    6  502    0 -0.15224900571E+02  0.73360471209E+01 -0.48832046152E+02  0.51673822349E+02  0.00000000000E+00 0. -1.
          1    1    5    5  503    0 -0.12767886255E+03  0.17670115369E+03  0.18329867420E+03  0.28482203851E+03  0.00000000000E+00 0. -1.
         -2    1    5    5    0  503 -0.55203157151E+03  0.51470911916E+03  0.63349042996E+03  0.98538036216E+03  0.00000000000E+00 0.  1.
         -1    1    6    6    0  502  0.54109125123E+02  0.13540211271E+03 -0.13031818452E+03  0.19556164953E+03  0.00000000000E+00 0.  1.
<mgrwt>
<rscale>  0 0.25354964E+04</rscale>
<asrwt>0</asrwt>
<pdfrwt beam="1">  1        2 0.39375368E+00 0.25354964E+04</pdfrwt>
<pdfrwt beam="2">  1       -2 0.96608348E-01 0.25354964E+04</pdfrwt>
<totfact> 0.25610436E+00</totfact>
</mgrwt>
</event>
<event>
12    1  0.1494110E-007  0.1092800E+04  0.7818608E-02  0.9212238E-01
         -2   -1    0    0    0  501 -0.00000000000E+00  0.00000000000E+00  0.15405044883E+04  0.15405044883E+04  0.00000000000E+00 0.  1.
          2   -1    0    0  501    0  0.00000000000E+00 -0.00000000000E+00 -0.19380202543E+03  0.19380202543E+03  0.00000000000E+00 0. -1.
         23    2    1    2    0    0  0.71401833001E+02 -0.12325895939E+03  0.12478817386E+03  0.21137636450E+03  0.93898276397E+02 0.  0.
        254    2    1    2    0    0 -0.71401833001E+02  0.12325895939E+03  0.12219142891E+04  0.15229301493E+04  0.89774757974E+03 0.  0.
        -24    2    4    4    0    0 -0.13360202358E+03  0.39413832934E+03  0.21424886198E+03  0.47467540936E+03  0.78864732491E+02 0.  0.
         24    2    4    4    0    0  0.62200190579E+02 -0.27087936995E+03  0.10076654271E+04  0.10482547399E+04  0.78764776655E+02 0.  0.
         13    1    3    3    0    0  0.11766695621E+02 -0.89804324111E+02  0.10803070400E+03  0.14097483733E+03  0.00000000000E+00 0.  1.
        -13    1    3    3    0    0  0.59635137380E+02 -0.33454635276E+02  0.16757469862E+02  0.70401527171E+02  0.00000000000E+00 0. -1.
          4    1    6    6  502    0  0.79619227188E+02 -0.21592456158E+03  0.76706763201E+03  0.80084667054E+03  0.00000000000E+00 0. -1.
          1    1    5    5  503    0 -0.13543138961E+03  0.38192463835E+03  0.21995275515E+03  0.46107190889E+03  0.00000000000E+00 0. -1.
         -2    1    5    5    0  503  0.18293660288E+01  0.12213690995E+02 -0.57038931707E+01  0.13603500472E+02  0.00000000000E+00 0.  1.
         -3    1    6    6    0  502 -0.17419036609E+02 -0.54954808371E+02  0.24059779506E+03  0.24740806937E+03  0.00000000000E+00 0.  1.
<mgrwt>
<rscale>  0 0.10927999E+04</rscale>
<asrwt>0</asrwt>
<pdfrwt beam="1">  1        2 0.29815697E-01 0.10927999E+04</pdfrwt>
<pdfrwt beam="2">  1       -2 0.23700068E+00 0.10927999E+04</pdfrwt>
<totfact> 0.13815426E+01</totfact>
</mgrwt>
</event>
<event>
12    1  0.1494110E-007  0.1270959E+04  0.7818608E-02  0.9052917E-01
         -1   -1    0    0    0  501 -0.00000000000E+00  0.00000000000E+00  0.49974309429E+03  0.49974309429E+03  0.00000000000E+00 0.  1.
          1   -1    0    0  501    0  0.00000000000E+00 -0.00000000000E+00 -0.80808382262E+03  0.80808382262E+03  0.00000000000E+00 0. -1.
         23    2    1    2    0    0 -0.15075845864E+03 -0.24779047031E+02 -0.33983312015E+03  0.38360488430E+03  0.91236197230E+02 0.  0.
        254    2    1    2    0    0  0.15075845864E+03  0.24779047031E+02  0.31492391813E+02  0.92422203261E+03  0.91096239264E+03 0.  0.
        -24    2    4    4    0    0 -0.31079226399E+03  0.22404245606E+03  0.11654086572E+03  0.40835773493E+03  0.79921291411E+02 0.  0.
         24    2    4    4    0    0  0.46155072263E+03 -0.19926340903E+03 -0.85048473912E+02  0.51586429768E+03  0.78407620606E+02 0.  0.
         11    1    3    3    0    0 -0.77771654818E+02 -0.15472731341E+02 -0.27272812781E+03  0.28402194881E+03  0.00000000000E+00 0. -1.
        -11    1    3    3    0    0 -0.72986803821E+02 -0.93063156908E+01 -0.67104992344E+02  0.99582935492E+02  0.00000000000E+00 0.  1.
          4    1    6    6  502    0  0.34627623566E+03 -0.14245206869E+03 -0.97009314010E+02  0.38679533382E+03  0.00000000000E+00 0. -1.
          3    1    5    5  503    0 -0.11215730394E+03  0.11761263996E+03  0.75913879882E+02  0.17937366324E+03  0.00000000000E+00 0. -1.
         -4    1    5    5    0  503 -0.19863496005E+03  0.10642981610E+03  0.40626985842E+02  0.22898407169E+03  0.00000000000E+00 0.  1.
         -3    1    6    6    0  502  0.11527448697E+03 -0.56811340345E+02  0.11960840098E+02  0.12906896386E+03  0.00000000000E+00 0.  1.
<mgrwt>
<rscale>  0 0.12709592E+04</rscale>
<asrwt>0</asrwt>
<pdfrwt beam="1">  1        1 0.12432059E+00 0.12709592E+04</pdfrwt>
<pdfrwt beam="2">  1       -1 0.76883554E-01 0.12709592E+04</pdfrwt>
<totfact> 0.36364638E+01</totfact>
</mgrwt>
</event>
<event>
12    1  0.1494110E-007  0.1775858E+04  0.7818608E-02  0.8719244E-01
         -2   -1    0    0    0  501 -0.00000000000E+00  0.00000000000E+00  0.40863567560E+03  0.40863567560E+03  0.00000000000E+00 0.  1.
          2   -1    0    0  501    0  0.00000000000E+00 -0.00000000000E+00 -0.19293902201E+04  0.19293902201E+04  0.00000000000E+00 0. -1.
         23    2    1    2    0    0 -0.10610745208E+03  0.13042324617E+03  0.26940592046E+03  0.33026970435E+03  0.90716663862E+02 0.  0.
        254    2    1    2    0    0  0.10610745208E+03 -0.13042324617E+03 -0.17901604649E+04  0.20077561913E+04  0.89338760852E+03 0.  0.
        -24    2    4    4    0    0  0.22211532969E+03  0.31473079623E+03 -0.11480551082E+04  0.12135632074E+04  0.79463408164E+02 0.  0.
         24    2    4    4    0    0 -0.11600787761E+03 -0.44515404240E+03 -0.64210535672E+03  0.79419298386E+03  0.82603010506E+02 0.  0.
         13    1    3    3    0    0  0.32313767717E+01 -0.11090616013E+02  0.23795738756E+02  0.26451479019E+02  0.00000000000E+00 0. -1.
        -13    1    3    3    0    0 -0.10933882885E+03  0.14151386218E+03  0.24561018171E+03  0.30381822533E+03  0.00000000000E+00 0.  1.
          2    1    6    6  502    0 -0.11486417838E+03 -0.31842687856E+03 -0.43205724288E+03  0.54887422748E+03  0.00000000000E+00 0. -1.
          1    1    5    5  503    0  0.32028678572E+02  0.83076437520E+02 -0.19187416551E+03  0.21152594666E+03  0.00000000000E+00 0. -1.
         -2    1    5    5    0  503  0.19008665112E+03  0.23165435871E+03 -0.95618094268E+03  0.10020372608E+04  0.00000000000E+00 0.  1.
         -1    1    6    6    0  502 -0.11436992290E+01 -0.12672716384E+03 -0.21004811384E+03  0.24531875638E+03  0.00000000000E+00 0.  1.
<mgrwt>
<rscale>  0 0.17758577E+04</rscale>
<asrwt>0</asrwt>
<pdfrwt beam="1">  1        2 0.29682926E+00 0.17758577E+04</pdfrwt>
<pdfrwt beam="2">  1       -2 0.62867028E-01 0.17758577E+04</pdfrwt>
<totfact> 0.16221842E+01</totfact>
</mgrwt>
</event>
<event>
12    1  0.1494110E-007  0.2133475E+04  0.7818608E-02  0.8546639E-01
         -2   -1    0    0    0  501 -0.00000000000E+00  0.00000000000E+00  0.26863405141E+04  0.26863405141E+04  0.00000000000E+00 0.  1.
          2   -1    0    0  501    0  0.00000000000E+00 -0.00000000000E+00 -0.42359830918E+03  0.42359830918E+03  0.00000000000E+00 0. -1.
         23    2    1    2    0    0 -0.62727489362E+03 -0.21911659482E+03  0.10679292503E+03  0.67938824675E+03  0.93154638592E+02 0.  0.
        254    2    1    2    0    0  0.62727489362E+03  0.21911659482E+03  0.21559492799E+04  0.24305505765E+04  0.90441856089E+03 0.  0.
        -24    2    4    4    0    0  0.19291704178E+03  0.28468291029E+03  0.16330796856E+03  0.38849791752E+03  0.77458343011E+02 0.  0.
         24    2    4    4    0    0  0.43435785185E+03 -0.65566315471E+02  0.19926413113E+04  0.20420526590E+04  0.79962374700E+02 0.  0.
         13    1    3    3    0    0 -0.24091051763E+03 -0.13253701320E+03  0.47151332167E+02  0.27897524173E+03  0.00000000000E+00 0.  1.
        -13    1    3    3    0    0 -0.38636437600E+03 -0.86579581614E+02  0.59641592861E+02  0.40041300502E+03  0.00000000000E+00 0. -1.
          4    1    6    6  502    0  0.27323578372E+03 -0.19565007293E+02  0.13790362541E+04  0.14059806446E+04  0.00000000000E+00 0. -1.
          3    1    5    5  503    0  0.16173083744E+03  0.20903243481E+03  0.91661964582E+02  0.27973798157E+03  0.00000000000E+00 0. -1.
         -4    1    5    5    0  503  0.31186204333E+02  0.75650475480E+02  0.71646003980E+02  0.10875993595E+03  0.00000000000E+00 0.  1.
         -3    1    6    6    0  502  0.16112206813E+03 -0.46001308178E+02  0.61360505723E+03  0.63607201436E+03  0.00000000000E+00 0.  1.
<mgrwt>
<rscale>  0 0.21334754E+04</rscale>
<asrwt>0</asrwt>
<pdfrwt beam="1">  1        2 0.65168972E-01 0.21334754E+04</pdfrwt>
<pdfrwt beam="2">  1       -2 0.41328315E+00 0.21334754E+04</pdfrwt>
<totfact> 0.41660212E-01</totfact>
</mgrwt>
</event>
<event>
12    1  0.1494110E-007  0.1287615E+04  0.7818608E-02  0.9039444E-01
         -2   -1    0    0    0  501 -0.00000000000E+00  0.00000000000E+00  0.46183984156E+03  0.46183984156E+03  0.00000000000E+00 0. -1.
          2   -1    0    0  501    0  0.00000000000E+00 -0.00000000000E+00 -0.89747206986E+03  0.89747206986E+03  0.00000000000E+00 0.  1.
         23    2    1    2    0    0 -0.19341185586E+03  0.89134950139E+02  0.14182777181E+03  0.27093831486E+03  0.89102571699E+02 0.  0.
        254    2    1    2    0    0  0.19341185586E+03 -0.89134950139E+02 -0.57746000011E+03  0.10883735966E+04  0.89763235716E+03 0.  0.
        -24    2    4    4    0    0  0.49231252863E+03  0.15704999231E+03 -0.38282072735E+03  0.64805243009E+03  0.79899417561E+02 0.  0.
         24    2    4    4    0    0 -0.29890067278E+03 -0.24618494245E+03 -0.19463927276E+03  0.44032116646E+03  0.77779464244E+02 0.  0.
         11    1    3    3    0    0 -0.15513101587E+03  0.56938132055E+02  0.14631583331E+03  0.22071680055E+03  0.00000000000E+00 0. -1.
        -11    1    3    3    0    0 -0.38280839981E+02  0.32196818084E+02 -0.44880614943E+01  0.50221514317E+02  0.00000000000E+00 0.  1.
          4    1    6    6  502    0 -0.28633635335E+03 -0.25057027304E+03 -0.18129641742E+03  0.42147640497E+03  0.00000000000E+00 0. -1.
          3    1    5    5  503    0  0.30591176035E+03  0.97231876307E+02 -0.28478208841E+03  0.42911173460E+03  0.00000000000E+00 0. -1.
         -4    1    5    5    0  503  0.18640076828E+03  0.59818116006E+02 -0.98038638938E+02  0.21894069549E+03  0.00000000000E+00 0.  1.
         -3    1    6    6    0  502 -0.12564319426E+02  0.43853305852E+01 -0.13342855338E+02  0.18844761489E+02  0.00000000000E+00 0.  1.
<mgrwt>
<rscale>  0 0.12876154E+04</rscale>
<asrwt>0</asrwt>
<pdfrwt beam="1">  1        2 0.13807262E+00 0.12876154E+04</pdfrwt>
<pdfrwt beam="2">  1       -2 0.71052284E-01 0.12876154E+04</pdfrwt>
<totfact> 0.51974417E+01</totfact>
</mgrwt>
</event>
<event>
12    1  0.1494110E-007  0.1547138E+04  0.7818608E-02  0.8853698E-01
          2   -1    0    0  501    0  0.00000000000E+00  0.00000000000E+00  0.12561313374E+04  0.12561313374E+04  0.00000000000E+00 0. -1.
         -2   -1    0    0    0  501 -0.00000000000E+00 -0.00000000000E+00 -0.47639040717E+03  0.47639040717E+03  0.00000000000E+00 0.  1.
         23    2    1    2    0    0  0.49359030128E+03  0.58769991191E+02  0.13879347606E+03  0.52441860532E+03  0.93091069524E+02 0.  0.
        254    2    1    2    0    0 -0.49359030128E+03 -0.58769991191E+02  0.64094745420E+03  0.12081031393E+04  0.89532913430E+03 0.  0.
        -24    2    4    4    0    0  0.19303671773E+02 -0.15110098963E+03 -0.16919075072E+03  0.24143982076E+03  0.80396119978E+02 0.  0.
         24    2    4    4    0    0 -0.51289397305E+03  0.92330998435E+02  0.81013820492E+03  0.96666331853E+03  0.80801110403E+02 0.  0.
         13    1    3    3    0    0  0.21984743433E+03  0.46206853550E+02  0.10609582767E+03  0.24844374081E+03  0.00000000000E+00 0. -1.
        -13    1    3    3    0    0  0.27374286694E+03  0.12563137641E+02  0.32697648393E+02  0.27597486451E+03  0.00000000000E+00 0.  1.
          4    1    6    6  502    0 -0.29463673540E+03  0.58780098784E+02  0.39304997498E+03  0.49472637760E+03  0.00000000000E+00 0. -1.
          3    1    5    5  503    0  0.23561857180E+02 -0.10452198885E+03 -0.16183887942E+03  0.19409232380E+03  0.00000000000E+00 0. -1.
         -4    1    5    5    0  503 -0.42581854069E+01 -0.46579000781E+02 -0.73518713049E+01  0.47347496961E+02  0.00000000000E+00 0.  1.
         -3    1    6    6    0  502 -0.21825723765E+03  0.33550899651E+02  0.41708822994E+03  0.47193694093E+03  0.00000000000E+00 0.  1.
<mgrwt>
<rscale>  0 0.15471379E+04</rscale>
<asrwt>0</asrwt>
<pdfrwt beam="1">  1        2 0.19325097E+00 0.15471379E+04</pdfrwt>
<pdfrwt beam="2">  1       -2 0.73290832E-01 0.15471379E+04</pdfrwt>
<totfact> 0.28381017E+01</totfact>
</mgrwt>
</event>
<event>
12    1  0.1494110E-007  0.1517291E+04  0.7818608E-02  0.8873035E-01
         -3   -1    0    0    0  501 -0.00000000000E+00  0.00000000000E+00  0.14577777224E+04  0.14577777224E+04  0.00000000000E+00 0.  1.
          3   -1    0    0  501    0  0.00000000000E+00 -0.00000000000E+00 -0.39480847881E+03  0.39480847881E+03  0.00000000000E+00 0. -1.
         23    2    1    2    0    0  0.22406892566E+03  0.91678456472E+01 -0.18136210554E+03  0.30218519063E+03  0.90181723594E+02 0.  0.
        254    2    1    2    0    0 -0.22406892566E+03 -0.91678456472E+01  0.12443313491E+04  0.15504010106E+04  0.89726910921E+03 0.  0.
        -24    2    4    4    0    0 -0.51530256327E+03  0.16514576679E+03  0.93970671575E+03  0.10872435548E+04  0.78993543080E+02 0.  0.
         24    2    4    4    0    0  0.29123363761E+03 -0.17431361243E+03  0.30462463338E+03  0.46315745577E+03  0.80724187341E+02 0.  0.
         11    1    3    3    0    0  0.22091117527E+03  0.26621686506E+02 -0.15821964693E+03  0.27302732139E+03  0.00000000000E+00 0. -1.
        -11    1    3    3    0    0  0.31577503960E+01 -0.17453840859E+02 -0.23142458611E+02  0.29157869244E+02  0.00000000000E+00 0.  1.
          4    1    6    6  502    0  0.23524956256E+03 -0.15230471790E+03  0.20669106905E+03  0.34822447043E+03  0.00000000000E+00 0. -1.
          3    1    5    5  503    0 -0.44227190218E+03  0.13980045909E+03  0.85391949709E+03  0.97176494655E+03  0.00000000000E+00 0. -1.
         -4    1    5    5    0  503 -0.73030661087E+02  0.25345307702E+02  0.85787218654E+02  0.11547860826E+03  0.00000000000E+00 0.  1.
         -3    1    6    6    0  502  0.55984075043E+02 -0.22008894531E+02  0.97933564333E+02  0.11493298534E+03  0.00000000000E+00 0.  1.
<mgrwt>
<rscale>  0 0.15172910E+04</rscale>
<asrwt>0</asrwt>
<pdfrwt beam="1">  1        3 0.60739767E-01 0.15172910E+04</pdfrwt>
<pdfrwt beam="2">  1       -3 0.22427349E+00 0.15172910E+04</pdfrwt>
<totfact> 0.69428207E-01</totfact>
</mgrwt>
</event>
<event>
12    1  0.1494110E-007  0.1739625E+04  0.7818608E-02  0.8739082E-01
         -1   -1    0    0    0  501 -0.00000000000E+00  0.00000000000E+00  0.18400360222E+04  0.18400360222E+04  0.00000000000E+00 0.  1.
          1   -1    0    0  501    0  0.00000000000E+00 -0.00000000000E+00 -0.41117318213E+03  0.41117318213E+03  0.00000000000E+00 0. -1.
         23    2    1    2    0    0  0.31116694103E+03  0.52055590334E+03  0.31304707592E+03  0.68871121981E+03  0.92311206602E+02 0.  0.
        254    2    1    2    0    0 -0.31116694103E+03 -0.52055590334E+03  0.11158157642E+04  0.15624979845E+04  0.91024821802E+03 0.  0.
        -24    2    4    4    0    0  0.20188673398E+03 -0.47607654331E+03  0.32592494905E+03  0.61628433592E+03  0.78563234630E+02 0.  0.
         24    2    4    4    0    0 -0.51305367501E+03 -0.44479360029E+02  0.78989081514E+03  0.94621364863E+03  0.78678345822E+02 0.  0.
         13    1    3    3    0    0  0.13958059300E+03  0.19902838565E+03  0.17260496655E+03  0.29814009243E+03  0.00000000000E+00 0. -1.
        -13    1    3    3    0    0  0.17158634804E+03  0.32152751769E+03  0.14044210937E+03  0.39057112739E+03  0.00000000000E+00 0.  1.
          2    1    6    6  502    0 -0.13140581984E+03 -0.19065666283E+02  0.26883901676E+03  0.29984230197E+03  0.00000000000E+00 0. -1.
          1    1    5    5  503    0  0.12783448120E+03 -0.33761254824E+03  0.26512959708E+03  0.44790355051E+03  0.00000000000E+00 0. -1.
         -2    1    5    5    0  503  0.74052252779E+02 -0.13846399507E+03  0.60795351970E+02  0.16838078541E+03  0.00000000000E+00 0.  1.
         -1    1    6    6    0  502 -0.38164785518E+03 -0.25413693746E+02  0.52105179837E+03  0.64637134666E+03  0.00000000000E+00 0.  1.
<mgrwt>
<rscale>  0 0.17396246E+04</rscale>
<asrwt>0</asrwt>
<pdfrwt beam="1">  1        1 0.63257414E-01 0.17396246E+04</pdfrwt>
<pdfrwt beam="2">  1       -1 0.28308246E+00 0.17396246E+04</pdfrwt>
<totfact> 0.23334745E+00</totfact>
</mgrwt>
</event>
<event>
12    1  0.1494110E-007  0.2168369E+04  0.7818608E-02  0.8531710E-01
          2   -1    0    0  501    0  0.00000000000E+00  0.00000000000E+00  0.89929982049E+03  0.89929982049E+03  0.00000000000E+00 0. -1.
         -2   -1    0    0    0  501 -0.00000000000E+00 -0.00000000000E+00 -0.13070792976E+04  0.13070792976E+04  0.00000000000E+00 0.  1.
         23    2    1    2    0    0 -0.70661477971E+03 -0.52075857507E+03 -0.36124614023E+03  0.95356309609E+03  0.91048690117E+02 0.  0.
        254    2    1    2    0    0  0.70661477971E+03  0.52075857507E+03 -0.46533336899E+02  0.12528160220E+04  0.89268622324E+03 0.  0.
        -24    2    4    4    0    0 -0.10936011602E+03 -0.56600843070E+02  0.17305015662E+03  0.22615541359E+03  0.77695714028E+02 0.  0.
         24    2    4    4    0    0  0.81597489573E+03  0.57735941814E+03 -0.21958349351E+03  0.10266606084E+04  0.81585330210E+02 0.  0.
         11    1    3    3    0    0 -0.26837986689E+03 -0.20466527934E+03 -0.91829377473E+02  0.34978316724E+03  0.00000000000E+00 0.  1.
        -11    1    3    3    0    0 -0.43823491282E+03 -0.31609329573E+03 -0.26941676276E+03  0.60377992885E+03  0.00000000000E+00 0. -1.
          4    1    6    6  502    0  0.60254902540E+03  0.38565493430E+03 -0.14031865480E+03  0.72902975333E+03  0.00000000000E+00 0. -1.
          1    1    5    5  503    0  0.46446849835E+01  0.10757182027E+02  0.24479766300E+02  0.27139436653E+02  0.00000000000E+00 0. -1.
         -2    1    5    5    0  503 -0.11400480100E+03 -0.67358025097E+02  0.14857039032E+03  0.19901597693E+03  0.00000000000E+00 0.  1.
         -3    1    6    6    0  502  0.21342587034E+03  0.19170448384E+03 -0.79264838716E+02  0.29763085511E+03  0.00000000000E+00 0.  1.
<mgrwt>
<rscale>  0 0.21683691E+04</rscale>
<asrwt>0</asrwt>
<pdfrwt beam="1">  1        2 0.13835382E+00 0.21683691E+04</pdfrwt>
<pdfrwt beam="2">  1       -2 0.20108912E+00 0.21683691E+04</pdfrwt>
<totfact> 0.35180497E+00</totfact>
</mgrwt>
</event>
<event>
12    1  0.1494110E-007  0.1356547E+04  0.7818608E-02  0.8985887E-01
          2   -1    0    0  501    0  0.00000000000E+00  0.00000000000E+00  0.14346264586E+04  0.14346264586E+04  0.00000000000E+00 0. -1.
         -2   -1    0    0    0  501 -0.00000000000E+00 -0.00000000000E+00 -0.32067909405E+03  0.32067909405E+03  0.00000000000E+00 0.  1.
         23    2    1    2    0    0 -0.25416893998E+03  0.45900191192E+02  0.66271404089E+03  0.71718543266E+03  0.91958508194E+02 0.  0.
        254    2    1    2    0    0  0.25416893998E+03 -0.45900191192E+02  0.45123332368E+03  0.10381201200E+04  0.89853947803E+03 0.  0.
        -24    2    4    4    0    0 -0.28425286219E+03 -0.19719309662E+03  0.86165522943E+02  0.36554637454E+03  0.80714605735E+02 0.  0.
         24    2    4    4    0    0  0.53842180217E+03  0.15129290543E+03  0.36506780074E+03  0.67257374547E+03  0.79330723421E+02 0.  0.
         11    1    3    3    0    0 -0.53169151624E+01  0.11882668998E+02  0.10149740772E+03  0.10232883848E+03  0.00000000000E+00 0.  1.
        -11    1    3    3    0    0 -0.24885202481E+03  0.34017522194E+02  0.56121663316E+03  0.61485659418E+03  0.00000000000E+00 0. -1.
          2    1    6    6  502    0  0.33484921912E+03  0.54497810378E+02  0.21045017013E+03  0.39922836196E+03  0.00000000000E+00 0. -1.
          3    1    5    5  503    0 -0.15861034162E+03 -0.15695534557E+03  0.59694866422E+02  0.23098852363E+03  0.00000000000E+00 0. -1.
         -4    1    5    5    0  503 -0.12564252058E+03 -0.40237751049E+02  0.26470656521E+02  0.13455785092E+03  0.00000000000E+00 0.  1.
         -1    1    6    6    0  502  0.20357258305E+03  0.96795095052E+02  0.15461763061E+03  0.27334538352E+03  0.00000000000E+00 0.  1.
<mgrwt>
<rscale>  0 0.13565467E+04</rscale>
<asrwt>0</asrwt>
<pdfrwt beam="1">  1        2 0.22071176E+00 0.13565467E+04</pdfrwt>
<pdfrwt beam="2">  1       -2 0.49335246E-01 0.13565467E+04</pdfrwt>
<totfact> 0.52482927E+01</totfact>
</mgrwt>
</event>
<event>
12    1  0.1494110E-007  0.1861186E+04  0.7818608E-02  0.8674421E-01
          2   -1    0    0  501    0  0.00000000000E+00  0.00000000000E+00  0.13102377542E+04  0.13102377542E+04  0.00000000000E+00 0. -1.
         -2   -1    0    0    0  501 -0.00000000000E+00 -0.00000000000E+00 -0.66095147413E+03  0.66095147413E+03  0.00000000000E+00 0.  1.
         23    2    1    2    0    0 -0.21932347688E+03 -0.36262320262E+02  0.96398435301E+03  0.99403031597E+03  0.97019033427E+02 0.  0.
        254    2    1    2    0    0  0.21932347688E+03  0.36262320262E+02 -0.31469807290E+03  0.97715891239E+03  0.89799048970E+03 0.  0.
        -24    2    4    4    0    0 -0.67491319769E+01 -0.10987574326E+03 -0.57746373807E+03  0.59325189966E+03  0.79782315823E+02 0.  0.
         24    2    4    4    0    0  0.22607260885E+03  0.14613806352E+03  0.26276566517E+03  0.38390701273E+03  0.76639686493E+02 0.  0.
         11    1    3    3    0    0 -0.22918805947E+03 -0.38460533679E+02  0.92768643485E+03  0.95635166161E+03  0.00000000000E+00 0. -1.
        -11    1    3    3    0    0  0.98645825975E+01  0.21982134173E+01  0.36297918159E+02  0.37678654364E+02  0.00000000000E+00 0.  1.
          2    1    6    6  502    0  0.22367331468E+03  0.13507737331E+03  0.26523361031E+03  0.37232313455E+03  0.00000000000E+00 0. -1.
          1    1    5    5  503    0 -0.94133726533E+01 -0.12168540317E+03 -0.49084567779E+03  0.50579188243E+03  0.00000000000E+00 0. -1.
         -2    1    5    5    0  503  0.26642406764E+01  0.11809659913E+02 -0.86618060288E+02  0.87460017229E+02  0.00000000000E+00 0.  1.
         -1    1    6    6    0  502  0.23992941695E+01  0.11060690210E+02 -0.24679451404E+01  0.11583878178E+02  0.00000000000E+00 0.  1.
<mgrwt>
<rscale>  0 0.18611863E+04</rscale>
<asrwt>0</asrwt>
<pdfrwt beam="1">  1        2 0.20157504E+00 0.18611863E+04</pdfrwt>
<pdfrwt beam="2">  1       -2 0.10168484E+00 0.18611863E+04</pdfrwt>
<totfact> 0.12161720E+01</totfact>
</mgrwt>
</event>
<event>
12    1  0.1494110E-007  0.1125240E+04  0.7818608E-02  0.9180934E-01
         -2   -1    0    0    0  501 -0.00000000000E+00  0.00000000000E+00  0.14150374882E+03  0.14150374882E+03  0.00000000000E+00 0. -1.
          2   -1    0    0  501    0  0.00000000000E+00 -0.00000000000E+00 -0.22369816684E+04  0.22369816684E+04  0.00000000000E+00 0.  1.
         23    2    1    2    0    0 -0.13458572722E+03  0.89601740897E+02 -0.57173631540E+03  0.60202213140E+03  0.96986815655E+02 0.  0.
        254    2    1    2    0    0  0.13458572722E+03 -0.89601740897E+02 -0.15237416042E+04  0.17764632858E+04  0.89882786984E+03 0.  0.
        -24    2    4    4    0    0  0.10205003414E+03 -0.44382110418E+03 -0.12091665902E+04  0.12949948976E+04  0.86813362514E+02 0.  0.
         24    2    4    4    0    0  0.32535693078E+02  0.35421936328E+03 -0.31457501396E+03  0.48146838823E+03  0.79526352873E+02 0.  0.
         11    1    3    3    0    0 -0.59428792187E+02  0.57905186003E+00 -0.10198133055E+03  0.11803519993E+03  0.00000000000E+00 0. -1.
        -11    1    3    3    0    0 -0.75156935032E+02  0.89022689037E+02 -0.46975498484E+03  0.48398693147E+03  0.00000000000E+00 0.  1.
          2    1    6    6  502    0  0.93705171089E+01  0.26467783009E+03 -0.18836804958E+03  0.32499951144E+03  0.00000000000E+00 0. -1.
          3    1    5    5  503    0  0.46206964502E+02 -0.21128165629E+03 -0.45434911665E+03  0.50319791499E+03  0.00000000000E+00 0. -1.
         -4    1    5    5    0  503  0.55843069639E+02 -0.23253944789E+03 -0.75481747356E+03  0.79179698259E+03  0.00000000000E+00 0.  1.
         -1    1    6    6    0  502  0.23165175969E+02  0.89541533194E+02 -0.12620696438E+03  0.15646887679E+03  0.00000000000E+00 0.  1.
<mgrwt>
<rscale>  0 0.11252400E+04</rscale>
<asrwt>0</asrwt>
<pdfrwt beam="1">  1        2 0.34415102E+00 0.11252400E+04</pdfrwt>
<pdfrwt beam="2">  1       -2 0.21769808E-01 0.11252400E+04</pdfrwt>
<totfact> 0.90161999E+01</totfact>
</mgrwt>
</event>
<event>
12    1  0.1494110E-007  0.1404932E+04  0.7818608E-02  0.8950256E-01
          1   -1    0    0  501    0  0.00000000000E+00  0.00000000000E+00  0.67172446206E+03  0.67172446206E+03  0.00000000000E+00 0. -1.
         -1   -1    0    0    0  501 -0.00000000000E+00 -0.00000000000E+00 -0.73461461535E+03  0.73461461535E+03  0.00000000000E+00 0.  1.
         23    2    1    2    0    0 -0.34975566183E+03  0.21404222825E+03 -0.30248800050E+02  0.42314420331E+03  0.99964635921E+02 0.  0.
        254    2    1    2    0    0  0.34975566183E+03 -0.21404222825E+03 -0.32641353246E+02  0.98319487410E+03  0.89300817692E+03 0.  0.
        -24    2    4    4    0    0  0.58750973481E+03  0.73033865218E+02  0.15720482469E+02  0.59736133921E+03  0.78049997075E+02 0.  0.
         24    2    4    4    0    0 -0.23775407298E+03 -0.28707609347E+03 -0.48361835715E+02  0.38583353489E+03  0.87114676316E+02 0.  0.
         13    1    3    3    0    0 -0.42617089840E+02  0.17359174413E+01  0.18707047081E+02  0.46574492657E+02  0.00000000000E+00 0. -1.
        -13    1    3    3    0    0 -0.30713857199E+03  0.21230631081E+03 -0.48955847132E+02  0.37656971066E+03  0.00000000000E+00 0.  1.
          2    1    6    6  502    0 -0.29441062795E+02 -0.12977812418E+02  0.15457262282E+02  0.35694912115E+02  0.00000000000E+00 0. -1.
          3    1    5    5  503    0  0.26214186055E+03  0.69924958240E+02 -0.45752945178E+01  0.27134625141E+03  0.00000000000E+00 0. -1.
         -4    1    5    5    0  503  0.32536787427E+03  0.31089069783E+01  0.20295776987E+02  0.32601508780E+03  0.00000000000E+00 0.  1.
         -1    1    6    6    0  502 -0.20831301019E+03 -0.27409828105E+03 -0.63819097997E+02  0.35013862277E+03  0.00000000000E+00 0.  1.
<mgrwt>
<rscale>  0 0.14049322E+04</rscale>
<asrwt>0</asrwt>
<pdfrwt beam="1">  1        1 0.10334222E+00 0.14049322E+04</pdfrwt>
<pdfrwt beam="2">  1       -1 0.11301763E+00 0.14049322E+04</pdfrwt>
<totfact> 0.20233385E+01</totfact>
</mgrwt>
</event>
<event>
12    1  0.1494110E-007  0.1383430E+04  0.7818608E-02  0.8965901E-01
          2   -1    0    0  501    0  0.00000000000E+00  0.00000000000E+00  0.65295773606E+03  0.65295773606E+03  0.00000000000E+00 0. -1.
         -2   -1    0    0    0  501 -0.00000000000E+00 -0.00000000000E+00 -0.73277268987E+03  0.73277268987E+03  0.00000000000E+00 0.  1.
         23    2    1    2    0    0  0.24918242552E+03 -0.27058841365E+03 -0.44226014227E+02  0.38153985463E+03  0.91141371210E+02 0.  0.
        254    2    1    2    0    0 -0.24918242552E+03  0.27058841365E+03 -0.35588939591E+02  0.10041905713E+04  0.93371417473E+03 0.  0.
        -24    2    4    4    0    0 -0.15272301969E+03 -0.27136646799E+03  0.22255758583E+03  0.39108968808E+03  0.80344162328E+02 0.  0.
         24    2    4    4    0    0 -0.96459405836E+02  0.54195488163E+03 -0.25814652542E+03  0.61310088322E+03  0.78952857597E+02 0.  0.
         13    1    3    3    0    0  0.99120625617E+02 -0.15929908202E+03  0.72258810088E+01  0.18775864644E+03  0.00000000000E+00 0. -1.
        -13    1    3    3    0    0  0.15006179990E+03 -0.11128933162E+03 -0.51451895236E+02  0.19378120819E+03  0.00000000000E+00 0.  1.
          4    1    6    6  502    0 -0.55163661865E+02  0.16878482799E+03 -0.11354258140E+03  0.21076827452E+03  0.00000000000E+00 0. -1.
          1    1    5    5  503    0 -0.53334557701E+02 -0.16526956361E+03  0.14546411826E+03  0.22653567799E+03  0.00000000000E+00 0. -1.
         -2    1    5    5    0  503 -0.99388461985E+02 -0.10609690438E+03  0.77093467572E+02  0.16455401009E+03  0.00000000000E+00 0.  1.
         -3    1    6    6    0  502 -0.41295743971E+02  0.37317005364E+03 -0.14460394402E+03  0.40233260871E+03  0.00000000000E+00 0.  1.
<mgrwt>
<rscale>  0 0.13834299E+04</rscale>
<asrwt>0</asrwt>
<pdfrwt beam="1">  1        2 0.10045504E+00 0.13834299E+04</pdfrwt>
<pdfrwt beam="2">  1       -2 0.11273426E+00 0.13834299E+04</pdfrwt>
<totfact> 0.26967392E+01</totfact>
</mgrwt>
</event>
<event>
12    1  0.1494110E-007  0.2698757E+04  0.7818608E-02  0.8335408E-01
         -1   -1    0    0    0  501 -0.00000000000E+00  0.00000000000E+00  0.91090117571E+03  0.91090117571E+03  0.00000000000E+00 0.  1.
          1   -1    0    0  501    0  0.00000000000E+00 -0.00000000000E+00 -0.19989239667E+04  0.19989239667E+04  0.00000000000E+00 0. -1.
         23    2    1    2    0    0  0.37137447125E+02 -0.85405930858E+03  0.42266102986E+03  0.95797731934E+03  0.91003877134E+02 0.  0.
        254    2    1    2    0    0 -0.37137447125E+02  0.85405930858E+03 -0.15106838208E+04  0.19518478231E+04  0.89260731863E+03 0.  0.
        -24    2    4    4    0    0 -0.25297056873E+03 -0.42305163832E+02 -0.58235710171E+03  0.64110705219E+03  0.78068066047E+02 0.  0.
         24    2    4    4    0    0  0.21583312160E+03  0.89636447242E+03 -0.92832671914E+03  0.13107407709E+04  0.78725263795E+02 0.  0.
         11    1    3    3    0    0  0.22437418112E+02 -0.37958476821E+03  0.23820202781E+03  0.44869615559E+03  0.00000000000E+00 0.  1.
        -11    1    3    3    0    0  0.14700029013E+02 -0.47447454037E+03  0.18445900206E+03  0.50928116375E+03  0.00000000000E+00 0. -1.
          4    1    6    6  502    0  0.14299252094E+03  0.71902964804E+03 -0.71783234386E+03  0.10260281525E+04  0.00000000000E+00 0. -1.
          1    1    5    5  503    0 -0.20821365839E+03 -0.64403798802E+02 -0.46295210686E+03  0.51168880199E+03  0.00000000000E+00 0. -1.
         -2    1    5    5    0  503 -0.44756910334E+02  0.22098634970E+02 -0.11940499485E+03  0.12941825020E+03  0.00000000000E+00 0.  1.
         -3    1    6    6    0  502  0.72840600662E+02  0.17733482437E+03 -0.21049437528E+03  0.28471261838E+03  0.00000000000E+00 0.  1.
<mgrwt>
<rscale>  0 0.26987569E+04</rscale>
<asrwt>0</asrwt>
<pdfrwt beam="1">  1        1 0.30752676E+00 0.26987569E+04</pdfrwt>
<pdfrwt beam="2">  1       -1 0.14013864E+00 0.26987569E+04</pdfrwt>
<totfact> 0.10896349E+00</totfact>
</mgrwt>
</event>
<event>
12    1  0.1494110E-007  0.1219707E+04  0.7818608E-02  0.9095780E-01
         -2   -1    0    0    0  501 -0.00000000000E+00  0.00000000000E+00  0.19207653173E+03  0.19207653173E+03  0.00000000000E+00 0.  1.
          2   -1    0    0  501    0  0.00000000000E+00 -0.00000000000E+00 -0.19363173432E+04  0.19363173432E+04  0.00000000000E+00 0. -1.
         23    2    1    2    0    0 -0.10362095945E+03 -0.63472172295E+02  0.63282342945E+01  0.15207883339E+03  0.91224476552E+02 0.  0.
        254    2    1    2    0    0  0.10362095945E+03  0.63472172295E+02 -0.17505690458E+04  0.19763150416E+04  0.90915517903E+03 0.  0.
        -24    2    4    4    0    0 -0.37803942786E+03 -0.10537103284E+03 -0.73259486530E+03  0.83476675381E+03  0.78252367502E+02 0.  0.
         24    2    4    4    0    0  0.48166038731E+03  0.16884320513E+03 -0.10179741805E+04  0.11415482878E+04  0.79726435576E+02 0.  0.
         11    1    3    3    0    0 -0.89658779878E+02 -0.38812696127E+02  0.42149887235E+02  0.10640364272E+03  0.00000000000E+00 0.  1.
        -11    1    3    3    0    0 -0.13962179571E+02 -0.24659476168E+02 -0.35821652940E+02  0.45675190669E+02  0.00000000000E+00 0. -1.
          2    1    6    6  502    0  0.30437077657E+03  0.11134756356E+03 -0.55873156719E+03  0.64592632220E+03  0.00000000000E+00 0. -1.
          3    1    5    5  503    0 -0.36057859754E+03 -0.97705587695E+02 -0.72206609083E+03  0.81298385371E+03  0.00000000000E+00 0. -1.
         -4    1    5    5    0  503 -0.17460830321E+02 -0.76654451422E+01 -0.10528774471E+02  0.21782900096E+02  0.00000000000E+00 0.  1.
         -1    1    6    6    0  502  0.17728961074E+03  0.57495641573E+02 -0.45924261329E+03  0.49562196555E+03  0.00000000000E+00 0.  1.
<mgrwt>
<rscale>  0 0.12197067E+04</rscale>
<asrwt>0</asrwt>
<pdfrwt beam="1">  1        2 0.29789497E+00 0.12197067E+04</pdfrwt>
<pdfrwt beam="2">  1       -2 0.29550237E-01 0.12197067E+04</pdfrwt>
<totfact> 0.75412319E+01</totfact>
</mgrwt>
</event>
<event>
12    1  0.1557788E-007  0.1531598E+04  0.7818608E-02  0.8863708E-01
          2   -1    0    0  501    0  0.00000000000E+00  0.00000000000E+00  0.19351532483E+04  0.19351532483E+04  0.00000000000E+00 0. -1.
         -2   -1    0    0    0  501 -0.00000000000E+00 -0.00000000000E+00 -0.30304994889E+03  0.30304994889E+03  0.00000000000E+00 0.  1.
         23    2    1    2    0    0 -0.32027547393E+03 -0.42761111794E+03  0.88818447159E+03  0.10408205997E+04  0.94911632023E+02 0.  0.
        254    2    1    2    0    0  0.32027547393E+03  0.42761111794E+03  0.74391882780E+03  0.11973825974E+04  0.77128607850E+03 0.  0.
        -24    2    4    4    0    0  0.44772252976E+03  0.47733204800E+03  0.29495237180E+03  0.72222070745E+03  0.79400887440E+02 0.  0.
         24    2    4    4    0    0 -0.12744705583E+03 -0.49720930062E+02  0.44896645600E+03  0.47516188998E+03  0.74114911801E+02 0.  0.
         13    1    3    3    0    0 -0.31040659049E+03 -0.42952615276E+03  0.88215572318E+03  0.10290984828E+04  0.00000000000E+00 0. -1.
        -13    1    3    3    0    0 -0.98688834442E+01  0.19150348193E+01  0.60287484156E+01  0.11722116970E+02  0.00000000000E+00 0.  1.
          2    1    6    6  502    0 -0.56696891862E+02 -0.60457516907E+01  0.88851588681E+02  0.10557316644E+03  0.00000000000E+00 0. -1.
          3    1    5    5  503    0  0.17688159482E+03  0.18229941988E+03  0.15708453959E+03  0.29865654129E+03  0.00000000000E+00 0. -1.
         -4    1    5    5    0  503  0.27084093494E+03  0.29503262812E+03  0.13786783221E+03  0.42356416616E+03  0.00000000000E+00 0.  1.
         -1    1    6    6    0  502 -0.70750163971E+02 -0.43675178371E+02  0.36011486732E+03  0.36958872355E+03  0.00000000000E+00 0.  1.
<mgrwt>
<rscale>  0 0.15315980E+04</rscale>
<asrwt>0</asrwt>
<pdfrwt beam="1">  1        2 0.29771588E+00 0.15315980E+04</pdfrwt>
<pdfrwt beam="2">  1       -2 0.46623070E-01 0.15315980E+04</pdfrwt>
<totfact> 0.30523899E+01</totfact>
</mgrwt>
</event>
<event>
12    1  0.1494110E-007  0.2062016E+04  0.7818608E-02  0.8578163E-01
          2   -1    0    0  501    0  0.00000000000E+00  0.00000000000E+00  0.84998079928E+03  0.84998079928E+03  0.00000000000E+00 0. -1.
         -2   -1    0    0    0  501 -0.00000000000E+00 -0.00000000000E+00 -0.12505904154E+04  0.12505904154E+04  0.00000000000E+00 0.  1.
         23    2    1    2    0    0  0.79859703024E+03  0.78623331470E+00  0.75778265343E+02  0.80736206131E+03  0.91287007134E+02 0.  0.
        254    2    1    2    0    0 -0.79859703024E+03 -0.78623331470E+00 -0.47638788147E+03  0.12932091534E+04  0.89871389545E+03 0.  0.
        -24    2    4    4    0    0 -0.88721110604E+03 -0.16356837629E+03 -0.57061321706E+03  0.10704567416E+04  0.79875101172E+02 0.  0.
         24    2    4    4    0    0  0.88614075800E+02  0.16278214297E+03  0.94225335595E+02  0.22275241175E+03  0.79935865370E+02 0.  0.
         11    1    3    3    0    0  0.21506704074E+03 -0.22229880633E+02 -0.13309737186E+02  0.21662213347E+03  0.00000000000E+00 0.  1.
        -11    1    3    3    0    0  0.58352998950E+03  0.23016113948E+02  0.89088002529E+02  0.59073992784E+03  0.00000000000E+00 0. -1.
          4    1    6    6  502    0  0.20788303905E+02  0.86293997157E+02  0.81933236900E+01  0.89139991461E+02  0.00000000000E+00 0. -1.
          3    1    5    5  503    0 -0.45116686562E+03 -0.12285801589E+03 -0.30457456945E+03  0.55804238285E+03  0.00000000000E+00 0. -1.
         -4    1    5    5    0  503 -0.43604424043E+03 -0.40710360395E+02 -0.26603864761E+03  0.51241435877E+03  0.00000000000E+00 0.  1.
         -3    1    6    6    0  502  0.67825771895E+02  0.76488145816E+02  0.86032011905E+02  0.13361242029E+03  0.00000000000E+00 0.  1.
<mgrwt>
<rscale>  0 0.20620163E+04</rscale>
<asrwt>0</asrwt>
<pdfrwt beam="1">  1        2 0.13076628E+00 0.20620163E+04</pdfrwt>
<pdfrwt beam="2">  1       -2 0.19239853E+00 0.20620163E+04</pdfrwt>
<totfact> 0.43806365E+00</totfact>
</mgrwt>
</event>
<event>
12    1  0.1494110E-007  0.2872838E+04  0.7818608E-02  0.8281005E-01
          1   -1    0    0  501    0  0.00000000000E+00  0.00000000000E+00  0.15006806963E+04  0.15006806963E+04  0.00000000000E+00 0. -1.
         -1   -1    0    0    0  501 -0.00000000000E+00 -0.00000000000E+00 -0.13749095611E+04  0.13749095611E+04  0.00000000000E+00 0.  1.
         23    2    1    2    0    0  0.71387169427E+03  0.51742145461E+03  0.10072729789E+04  0.13414962224E+04  0.87609948954E+02 0.  0.
        254    2    1    2    0    0 -0.71387169427E+03 -0.51742145461E+03 -0.88150184374E+03  0.15340940349E+04  0.89390225968E+03 0.  0.
        -24    2    4    4    0    0  0.98111304390E+02  0.13090384724E+03 -0.22534777129E+02  0.18362218100E+03  0.80297222268E+02 0.  0.
         24    2    4    4    0    0 -0.81198299866E+03 -0.64832530184E+03 -0.85896706662E+03  0.13504718539E+04  0.79421153089E+02 0.  0.
         11    1    3    3    0    0  0.21013720318E+03  0.16439434336E+03  0.24739825090E+03  0.36385304566E+03  0.00000000000E+00 0.  1.
        -11    1    3    3    0    0  0.50373449109E+03  0.35302711125E+03  0.75987472805E+03  0.97764317679E+03  0.00000000000E+00 0. -1.
          4    1    6    6  502    0 -0.26002464650E+03 -0.22335776453E+03 -0.23833782648E+03  0.41750021233E+03  0.00000000000E+00 0. -1.
          1    1    5    5  503    0  0.13511527997E+02  0.75545859626E+02 -0.29642936094E+02  0.82270541239E+02  0.00000000000E+00 0. -1.
         -2    1    5    5    0  503  0.84599776393E+02  0.55357987609E+02  0.71081589646E+01  0.10135163976E+03  0.00000000000E+00 0.  1.
         -3    1    6    6    0  502 -0.55195835216E+03 -0.42496753731E+03 -0.62062924013E+03  0.93297164158E+03  0.00000000000E+00 0.  1.
<mgrwt>
<rscale>  0 0.28728385E+04</rscale>
<asrwt>0</asrwt>
<pdfrwt beam="1">  1        1 0.23087395E+00 0.28728385E+04</pdfrwt>
<pdfrwt beam="2">  1       -1 0.21152455E+00 0.28728385E+04</pdfrwt>
<totfact> 0.70577285E-01</totfact>
</mgrwt>
</event>
<event>
12    1  0.1494110E-007  0.1640056E+04  0.7818608E-02  0.8796311E-01
         -2   -1    0    0    0  501 -0.00000000000E+00  0.00000000000E+00  0.52115480096E+03  0.52115480096E+03  0.00000000000E+00 0.  1.
          2   -1    0    0  501    0  0.00000000000E+00 -0.00000000000E+00 -0.12902991393E+04  0.12902991393E+04  0.00000000000E+00 0. -1.
         23    2    1    2    0    0  0.71429432080E+02 -0.67493302408E+02  0.34377881152E+03  0.36891066943E+03  0.90849882404E+02 0.  0.
        254    2    1    2    0    0 -0.71429432080E+02  0.67493302408E+02 -0.11129231498E+04  0.14425432708E+04  0.91251062520E+03 0.  0.
        -24    2    4    4    0    0  0.36583616102E+03 -0.12502401928E+03 -0.30310034099E+03  0.49888380080E+03  0.86879962515E+02 0.  0.
         24    2    4    4    0    0 -0.43726559310E+03  0.19251732169E+03 -0.80982280885E+03  0.94365947002E+03  0.80100534133E+02 0.  0.
         11    1    3    3    0    0  0.24678566020E+02 -0.54117763777E+02  0.29152707503E+03  0.29753285441E+03  0.00000000000E+00 0.  1.
        -11    1    3    3    0    0  0.46750866061E+02 -0.13375538632E+02  0.52251736487E+02  0.71377815020E+02  0.00000000000E+00 0. -1.
          2    1    6    6  502    0 -0.37340761850E+03  0.19251601788E+03 -0.71642022450E+03  0.83051406055E+03  0.00000000000E+00 0. -1.
          3    1    5    5  503    0  0.31910935321E+03 -0.75055204796E+02 -0.24877834290E+03  0.41152731011E+03  0.00000000000E+00 0. -1.
         -4    1    5    5    0  503  0.46726807813E+02 -0.49968814481E+02 -0.54321998089E+02  0.87356490688E+02  0.00000000000E+00 0.  1.
         -1    1    6    6    0  502 -0.63857974604E+02  0.13038093213E-02 -0.93402584342E+02  0.11314540947E+03  0.00000000000E+00 0.  1.
<mgrwt>
<rscale>  0 0.16400556E+04</rscale>
<asrwt>0</asrwt>
<pdfrwt beam="1">  1        2 0.19850756E+00 0.16400556E+04</pdfrwt>
<pdfrwt beam="2">  1       -2 0.80177663E-01 0.16400556E+04</pdfrwt>
<totfact> 0.22024320E+01</totfact>
</mgrwt>
</event>
<event>
12    1  0.1494110E-007  0.2736216E+04  0.7818608E-02  0.8323349E-01
          1   -1    0    0  501    0  0.00000000000E+00  0.00000000000E+00  0.32806061288E+03  0.32806061288E+03  0.00000000000E+00 0. -1.
         -1   -1    0    0    0  501 -0.00000000000E+00 -0.00000000000E+00 -0.57054066618E+04  0.57054066618E+04  0.00000000000E+00 0.  1.
         23    2    1    2    0    0  0.56626960354E+03  0.52830463928E+03 -0.44751086029E+04  0.45425109623E+04  0.89675965661E+02 0.  0.
        254    2    1    2    0    0 -0.56626960354E+03 -0.52830463928E+03 -0.90223744594E+03  0.14909563123E+04  0.89952835456E+03 0.  0.
        -24    2    4    4    0    0 -0.47219887564E+03 -0.40060021742E+03 -0.10749246407E+04  0.12430733047E+04  0.79472922477E+02 0.  0.
         24    2    4    4    0    0 -0.94070727895E+02 -0.12770442187E+03  0.17268719475E+03  0.24788300761E+03  0.80420128211E+02 0.  0.
         13    1    3    3    0    0  0.13573395780E+03  0.18015074967E+03 -0.12327950617E+04  0.12532604135E+04  0.00000000000E+00 0. -1.
        -13    1    3    3    0    0  0.43053564573E+03  0.34815388961E+03 -0.32423135413E+04  0.32892505488E+04  0.00000000000E+00 0.  1.
          2    1    6    6  502    0 -0.13624264979E+02 -0.40042951181E+02  0.54592227553E+01  0.42648114244E+02  0.00000000000E+00 0. -1.
          3    1    5    5  503    0 -0.41699893141E+02 -0.68379896653E+02 -0.12294249362E+03  0.14672950655E+03  0.00000000000E+00 0. -1.
         -4    1    5    5    0  503 -0.43049898250E+03 -0.33222032076E+03 -0.95198214708E+03  0.10963437982E+04  0.00000000000E+00 0.  1.
         -1    1    6    6    0  502 -0.80446462916E+02 -0.87661470686E+02  0.16722797199E+03  0.20523489337E+03  0.00000000000E+00 0.  1.
<mgrwt>
<rscale>  0 0.27362158E+04</rscale>
<asrwt>0</asrwt>
<pdfrwt beam="1">  1        1 0.50470861E-01 0.27362158E+04</pdfrwt>
<pdfrwt beam="2">  1       -1 0.87775491E+00 0.27362158E+04</pdfrwt>
<totfact> 0.10674140E-03</totfact>
</mgrwt>
</event>
<event>
12    1  0.1791647E-007  0.1266647E+04  0.7818608E-02  0.9056441E-01
         -1   -1    0    0    0  501 -0.00000000000E+00  0.00000000000E+00  0.43622511096E+03  0.43622511096E+03  0.00000000000E+00 0.  1.
          1   -1    0    0  501    0  0.00000000000E+00 -0.00000000000E+00 -0.91947575064E+03  0.91947575064E+03  0.00000000000E+00 0. -1.
         23    2    1    2    0    0 -0.11776579622E+03 -0.69583735196E+02  0.16761240597E+03  0.23568594717E+03  0.93505444190E+02 0.  0.
        254    2    1    2    0    0  0.11776579622E+03  0.69583735196E+02 -0.65086304565E+03  0.11200149144E+04  0.90116592557E+03 0.  0.
        -24    2    4    4    0    0 -0.81028380881E+02 -0.81802247360E+02 -0.80409337215E+03  0.81623644602E+03  0.80116031393E+02 0.  0.
         24    2    4    4    0    0  0.19879417710E+03  0.15138598256E+03  0.15323032650E+03  0.30377846842E+03  0.79780852052E+02 0.  0.
         11    1    3    3    0    0 -0.11950899948E+03 -0.87212123659E+02  0.15107007713E+03  0.21144863129E+03  0.00000000000E+00 0.  1.
        -11    1    3    3    0    0  0.17432032618E+01  0.17628388463E+02  0.16542328840E+02  0.24237315876E+02  0.00000000000E+00 0. -1.
          2    1    6    6  502    0  0.19584377159E+03  0.15967820190E+03  0.15202260312E+03  0.29489452841E+03  0.00000000000E+00 0. -1.
          3    1    5    5  503    0 -0.54199604333E+02 -0.77480834741E+02 -0.74750159999E+03  0.75345837234E+03  0.00000000000E+00 0. -1.
         -4    1    5    5    0  503 -0.26828776548E+02 -0.43214126186E+01 -0.56591772161E+02  0.62778073676E+02  0.00000000000E+00 0.  1.
         -1    1    6    6    0  502  0.29504055082E+01 -0.82922193398E+01  0.12077233836E+01  0.88839400050E+01  0.00000000000E+00 0.  1.
<mgrwt>
<rscale>  0 0.12666466E+04</rscale>
<asrwt>0</asrwt>
<pdfrwt beam="1">  1        1 0.14145781E+00 0.12666466E+04</pdfrwt>
<pdfrwt beam="2">  1       -1 0.67111557E-01 0.12666466E+04</pdfrwt>
<totfact> 0.38865918E+01</totfact>
</mgrwt>
</event>
<event>
12    1  0.1494110E-007  0.3068020E+04  0.7818608E-02  0.8224570E-01
          2   -1    0    0  501    0  0.00000000000E+00  0.00000000000E+00  0.16573760606E+04  0.16573760606E+04  0.00000000000E+00 0.  1.
         -2   -1    0    0    0  501 -0.00000000000E+00 -0.00000000000E+00 -0.14198268660E+04  0.14198268660E+04  0.00000000000E+00 0. -1.
         23    2    1    2    0    0 -0.77648948299E+03 -0.33045855665E+03 -0.10107566492E+04  0.13199072845E+04  0.91583082373E+02 0.  0.
        254    2    1    2    0    0  0.77648948299E+03  0.33045855665E+03  0.12483058438E+04  0.17572956420E+04  0.90425755123E+03 0.  0.
        -24    2    4    4    0    0  0.23197757106E+03  0.19007313118E+03  0.11371372885E+04  0.11788129517E+04  0.81101008965E+02 0.  0.
         24    2    4    4    0    0  0.54451191193E+03  0.14038542547E+03  0.11116855535E+03  0.57848269032E+03  0.77990290319E+02 0.  0.
         13    1    3    3    0    0 -0.68791188743E+03 -0.31195174832E+03 -0.93432779768E+03  0.12014595672E+04  0.00000000000E+00 0. -1.
        -13    1    3    3    0    0 -0.88577595554E+02 -0.18506808332E+02 -0.76428851519E+02  0.11844771730E+03  0.00000000000E+00 0.  1.
          2    1    6    6  502    0  0.18231242194E+03  0.22987387024E+02  0.76687931815E+01  0.18391587627E+03  0.00000000000E+00 0. -1.
          3    1    5    5  503    0  0.12574686248E+03  0.95547540621E+02  0.44429465405E+03  0.47152873248E+03  0.00000000000E+00 0. -1.
         -4    1    5    5    0  503  0.10623070858E+03  0.94525590557E+02  0.69284263441E+03  0.70728421923E+03  0.00000000000E+00 0.  1.
         -3    1    6    6    0  502  0.36219948999E+03  0.11739803845E+03  0.10349976217E+03  0.39456681405E+03  0.00000000000E+00 0.  1.
<mgrwt>
<rscale>  0 0.30680202E+04</rscale>
<asrwt>0</asrwt>
<pdfrwt beam="1">  1        2 0.25498093E+00 0.30680202E+04</pdfrwt>
<pdfrwt beam="2">  1       -2 0.21843490E+00 0.30680202E+04</pdfrwt>
<totfact> 0.89171579E-01</totfact>
</mgrwt>
</event>
<event>
12    1  0.1494110E-007  0.1497923E+04  0.7818608E-02  0.8885835E-01
         -2   -1    0    0    0  501 -0.00000000000E+00  0.00000000000E+00  0.27335275504E+03  0.27335275504E+03  0.00000000000E+00 0.  1.
          2   -1    0    0  501    0  0.00000000000E+00 -0.00000000000E+00 -0.20520870667E+04  0.20520870667E+04  0.00000000000E+00 0. -1.
         23    2    1    2    0    0 -0.44170174209E+03  0.56191719984E+02 -0.34713361164E+03  0.57209556509E+03  0.92377772817E+02 0.  0.
        254    2    1    2    0    0  0.44170174209E+03 -0.56191719984E+02 -0.14316007000E+04  0.17533442566E+04  0.90910812319E+03 0.  0.
        -24    2    4    4    0    0  0.17306946773E+03 -0.21966376244E+03 -0.13972711406E+04  0.14271427592E+04  0.78515003130E+02 0.  0.
         24    2    4    4    0    0  0.26863227435E+03  0.16347204246E+03 -0.34329559409E+02  0.32620149739E+03  0.79639756172E+02 0.  0.
         13    1    3    3    0    0 -0.59813131555E+02  0.26732510804E+02 -0.87747221325E+02  0.10950713534E+03  0.00000000000E+00 0. -1.
        -13    1    3    3    0    0 -0.38188861053E+03  0.29459209180E+02 -0.25938639031E+03  0.46258842975E+03  0.00000000000E+00 0.  1.
          4    1    6    6  502    0  0.88822804855E+01 -0.68381768710E+01  0.64465883573E+01  0.12931127986E+02  0.00000000000E+00 0. -1.
          3    1    5    5  503    0 -0.20575676468E+01 -0.31161846357E+02 -0.10685940654E+03  0.11132936278E+03  0.00000000000E+00 0. -1.
         -4    1    5    5    0  503  0.17512703538E+03 -0.18850191609E+03 -0.12904117340E+04  0.13158133964E+04  0.00000000000E+00 0.  1.
         -3    1    6    6    0  502  0.25974999387E+03  0.17031021933E+03 -0.40776147766E+02  0.31327036941E+03  0.00000000000E+00 0.  1.
<mgrwt>
<rscale>  0 0.14979234E+04</rscale>
<asrwt>0</asrwt>
<pdfrwt beam="1">  1        2 0.31570571E+00 0.14979234E+04</pdfrwt>
<pdfrwt beam="2">  1       -2 0.42054269E-01 0.14979234E+04</pdfrwt>
<totfact> 0.32379014E+01</totfact>
</mgrwt>
</event>
<event>
12    1  0.1494110E-007  0.1208310E+04  0.7818608E-02  0.9105614E-01
          1   -1    0    0  501    0  0.00000000000E+00  0.00000000000E+00  0.90304692508E+03  0.90304692508E+03  0.00000000000E+00 0. -1.
         -1   -1    0    0    0  501 -0.00000000000E+00 -0.00000000000E+00 -0.40419088797E+03  0.40419088797E+03  0.00000000000E+00 0.  1.
         23    2    1    2    0    0  0.62988201939E+02 -0.94061686441E+02  0.36575865553E+03  0.39292225386E+03  0.88280173552E+02 0.  0.
        254    2    1    2    0    0 -0.62988201939E+02  0.94061686441E+02  0.13309738158E+03  0.91431555919E+03  0.89746471483E+03 0.  0.
        -24    2    4    4    0    0 -0.30968791347E+03  0.39448306901E+03  0.73008567391E+02  0.51294055808E+03  0.79083941002E+02 0.  0.
         24    2    4    4    0    0  0.24669971153E+03 -0.30042138257E+03  0.60088814193E+02  0.40137500111E+03  0.79859070560E+02 0.  0.
         11    1    3    3    0    0  0.83179895227E+00 -0.58027940448E+02  0.25026169394E+03  0.25690241186E+03  0.00000000000E+00 0.  1.
        -11    1    3    3    0    0  0.62156402986E+02 -0.36033745993E+02  0.11549696159E+03  0.13601984200E+03  0.00000000000E+00 0. -1.
          2    1    6    6  502    0  0.24423728968E+03 -0.26202914400E+03  0.57770747812E+02  0.36283410160E+03  0.00000000000E+00 0. -1.
          1    1    5    5  503    0 -0.19220517512E+03  0.28029272878E+03  0.79276554559E+02  0.34898655455E+03  0.00000000000E+00 0. -1.
         -2    1    5    5    0  503 -0.11748273835E+03  0.11419034023E+03 -0.62679871684E+01  0.16395400353E+03  0.00000000000E+00 0.  1.
         -3    1    6    6    0  502  0.24624218474E+01 -0.38392238569E+02  0.23180663814E+01  0.38540899515E+02  0.00000000000E+00 0.  1.
<mgrwt>
<rscale>  0 0.12083101E+04</rscale>
<asrwt>0</asrwt>
<pdfrwt beam="1">  1        1 0.13893030E+00 0.12083101E+04</pdfrwt>
<pdfrwt beam="2">  1       -1 0.62183214E-01 0.12083101E+04</pdfrwt>
<totfact> 0.46946230E+01</totfact>
</mgrwt>
</event>
<event>
12    1  0.1494110E-007  0.2204296E+04  0.7818608E-02  0.8516642E-01
         -1   -1    0    0    0  501 -0.00000000000E+00  0.00000000000E+00  0.16701288213E+04  0.16701288213E+04  0.00000000000E+00 0.  1.
          1   -1    0    0  501    0  0.00000000000E+00 -0.00000000000E+00 -0.72732700361E+03  0.72732700361E+03  0.00000000000E+00 0. -1.
         23    2    1    2    0    0 -0.14903920860E+03 -0.47272068578E+03  0.12353873045E+04  0.13343014195E+04  0.92200615920E+02 0.  0.
        254    2    1    2    0    0  0.14903920860E+03  0.47272068578E+03 -0.29258548681E+03  0.10631544054E+04  0.89387554510E+03 0.  0.
        -24    2    4    4    0    0 -0.22684114806E+03  0.57701358549E+03 -0.16313463398E+03  0.64615597707E+03  0.80641512847E+02 0.  0.
         24    2    4    4    0    0  0.37588035666E+03 -0.10429289971E+03 -0.12945085283E+03  0.41699842832E+03  0.70477758640E+02 0.  0.
         13    1    3    3    0    0 -0.13800495046E+01 -0.12075946776E+03  0.25208731481E+03  0.27952239245E+03  0.00000000000E+00 0. -1.
        -13    1    3    3    0    0 -0.14765915910E+03 -0.35196121803E+03  0.98329998966E+03  0.10547790271E+04  0.00000000000E+00 0.  1.
          2    1    6    6  502    0  0.48487792556E+02 -0.21989338981E+02  0.53309535681E+01  0.53507159537E+02  0.00000000000E+00 0. -1.
          1    1    5    5  503    0 -0.10465254111E+02  0.56887545892E+01  0.43616133180E+01  0.12684917939E+02  0.00000000000E+00 0. -1.
         -2    1    5    5    0  503 -0.21637589395E+03  0.57132483090E+03 -0.16749624730E+03  0.63347105913E+03  0.00000000000E+00 0.  1.
         -1    1    6    6    0  502  0.32739256411E+03 -0.82303560729E+02 -0.13478180640E+03  0.36349126878E+03  0.00000000000E+00 0.  1.
<mgrwt>
<rscale>  0 0.22042956E+04</rscale>
<asrwt>0</asrwt>
<pdfrwt beam="1">  1        1 0.11189646E+00 0.22042956E+04</pdfrwt>
<pdfrwt beam="2">  1       -1 0.25694289E+00 0.22042956E+04</pdfrwt>
<totfact> 0.14706346E+00</totfact>
</mgrwt>
</event>
<event>
12    1  0.1494110E-007  0.1568052E+04  0.7818608E-02  0.8840419E-01
          1   -1    0    0  501    0  0.00000000000E+00  0.00000000000E+00  0.87924683524E+03  0.87924683524E+03  0.00000000000E+00 0. -1.
         -1   -1    0    0    0  501 -0.00000000000E+00 -0.00000000000E+00 -0.69911768668E+03  0.69911768668E+03  0.00000000000E+00 0.  1.
         23    2    1    2    0    0  0.36345606074E+03  0.32149697586E+03 -0.10647779228E+03  0.50507090247E+03  0.91096008128E+02 0.  0.
        254    2    1    2    0    0 -0.36345606074E+03 -0.32149697586E+03  0.28660694084E+03  0.10732936195E+04  0.91343037033E+03 0.  0.
        -24    2    4    4    0    0 -0.88529542784E+02  0.19965385605E+03  0.40506211721E+03  0.46704929713E+03  0.79753275598E+02 0.  0.
         24    2    4    4    0    0 -0.27492651796E+03 -0.52115083191E+03 -0.11845517636E+03  0.60624432232E+03  0.79484398923E+02 0.  0.
         11    1    3    3    0    0  0.27774309837E+03  0.28159691971E+03 -0.10975829890E+03  0.41046916822E+03  0.00000000000E+00 0.  1.
        -11    1    3    3    0    0  0.85712962370E+02  0.39900056150E+02  0.32805066245E+01  0.94601734248E+02  0.00000000000E+00 0. -1.
          2    1    6    6  502    0 -0.26511648838E+03 -0.50525232780E+03 -0.98705916512E+02  0.57905917238E+03  0.00000000000E+00 0. -1.
          1    1    5    5  503    0 -0.81847199005E+02  0.14479214107E+03  0.35685381125E+03  0.39371102436E+03  0.00000000000E+00 0. -1.
         -2    1    5    5    0  503 -0.66823437793E+01  0.54861714980E+02  0.48208305961E+02  0.73338272767E+02  0.00000000000E+00 0.  1.
         -1    1    6    6    0  502 -0.98100295743E+01 -0.15898504108E+02 -0.19749259851E+02  0.27185149949E+02  0.00000000000E+00 0.  1.
<mgrwt>
<rscale>  0 0.15680523E+04</rscale>
<asrwt>0</asrwt>
<pdfrwt beam="1">  1        1 0.13526874E+00 0.15680523E+04</pdfrwt>
<pdfrwt beam="2">  1       -1 0.10755657E+00 0.15680523E+04</pdfrwt>
<totfact> 0.14658838E+01</totfact>
</mgrwt>
</event>
<event>
12    1  0.1494110E-007  0.1460788E+04  0.7818608E-02  0.8910955E-01
          2   -1    0    0  501    0  0.00000000000E+00  0.00000000000E+00  0.68771918584E+03  0.68771918584E+03  0.00000000000E+00 0. -1.
         -2   -1    0    0    0  501 -0.00000000000E+00 -0.00000000000E+00 -0.77571722831E+03  0.77571722831E+03  0.00000000000E+00 0.  1.
         23    2    1    2    0    0 -0.85341287803E+01  0.77662700002E+02  0.41303899310E+03  0.43261620509E+03  0.10223132962E+03 0.  0.
        254    2    1    2    0    0  0.85341287803E+01 -0.77662700002E+02 -0.50103703557E+03  0.10308202091E+04  0.89746747355E+03 0.  0.
        -24    2    4    4    0    0 -0.12014643513E+03  0.38507702823E+03 -0.25193725860E+03  0.48361000100E+03  0.87674210856E+02 0.  0.
         24    2    4    4    0    0  0.12868056391E+03 -0.46273972823E+03 -0.24909977697E+03  0.54721020807E+03  0.81863113274E+02 0.  0.
         13    1    3    3    0    0 -0.34626827985E+02 -0.99745885630E+01  0.91878769293E+02  0.98692542170E+02  0.00000000000E+00 0.  1.
        -13    1    3    3    0    0  0.26092699205E+02  0.87637288565E+02  0.32116022381E+03  0.33392366292E+03  0.00000000000E+00 0. -1.
          2    1    6    6  502    0  0.98224789354E+02 -0.41649323186E+03 -0.19665882596E+03  0.47094523594E+03  0.00000000000E+00 0. -1.
          1    1    5    5  503    0 -0.98873702687E+02  0.27093248957E+03 -0.22128872941E+03  0.36352321074E+03  0.00000000000E+00 0. -1.
         -2    1    5    5    0  503 -0.21272732441E+02  0.11414453866E+03 -0.30648529192E+02  0.12008679025E+03  0.00000000000E+00 0.  1.
         -3    1    6    6    0  502  0.30455774554E+02 -0.46246496373E+02 -0.52440951012E+02  0.76264972127E+02  0.00000000000E+00 0.  1.
<mgrwt>
<rscale>  0 0.14607883E+04</rscale>
<asrwt>0</asrwt>
<pdfrwt beam="1">  1        2 0.10580295E+00 0.14607883E+04</pdfrwt>
<pdfrwt beam="2">  1       -2 0.11934111E+00 0.14607883E+04</pdfrwt>
<totfact> 0.21854169E+01</totfact>
</mgrwt>
</event>
<event>
12    1  0.1494110E-007  0.1926483E+04  0.7818608E-02  0.8641785E-01
         -1   -1    0    0    0  501 -0.00000000000E+00  0.00000000000E+00  0.36931826262E+03  0.36931826262E+03  0.00000000000E+00 0. -1.
          1   -1    0    0  501    0  0.00000000000E+00 -0.00000000000E+00 -0.25122902011E+04  0.25122902011E+04  0.00000000000E+00 0.  1.
         23    2    1    2    0    0 -0.24914249816E+01 -0.23605235512E+03  0.22236939399E+03  0.33697408332E+03  0.91523023842E+02 0.  0.
        254    2    1    2    0    0  0.24914249816E+01  0.23605235512E+03 -0.23653413324E+04  0.25446343804E+04  0.90807355938E+03 0.  0.
        -24    2    4    4    0    0  0.30675401876E+03  0.29481186310E+03 -0.20505252932E+04  0.20957161072E+04  0.79749363782E+02 0.  0.
         24    2    4    4    0    0 -0.30426259378E+03 -0.58759507984E+02 -0.31481603920E+03  0.44891827319E+03  0.79937924118E+02 0.  0.
         13    1    3    3    0    0  0.13959216406E+01  0.50295127518E+01 -0.37449582331E+01  0.64241192326E+01  0.00000000000E+00 0.  1.
        -13    1    3    3    0    0 -0.38873466222E+01 -0.24108186787E+03  0.22611435222E+03  0.33054996409E+03  0.00000000000E+00 0. -1.
          2    1    6    6  502    0 -0.23604306944E+03 -0.22767627546E+02 -0.27140234909E+03  0.36040800572E+03  0.00000000000E+00 0. -1.
          1    1    5    5  503    0  0.23985203469E+03  0.19129923057E+03 -0.13490779646E+04  0.13835229484E+04  0.00000000000E+00 0. -1.
         -2    1    5    5    0  503  0.66901984071E+02  0.10351263253E+03 -0.70144732861E+03  0.71219315876E+03  0.00000000000E+00 0.  1.
         -1    1    6    6    0  502 -0.68219524335E+02 -0.35991880438E+02 -0.43413690111E+02  0.88510267466E+02  0.00000000000E+00 0.  1.
<mgrwt>
<rscale>  0 0.19264835E+04</rscale>
<asrwt>0</asrwt>
<pdfrwt beam="1">  1        1 0.38650617E+00 0.19264835E+04</pdfrwt>
<pdfrwt beam="2">  1       -1 0.56818196E-01 0.19264835E+04</pdfrwt>
<totfact> 0.38912096E+00</totfact>
</mgrwt>
</event>
<event>
12    1  0.1494110E-007  0.1206535E+04  0.7818608E-02  0.9107156E-01
          1   -1    0    0  501    0  0.00000000000E+00  0.00000000000E+00  0.12642296227E+04  0.12642296227E+04  0.00000000000E+00 0. -1.
         -1   -1    0    0    0  501 -0.00000000000E+00 -0.00000000000E+00 -0.28786832530E+03  0.28786832530E+03  0.00000000000E+00 0.  1.
         23    2    1    2    0    0  0.50088485946E+02  0.10481224007E+03 -0.72777074524E+02  0.16578055389E+03  0.93232115611E+02 0.  0.
        254    2    1    2    0    0 -0.50088485946E+02 -0.10481224007E+03  0.10491383719E+04  0.13863173941E+04  0.89871582363E+03 0.  0.
        -24    2    4    4    0    0  0.32461096026E+02 -0.29893065128E+03  0.11099448859E+04  0.11525045297E+04  0.76653664065E+02 0.  0.
         24    2    4    4    0    0 -0.82549581972E+02  0.19411841122E+03 -0.60806513958E+02  0.23381286441E+03  0.80465100314E+02 0.  0.
         13    1    3    3    0    0 -0.14399223774E+02  0.52944803250E+02  0.10503223790E+01  0.54877982958E+02  0.00000000000E+00 0. -1.
        -13    1    3    3    0    0  0.64487709720E+02  0.51867436816E+02 -0.73827396903E+02  0.11090257094E+03  0.00000000000E+00 0.  1.
          2    1    6    6  502    0 -0.60762448513E+02  0.18280514443E+03 -0.73489639780E+02  0.20618080205E+03  0.00000000000E+00 0. -1.
          3    1    5    5  503    0  0.26918690703E+02 -0.25045582121E+03  0.79935384591E+03  0.83810459088E+03  0.00000000000E+00 0. -1.
         -4    1    5    5    0  503  0.55424053224E+01 -0.48474830075E+02  0.31059103999E+03  0.31439993882E+03  0.00000000000E+00 0.  1.
         -1    1    6    6    0  502 -0.21787133459E+02  0.11313266785E+02  0.12683125823E+02  0.27632062361E+02  0.00000000000E+00 0.  1.
<mgrwt>
<rscale>  0 0.12065350E+04</rscale>
<asrwt>0</asrwt>
<pdfrwt beam="1">  1        1 0.19449686E+00 0.12065350E+04</pdfrwt>
<pdfrwt beam="2">  1       -1 0.44287435E-01 0.12065350E+04</pdfrwt>
<totfact> 0.47883866E+01</totfact>
</mgrwt>
</event>
<event>
12    1  0.1494110E-007  0.1606997E+04  0.7818608E-02  0.8816261E-01
         -1   -1    0    0    0  501 -0.00000000000E+00  0.00000000000E+00  0.50215322888E+03  0.50215322888E+03  0.00000000000E+00 0.  1.
          1   -1    0    0  501    0  0.00000000000E+00 -0.00000000000E+00 -0.12856830223E+04  0.12856830223E+04  0.00000000000E+00 0. -1.
         23    2    1    2    0    0 -0.21587242172E+03  0.22543721147E+02  0.28819533291E+03  0.37231110788E+03  0.91923279533E+02 0.  0.
        254    2    1    2    0    0  0.21587242172E+03 -0.22543721147E+02 -0.10717251263E+04  0.14155251433E+04  0.89889240905E+03 0.  0.
        -24    2    4    4    0    0  0.38832012800E+03 -0.31447122137E+03 -0.35304781891E+03  0.61665723206E+03  0.77063016655E+02 0.  0.
         24    2    4    4    0    0 -0.17244770628E+03  0.29192750022E+03 -0.71867730738E+03  0.79886791120E+03  0.82054802479E+02 0.  0.
         11    1    3    3    0    0 -0.20446828548E+03  0.39345939813E+02  0.28300655346E+03  0.35135180666E+03  0.00000000000E+00 0.  1.
        -11    1    3    3    0    0 -0.11404136238E+02 -0.16802218666E+02  0.51887794570E+01  0.20959301221E+02  0.00000000000E+00 0. -1.
          2    1    6    6  502    0 -0.14812892771E+03  0.26761123019E+03 -0.57680988611E+03  0.65289171725E+03  0.00000000000E+00 0. -1.
          1    1    5    5  503    0  0.10928241301E+03 -0.12900780302E+03 -0.14092633004E+03  0.22010426968E+03  0.00000000000E+00 0. -1.
         -2    1    5    5    0  503  0.27903771498E+03 -0.18546341835E+03 -0.21212148888E+03  0.39655296238E+03  0.00000000000E+00 0.  1.
         -1    1    6    6    0  502 -0.24318778569E+02  0.24316270035E+02 -0.14186742128E+03  0.14597619395E+03  0.00000000000E+00 0.  1.
<mgrwt>
<rscale>  0 0.16069971E+04</rscale>
<asrwt>0</asrwt>
<pdfrwt beam="1">  1        1 0.19779739E+00 0.16069971E+04</pdfrwt>
<pdfrwt beam="2">  1       -1 0.77254342E-01 0.16069971E+04</pdfrwt>
<totfact> 0.14921615E+01</totfact>
</mgrwt>
</event>
<event>
12    1  0.1494110E-007  0.1245120E+04  0.7818608E-02  0.9074255E-01
         -1   -1    0    0    0  501 -0.00000000000E+00  0.00000000000E+00  0.16077802718E+03  0.16077802718E+03  0.00000000000E+00 0.  1.
          1   -1    0    0  501    0  0.00000000000E+00 -0.00000000000E+00 -0.24106586702E+04  0.24106586702E+04  0.00000000000E+00 0. -1.
         23    2    1    2    0    0  0.22909258586E+03 -0.24508517924E+02 -0.91727613950E+03  0.95013049963E+03  0.90930577240E+02 0.  0.
        254    2    1    2    0    0 -0.22909258586E+03  0.24508517924E+02 -0.13326045035E+04  0.16213061978E+04  0.89426782551E+03 0.  0.
        -24    2    4    4    0    0 -0.31179253746E+03  0.29805415077E+03 -0.26328727445E+03  0.51154847345E+03  0.79440472047E+02 0.  0.
         24    2    4    4    0    0  0.82699951603E+02 -0.27354563284E+03 -0.10693172291E+04  0.11097577243E+04  0.80351571326E+02 0.  0.
         11    1    3    3    0    0  0.21950038673E+03  0.19916147260E+01 -0.81165965479E+03  0.84081851878E+03  0.00000000000E+00 0. -1.
        -11    1    3    3    0    0  0.95921991255E+01 -0.26500132650E+02 -0.10561648471E+03  0.10931198085E+03  0.00000000000E+00 0.  1.
          4    1    6    6  502    0  0.11524086597E+02 -0.15803528330E+03 -0.50056108396E+03  0.52504224032E+03  0.00000000000E+00 0. -1.
          1    1    5    5  503    0 -0.49694881979E+02  0.90924721211E+02 -0.48614786956E+02  0.11445647091E+03  0.00000000000E+00 0. -1.
         -2    1    5    5    0  503 -0.26209765548E+03  0.20712942956E+03 -0.21467248749E+03  0.39709200254E+03  0.00000000000E+00 0.  1.
         -3    1    6    6    0  502  0.71175865007E+02 -0.11551034954E+03 -0.56875614514E+03  0.58471548401E+03  0.00000000000E+00 0.  1.
<mgrwt>
<rscale>  0 0.12451200E+04</rscale>
<asrwt>0</asrwt>
<pdfrwt beam="1">  1        1 0.37087051E+00 0.12451200E+04</pdfrwt>
<pdfrwt beam="2">  1       -1 0.24735084E-01 0.12451200E+04</pdfrwt>
<totfact> 0.22084938E+01</totfact>
</mgrwt>
</event>
<event>
12    1  0.1494110E-007  0.1653351E+04  0.7818608E-02  0.8788427E-01
         -2   -1    0    0    0  501 -0.00000000000E+00  0.00000000000E+00  0.30462126239E+03  0.30462126239E+03  0.00000000000E+00 0.  1.
          2   -1    0    0  501    0  0.00000000000E+00 -0.00000000000E+00 -0.22434162889E+04  0.22434162889E+04  0.00000000000E+00 0. -1.
         23    2    1    2    0    0 -0.15744194749E+03 -0.53565078199E+03 -0.46050776821E+03  0.72934884688E+03  0.90402482201E+02 0.  0.
        254    2    1    2    0    0  0.15744194749E+03  0.53565078199E+03 -0.14782872583E+04  0.18186887044E+04  0.90032530700E+03 0.  0.
        -24    2    4    4    0    0  0.39206558750E+03  0.34852027481E+03 -0.14014975880E+04  0.14985237640E+04  0.78715789313E+02 0.  0.
         24    2    4    4    0    0 -0.23462364001E+03  0.18713050718E+03 -0.76789670368E+02  0.32016494039E+03  0.80887924993E+02 0.  0.
         11    1    3    3    0    0 -0.16296237511E+03 -0.48661689608E+03 -0.43973738974E+03  0.67581189038E+03  0.00000000000E+00 0.  1.
        -11    1    3    3    0    0  0.55204276274E+01 -0.49033885917E+02 -0.20770378472E+02  0.53536956499E+02  0.00000000000E+00 0. -1.
          4    1    6    6  502    0 -0.19683773607E+02  0.37564853267E+02  0.11298369827E+02  0.43888749186E+02  0.00000000000E+00 0. -1.
          3    1    5    5  503    0  0.37010990418E+02  0.64093559045E+02 -0.15968456411E+03  0.17600272082E+03  0.00000000000E+00 0. -1.
         -4    1    5    5    0  503  0.35505459708E+03  0.28442671576E+03 -0.12418130239E+04  0.13225210432E+04  0.00000000000E+00 0.  1.
         -3    1    6    6    0  502 -0.21493986640E+03  0.14956565392E+03 -0.88088040195E+02  0.27627619121E+03  0.00000000000E+00 0.  1.
<mgrwt>
<rscale>  0 0.16533509E+04</rscale>
<asrwt>0</asrwt>
<pdfrwt beam="1">  1        2 0.34514097E+00 0.16533509E+04</pdfrwt>
<pdfrwt beam="2">  1       -2 0.46864809E-01 0.16533509E+04</pdfrwt>
<totfact> 0.20133342E+01</totfact>
</mgrwt>
</event>
<event>
12    1  0.1494110E-007  0.2852363E+04  0.7818608E-02  0.8287194E-01
          2   -1    0    0  501    0  0.00000000000E+00  0.00000000000E+00  0.27235708874E+04  0.27235708874E+04  0.00000000000E+00 0. -1.
         -2   -1    0    0    0  501 -0.00000000000E+00 -0.00000000000E+00 -0.74681154918E+03  0.74681154918E+03  0.00000000000E+00 0.  1.
         23    2    1    2    0    0 -0.59233378056E+03 -0.69463265918E+03  0.19516899874E+04  0.21565984150E+04  0.91918865064E+02 0.  0.
        254    2    1    2    0    0  0.59233378056E+03  0.69463265918E+03  0.25069350736E+02  0.13137840215E+04  0.94447135694E+03 0.  0.
        -24    2    4    4    0    0 -0.21713068771E+03  0.60778551126E+02 -0.12489275645E+03  0.27175420839E+03  0.86095187668E+02 0.  0.
         24    2    4    4    0    0  0.80946446827E+03  0.63385410805E+03  0.14996210719E+03  0.10420298131E+04  0.79584811292E+02 0.  0.
         13    1    3    3    0    0 -0.57523445130E+03 -0.64559375591E+03  0.18174543810E+04  0.20126664897E+04  0.00000000000E+00 0. -1.
        -13    1    3    3    0    0 -0.17099329255E+02 -0.49038903265E+02  0.13423560641E+03  0.14393192530E+03  0.00000000000E+00 0.  1.
          4    1    6    6  502    0  0.78071874111E+03  0.61938014627E+03  0.13228957210E+03  0.10053129111E+04  0.00000000000E+00 0. -1.
          1    1    5    5  503    0 -0.21855396086E+03  0.61035595642E+02 -0.13333377226E+03  0.26319018327E+03  0.00000000000E+00 0. -1.
         -2    1    5    5    0  503  0.14232731541E+01 -0.25704451589E+00  0.84410158071E+01  0.85640251173E+01  0.00000000000E+00 0.  1.
         -1    1    6    6    0  502  0.28745727159E+02  0.14473961783E+02  0.17672535090E+02  0.36716902049E+02  0.00000000000E+00 0.  1.
<mgrwt>
<rscale>  0 0.28523634E+04</rscale>
<asrwt>0</asrwt>
<pdfrwt beam="1">  1        2 0.41901090E+00 0.28523634E+04</pdfrwt>
<pdfrwt beam="2">  1       -2 0.11489409E+00 0.28523634E+04</pdfrwt>
<totfact> 0.13158961E+00</totfact>
</mgrwt>
</event>
<event>
12    1  0.1494110E-007  0.1121284E+04  0.7818608E-02  0.9184692E-01
         -1   -1    0    0    0  501 -0.00000000000E+00  0.00000000000E+00  0.37304903668E+03  0.37304903668E+03  0.00000000000E+00 0.  1.
          1   -1    0    0  501    0  0.00000000000E+00 -0.00000000000E+00 -0.84256817415E+03  0.84256817415E+03  0.00000000000E+00 0. -1.
         23    2    1    2    0    0 -0.44185379006E+01 -0.54131075416E+02 -0.26849574202E+03  0.29056621450E+03  0.96897186361E+02 0.  0.
        254    2    1    2    0    0  0.44185379006E+01  0.54131075416E+02 -0.20102339545E+03  0.92505099632E+03  0.90130973781E+03 0.  0.
        -24    2    4    4    0    0  0.22046971498E+03  0.91634812580E+02 -0.49169340098E+03  0.55251322593E+03  0.80651287379E+02 0.  0.
         24    2    4    4    0    0 -0.21605117708E+03 -0.37503737164E+02  0.29067000553E+03  0.37253777039E+03  0.78807974453E+02 0.  0.
         11    1    3    3    0    0  0.29685718626E+02 -0.72028743285E+00 -0.24564673591E+02  0.38538083670E+02  0.00000000000E+00 0.  1.
        -11    1    3    3    0    0 -0.34104256526E+02 -0.53410787983E+02 -0.24393106843E+03  0.25202813083E+03  0.00000000000E+00 0. -1.
          2    1    6    6  502    0 -0.35642371006E+02  0.63698783107E+00  0.10555516636E+02  0.37177994780E+02  0.00000000000E+00 0. -1.
          1    1    5    5  503    0  0.12531765841E+03  0.49195820424E+02 -0.18642021023E+03  0.22995051433E+03  0.00000000000E+00 0. -1.
         -2    1    5    5    0  503  0.95152056572E+02  0.42438992156E+02 -0.30527319075E+03  0.32256271160E+03  0.00000000000E+00 0.  1.
         -1    1    6    6    0  502 -0.18040880607E+03 -0.38140724995E+02  0.28011448889E+03  0.33535977561E+03  0.00000000000E+00 0.  1.
<mgrwt>
<rscale>  0 0.11212836E+04</rscale>
<asrwt>0</asrwt>
<pdfrwt beam="1">  1        1 0.12962587E+00 0.11212836E+04</pdfrwt>
<pdfrwt beam="2">  1       -1 0.57392160E-01 0.11212836E+04</pdfrwt>
<totfact> 0.62167854E+01</totfact>
</mgrwt>
</event>
<event>
12    1  0.1494110E-007  0.1496201E+04  0.7818608E-02  0.8886983E-01
          2   -1    0    0  501    0  0.00000000000E+00  0.00000000000E+00  0.29654604964E+04  0.29654604964E+04  0.00000000000E+00 0. -1.
         -2   -1    0    0    0  501 -0.00000000000E+00 -0.00000000000E+00 -0.18872435206E+03  0.18872435206E+03  0.00000000000E+00 0.  1.
         23    2    1    2    0    0  0.18420744804E+03  0.13648190022E+03  0.12357126463E+04  0.12601304516E+04  0.91560459941E+02 0.  0.
        254    2    1    2    0    0 -0.18420744804E+03 -0.13648190022E+03  0.15410234980E+04  0.18940543968E+04  0.10770928204E+04 0.  0.
        -24    2    4    4    0    0  0.38313733779E+03 -0.14110995133E+03  0.25996043307E+03  0.49076370713E+03  0.81014514122E+02 0.  0.
         24    2    4    4    0    0 -0.56734478583E+03  0.46280511114E+01  0.12810630649E+04  0.14032906897E+04  0.78744260442E+02 0.  0.
         13    1    3    3    0    0  0.26631623509E+01  0.18937832605E+02  0.26157664603E+03  0.26227480947E+03  0.00000000000E+00 0.  1.
        -13    1    3    3    0    0  0.18154428569E+03  0.11754406761E+03  0.97413600028E+03  0.99785564213E+03  0.00000000000E+00 0. -1.
          2    1    6    6  502    0 -0.16482862072E+03 -0.19857438905E+02  0.44757644504E+03  0.47737560290E+03  0.00000000000E+00 0. -1.
          1    1    5    5  503    0  0.31595533302E+02 -0.37051262041E+02  0.41587922143E+02  0.64036153941E+02  0.00000000000E+00 0. -1.
         -2    1    5    5    0  503  0.35154180449E+03 -0.10405868929E+03  0.21837251093E+03  0.42672755319E+03  0.00000000000E+00 0.  1.
         -1    1    6    6    0  502 -0.40251616511E+03  0.24485490016E+02  0.83348661989E+03  0.92591508678E+03  0.00000000000E+00 0.  1.
<mgrwt>
<rscale>  0 0.14962013E+04</rscale>
<asrwt>0</asrwt>
<pdfrwt beam="1">  1        2 0.45622466E+00 0.14962013E+04</pdfrwt>
<pdfrwt beam="2">  1       -2 0.29034518E-01 0.14962013E+04</pdfrwt>
<totfact> 0.19411355E+01</totfact>
</mgrwt>
</event>
<event>
12    1  0.1494110E-007  0.1740324E+04  0.7818608E-02  0.8738695E-01
         -1   -1    0    0    0  501 -0.00000000000E+00  0.00000000000E+00  0.96493581055E+03  0.96493581055E+03  0.00000000000E+00 0.  1.
          1   -1    0    0  501    0  0.00000000000E+00 -0.00000000000E+00 -0.78469627530E+03  0.78469627530E+03  0.00000000000E+00 0. -1.
         23    2    1    2    0    0  0.43464960346E+03 -0.22514208435E+03  0.47495496098E+03  0.68784088873E+03  0.89070967814E+02 0.  0.
        254    2    1    2    0    0 -0.43464960346E+03  0.22514208435E+03 -0.29471542573E+03  0.10617911971E+04  0.89494923219E+03 0.  0.
        -24    2    4    4    0    0  0.11865626471E+03 -0.20830757318E+03 -0.24650372075E+03  0.35306297488E+03  0.80112581308E+02 0.  0.
         24    2    4    4    0    0 -0.55330586817E+03  0.43344965754E+03 -0.48211704979E+02  0.70872822225E+03  0.77105999462E+02 0.  0.
         11    1    3    3    0    0  0.16316857242E+03 -0.52764860139E+02  0.21031174233E+03  0.27136533023E+03  0.00000000000E+00 0. -1.
        -11    1    3    3    0    0  0.27148103105E+03 -0.17237722421E+03  0.26464321865E+03  0.41647555849E+03  0.00000000000E+00 0.  1.
          2    1    6    6  502    0 -0.65300465123E+02  0.41203713452E+02  0.17542240389E+02  0.79180975906E+02  0.00000000000E+00 0. -1.
          3    1    5    5  503    0  0.54432404878E+02 -0.12659387748E+03 -0.19016351353E+03  0.23484262474E+03  0.00000000000E+00 0. -1.
         -4    1    5    5    0  503  0.64223859828E+02 -0.81713695705E+02 -0.56340207224E+02  0.11822035014E+03  0.00000000000E+00 0.  1.
         -1    1    6    6    0  502 -0.48800540304E+03  0.39224594409E+03 -0.65753945368E+02  0.62954724635E+03  0.00000000000E+00 0.  1.
<mgrwt>
<rscale>  0 0.17403236E+04</rscale>
<asrwt>0</asrwt>
<pdfrwt beam="1">  1        1 0.12072250E+00 0.17403236E+04</pdfrwt>
<pdfrwt beam="2">  1       -1 0.14845166E+00 0.17403236E+04</pdfrwt>
<totfact> 0.77604137E+00</totfact>
</mgrwt>
</event>
<event>
12    1  0.1494110E-007  0.2062330E+04  0.7818608E-02  0.8578021E-01
         -2   -1    0    0    0  501 -0.00000000000E+00  0.00000000000E+00  0.13087283193E+04  0.13087283193E+04  0.00000000000E+00 0.  1.
          2   -1    0    0  501    0  0.00000000000E+00 -0.00000000000E+00 -0.81246929303E+03  0.81246929303E+03  0.00000000000E+00 0. -1.
         23    2    1    2    0    0  0.24098230917E+03 -0.57359210705E+03 -0.36193501141E+03  0.72559686238E+03  0.91724999945E+02 0.  0.
        254    2    1    2    0    0 -0.24098230917E+03  0.57359210705E+03  0.85819403769E+03  0.13956007500E+04  0.90781279366E+03 0.  0.
        -24    2    4    4    0    0  0.66860893783E+02 -0.11179420409E+03 -0.93802825253E+02  0.18013031957E+03  0.81729057364E+02 0.  0.
         24    2    4    4    0    0 -0.30784320295E+03  0.68538631114E+03  0.95199686295E+03  0.12154704304E+04  0.80922845798E+02 0.  0.
         11    1    3    3    0    0  0.15520087062E+03 -0.25747410613E+03 -0.19032664238E+03  0.35581519975E+03  0.00000000000E+00 0. -1.
        -11    1    3    3    0    0  0.85781438551E+02 -0.31611800092E+03 -0.17160836903E+03  0.36978166264E+03  0.00000000000E+00 0.  1.
          2    1    6    6  502    0 -0.27533830586E+03  0.65192510575E+03  0.90926931632E+03  0.11522101439E+04  0.00000000000E+00 0. -1.
          3    1    5    5  503    0  0.67921613897E+02 -0.10542469628E+03 -0.10737700034E+03  0.16509855367E+03  0.00000000000E+00 0. -1.
         -4    1    5    5    0  503 -0.10607201145E+01 -0.63695078094E+01  0.13574175088E+02  0.15031765905E+02  0.00000000000E+00 0.  1.
         -1    1    6    6    0  502 -0.32504897087E+02  0.33461205388E+02  0.42727546628E+02  0.63260286448E+02  0.00000000000E+00 0.  1.
<mgrwt>
<rscale>  0 0.20623303E+04</rscale>
<asrwt>0</asrwt>
<pdfrwt beam="1">  1        2 0.12499528E+00 0.20623303E+04</pdfrwt>
<pdfrwt beam="2">  1       -2 0.20134282E+00 0.20623303E+04</pdfrwt>
<totfact> 0.40629082E+00</totfact>
</mgrwt>
</event>
<event>
12    1  0.1494110E-007  0.2099156E+04  0.7818608E-02  0.8561615E-01
          1   -1    0    0  501    0  0.00000000000E+00  0.00000000000E+00  0.14908977068E+04  0.14908977068E+04  0.00000000000E+00 0. -1.
         -1   -1    0    0    0  501 -0.00000000000E+00 -0.00000000000E+00 -0.73889285714E+03  0.73889285714E+03  0.00000000000E+00 0.  1.
         23    2    1    2    0    0  0.53098845960E+03  0.63963078546E+03  0.11995746735E+03  0.84501572458E+03  0.92657945557E+02 0.  0.
        254    2    1    2    0    0 -0.53098845960E+03 -0.63963078546E+03  0.63204738230E+03  0.13847748394E+04  0.90941804265E+03 0.  0.
        -24    2    4    4    0    0  0.92403842985E+02 -0.58262771808E+03  0.37353278261E+03  0.70272111264E+03  0.79351713242E+02 0.  0.
         24    2    4    4    0    0 -0.62339230258E+03 -0.57003067385E+02  0.25851459970E+03  0.68205372672E+03  0.80623664407E+02 0.  0.
         13    1    3    3    0    0  0.16578711870E+03  0.23460544002E+03  0.79952713506E+02  0.29819040496E+03  0.00000000000E+00 0.  1.
        -13    1    3    3    0    0  0.36520134090E+03  0.40502534544E+03  0.40004753848E+02  0.54682531962E+03  0.00000000000E+00 0. -1.
          4    1    6    6  502    0 -0.24911831265E+02  0.13418628578E+02  0.15736687321E+02  0.32377496162E+02  0.00000000000E+00 0. -1.
          1    1    5    5  503    0  0.16419629761E+02 -0.67948303792E+02  0.16763096082E+02  0.71885865231E+02  0.00000000000E+00 0. -1.
         -2    1    5    5    0  503  0.75984213225E+02 -0.51467941428E+03  0.35676968652E+03  0.63083524741E+03  0.00000000000E+00 0.  1.
         -3    1    6    6    0  502 -0.59848047132E+03 -0.70421695964E+02  0.24277791237E+03  0.64967623056E+03  0.00000000000E+00 0.  1.
<mgrwt>
<rscale>  0 0.20991557E+04</rscale>
<asrwt>0</asrwt>
<pdfrwt beam="1">  1        1 0.22936888E+00 0.20991557E+04</pdfrwt>
<pdfrwt beam="2">  1       -1 0.11367582E+00 0.20991557E+04</pdfrwt>
<totfact> 0.43083548E+00</totfact>
</mgrwt>
</event>
<event>
12    1  0.1667158E-007  0.1669152E+04  0.7818608E-02  0.8779156E-01
          2   -1    0    0  501    0  0.00000000000E+00  0.00000000000E+00  0.21172124900E+04  0.21172124900E+04  0.00000000000E+00 0. -1.
         -2   -1    0    0    0  501 -0.00000000000E+00 -0.00000000000E+00 -0.32897842949E+03  0.32897842949E+03  0.00000000000E+00 0.  1.
         23    2    1    2    0    0 -0.64522118308E+02  0.14345203591E+03  0.14801751136E+04  0.14912539777E+04  0.90434887054E+02 0.  0.
        254    2    1    2    0    0  0.64522118308E+02 -0.14345203591E+03  0.30805894689E+03  0.95493694175E+03  0.89009137598E+03 0.  0.
        -24    2    4    4    0    0  0.34482243189E+03 -0.31645130380E+03  0.37925515370E+03  0.60772478620E+03  0.80318160723E+02 0.  0.
         24    2    4    4    0    0 -0.28030031358E+03  0.17299926789E+03 -0.71196206815E+02  0.34721215555E+03  0.83608424300E+02 0.  0.
         11    1    3    3    0    0  0.14121156915E+02 -0.19615030763E+01  0.71183941676E+02  0.72597576540E+02  0.00000000000E+00 0.  1.
        -11    1    3    3    0    0 -0.78643275223E+02  0.14541353899E+03  0.14089911719E+04  0.14186564012E+04  0.00000000000E+00 0. -1.
          2    1    6    6  502    0 -0.25545283652E+03  0.14580768870E+03 -0.36114950747E+02  0.29634493995E+03  0.00000000000E+00 0. -1.
          1    1    5    5  503    0  0.31956654359E+03 -0.31481264334E+03  0.36709951503E+03  0.57964802262E+03  0.00000000000E+00 0. -1.
         -4    1    5    5    0  503  0.25255888296E+02 -0.16386604614E+01  0.12155638674E+02  0.28076763583E+02  0.00000000000E+00 0.  1.
         -1    1    6    6    0  502 -0.24847477061E+02  0.27191579188E+02 -0.35081256069E+02  0.50867215595E+02  0.00000000000E+00 0.  1.
<mgrwt>
<rscale>  0 0.16691522E+04</rscale>
<asrwt>0</asrwt>
<pdfrwt beam="1">  1        2 0.32572499E+00 0.16691522E+04</pdfrwt>
<pdfrwt beam="2">  1       -2 0.50612067E-01 0.16691522E+04</pdfrwt>
<totfact> 0.20241840E+01</totfact>
</mgrwt>
</event>
<event>
12    1  0.1494110E-007  0.1414480E+04  0.7818608E-02  0.8943403E-01
          2   -1    0    0  501    0  0.00000000000E+00  0.00000000000E+00  0.23060432701E+04  0.23060432701E+04  0.00000000000E+00 0. -1.
         -2   -1    0    0    0  501 -0.00000000000E+00 -0.00000000000E+00 -0.21690343022E+03  0.21690343022E+03  0.00000000000E+00 0.  1.
         23    2    1    2    0    0 -0.28228693730E+03 -0.23167537511E+03  0.22755694975E+03  0.43975610820E+03  0.90795786883E+02 0.  0.
        254    2    1    2    0    0  0.28228693730E+03  0.23167537511E+03  0.18615828902E+04  0.20831905922E+04  0.86071644107E+03 0.  0.
        -24    2    4    4    0    0  0.30608323147E+03  0.28134235840E+03  0.30151867452E+03  0.52004605308E+03  0.81816373774E+02 0.  0.
         24    2    4    4    0    0 -0.23796294170E+02 -0.49666983294E+02  0.15600642156E+04  0.15631445391E+04  0.81162924442E+02 0.  0.
         13    1    3    3    0    0 -0.17670233373E+03 -0.13806628704E+03  0.86827055082E+02  0.24046819303E+03  0.00000000000E+00 0.  1.
        -13    1    3    3    0    0 -0.10558460357E+03 -0.93609088071E+02  0.14072989467E+03  0.19928791517E+03  0.00000000000E+00 0. -1.
          4    1    6    6  502    0 -0.15612319152E+02  0.20898906981E+02  0.32914939184E+03  0.33018151216E+03  0.00000000000E+00 0. -1.
          1    1    5    5  503    0  0.25424533686E+03  0.18613693591E+03  0.21707926244E+03  0.38263697731E+03  0.00000000000E+00 0. -1.
         -2    1    5    5    0  503  0.51837894605E+02  0.95205422494E+02  0.84439412081E+02  0.13740907576E+03  0.00000000000E+00 0.  1.
         -3    1    6    6    0  502 -0.81839750180E+01 -0.70565890275E+02  0.12309148238E+04  0.12329630269E+04  0.00000000000E+00 0.  1.
<mgrwt>
<rscale>  0 0.14144804E+04</rscale>
<asrwt>0</asrwt>
<pdfrwt beam="1">  1        2 0.35477587E+00 0.14144804E+04</pdfrwt>
<pdfrwt beam="2">  1       -2 0.33369760E-01 0.14144804E+04</pdfrwt>
<totfact> 0.36772450E+01</totfact>
</mgrwt>
</event>
<event>
12    1  0.1494110E-007  0.1421642E+04  0.7818608E-02  0.8938300E-01
          2   -1    0    0  501    0  0.00000000000E+00  0.00000000000E+00  0.25407328600E+04  0.25407328600E+04  0.00000000000E+00 0. -1.
         -2   -1    0    0    0  501 -0.00000000000E+00 -0.00000000000E+00 -0.19886655668E+03  0.19886655668E+03  0.00000000000E+00 0.  1.
         23    2    1    2    0    0 -0.40487284365E+02 -0.88198957816E+02  0.14565540705E+04  0.14625445517E+04  0.89824992108E+02 0.  0.
        254    2    1    2    0    0  0.40487284365E+02  0.88198957816E+02  0.88531223283E+03  0.12770548649E+04  0.91524483178E+03 0.  0.
        -24    2    4    4    0    0  0.27579276487E+02 -0.39817875655E+03  0.26771189222E+03  0.48671156472E+03  0.76886613536E+02 0.  0.
         24    2    4    4    0    0  0.12908007878E+02  0.48637771437E+03  0.61760034061E+03  0.79034330021E+03  0.80513686795E+02 0.  0.
         13    1    3    3    0    0 -0.65787365420E+02 -0.81430927457E+02  0.12403956143E+04  0.12448053074E+04  0.00000000000E+00 0. -1.
        -13    1    3    3    0    0  0.25300081055E+02 -0.67680303581E+01  0.21615845617E+03  0.21773924430E+03  0.00000000000E+00 0.  1.
          4    1    6    6  502    0  0.13314224144E+02  0.47174129355E+03  0.56718870049E+03  0.73784831677E+03  0.00000000000E+00 0. -1.
          1    1    5    5  503    0 -0.21184899477E+01 -0.19413381181E+03  0.87859711403E+02  0.21310033734E+03  0.00000000000E+00 0. -1.
         -2    1    5    5    0  503  0.29697766435E+02 -0.20404494474E+03  0.17985218081E+03  0.27361122738E+03  0.00000000000E+00 0.  1.
         -3    1    6    6    0  502 -0.40621626603E+00  0.14636420819E+02  0.50411640122E+02  0.52494983435E+02  0.00000000000E+00 0.  1.
<mgrwt>
<rscale>  0 0.14216424E+04</rscale>
<asrwt>0</asrwt>
<pdfrwt beam="1">  1        2 0.39088196E+00 0.14216424E+04</pdfrwt>
<pdfrwt beam="2">  1       -2 0.30594857E-01 0.14216424E+04</pdfrwt>
<totfact> 0.31784250E+01</totfact>
</mgrwt>
</event>
<event>
12    1  0.1494110E-007  0.1390409E+04  0.7818608E-02  0.8960791E-01
          2   -1    0    0  501    0  0.00000000000E+00  0.00000000000E+00  0.10844486907E+04  0.10844486907E+04  0.00000000000E+00 0. -1.
         -2   -1    0    0    0  501 -0.00000000000E+00 -0.00000000000E+00 -0.44567262347E+03  0.44567262347E+03  0.00000000000E+00 0.  1.
         23    2    1    2    0    0  0.16457207282E+02  0.33928217735E+03  0.41982635491E+03  0.54960187186E+03  0.10210197712E+03 0.  0.
        254    2    1    2    0    0 -0.16457207282E+02 -0.33928217735E+03  0.21894971232E+03  0.98051944232E+03  0.89336228077E+03 0.  0.
        -24    2    4    4    0    0 -0.37079422583E+03 -0.43603801265E+03  0.10687492880E+03  0.58821803620E+03  0.83430817581E+02 0.  0.
         24    2    4    4    0    0  0.35433701855E+03  0.96755835293E+02  0.11207478352E+03  0.39230140612E+03  0.80145004635E+02 0.  0.
         13    1    3    3    0    0 -0.42078150449E+02  0.17823836725E+03  0.22620806498E+03  0.29104909374E+03  0.00000000000E+00 0. -1.
        -13    1    3    3    0    0  0.58535357731E+02  0.16104381011E+03  0.19361828993E+03  0.25855277812E+03  0.00000000000E+00 0.  1.
          2    1    6    6  502    0  0.14823370530E+02 -0.11394020662E+02  0.11910581616E+02  0.22167949277E+02  0.00000000000E+00 0. -1.
          1    1    5    5  503    0 -0.33507738545E+03 -0.37315500843E+03  0.67985647112E+02  0.50610627616E+03  0.00000000000E+00 0. -1.
         -4    1    5    5    0  503 -0.35716840377E+02 -0.62883004217E+02  0.38889281692E+02  0.82111760037E+02  0.00000000000E+00 0.  1.
         -1    1    6    6    0  502  0.33951364802E+03  0.10814985596E+03  0.10016420190E+03  0.37013345684E+03  0.00000000000E+00 0.  1.
<mgrwt>
<rscale>  0 0.13904087E+04</rscale>
<asrwt>0</asrwt>
<pdfrwt beam="1">  1        2 0.16683826E+00 0.13904087E+04</pdfrwt>
<pdfrwt beam="2">  1       -2 0.68565019E-01 0.13904087E+04</pdfrwt>
<totfact> 0.42201081E+01</totfact>
</mgrwt>
</event>
<event>
12    1  0.1494110E-007  0.1278481E+04  0.7818608E-02  0.9046806E-01
         -1   -1    0    0    0  501 -0.00000000000E+00  0.00000000000E+00  0.50741016596E+03  0.50741016596E+03  0.00000000000E+00 0.  1.
          1   -1    0    0  501    0  0.00000000000E+00 -0.00000000000E+00 -0.80532217541E+03  0.80532217541E+03  0.00000000000E+00 0. -1.
         23    2    1    2    0    0  0.11059632009E+03  0.27415585610E+03 -0.17299765359E+03  0.35539031129E+03  0.94768696091E+02 0.  0.
        254    2    1    2    0    0 -0.11059632009E+03 -0.27415585610E+03 -0.12491435586E+03  0.95734203009E+03  0.90194633256E+03 0.  0.
        -24    2    4    4    0    0  0.23993093313E+03 -0.43916044060E+03  0.77186844740E+02  0.51297816625E+03  0.82219491538E+02 0.  0.
         24    2    4    4    0    0 -0.35052725323E+03  0.16500458450E+03 -0.20210120060E+03  0.44436386383E+03  0.80737104444E+02 0.  0.
         13    1    3    3    0    0 -0.87222548361E+01  0.79156996919E+01 -0.26330085445E+02  0.28844573677E+02  0.00000000000E+00 0.  1.
        -13    1    3    3    0    0  0.11931857493E+03  0.26624015641E+03 -0.14666756814E+03  0.32654573761E+03  0.00000000000E+00 0. -1.
          2    1    6    6  502    0 -0.15782918128E+03  0.10934132004E+03 -0.12691470063E+03  0.23015845839E+03  0.00000000000E+00 0. -1.
          3    1    5    5  503    0  0.19059866209E+03 -0.31105292962E+03  0.88023968754E+02  0.37527322592E+03  0.00000000000E+00 0. -1.
         -4    1    5    5    0  503  0.49332271047E+02 -0.12810751098E+03 -0.10837124014E+02  0.13770494034E+03  0.00000000000E+00 0.  1.
         -1    1    6    6    0  502 -0.19269807195E+03  0.55663264461E+02 -0.75186499966E+02  0.21420540545E+03  0.00000000000E+00 0.  1.
<mgrwt>
<rscale>  0 0.12784814E+04</rscale>
<asrwt>0</asrwt>
<pdfrwt beam="1">  1        1 0.12389572E+00 0.12784814E+04</pdfrwt>
<pdfrwt beam="2">  1       -1 0.78063103E-01 0.12784814E+04</pdfrwt>
<totfact> 0.35388908E+01</totfact>
</mgrwt>
</event>
<event>
12    1  0.1494110E-007  0.1918723E+04  0.7818608E-02  0.8645592E-01
         -2   -1    0    0    0  501 -0.00000000000E+00  0.00000000000E+00  0.70393001445E+03  0.70393001445E+03  0.00000000000E+00 0. -1.
          2   -1    0    0  501    0  0.00000000000E+00 -0.00000000000E+00 -0.13074805003E+04  0.13074805003E+04  0.00000000000E+00 0.  1.
         23    2    1    2    0    0  0.81261413579E+02 -0.10468504721E+03 -0.99945526459E+03  0.10114138914E+04  0.80528611525E+02 0.  0.
        254    2    1    2    0    0 -0.81261413579E+02  0.10468504721E+03  0.39590477876E+03  0.99999662337E+03  0.90867501147E+03 0.  0.
        -24    2    4    4    0    0  0.24029749458E+03  0.28184856360E+03 -0.86592968552E+02  0.38857889620E+03  0.79458905505E+02 0.  0.
         24    2    4    4    0    0 -0.32155890816E+03 -0.17716351639E+03  0.48249774731E+03  0.61141772717E+03  0.78996949212E+02 0.  0.
         11    1    3    3    0    0 -0.12679697605E+01 -0.76724766108E+00  0.12557311498E+01  0.19424924730E+01  0.00000000000E+00 0. -1.
        -11    1    3    3    0    0  0.82529383340E+02 -0.10391779955E+03 -0.10007109957E+04  0.10094713989E+04  0.00000000000E+00 0.  1.
          2    1    6    6  502    0 -0.13221544090E+03 -0.69420272129E+02  0.26124940296E+03  0.30091750953E+03  0.00000000000E+00 0. -1.
          1    1    5    5  503    0  0.79344009311E+02  0.46166043535E+02 -0.36651227221E+02  0.98843754714E+02  0.00000000000E+00 0. -1.
         -2    1    5    5    0  503  0.16095348527E+03  0.23568252006E+03 -0.49941741332E+02  0.28973514148E+03  0.00000000000E+00 0.  1.
         -1    1    6    6    0  502 -0.18934346727E+03 -0.10774324426E+03  0.22124834435E+03  0.31050021765E+03  0.00000000000E+00 0.  1.
<mgrwt>
<rscale>  0 0.19187233E+04</rscale>
<asrwt>0</asrwt>
<pdfrwt beam="1">  1        2 0.20115084E+00 0.19187233E+04</pdfrwt>
<pdfrwt beam="2">  1       -2 0.10829693E+00 0.19187233E+04</pdfrwt>
<totfact> 0.10444484E+01</totfact>
</mgrwt>
</event>
<event>
12    1  0.1494110E-007  0.1786944E+04  0.7818608E-02  0.8713273E-01
          1   -1    0    0  501    0  0.00000000000E+00  0.00000000000E+00  0.64229192815E+03  0.64229192815E+03  0.00000000000E+00 0. -1.
         -1   -1    0    0    0  501 -0.00000000000E+00 -0.00000000000E+00 -0.12428811015E+04  0.12428811015E+04  0.00000000000E+00 0.  1.
         23    2    1    2    0    0  0.41576144681E+02  0.17070598298E+03 -0.90126372658E+03  0.92284125262E+03  0.92144257862E+02 0.  0.
        254    2    1    2    0    0 -0.41576144681E+02 -0.17070598298E+03  0.30067455323E+03  0.96233177703E+03  0.89711100410E+03 0.  0.
        -24    2    4    4    0    0  0.26601045983E+03 -0.37207655252E+03  0.35195216157E+03  0.58256679494E+03  0.79443192701E+02 0.  0.
         24    2    4    4    0    0 -0.30758660452E+03  0.20137056953E+03 -0.51277608335E+02  0.37976498208E+03  0.80202387429E+02 0.  0.
         11    1    3    3    0    0  0.46409832365E+02  0.11021767333E+03 -0.75618857280E+03  0.76558668071E+03  0.00000000000E+00 0.  1.
        -11    1    3    3    0    0 -0.48336876844E+01  0.60488309649E+02 -0.14507515378E+03  0.15725457190E+03  0.00000000000E+00 0. -1.
          2    1    6    6  502    0 -0.22706125857E+03  0.18698763923E+03 -0.46781670085E+02  0.29784176508E+03  0.00000000000E+00 0. -1.
          1    1    5    5  503    0  0.19214387381E+03 -0.21988953714E+03  0.25441969737E+03  0.38729841104E+03  0.00000000000E+00 0. -1.
         -2    1    5    5    0  503  0.73866586029E+02 -0.15218701537E+03  0.97532464200E+02  0.19526838390E+03  0.00000000000E+00 0.  1.
         -1    1    6    6    0  502 -0.80525345949E+02  0.14382930300E+02 -0.44959382497E+01  0.81923217008E+02  0.00000000000E+00 0.  1.
<mgrwt>
<rscale>  0 0.17869443E+04</rscale>
<asrwt>0</asrwt>
<pdfrwt beam="1">  1        1 0.98814143E-01 0.17869443E+04</pdfrwt>
<pdfrwt beam="2">  1       -1 0.19121248E+00 0.17869443E+04</pdfrwt>
<totfact> 0.50732902E+00</totfact>
</mgrwt>
</event>
<event>
12    1  0.1494110E-007  0.2592098E+04  0.7818608E-02  0.8370890E-01
         -2   -1    0    0    0  501 -0.00000000000E+00  0.00000000000E+00  0.11501401044E+04  0.11501401044E+04  0.00000000000E+00 0.  1.
          2   -1    0    0  501    0  0.00000000000E+00 -0.00000000000E+00 -0.14604683504E+04  0.14604683504E+04  0.00000000000E+00 0. -1.
         23    2    1    2    0    0  0.10970086046E+04  0.25539119710E+03  0.38002068619E+02  0.11306787486E+04  0.91311189182E+02 0.  0.
        254    2    1    2    0    0 -0.10970086046E+04 -0.25539119710E+03 -0.34833031469E+03  0.14799297062E+04  0.89454199741E+03 0.  0.
        -24    2    4    4    0    0 -0.62718058671E+03 -0.47310130731E+03  0.91392459156E+02  0.79495576321E+03  0.80135813156E+02 0.  0.
         24    2    4    4    0    0 -0.46982801785E+03  0.21771011021E+03 -0.43972277384E+03  0.68497394298E+03  0.87733267841E+02 0.  0.
         13    1    3    3    0    0  0.47107125790E+03  0.81598746713E+02 -0.19798464667E+02  0.47849604459E+03  0.00000000000E+00 0. -1.
        -13    1    3    3    0    0  0.62593734665E+03  0.17379245039E+03  0.57800533286E+02  0.65218270400E+03  0.00000000000E+00 0.  1.
          2    1    6    6  502    0 -0.30099334766E+03  0.94252521122E+02 -0.24779408283E+03  0.40110153397E+03  0.00000000000E+00 0. -1.
          1    1    5    5  503    0 -0.61081892515E+03 -0.44055453608E+03  0.84041689072E+02  0.75779354977E+03  0.00000000000E+00 0. -1.
         -2    1    5    5    0  503 -0.16361661559E+02 -0.32546771233E+02  0.73507700835E+01  0.37162213437E+02  0.00000000000E+00 0.  1.
         -1    1    6    6    0  502 -0.16883467019E+03  0.12345758909E+03 -0.19192869101E+03  0.28387240901E+03  0.00000000000E+00 0.  1.
<mgrwt>
<rscale>  0 0.25920982E+04</rscale>
<asrwt>0</asrwt>
<pdfrwt beam="1">  1        2 0.22468744E+00 0.25920982E+04</pdfrwt>
<pdfrwt beam="2">  1       -2 0.17694463E+00 0.25920982E+04</pdfrwt>
<totfact> 0.22529774E+00</totfact>
</mgrwt>
</event>
<event>
12    1  0.1494110E-007  0.2153945E+04  0.7818608E-02  0.8537845E-01
         -1   -1    0    0    0  501 -0.00000000000E+00  0.00000000000E+00  0.10525304990E+04  0.10525304990E+04  0.00000000000E+00 0.  1.
          1   -1    0    0  501    0  0.00000000000E+00 -0.00000000000E+00 -0.11019823898E+04  0.11019823898E+04  0.00000000000E+00 0. -1.
         23    2    1    2    0    0  0.59786684492E+02 -0.76431722467E+03 -0.44829401643E+03  0.89193406651E+03  0.82605001508E+02 0.  0.
        254    2    1    2    0    0 -0.59786684492E+02  0.76431722467E+03  0.39884212569E+03  0.12625788223E+04  0.92047540636E+03 0.  0.
        -24    2    4    4    0    0 -0.21814783687E+03  0.17810607765E+03 -0.23926674416E+03  0.37824114906E+03  0.80669314816E+02 0.  0.
         24    2    4    4    0    0  0.15836115238E+03  0.58621114701E+03  0.63810886985E+03  0.88433767323E+03  0.78411906321E+02 0.  0.
         13    1    3    3    0    0 -0.73695633631E+01 -0.37589540577E+03 -0.24083283359E+03  0.44648865638E+03  0.00000000000E+00 0. -1.
        -13    1    3    3    0    0  0.67156247855E+02 -0.38842181890E+03 -0.20746118284E+03  0.44544541013E+03  0.00000000000E+00 0.  1.
          2    1    6    6  502    0  0.77846527011E+02  0.41174130254E+03  0.41270705190E+03  0.58814801935E+03  0.00000000000E+00 0. -1.
          3    1    5    5  503    0 -0.19685618208E+03  0.14500007748E+03 -0.16743133147E+03  0.29632858393E+03  0.00000000000E+00 0. -1.
         -4    1    5    5    0  503 -0.21291654794E+02  0.33106000170E+02 -0.71835412687E+02  0.81912565135E+02  0.00000000000E+00 0.  1.
         -1    1    6    6    0  502  0.80514625369E+02  0.17446984448E+03  0.22540181795E+03  0.29618965388E+03  0.00000000000E+00 0.  1.
<mgrwt>
<rscale>  0 0.21539453E+04</rscale>
<asrwt>0</asrwt>
<pdfrwt beam="1">  1        1 0.16953575E+00 0.21539453E+04</pdfrwt>
<pdfrwt beam="2">  1       -1 0.16192777E+00 0.21539453E+04</pdfrwt>
<totfact> 0.32687106E+00</totfact>
</mgrwt>
</event>
<event>
12    1  0.1494110E-007  0.2987195E+04  0.7818608E-02  0.8247397E-01
          2   -1    0    0  501    0  0.00000000000E+00  0.00000000000E+00  0.21237920319E+04  0.21237920319E+04  0.00000000000E+00 0. -1.
         -2   -1    0    0    0  501 -0.00000000000E+00 -0.00000000000E+00 -0.10504012413E+04  0.10504012413E+04  0.00000000000E+00 0.  1.
         23    2    1    2    0    0  0.82915947971E+03 -0.30583247589E+03  0.15821105373E+04  0.18145596797E+04  0.92272059761E+02 0.  0.
        254    2    1    2    0    0 -0.82915947971E+03  0.30583247589E+03 -0.50871974662E+03  0.13596335935E+04  0.89931572978E+03 0.  0.
        -24    2    4    4    0    0  0.41088480921E+02  0.14123017826E+03  0.17189069168E+03  0.24003692305E+03  0.80231465334E+02 0.  0.
         24    2    4    4    0    0 -0.87024796063E+03  0.16460229763E+03 -0.68061043830E+03  0.11195966704E+04  0.76424514088E+02 0.  0.
         13    1    3    3    0    0  0.68925467777E+03 -0.21654662449E+03  0.12743584311E+04  0.14649074587E+04  0.00000000000E+00 0. -1.
        -13    1    3    3    0    0  0.13990480194E+03 -0.89285851398E+02  0.30775210613E+03  0.34965222106E+03  0.00000000000E+00 0.  1.
          4    1    6    6  502    0 -0.55004008476E+01 -0.43877758761E+01 -0.16114026635E+01  0.72182827020E+01  0.00000000000E+00 0. -1.
          1    1    5    5  503    0  0.29741663173E+02  0.43950318900E+01  0.26772348171E+02  0.40257191410E+02  0.00000000000E+00 0. -1.
         -2    1    5    5    0  503  0.11346817747E+02  0.13683514637E+03  0.14511834351E+03  0.19977973165E+03  0.00000000000E+00 0.  1.
         -3    1    6    6    0  502 -0.86474755978E+03  0.16899007351E+03 -0.67899903564E+03  0.11123783877E+04  0.00000000000E+00 0.  1.
<mgrwt>
<rscale>  0 0.29871952E+04</rscale>
<asrwt>0</asrwt>
<pdfrwt beam="1">  1        2 0.32673723E+00 0.29871952E+04</pdfrwt>
<pdfrwt beam="2">  1       -2 0.16160019E+00 0.29871952E+04</pdfrwt>
<totfact> 0.11970696E+00</totfact>
</mgrwt>
</event>
<event>
12    1  0.1494110E-007  0.1399847E+04  0.7818608E-02  0.8953929E-01
          2   -1    0    0  501    0  0.00000000000E+00  0.00000000000E+00  0.18750480345E+04  0.18750480345E+04  0.00000000000E+00 0. -1.
         -2   -1    0    0    0  501 -0.00000000000E+00 -0.00000000000E+00 -0.26126958368E+03  0.26126958368E+03  0.00000000000E+00 0.  1.
         23    2    1    2    0    0 -0.20331186861E+03  0.35578162030E+03  0.50158914228E+03  0.65427270683E+03  0.92546366735E+02 0.  0.
        254    2    1    2    0    0  0.20331186861E+03 -0.35578162030E+03  0.11121893085E+04  0.14820449113E+04  0.88970544786E+03 0.  0.
        -24    2    4    4    0    0  0.52359440064E+02  0.22263902261E+03  0.72529539292E+03  0.76499740003E+03  0.82812859567E+02 0.  0.
         24    2    4    4    0    0  0.15095242855E+03 -0.57842064291E+03  0.38689391561E+03  0.71704751131E+03  0.84339526392E+02 0.  0.
         11    1    3    3    0    0 -0.15925489664E+03  0.24472270317E+03  0.29147400254E+03  0.41256322874E+03  0.00000000000E+00 0.  1.
        -11    1    3    3    0    0 -0.44056971967E+02  0.11105891712E+03  0.21011513974E+03  0.24170947809E+03  0.00000000000E+00 0. -1.
          4    1    6    6  502    0  0.42194838457E+02 -0.32788419563E+03  0.21269521374E+03  0.39310011967E+03  0.00000000000E+00 0. -1.
          3    1    5    5  503    0  0.61263642140E+02  0.83924344390E+02  0.33032894819E+03  0.34628563852E+03  0.00000000000E+00 0. -1.
         -4    1    5    5    0  503 -0.89042020766E+01  0.13871467822E+03  0.39496644472E+03  0.41871176151E+03  0.00000000000E+00 0.  1.
         -3    1    6    6    0  502  0.10875759009E+03 -0.25053644728E+03  0.17419870187E+03  0.32394739164E+03  0.00000000000E+00 0.  1.
<mgrwt>
<rscale>  0 0.13998472E+04</rscale>
<asrwt>0</asrwt>
<pdfrwt beam="1">  1        2 0.28846892E+00 0.13998472E+04</pdfrwt>
<pdfrwt beam="2">  1       -2 0.40195322E-01 0.13998472E+04</pdfrwt>
<totfact> 0.44708404E+01</totfact>
</mgrwt>
</event>
<event>
12    1  0.1494110E-007  0.1353890E+04  0.7818608E-02  0.8987888E-01
         -4   -1    0    0    0  501 -0.00000000000E+00  0.00000000000E+00  0.11144674743E+04  0.11144674743E+04  0.00000000000E+00 0.  1.
          4   -1    0    0  501    0  0.00000000000E+00 -0.00000000000E+00 -0.41118723379E+03  0.41118723379E+03  0.00000000000E+00 0. -1.
         23    2    1    2    0    0  0.18344322295E+03  0.28093055436E+03  0.12639891862E+02  0.34850972117E+03  0.93412346453E+02 0.  0.
        254    2    1    2    0    0 -0.18344322295E+03 -0.28093055436E+03  0.69064034870E+03  0.11771449870E+04  0.89225155459E+03 0.  0.
        -24    2    4    4    0    0 -0.35696559036E+03  0.18323953759E+03  0.48831459050E+03  0.63701787962E+03  0.79620844153E+02 0.  0.
         24    2    4    4    0    0  0.17352236742E+03 -0.46417009195E+03  0.20232575820E+03  0.54012710734E+03  0.72371910300E+02 0.  0.
         11    1    3    3    0    0  0.40621476049E+00  0.39036005929E+01  0.15984255530E+02  0.16459025879E+02  0.00000000000E+00 0.  1.
        -11    1    3    3    0    0  0.18303700819E+03  0.27702695376E+03 -0.33443636684E+01  0.33205069529E+03  0.00000000000E+00 0. -1.
          4    1    6    6  502    0  0.72574815746E+02 -0.15725833465E+03  0.36627945460E+02  0.17702794719E+03  0.00000000000E+00 0. -1.
          3    1    5    5  503    0 -0.28064604828E+02 -0.23048672145E+01  0.58193876692E+02  0.64648756690E+02  0.00000000000E+00 0. -1.
         -4    1    5    5    0  503 -0.32890098553E+03  0.18554440481E+03  0.43012071381E+03  0.57236912293E+03  0.00000000000E+00 0.  1.
         -3    1    6    6    0  502  0.10094755167E+03 -0.30691175729E+03  0.16569781274E+03  0.36309916014E+03  0.00000000000E+00 0.  1.
<mgrwt>
<rscale>  0 0.13538904E+04</rscale>
<asrwt>0</asrwt>
<pdfrwt beam="1">  1        4 0.63259575E-01 0.13538904E+04</pdfrwt>
<pdfrwt beam="2">  1       -4 0.17145653E+00 0.13538904E+04</pdfrwt>
<totfact> 0.94190065E-01</totfact>
</mgrwt>
</event>
<event>
12    1  0.1494110E-007  0.1667242E+04  0.7818608E-02  0.8780271E-01
         -2   -1    0    0    0  501 -0.00000000000E+00  0.00000000000E+00  0.19182529323E+03  0.19182529323E+03  0.00000000000E+00 0.  1.
          2   -1    0    0  501    0  0.00000000000E+00 -0.00000000000E+00 -0.36226916247E+04  0.36226916247E+04  0.00000000000E+00 0. -1.
         23    2    1    2    0    0  0.16717642312E+03 -0.46390692983E+03 -0.19443096412E+04  0.20078540053E+04  0.89331572459E+02 0.  0.
        254    2    1    2    0    0 -0.16717642312E+03  0.46390692983E+03 -0.14865566902E+04  0.18066629126E+04  0.90056787105E+03 0.  0.
        -24    2    4    4    0    0 -0.25200805108E+03  0.44065859792E+02 -0.13090458975E+04  0.13363138113E+04  0.81753180539E+02 0.  0.
         24    2    4    4    0    0  0.84831627963E+02  0.41984107003E+03 -0.17751079268E+03  0.47034910128E+03  0.79090241915E+02 0.  0.
         11    1    3    3    0    0  0.16873998453E+03 -0.36554007794E+03 -0.15426501144E+04  0.15943218328E+04  0.00000000000E+00 0. -1.
        -11    1    3    3    0    0 -0.15635614116E+01 -0.98366851883E+02 -0.40165952679E+03  0.41353217255E+03  0.00000000000E+00 0.  1.
          4    1    6    6  502    0  0.67979229724E+02  0.38309372497E+03 -0.18224507567E+03  0.42964548804E+03  0.00000000000E+00 0. -1.
          1    1    5    5  503    0 -0.95974062320E+02 -0.23072092120E+02 -0.48433315885E+03  0.49428933919E+03  0.00000000000E+00 0. -1.
         -2    1    5    5    0  503 -0.15603398876E+03  0.67137951913E+02 -0.82471273869E+03  0.84202447209E+03  0.00000000000E+00 0.  1.
         -3    1    6    6    0  502  0.16852398239E+02  0.36747345060E+02  0.47342829859E+01  0.40703613240E+02  0.00000000000E+00 0.  1.
<mgrwt>
<rscale>  0 0.16672419E+04</rscale>
<asrwt>0</asrwt>
<pdfrwt beam="1">  1        2 0.55733716E+00 0.16672419E+04</pdfrwt>
<pdfrwt beam="2">  1       -2 0.29511584E-01 0.16672419E+04</pdfrwt>
<totfact> 0.67886636E+00</totfact>
</mgrwt>
</event>
<event>
12    1  0.1494110E-007  0.2595596E+04  0.7818608E-02  0.8369699E-01
          2   -1    0    0  501    0  0.00000000000E+00  0.00000000000E+00  0.26689487141E+04  0.26689487141E+04  0.00000000000E+00 0. -1.
         -2   -1    0    0    0  501 -0.00000000000E+00 -0.00000000000E+00 -0.63106478164E+03  0.63106478164E+03  0.00000000000E+00 0.  1.
         23    2    1    2    0    0 -0.63171632833E+03 -0.82033093431E+03  0.15086675312E+04  0.18319197315E+04  0.88565351763E+02 0.  0.
        254    2    1    2    0    0  0.63171632833E+03  0.82033093431E+03  0.52921640125E+03  0.14680937643E+04  0.89622594255E+03 0.  0.
        -24    2    4    4    0    0  0.66868610343E+03  0.17761391827E+03  0.41202256715E+03  0.80866908431E+03  0.74130177328E+02 0.  0.
         24    2    4    4    0    0 -0.36969775101E+02  0.64271701604E+03  0.11719383410E+03  0.65942467997E+03  0.81575650942E+02 0.  0.
         11    1    3    3    0    0 -0.62367978441E+03 -0.80282125353E+03  0.14556003692E+04  0.17754635657E+04  0.00000000000E+00 0.  1.
        -11    1    3    3    0    0 -0.80365439215E+01 -0.17509680776E+02  0.53067162048E+02  0.56456165712E+02  0.00000000000E+00 0. -1.
          2    1    6    6  502    0  0.22128684040E+02  0.15703836109E+03  0.45120342599E+02  0.16488350684E+03  0.00000000000E+00 0. -1.
          1    1    5    5  503    0  0.13601026655E+03  0.34158324798E+02  0.11956325357E+03  0.18428498410E+03  0.00000000000E+00 0. -1.
         -2    1    5    5    0  503  0.53267583688E+03  0.14345559347E+03  0.29245931358E+03  0.62438410021E+03  0.00000000000E+00 0.  1.
         -1    1    6    6    0  502 -0.59098459141E+02  0.48567865495E+03  0.72073491503E+02  0.49454117313E+03  0.00000000000E+00 0.  1.
<mgrwt>
<rscale>  0 0.25955959E+04</rscale>
<asrwt>0</asrwt>
<pdfrwt beam="1">  1        2 0.41060749E+00 0.25955959E+04</pdfrwt>
<pdfrwt beam="2">  1       -2 0.97086891E-01 0.25955959E+04</pdfrwt>
<totfact> 0.21711734E+00</totfact>
</mgrwt>
</event>
<event>
12    1  0.1494110E-007  0.1820959E+04  0.7818608E-02  0.8695232E-01
         -2   -1    0    0    0  501 -0.00000000000E+00  0.00000000000E+00  0.59698110543E+03  0.59698110543E+03  0.00000000000E+00 0.  1.
          2   -1    0    0  501    0  0.00000000000E+00 -0.00000000000E+00 -0.13886090523E+04  0.13886090523E+04  0.00000000000E+00 0. -1.
         23    2    1    2    0    0 -0.31970857361E+03 -0.15688383643E+03  0.33613487957E+03  0.49804305430E+03  0.90742032728E+02 0.  0.
        254    2    1    2    0    0  0.31970857361E+03  0.15688383643E+03 -0.11277628264E+04  0.14875471034E+04  0.90228669613E+03 0.  0.
        -24    2    4    4    0    0 -0.14909954267E+03 -0.25899529525E+03 -0.21384027050E+03  0.37652118706E+03  0.82044539322E+02 0.  0.
         24    2    4    4    0    0  0.46880811628E+03  0.41587913168E+03 -0.91392255590E+03  0.11110259163E+04  0.79922753312E+02 0.  0.
         11    1    3    3    0    0 -0.45181211791E+02 -0.24928219471E+02  0.11465753355E+02  0.52860396564E+02  0.00000000000E+00 0. -1.
        -11    1    3    3    0    0 -0.27452736182E+03 -0.13195561696E+03  0.32466912622E+03  0.44518265774E+03  0.00000000000E+00 0.  1.
          2    1    6    6  502    0  0.17181072364E+03  0.20114303528E+03 -0.40972617971E+03  0.48770174055E+03  0.00000000000E+00 0. -1.
          1    1    5    5  503    0 -0.21159596374E+02 -0.11056589716E+03 -0.61231244410E+02  0.12814761576E+03  0.00000000000E+00 0. -1.
         -2    1    5    5    0  503 -0.12793994630E+03 -0.14842939809E+03 -0.15260902609E+03  0.24837357130E+03  0.00000000000E+00 0.  1.
         -1    1    6    6    0  502  0.29699739264E+03  0.21473609640E+03 -0.50419637619E+03  0.62332417577E+03  0.00000000000E+00 0.  1.
<mgrwt>
<rscale>  0 0.18209595E+04</rscale>
<asrwt>0</asrwt>
<pdfrwt beam="1">  1        2 0.21363216E+00 0.18209595E+04</pdfrwt>
<pdfrwt beam="2">  1       -2 0.91843248E-01 0.18209595E+04</pdfrwt>
<totfact> 0.13962238E+01</totfact>
</mgrwt>
</event>
<event>
12    1  0.1494110E-007  0.1996192E+04  0.7818608E-02  0.8608403E-01
          1   -1    0    0  501    0  0.00000000000E+00  0.00000000000E+00  0.17015716702E+04  0.17015716702E+04  0.00000000000E+00 0. -1.
         -1   -1    0    0    0  501 -0.00000000000E+00 -0.00000000000E+00 -0.58545628625E+03  0.58545628625E+03  0.00000000000E+00 0.  1.
         23    2    1    2    0    0 -0.34442210107E+03  0.42374725384E+03  0.10886467925E+04  0.12214004223E+04  0.92080583746E+02 0.  0.
        254    2    1    2    0    0  0.34442210107E+03 -0.42374725384E+03  0.27468591423E+02  0.10656275341E+04  0.91466890138E+03 0.  0.
        -24    2    4    4    0    0  0.19033946268E+03  0.20906193964E+03 -0.21695980369E+03  0.36533466822E+03  0.80385681104E+02 0.  0.
         24    2    4    4    0    0  0.15408263839E+03 -0.63280919348E+03  0.24442839511E+03  0.70029286591E+03  0.80473119148E+02 0.  0.
         13    1    3    3    0    0 -0.80145303150E+01  0.23006054196E+02  0.98985258530E+02  0.10193916143E+03  0.00000000000E+00 0.  1.
        -13    1    3    3    0    0 -0.33640757075E+03  0.40074119964E+03  0.98966153398E+03  0.11194612609E+04  0.00000000000E+00 0. -1.
          4    1    6    6  502    0  0.14028863109E+03 -0.61484179655E+03  0.22243807356E+03  0.66872268644E+03  0.00000000000E+00 0. -1.
          3    1    5    5  503    0  0.13241965321E+03  0.16221488402E+03 -0.19862333134E+03  0.28861715283E+03  0.00000000000E+00 0. -1.
         -4    1    5    5    0  503  0.57919809471E+02  0.46847055620E+02 -0.18336472345E+02  0.76717515389E+02  0.00000000000E+00 0.  1.
         -3    1    6    6    0  502  0.13794007301E+02 -0.17967396936E+02  0.21990321548E+02  0.31570179471E+02  0.00000000000E+00 0.  1.
<mgrwt>
<rscale>  0 0.19961922E+04</rscale>
<asrwt>0</asrwt>
<pdfrwt beam="1">  1        1 0.26178025E+00 0.19961922E+04</pdfrwt>
<pdfrwt beam="2">  1       -1 0.90070199E-01 0.19961922E+04</pdfrwt>
<totfact> 0.53193713E+00</totfact>
</mgrwt>
</event>
<event>
12    1  0.1494110E-007  0.2351202E+04  0.7818608E-02  0.8458002E-01
         -2   -1    0    0    0  501 -0.00000000000E+00  0.00000000000E+00  0.57528992099E+03  0.57528992099E+03  0.00000000000E+00 0.  1.
          2   -1    0    0  501    0  0.00000000000E+00 -0.00000000000E+00 -0.24023319696E+04  0.24023319696E+04  0.00000000000E+00 0. -1.
         23    2    1    2    0    0  0.51950783520E+03  0.80301414020E+02  0.29022855553E+03  0.60723981210E+03  0.90392848319E+02 0.  0.
        254    2    1    2    0    0 -0.51950783520E+03 -0.80301414020E+02 -0.21172706041E+04  0.23703820785E+04  0.92711362782E+03 0.  0.
        -24    2    4    4    0    0 -0.65453101005E+03  0.10839499246E+03 -0.85849303998E+03  0.10878662359E+04  0.79261150621E+02 0.  0.
         24    2    4    4    0    0  0.13502317486E+03 -0.18869640648E+03 -0.12587775641E+04  0.12825158426E+04  0.80550225844E+02 0.  0.
         13    1    3    3    0    0  0.10393511229E+03 -0.18246492292E+02  0.70767508598E+02  0.12705700422E+03  0.00000000000E+00 0. -1.
        -13    1    3    3    0    0  0.41557272291E+03  0.98547906312E+02  0.21946104694E+03  0.48018280788E+03  0.00000000000E+00 0.  1.
          2    1    6    6  502    0  0.10845785792E+03 -0.89584622357E+02 -0.63891423900E+03  0.65421702539E+03  0.00000000000E+00 0. -1.
          1    1    5    5  503    0 -0.47026245345E+02  0.29316102691E+02 -0.65700811552E+02  0.85950557106E+02  0.00000000000E+00 0. -1.
         -2    1    5    5    0  503 -0.60750476471E+03  0.79078889767E+02 -0.79279222843E+03  0.10019156788E+04  0.00000000000E+00 0.  1.
         -1    1    6    6    0  502  0.26565316932E+02 -0.99111784121E+02 -0.61986332514E+03  0.62829881718E+03  0.00000000000E+00 0.  1.
<mgrwt>
<rscale>  0 0.23512017E+04</rscale>
<asrwt>0</asrwt>
<pdfrwt beam="1">  1        2 0.36958953E+00 0.23512017E+04</pdfrwt>
<pdfrwt beam="2">  1       -2 0.88506142E-01 0.23512017E+04</pdfrwt>
<totfact> 0.39297176E+00</totfact>
</mgrwt>
</event>
<event>
12    1  0.1494110E-007  0.2028029E+04  0.7818608E-02  0.8593627E-01
         -3   -1    0    0    0  501 -0.00000000000E+00  0.00000000000E+00  0.70383988393E+03  0.70383988393E+03  0.00000000000E+00 0.  1.
          3   -1    0    0  501    0  0.00000000000E+00 -0.00000000000E+00 -0.14608804250E+04  0.14608804250E+04  0.00000000000E+00 0. -1.
         23    2    1    2    0    0 -0.14210533705E+03  0.27426616115E+02 -0.11542089125E+04  0.11669831161E+04  0.93301841065E+02 0.  0.
        254    2    1    2    0    0  0.14210533705E+03 -0.27426616115E+02  0.39716837145E+03  0.99773719278E+03  0.90376470637E+03 0.  0.
        -24    2    4    4    0    0  0.42410011819E+03  0.25181796845E+03  0.29518196369E+03  0.58040204249E+03  0.80379971116E+02 0.  0.
         24    2    4    4    0    0 -0.28199478114E+03 -0.27924458457E+03  0.10198640776E+03  0.41733515029E+03  0.79175789824E+02 0.  0.
         11    1    3    3    0    0 -0.64533746860E+02 -0.15910276652E+02 -0.75918117544E+03  0.76208516488E+03  0.00000000000E+00 0. -1.
        -11    1    3    3    0    0 -0.77571590187E+02  0.43336892767E+02 -0.39502773704E+03  0.40489795123E+03  0.00000000000E+00 0.  1.
          2    1    6    6  502    0 -0.26095717977E+02 -0.65472581429E+02  0.82075946506E+01  0.70957804544E+02  0.00000000000E+00 0. -1.
          1    1    5    5  503    0  0.13723053215E+02  0.29992956859E+02  0.14988169169E+02  0.36229061066E+02  0.00000000000E+00 0. -1.
         -2    1    5    5    0  503  0.41037706498E+03  0.22182501159E+03  0.28019379452E+03  0.54417298143E+03  0.00000000000E+00 0.  1.
         -3    1    6    6    0  502 -0.25589906317E+03 -0.21377200314E+03  0.93778813110E+02  0.34637734574E+03  0.00000000000E+00 0.  1.
<mgrwt>
<rscale>  0 0.20280295E+04</rscale>
<asrwt>0</asrwt>
<pdfrwt beam="1">  1        3 0.22475083E+00 0.20280295E+04</pdfrwt>
<pdfrwt beam="2">  1       -3 0.10828306E+00 0.20280295E+04</pdfrwt>
<totfact> 0.18209861E-01</totfact>
</mgrwt>
</event>
<event>
12    1  0.1494110E-007  0.1493920E+04  0.7818608E-02  0.8888506E-01
         -2   -1    0    0    0  501 -0.00000000000E+00  0.00000000000E+00  0.51337525335E+03  0.51337525335E+03  0.00000000000E+00 0.  1.
          2   -1    0    0  501    0  0.00000000000E+00 -0.00000000000E+00 -0.10868251281E+04  0.10868251281E+04  0.00000000000E+00 0. -1.
         23    2    1    2    0    0  0.29408197363E+03 -0.14498750597E+03  0.18083126322E+03  0.38544561716E+03  0.91448312902E+02 0.  0.
        254    2    1    2    0    0 -0.29408197363E+03  0.14498750597E+03 -0.75428113798E+03  0.12147547643E+04  0.89397064727E+03 0.  0.
        -24    2    4    4    0    0 -0.27200733473E+03 -0.31455338605E+03 -0.57834592177E+03  0.71619582595E+03  0.74300962718E+02 0.  0.
         24    2    4    4    0    0 -0.22074638897E+02  0.45954089202E+03 -0.17593521621E+03  0.49855893835E+03  0.77088868112E+02 0.  0.
         13    1    3    3    0    0  0.79710563646E+02 -0.87379862738E+02  0.68190645167E+02  0.13652464414E+03  0.00000000000E+00 0. -1.
        -13    1    3    3    0    0  0.21437140998E+03 -0.57607643230E+02  0.11264061806E+03  0.24892097303E+03  0.00000000000E+00 0.  1.
          4    1    6    6  502    0 -0.21813347666E+00  0.42728793298E+03 -0.16554832604E+03  0.45823713677E+03  0.00000000000E+00 0. -1.
          3    1    5    5  503    0 -0.21747267334E+03 -0.25451666687E+03 -0.40987077248E+03  0.52921370683E+03  0.00000000000E+00 0. -1.
         -4    1    5    5    0  503 -0.54534661388E+02 -0.60036719181E+02 -0.16847514929E+03  0.18698211912E+03  0.00000000000E+00 0.  1.
         -3    1    6    6    0  502 -0.21856505420E+02  0.32252959032E+02 -0.10386890168E+02  0.40321801583E+02  0.00000000000E+00 0.  1.
<mgrwt>
<rscale>  0 0.14939198E+04</rscale>
<asrwt>0</asrwt>
<pdfrwt beam="1">  1        2 0.16720386E+00 0.14939198E+04</pdfrwt>
<pdfrwt beam="2">  1       -2 0.78980809E-01 0.14939198E+04</pdfrwt>
<totfact> 0.30535718E+01</totfact>
</mgrwt>
</event>
<event>
12    1  0.1494110E-007  0.1647763E+04  0.7818608E-02  0.8791731E-01
          2   -1    0    0  501    0  0.00000000000E+00  0.00000000000E+00  0.14892343195E+04  0.14892343195E+04  0.00000000000E+00 0. -1.
         -2   -1    0    0    0  501 -0.00000000000E+00 -0.00000000000E+00 -0.45579194556E+03  0.45579194556E+03  0.00000000000E+00 0.  1.
         23    2    1    2    0    0  0.33092058824E+03 -0.24693266934E+03  0.82868164781E+03  0.92944504804E+03  0.81674016749E+02 0.  0.
        254    2    1    2    0    0 -0.33092058824E+03  0.24693266934E+03  0.20476072610E+03  0.10155812170E+04  0.90498291389E+03 0.  0.
        -24    2    4    4    0    0 -0.49995386207E+02 -0.33196475770E+03  0.94225454519E+02  0.35789364303E+03  0.80680136651E+02 0.  0.
         24    2    4    4    0    0 -0.28092520203E+03  0.57889742704E+03  0.11053527158E+03  0.65768757395E+03  0.79332833685E+02 0.  0.
         11    1    3    3    0    0  0.12360108858E+03 -0.94052375205E+02  0.40298474331E+03  0.43187936015E+03  0.00000000000E+00 0. -1.
        -11    1    3    3    0    0  0.20731949966E+03 -0.15288029414E+03  0.42569690450E+03  0.49756568790E+03  0.00000000000E+00 0.  1.
          4    1    6    6  502    0 -0.18889390764E+03  0.40019999750E+03  0.38680328465E+02  0.44422642216E+03  0.00000000000E+00 0. -1.
          1    1    5    5  503    0 -0.24422843319E+02 -0.26832117248E+03  0.44275546957E+02  0.27304404578E+03  0.00000000000E+00 0. -1.
         -2    1    5    5    0  503 -0.25572542887E+02 -0.63643585219E+02  0.49949907563E+02  0.84849597258E+02  0.00000000000E+00 0.  1.
         -3    1    6    6    0  502 -0.92031294391E+02  0.17869742954E+03  0.71854943116E+02  0.21346115179E+03  0.00000000000E+00 0.  1.
<mgrwt>
<rscale>  0 0.16477633E+04</rscale>
<asrwt>0</asrwt>
<pdfrwt beam="1">  1        2 0.22911297E+00 0.16477633E+04</pdfrwt>
<pdfrwt beam="2">  1       -2 0.70121839E-01 0.16477633E+04</pdfrwt>
<totfact> 0.22774981E+01</totfact>
</mgrwt>
</event>
<event>
12    1  0.1494110E-007  0.1349697E+04  0.7818608E-02  0.8991057E-01
          2   -1    0    0  501    0  0.00000000000E+00  0.00000000000E+00  0.27993807706E+04  0.27993807706E+04  0.00000000000E+00 0. -1.
         -2   -1    0    0    0  501 -0.00000000000E+00 -0.00000000000E+00 -0.16268627406E+03  0.16268627406E+03  0.00000000000E+00 0.  1.
         23    2    1    2    0    0 -0.19395649996E+03  0.14138215263E+03  0.12856363340E+03  0.28715156206E+03  0.91210606846E+02 0.  0.
        254    2    1    2    0    0  0.19395649996E+03 -0.14138215263E+03  0.25081308631E+04  0.26749154826E+04  0.89824516445E+03 0.  0.
        -24    2    4    4    0    0  0.24108719478E+02 -0.37509637077E+03  0.22403652703E+04  0.22731862797E+04  0.82829946595E+02 0.  0.
         24    2    4    4    0    0  0.16984778049E+03  0.23371421814E+03  0.26776559283E+03  0.40172920290E+03  0.78850082229E+02 0.  0.
         11    1    3    3    0    0 -0.18965634913E+02 -0.71287320796E+01 -0.59579329015E+01  0.21118974718E+02  0.00000000000E+00 0. -1.
        -11    1    3    3    0    0 -0.17499086505E+03  0.14851088471E+03  0.13452156630E+03  0.26603258734E+03  0.00000000000E+00 0.  1.
          4    1    6    6  502    0  0.48866599783E+02  0.26137176940E+02  0.27194015756E+02  0.61730147300E+02  0.00000000000E+00 0. -1.
          1    1    5    5  503    0  0.14197607306E+02 -0.33843697544E+03  0.21223460797E+04  0.21492077704E+04  0.00000000000E+00 0. -1.
         -4    1    5    5    0  503  0.99111121723E+01 -0.36659395327E+02  0.11801919061E+03  0.12397850928E+03  0.00000000000E+00 0.  1.
         -3    1    6    6    0  502  0.12098118070E+03  0.20757704120E+03  0.24057157707E+03  0.33999905560E+03  0.00000000000E+00 0.  1.
<mgrwt>
<rscale>  0 0.13496975E+04</rscale>
<asrwt>0</asrwt>
<pdfrwt beam="1">  1        2 0.43067393E+00 0.13496975E+04</pdfrwt>
<pdfrwt beam="2">  1       -2 0.25028660E-01 0.13496975E+04</pdfrwt>
<totfact> 0.32608378E+01</totfact>
</mgrwt>
</event>
<event>
12    1  0.1494110E-007  0.3287348E+04  0.7818608E-02  0.8166122E-01
         -2   -1    0    0    0  501 -0.00000000000E+00  0.00000000000E+00  0.14434639589E+04  0.14434639589E+04  0.00000000000E+00 0.  1.
          2   -1    0    0  501    0  0.00000000000E+00 -0.00000000000E+00 -0.18716536490E+04  0.18716536490E+04  0.00000000000E+00 0. -1.
         23    2    1    2    0    0 -0.95980984743E+03 -0.72593869825E+03 -0.11343961908E+04  0.16562765359E+04  0.90417413980E+02 0.  0.
        254    2    1    2    0    0  0.95980984743E+03  0.72593869825E+03  0.70620650072E+03  0.16588410720E+04  0.89710876923E+03 0.  0.
        -24    2    4    4    0    0  0.69060843555E+03  0.73343997488E+03  0.87073956827E+03  0.13338125800E+04  0.77423476285E+02 0.  0.
         24    2    4    4    0    0  0.26920141187E+03 -0.75012766391E+01 -0.16453306755E+03  0.32502849209E+03  0.77760665165E+02 0.  0.
         11    1    3    3    0    0 -0.79242665513E+03 -0.60381126778E+03 -0.98371055714E+03  0.14000766090E+04  0.00000000000E+00 0. -1.
        -11    1    3    3    0    0 -0.16738319230E+03 -0.12212743047E+03 -0.15068563369E+03  0.25619992689E+03  0.00000000000E+00 0.  1.
          2    1    6    6  502    0  0.25336943832E+03 -0.12652895029E+02 -0.12642476925E+03  0.28344204047E+03  0.00000000000E+00 0. -1.
          3    1    5    5  503    0  0.41849232672E+03  0.39019545913E+03  0.48072345136E+03  0.74731744295E+03  0.00000000000E+00 0. -1.
         -4    1    5    5    0  503  0.27211610883E+03  0.34324451575E+03  0.39001611691E+03  0.58649513701E+03  0.00000000000E+00 0.  1.
         -1    1    6    6    0  502  0.15831973554E+02  0.51516183896E+01 -0.38108298305E+02  0.41586451621E+02  0.00000000000E+00 0.  1.
<mgrwt>
<rscale>  0 0.32873482E+04</rscale>
<asrwt>0</asrwt>
<pdfrwt beam="1">  1        2 0.28794672E+00 0.32873482E+04</pdfrwt>
<pdfrwt beam="2">  1       -2 0.22207138E+00 0.32873482E+04</pdfrwt>
<totfact> 0.63132480E-01</totfact>
</mgrwt>
</event>
<event>
12    1  0.1494110E-007  0.1464857E+04  0.7818608E-02  0.8908165E-01
          2   -1    0    0  501    0  0.00000000000E+00  0.00000000000E+00  0.18877606747E+04  0.18877606747E+04  0.00000000000E+00 0.  1.
         -2   -1    0    0    0  501 -0.00000000000E+00 -0.00000000000E+00 -0.28417353737E+03  0.28417353737E+03  0.00000000000E+00 0. -1.
         23    2    1    2    0    0 -0.17413726883E+03  0.27692189290E+03  0.95157641658E+03  0.10104042323E+04  0.91703395940E+02 0.  0.
        254    2    1    2    0    0  0.17413726883E+03 -0.27692189290E+03  0.65201072076E+03  0.11615299798E+04  0.90389401529E+03 0.  0.
        -24    2    4    4    0    0  0.25625008946E+03  0.26931462040E+03  0.14275604360E+03  0.40609688715E+03  0.79629898014E+02 0.  0.
         24    2    4    4    0    0 -0.82112820629E+02 -0.54623651330E+03  0.50925467716E+03  0.75543309267E+03  0.78879576060E+02 0.  0.
         13    1    3    3    0    0 -0.54788128610E+02  0.94112288364E+02  0.19956944258E+03  0.22734736477E+03  0.00000000000E+00 0. -1.
        -13    1    3    3    0    0 -0.11934914022E+03  0.18280960453E+03  0.75200697401E+03  0.78305686750E+03  0.00000000000E+00 0.  1.
          4    1    6    6  502    0 -0.37240321351E+02 -0.68396148215E+02  0.77422652248E+02  0.10981412344E+03  0.00000000000E+00 0. -1.
          3    1    5    5  503    0  0.18181035520E+03  0.13583457703E+03  0.94352447071E+02  0.24578124795E+03  0.00000000000E+00 0. -1.
         -4    1    5    5    0  503  0.74439734253E+02  0.13348004337E+03  0.48403596531E+02  0.16031563920E+03  0.00000000000E+00 0.  1.
         -3    1    6    6    0  502 -0.44872499278E+02 -0.47784036508E+03  0.43183202491E+03  0.64561896923E+03  0.00000000000E+00 0.  1.
<mgrwt>
<rscale>  0 0.14648572E+04</rscale>
<asrwt>0</asrwt>
<pdfrwt beam="1">  1        2 0.29042471E+00 0.14648572E+04</pdfrwt>
<pdfrwt beam="2">  1       -2 0.43719007E-01 0.14648572E+04</pdfrwt>
<totfact> 0.37076312E+01</totfact>
</mgrwt>
</event>
<event>
12    1  0.1494110E-007  0.2083434E+04  0.7818608E-02  0.8568576E-01
          2   -1    0    0  501    0  0.00000000000E+00  0.00000000000E+00  0.50896436336E+03  0.50896436336E+03  0.00000000000E+00 0. -1.
         -2   -1    0    0    0  501 -0.00000000000E+00 -0.00000000000E+00 -0.21321224344E+04  0.21321224344E+04  0.00000000000E+00 0.  1.
         23    2    1    2    0    0 -0.37281044408E+03 -0.58018474954E+03 -0.12815327705E+04  0.14579877252E+04  0.88317575233E+02 0.  0.
        254    2    1    2    0    0  0.37281044408E+03  0.58018474954E+03 -0.34162530061E+03  0.11830990726E+04  0.89856196162E+03 0.  0.
        -24    2    4    4    0    0  0.87814039728E+02  0.51172657291E+03  0.19961846974E+03  0.56200018059E+03  0.80132880405E+02 0.  0.
         24    2    4    4    0    0  0.28499640435E+03  0.68458176627E+02 -0.54124377035E+03  0.62109889206E+03  0.83123656909E+02 0.  0.
         11    1    3    3    0    0 -0.34456649660E+03 -0.52527078193E+03 -0.12110042985E+04  0.13642459001E+04  0.00000000000E+00 0.  1.
        -11    1    3    3    0    0 -0.28243947471E+02 -0.54913967603E+02 -0.70528471968E+02  0.93741825056E+02  0.00000000000E+00 0. -1.
          2    1    6    6  502    0  0.78355541739E+02 -0.53525834861E+01 -0.90812166511E+02  0.12006286128E+03  0.00000000000E+00 0. -1.
          1    1    5    5  503    0 -0.94988015212E+01  0.62152200725E+02  0.68167766598E+01  0.63242325458E+02  0.00000000000E+00 0. -1.
         -2    1    5    5    0  503  0.97312841249E+02  0.44957437219E+03  0.19280169308E+03  0.49875785513E+03  0.00000000000E+00 0.  1.
         -1    1    6    6    0  502  0.20664086261E+03  0.73810760113E+02 -0.45043160384E+03  0.50103603079E+03  0.00000000000E+00 0.  1.
<mgrwt>
<rscale>  0 0.20834340E+04</rscale>
<asrwt>0</asrwt>
<pdfrwt beam="1">  1        2 0.78302211E-01 0.20834340E+04</pdfrwt>
<pdfrwt beam="2">  1       -2 0.32801883E+00 0.20834340E+04</pdfrwt>
<totfact> 0.11904092E+00</totfact>
</mgrwt>
</event>
<event>
12    1  0.1494110E-007  0.2538424E+04  0.7818608E-02  0.8389423E-01
         -2   -1    0    0    0  501 -0.00000000000E+00  0.00000000000E+00  0.85489118513E+03  0.85489118513E+03  0.00000000000E+00 0.  1.
          2   -1    0    0  501    0  0.00000000000E+00 -0.00000000000E+00 -0.18843328203E+04  0.18843328203E+04  0.00000000000E+00 0. -1.
         23    2    1    2    0    0 -0.40224075219E+03  0.30291887517E+03  0.60845416255E+03  0.79493867684E+03  0.90297089413E+02 0.  0.
        254    2    1    2    0    0  0.40224075219E+03 -0.30291887517E+03 -0.16378957977E+04  0.19442853285E+04  0.91868674046E+03 0.  0.
        -24    2    4    4    0    0 -0.12268581191E+03 -0.46175059760E+03 -0.89095883845E+03  0.10140713760E+04  0.79168686423E+02 0.  0.
         24    2    4    4    0    0  0.52492656411E+03  0.15883172243E+03 -0.74693695923E+03  0.93021395258E+03  0.81288146506E+02 0.  0.
         11    1    3    3    0    0 -0.31226523224E+03  0.23271356512E+03  0.52444160510E+03  0.65322597608E+03  0.00000000000E+00 0.  1.
        -11    1    3    3    0    0 -0.89975519950E+02  0.70205310048E+02  0.84012557446E+02  0.14171270076E+03  0.00000000000E+00 0. -1.
          4    1    6    6  502    0  0.50459872364E+03  0.13626421984E+03 -0.71932470620E+03  0.88916581269E+03  0.00000000000E+00 0. -1.
          3    1    5    5  503    0 -0.88261377503E+02 -0.33483361841E+03 -0.71465871871E+03  0.79412889823E+03  0.00000000000E+00 0. -1.
         -4    1    5    5    0  503 -0.34424434411E+02 -0.12691697920E+03 -0.17630011974E+03  0.21994247774E+03  0.00000000000E+00 0.  1.
         -3    1    6    6    0  502  0.20327840464E+02  0.22567502592E+02 -0.27612253028E+02  0.41048139890E+02  0.00000000000E+00 0.  1.
<mgrwt>
<rscale>  0 0.25384243E+04</rscale>
<asrwt>0</asrwt>
<pdfrwt beam="1">  1        2 0.28989736E+00 0.25384243E+04</pdfrwt>
<pdfrwt beam="2">  1       -2 0.13152172E+00 0.25384243E+04</pdfrwt>
<totfact> 0.29044839E+00</totfact>
</mgrwt>
</event>
<event>
12    1  0.3195579E-007  0.1938475E+04  0.7818608E-02  0.8635938E-01
          1   -1    0    0  501    0  0.00000000000E+00  0.00000000000E+00  0.12544040894E+04  0.12544040894E+04  0.00000000000E+00 0. -1.
         -1   -1    0    0    0  501 -0.00000000000E+00 -0.00000000000E+00 -0.74889887452E+03  0.74889887452E+03  0.00000000000E+00 0.  1.
         23    2    1    2    0    0  0.14259415720E+03  0.39776120063E+02 -0.56609726730E+03  0.59229121665E+03  0.91801611572E+02 0.  0.
        254    2    1    2    0    0 -0.14259415720E+03 -0.39776120063E+02  0.10716024822E+04  0.14110117473E+04  0.90592882599E+03 0.  0.
        -24    2    4    4    0    0 -0.33193339400E+03 -0.12430578785E+03  0.51683056254E+02  0.36710963752E+03  0.80415425851E+02 0.  0.
         24    2    4    4    0    0  0.18933923679E+03  0.84529667787E+02  0.10199194260E+04  0.10439021098E+04  0.80631061223E+02 0.  0.
         13    1    3    3    0    0  0.13671939575E+03  0.60167324600E+02 -0.52754354608E+03  0.54828322347E+03  0.00000000000E+00 0.  1.
        -13    1    3    3    0    0  0.58747614499E+01 -0.20391204537E+02 -0.38553721214E+02  0.44007993183E+02  0.00000000000E+00 0. -1.
          4    1    6    6  502    0  0.15811266469E+02  0.11512490270E+02  0.27277418141E+02  0.33564730299E+02  0.00000000000E+00 0. -1.
          1    1    5    5  503    0 -0.10182479674E+03 -0.69550417915E+02  0.42390421411E+02  0.13039362596E+03  0.00000000000E+00 0. -1.
         -2    1    5    5    0  503 -0.23010859726E+03 -0.54755369935E+02  0.92926348426E+01  0.23671601156E+03  0.00000000000E+00 0.  1.
         -3    1    6    6    0  502  0.17352797032E+03  0.73017177516E+02  0.99264200782E+03  0.10103373795E+04  0.00000000000E+00 0.  1.
<mgrwt>
<rscale>  0 0.19384755E+04</rscale>
<asrwt>0</asrwt>
<pdfrwt beam="1">  1        1 0.19298525E+00 0.19384755E+04</pdfrwt>
<pdfrwt beam="2">  1       -1 0.11521521E+00 0.19384755E+04</pdfrwt>
<totfact> 0.62167548E+00</totfact>
</mgrwt>
</event>
<event>
12    1  0.1494110E-007  0.1972351E+04  0.7818608E-02  0.8619658E-01
          2   -1    0    0  501    0  0.00000000000E+00  0.00000000000E+00  0.90110796336E+03  0.90110796336E+03  0.00000000000E+00 0. -1.
         -2   -1    0    0    0  501 -0.00000000000E+00 -0.00000000000E+00 -0.10792736744E+04  0.10792736744E+04  0.00000000000E+00 0.  1.
         23    2    1    2    0    0  0.47385307893E+03  0.52491164035E+02  0.54617658567E+03  0.73061631620E+03  0.90549853950E+02 0.  0.
        254    2    1    2    0    0 -0.47385307893E+03 -0.52491164035E+02 -0.72434229667E+03  0.12497653215E+04  0.89997196259E+03 0.  0.
        -24    2    4    4    0    0 -0.30355701627E+03 -0.42768937132E+03 -0.62153999254E+03  0.81759307140E+03  0.84151099858E+02 0.  0.
         24    2    4    4    0    0 -0.17029606266E+03  0.37519820728E+03 -0.10280230413E+03  0.43217225013E+03  0.80187881515E+02 0.  0.
         13    1    3    3    0    0  0.21602617038E+03  0.44852455217E+02  0.19206343235E+03  0.29251907814E+03  0.00000000000E+00 0. -1.
        -13    1    3    3    0    0  0.25782690855E+03  0.76387088186E+01  0.35411315331E+03  0.43809723806E+03  0.00000000000E+00 0.  1.
          4    1    6    6  502    0 -0.86611816844E+02  0.27141494565E+03 -0.87186710856E+02  0.29794160853E+03  0.00000000000E+00 0. -1.
          1    1    5    5  503    0 -0.18827449002E+03 -0.21919327032E+03 -0.29050485190E+03  0.40973899293E+03  0.00000000000E+00 0. -1.
         -2    1    5    5    0  503 -0.11528252626E+03 -0.20849610100E+03 -0.33103514064E+03  0.40785407848E+03  0.00000000000E+00 0.  1.
         -1    1    6    6    0  502 -0.83684245812E+02  0.10378326163E+03 -0.15615593272E+02  0.13423064160E+03  0.00000000000E+00 0.  1.
<mgrwt>
<rscale>  0 0.19723510E+04</rscale>
<asrwt>0</asrwt>
<pdfrwt beam="1">  1        2 0.13863199E+00 0.19723510E+04</pdfrwt>
<pdfrwt beam="2">  1       -2 0.16604210E+00 0.19723510E+04</pdfrwt>
<totfact> 0.61994546E+00</totfact>
</mgrwt>
</event>
<event>
12    1  0.1494110E-007  0.1789221E+04  0.7818608E-02  0.8712053E-01
          2   -1    0    0  501    0  0.00000000000E+00  0.00000000000E+00  0.14717531632E+04  0.14717531632E+04  0.00000000000E+00 0. -1.
         -2   -1    0    0    0  501 -0.00000000000E+00 -0.00000000000E+00 -0.54379218398E+03  0.54379218398E+03  0.00000000000E+00 0.  1.
         23    2    1    2    0    0  0.52470428905E+03 -0.39477233678E+03  0.23539850020E+03  0.70390150644E+03  0.94366773998E+02 0.  0.
        254    2    1    2    0    0 -0.52470428905E+03  0.39477233678E+03  0.69256247898E+03  0.13116438407E+04  0.89978163390E+03 0.  0.
        -24    2    4    4    0    0 -0.51812617550E+03  0.47321383829E+03  0.85829303456E+03  0.11114750792E+04  0.79522625808E+02 0.  0.
         24    2    4    4    0    0 -0.65781135500E+01 -0.78441501512E+02 -0.16573055558E+03  0.20016876150E+03  0.80028590436E+02 0.  0.
         13    1    3    3    0    0  0.18621325622E+03 -0.12593004730E+03  0.12724747684E+03  0.25831313162E+03  0.00000000000E+00 0. -1.
        -13    1    3    3    0    0  0.33849103283E+03 -0.26884228948E+03  0.10815102336E+03  0.44558837482E+03  0.00000000000E+00 0.  1.
          2    1    6    6  502    0  0.24662845922E+02 -0.10232938101E+01 -0.63831322136E+02  0.68437860755E+02  0.00000000000E+00 0. -1.
          1    1    5    5  503    0 -0.45679259250E+03  0.37921307838E+03  0.71039904493E+03  0.92581252661E+03  0.00000000000E+00 0. -1.
         -2    1    5    5    0  503 -0.61333583000E+02  0.94000759907E+02  0.14789398964E+03  0.18566255260E+03  0.00000000000E+00 0.  1.
         -1    1    6    6    0  502 -0.31240959472E+02 -0.77418207702E+02 -0.10189923345E+03  0.13173090074E+03  0.00000000000E+00 0.  1.
<mgrwt>
<rscale>  0 0.17892209E+04</rscale>
<asrwt>0</asrwt>
<pdfrwt beam="1">  1        2 0.22642356E+00 0.17892209E+04</pdfrwt>
<pdfrwt beam="2">  1       -2 0.83660337E-01 0.17892209E+04</pdfrwt>
<totfact> 0.15546235E+01</totfact>
</mgrwt>
</event>
<event>
12    1  0.1494110E-007  0.1706094E+04  0.7818608E-02  0.8757896E-01
         -1   -1    0    0    0  501 -0.00000000000E+00  0.00000000000E+00  0.35044982028E+03  0.35044982028E+03  0.00000000000E+00 0.  1.
          1   -1    0    0  501    0  0.00000000000E+00 -0.00000000000E+00 -0.20764429363E+04  0.20764429363E+04  0.00000000000E+00 0. -1.
         23    2    1    2    0    0 -0.48983320282E+03  0.82752422959E+02 -0.11978834137E+03  0.51891242871E+03  0.90201617823E+02 0.  0.
        254    2    1    2    0    0  0.48983320282E+03 -0.82752422959E+02 -0.16062047747E+04  0.19079803279E+04  0.90205910191E+03 0.  0.
        -24    2    4    4    0    0 -0.18358089180E+03  0.99058686456E+02 -0.83859684378E+03  0.86785471504E+03  0.80078541549E+02 0.  0.
         24    2    4    4    0    0  0.67341409462E+03 -0.18181110942E+03 -0.76760793088E+03  0.10401256128E+04  0.78086699186E+02 0.  0.
         13    1    3    3    0    0 -0.44483831729E+03  0.46802026197E+02 -0.10507649404E+03  0.45946994220E+03  0.00000000000E+00 0.  1.
        -13    1    3    3    0    0 -0.44994885522E+02  0.35950396762E+02 -0.14711847328E+02  0.59442486509E+02  0.00000000000E+00 0. -1.
          4    1    6    6  502    0  0.58731113729E+03 -0.13623076449E+03 -0.63559032068E+03  0.87605265191E+03  0.00000000000E+00 0. -1.
          1    1    5    5  503    0 -0.15325908327E+03  0.45876093197E+02 -0.65781567977E+03  0.67698924000E+03  0.00000000000E+00 0. -1.
         -2    1    5    5    0  503 -0.30321808539E+02  0.53182593258E+02 -0.18078116401E+03  0.19086547504E+03  0.00000000000E+00 0.  1.
         -3    1    6    6    0  502  0.86102957336E+02 -0.45580344922E+02 -0.13201761020E+03  0.16407296093E+03  0.00000000000E+00 0.  1.
<mgrwt>
<rscale>  0 0.17060938E+04</rscale>
<asrwt>0</asrwt>
<pdfrwt beam="1">  1        1 0.31945276E+00 0.17060938E+04</pdfrwt>
<pdfrwt beam="2">  1       -1 0.53915358E-01 0.17060938E+04</pdfrwt>
<totfact> 0.87369826E+00</totfact>
</mgrwt>
</event>
<event>
12    1  0.1494110E-007  0.1433930E+04  0.7818608E-02  0.8929618E-01
          2   -1    0    0  501    0  0.00000000000E+00  0.00000000000E+00  0.28492504010E+04  0.28492504010E+04  0.00000000000E+00 0. -1.
         -2   -1    0    0    0  501 -0.00000000000E+00 -0.00000000000E+00 -0.18041197321E+03  0.18041197321E+03  0.00000000000E+00 0.  1.
         23    2    1    2    0    0 -0.26048160565E+03  0.34653859995E+03  0.79714332897E+03  0.91200605051E+03  0.91530765920E+02 0.  0.
        254    2    1    2    0    0  0.26048160565E+03 -0.34653859995E+03  0.18716950989E+04  0.21176563237E+04  0.89066609582E+03 0.  0.
        -24    2    4    4    0    0 -0.79160653159E+00 -0.49826922702E+03  0.49808774471E+03  0.70878080728E+03  0.77498271641E+02 0.  0.
         24    2    4    4    0    0  0.26127321218E+03  0.15173062706E+03  0.13736073542E+04  0.14088755165E+04  0.82747706373E+02 0.  0.
         13    1    3    3    0    0 -0.20766757146E+03  0.27901169037E+03  0.70513264136E+03  0.78624766169E+03  0.00000000000E+00 0. -1.
        -13    1    3    3    0    0 -0.52814034193E+02  0.67526909580E+02  0.92010687616E+02  0.12575838883E+03  0.00000000000E+00 0.  1.
          2    1    6    6  502    0  0.47551515503E+01 -0.19973126390E+01  0.28852487997E+01  0.59097702731E+01  0.00000000000E+00 0. -1.
          1    1    5    5  503    0  0.70028066288E+01 -0.97301380787E+01  0.14281685143E+01  0.12072885033E+02  0.00000000000E+00 0. -1.
         -2    1    5    5    0  503 -0.77944131604E+01 -0.48853908894E+03  0.49665957619E+03  0.69670792225E+03  0.00000000000E+00 0.  1.
         -1    1    6    6    0  502  0.25651806063E+03  0.15372793970E+03  0.13707221054E+04  0.14029657462E+04  0.00000000000E+00 0.  1.
<mgrwt>
<rscale>  0 0.14339301E+04</rscale>
<asrwt>0</asrwt>
<pdfrwt beam="1">  1        2 0.43834618E+00 0.14339301E+04</pdfrwt>
<pdfrwt beam="2">  1       -2 0.27755690E-01 0.14339301E+04</pdfrwt>
<totfact> 0.24993509E+01</totfact>
</mgrwt>
</event>
<event>
12    1  0.1494110E-007  0.1003716E+04  0.7818608E-02  0.9304478E-01
          1   -1    0    0  501    0  0.00000000000E+00  0.00000000000E+00  0.13318001989E+04  0.13318001989E+04  0.00000000000E+00 0. -1.
         -1   -1    0    0    0  501 -0.00000000000E+00 -0.00000000000E+00 -0.18911360932E+03  0.18911360932E+03  0.00000000000E+00 0.  1.
         23    2    1    2    0    0 -0.48129802398E+02 -0.11372589491E+03  0.11641497057E+03  0.19273174103E+03  0.91340142199E+02 0.  0.
        254    2    1    2    0    0  0.48129802398E+02  0.11372589491E+03  0.10262716191E+04  0.13281820672E+04  0.83401685270E+03 0.  0.
        -24    2    4    4    0    0 -0.27844527291E+03 -0.17071421643E+03  0.71188347554E+03  0.78694507072E+03  0.76350166231E+02 0.  0.
         24    2    4    4    0    0  0.32657507531E+03  0.28444011134E+03  0.31438814351E+03  0.54123699651E+03  0.80871038447E+02 0.  0.
         11    1    3    3    0    0 -0.48949764031E+02 -0.49662230559E+02  0.12781402760E+02  0.70892741513E+02  0.00000000000E+00 0.  1.
        -11    1    3    3    0    0  0.81996163324E+00 -0.64063664350E+02  0.10363356781E+03  0.12183899952E+03  0.00000000000E+00 0. -1.
          4    1    6    6  502    0  0.20745791247E+03  0.13681905395E+03  0.15030816400E+03  0.29043206286E+03  0.00000000000E+00 0. -1.
          3    1    5    5  503    0 -0.89147082608E+02 -0.54926929373E+02  0.31876181168E+03  0.33551939213E+03  0.00000000000E+00 0. -1.
         -4    1    5    5    0  503 -0.18929819030E+03 -0.11578728706E+03  0.39312166387E+03  0.45142567860E+03  0.00000000000E+00 0.  1.
         -3    1    6    6    0  502  0.11911716283E+03  0.14762105740E+03  0.16407997951E+03  0.25080493365E+03  0.00000000000E+00 0.  1.
<mgrwt>
<rscale>  0 0.10037162E+04</rscale>
<asrwt>0</asrwt>
<pdfrwt beam="1">  1        1 0.20489233E+00 0.10037162E+04</pdfrwt>
<pdfrwt beam="2">  1       -1 0.29094402E-01 0.10037162E+04</pdfrwt>
<totfact> 0.92591829E+01</totfact>
</mgrwt>
</event>
<event>
12    1  0.1494110E-007  0.1927256E+04  0.7818608E-02  0.8641407E-01
          2   -1    0    0  501    0  0.00000000000E+00  0.00000000000E+00  0.17720912124E+04  0.17720912124E+04  0.00000000000E+00 0. -1.
         -2   -1    0    0    0  501 -0.00000000000E+00 -0.00000000000E+00 -0.52400174645E+03  0.52400174645E+03  0.00000000000E+00 0.  1.
         23    2    1    2    0    0 -0.59390521560E+03  0.49200389816E+02  0.10242404212E+04  0.11871271317E+04  0.71121746105E+02 0.  0.
        254    2    1    2    0    0  0.59390521560E+03 -0.49200389816E+02  0.22384904473E+03  0.11089658272E+04  0.90804885749E+03 0.  0.
        -24    2    4    4    0    0  0.78380294331E+03 -0.20392599977E+03  0.90736486259E+02  0.81891840020E+03  0.80382640733E+02 0.  0.
         24    2    4    4    0    0 -0.18989772770E+03  0.15472560996E+03  0.13311255847E+03  0.29004742700E+03  0.80046207411E+02 0.  0.
         11    1    3    3    0    0 -0.47300998843E+03  0.32088764602E+02  0.86570342748E+03  0.98702105465E+03  0.00000000000E+00 0. -1.
        -11    1    3    3    0    0 -0.12089522717E+03  0.17111625215E+02  0.15853699375E+03  0.20010607701E+03  0.00000000000E+00 0.  1.
          4    1    6    6  502    0 -0.16557506591E+03  0.15480914850E+03  0.13780559724E+03  0.26527600257E+03  0.00000000000E+00 0. -1.
          3    1    5    5  503    0  0.57140437978E+03 -0.18509429043E+03  0.65277628415E+02  0.60417218601E+03  0.00000000000E+00 0. -1.
         -4    1    5    5    0  503  0.21239856353E+03 -0.18831709340E+02  0.25458857844E+02  0.21474621419E+03  0.00000000000E+00 0.  1.
         -3    1    6    6    0  502 -0.24322661789E+02 -0.83538541464E-01 -0.46930387626E+01  0.24771424424E+02  0.00000000000E+00 0.  1.
<mgrwt>
<rscale>  0 0.19272560E+04</rscale>
<asrwt>0</asrwt>
<pdfrwt beam="1">  1        2 0.27262942E+00 0.19272560E+04</pdfrwt>
<pdfrwt beam="2">  1       -2 0.80615654E-01 0.19272560E+04</pdfrwt>
<totfact> 0.11352888E+01</totfact>
</mgrwt>
</event>
<event>
12    1  0.1494110E-007  0.1957389E+04  0.7818608E-02  0.8626806E-01
          2   -1    0    0  501    0  0.00000000000E+00  0.00000000000E+00  0.52724663618E+03  0.52724663618E+03  0.00000000000E+00 0. -1.
         -2   -1    0    0    0  501 -0.00000000000E+00 -0.00000000000E+00 -0.18166882377E+04  0.18166882377E+04  0.00000000000E+00 0.  1.
         23    2    1    2    0    0 -0.39970708241E+03  0.57584647611E+03 -0.87737655208E+03  0.11259652399E+04  0.81505776783E+02 0.  0.
        254    2    1    2    0    0  0.39970708241E+03 -0.57584647611E+03 -0.41206504945E+03  0.12179696339E+04  0.90680069940E+03 0.  0.
        -24    2    4    4    0    0 -0.21754338443E+03  0.18329382861E+02 -0.24894776901E+03  0.34211582881E+03  0.86064849031E+02 0.  0.
         24    2    4    4    0    0  0.61725046684E+03 -0.59417585897E+03 -0.16311728044E+03  0.87585380513E+03  0.80433516585E+02 0.  0.
         13    1    3    3    0    0 -0.96670739535E+02  0.91512569240E+02 -0.14043067850E+03  0.19349562702E+03  0.00000000000E+00 0. -1.
        -13    1    3    3    0    0 -0.30303634287E+03  0.48433390687E+03 -0.73694587357E+03  0.93246961292E+03  0.00000000000E+00 0.  1.
          2    1    6    6  502    0  0.16733123543E+03 -0.19226426432E+03 -0.19015044452E+02  0.25559120016E+03  0.00000000000E+00 0. -1.
          1    1    5    5  503    0 -0.92391648801E+02  0.40041951583E+02 -0.15198375398E+03  0.18231466241E+03  0.00000000000E+00 0. -1.
         -2    1    5    5    0  503 -0.12515173563E+03 -0.21712568722E+02 -0.96964015030E+02  0.15980116640E+03  0.00000000000E+00 0.  1.
         -1    1    6    6    0  502  0.44991923141E+03 -0.40191159465E+03 -0.14410223599E+03  0.62026260497E+03  0.00000000000E+00 0.  1.
<mgrwt>
<rscale>  0 0.19573888E+04</rscale>
<asrwt>0</asrwt>
<pdfrwt beam="1">  1        2 0.81114868E-01 0.19573888E+04</pdfrwt>
<pdfrwt beam="2">  1       -2 0.27949050E+00 0.19573888E+04</pdfrwt>
<totfact> 0.22895509E+00</totfact>
</mgrwt>
</event>
<event>
12    1  0.1494110E-007  0.1627468E+04  0.7818608E-02  0.8803849E-01
          2   -1    0    0  501    0  0.00000000000E+00  0.00000000000E+00  0.17834385296E+04  0.17834385296E+04  0.00000000000E+00 0. -1.
         -2   -1    0    0    0  501 -0.00000000000E+00 -0.00000000000E+00 -0.37128435594E+03  0.37128435594E+03  0.00000000000E+00 0.  1.
         23    2    1    2    0    0 -0.30680206641E+03  0.30190999882E+03  0.96724578045E+03  0.10607238118E+04  0.65524421458E+02 0.  0.
        254    2    1    2    0    0  0.30680206641E+03 -0.30190999882E+03  0.44490839322E+03  0.10939990737E+04  0.90200517718E+03 0.  0.
        -24    2    4    4    0    0  0.35228174063E+03 -0.57092144164E+03  0.44121426722E+03  0.80787804653E+03  0.89124582206E+02 0.  0.
         24    2    4    4    0    0 -0.45479674224E+02  0.26901144282E+03  0.36941260000E+01  0.28612102722E+03  0.86116424179E+02 0.  0.
         13    1    3    3    0    0 -0.29265226990E+03  0.29405181086E+03  0.95208895996E+03  0.10385495685E+04  0.00000000000E+00 0. -1.
        -13    1    3    3    0    0 -0.14149796507E+02  0.78581879597E+01  0.15156820488E+02  0.22174243313E+02  0.00000000000E+00 0.  1.
          4    1    6    6  502    0 -0.49028435251E+02  0.70644356185E+02  0.15477581089E+02  0.87372581742E+02  0.00000000000E+00 0. -1.
          1    1    5    5  503    0  0.15406986898E+03 -0.33422057573E+03  0.24005469077E+03  0.43939409683E+03  0.00000000000E+00 0. -1.
         -2    1    5    5    0  503  0.19821187165E+03 -0.23670086591E+03  0.20115957645E+03  0.36848394970E+03  0.00000000000E+00 0.  1.
         -3    1    6    6    0  502  0.35487610271E+01  0.19836708664E+03 -0.11783455089E+02  0.19874844548E+03  0.00000000000E+00 0.  1.
<mgrwt>
<rscale>  0 0.16274678E+04</rscale>
<asrwt>0</asrwt>
<pdfrwt beam="1">  1        2 0.27437515E+00 0.16274678E+04</pdfrwt>
<pdfrwt beam="2">  1       -2 0.57120671E-01 0.16274678E+04</pdfrwt>
<totfact> 0.24225434E+01</totfact>
</mgrwt>
</event>
<event>
12    1  0.1494110E-007  0.2340916E+04  0.7818608E-02  0.8461961E-01
         -2   -1    0    0    0  501 -0.00000000000E+00  0.00000000000E+00  0.18373432602E+04  0.18373432602E+04  0.00000000000E+00 0.  1.
          2   -1    0    0  501    0  0.00000000000E+00 -0.00000000000E+00 -0.74562631897E+03  0.74562631897E+03  0.00000000000E+00 0. -1.
         23    2    1    2    0    0 -0.23319544530E+03  0.40174295333E+03 -0.50561097684E+03  0.69254848467E+03  0.90572774398E+02 0.  0.
        254    2    1    2    0    0  0.23319544530E+03 -0.40174295333E+03  0.15973279181E+04  0.18904210945E+04  0.89803002200E+03 0.  0.
        -24    2    4    4    0    0  0.51595740414E+03 -0.34994093600E+03  0.68079561874E+03  0.92665334544E+03  0.80827263633E+02 0.  0.
         24    2    4    4    0    0 -0.28276195884E+03 -0.51802017331E+02  0.91653229937E+03  0.96376774909E+03  0.78606895560E+02 0.  0.
         13    1    3    3    0    0 -0.18285554587E+03  0.25037800801E+03 -0.29156008036E+03  0.42559673167E+03  0.00000000000E+00 0. -1.
        -13    1    3    3    0    0 -0.50339899430E+02  0.15136494532E+03 -0.21405089648E+03  0.26695175300E+03  0.00000000000E+00 0.  1.
          2    1    6    6  502    0 -0.13979911623E+03 -0.77480918515E+01  0.55756646286E+03  0.57487754030E+03  0.00000000000E+00 0. -1.
          1    1    5    5  503    0  0.32328153534E+03 -0.26518027366E+03  0.45696348310E+03  0.61939256818E+03  0.00000000000E+00 0. -1.
         -2    1    5    5    0  503  0.19267586880E+03 -0.84760662343E+02  0.22383213564E+03  0.30726077726E+03  0.00000000000E+00 0.  1.
         -1    1    6    6    0  502 -0.14296284260E+03 -0.44053925479E+02  0.35896583650E+03  0.38889020879E+03  0.00000000000E+00 0.  1.
<mgrwt>
<rscale>  0 0.23409156E+04</rscale>
<asrwt>0</asrwt>
<pdfrwt beam="1">  1        2 0.11471174E+00 0.23409156E+04</pdfrwt>
<pdfrwt beam="2">  1       -2 0.28266819E+00 0.23409156E+04</pdfrwt>
<totfact> 0.13851316E+00</totfact>
</mgrwt>
</event>
<event>
12    1  0.1494110E-007  0.1638760E+04  0.7818608E-02  0.8797084E-01
         -2   -1    0    0    0  501 -0.00000000000E+00  0.00000000000E+00  0.88509750568E+03  0.88509750568E+03  0.00000000000E+00 0.  1.
          2   -1    0    0  501    0  0.00000000000E+00 -0.00000000000E+00 -0.75854164555E+03  0.75854164555E+03  0.00000000000E+00 0. -1.
         23    2    1    2    0    0 -0.19366005186E+03 -0.51369110782E+03 -0.88772184382E+02  0.56346337311E+03  0.90706682097E+02 0.  0.
        254    2    1    2    0    0  0.19366005186E+03  0.51369110782E+03  0.21532804451E+03  0.10801757781E+04  0.90500319058E+03 0.  0.
        -24    2    4    4    0    0  0.25840255511E+03  0.11627693002E+03 -0.30074482056E+03  0.42070574890E+03  0.79080181588E+02 0.  0.
         24    2    4    4    0    0 -0.64742503247E+02  0.39741417780E+03  0.51607286507E+03  0.65947002923E+03  0.80248968544E+02 0.  0.
         13    1    3    3    0    0 -0.18050904544E+03 -0.45869824713E+03 -0.10629297370E+03  0.50426758141E+03  0.00000000000E+00 0. -1.
        -13    1    3    3    0    0 -0.13151006426E+02 -0.54992860684E+02  0.17520789314E+02  0.59195791695E+02  0.00000000000E+00 0.  1.
          2    1    6    6  502    0  0.80235155531E+01  0.15281909984E+03  0.16005533948E+03  0.22144020812E+03  0.00000000000E+00 0. -1.
          3    1    5    5  503    0  0.94692870108E+02  0.99986479549E+01 -0.13157065235E+03  0.16241166575E+03  0.00000000000E+00 0. -1.
         -4    1    5    5    0  503  0.16370968500E+03  0.10627828207E+03 -0.16917416821E+03  0.25829408315E+03  0.00000000000E+00 0.  1.
         -1    1    6    6    0  502 -0.72766018800E+02  0.24459507796E+03  0.35601752559E+03  0.43802982111E+03  0.00000000000E+00 0.  1.
<mgrwt>
<rscale>  0 0.16387597E+04</rscale>
<asrwt>0</asrwt>
<pdfrwt beam="1">  1        2 0.11669871E+00 0.16387597E+04</pdfrwt>
<pdfrwt beam="2">  1       -2 0.13616885E+00 0.16387597E+04</pdfrwt>
<totfact> 0.13628868E+01</totfact>
</mgrwt>
</event>
<event>
12    1  0.2349030E-007  0.1753723E+04  0.7818608E-02  0.8731304E-01
         -1   -1    0    0    0  501 -0.00000000000E+00  0.00000000000E+00  0.79616653983E+03  0.79616653983E+03  0.00000000000E+00 0.  1.
          1   -1    0    0  501    0  0.00000000000E+00 -0.00000000000E+00 -0.96573519685E+03  0.96573519685E+03  0.00000000000E+00 0. -1.
         23    2    1    2    0    0 -0.34330883403E+03  0.70450556928E+02 -0.60179862817E+03  0.70230132221E+03  0.90781726215E+02 0.  0.
        254    2    1    2    0    0  0.34330883403E+03 -0.70450556928E+02  0.43222997115E+03  0.10596004145E+04  0.90172393441E+03 0.  0.
        -24    2    4    4    0    0 -0.10066317847E+03  0.27144896472E+03 -0.64517137271E+02  0.30657943769E+03  0.77529830806E+02 0.  0.
         24    2    4    4    0    0  0.44397201251E+03 -0.34189952165E+03  0.49674710842E+03  0.75302097678E+03  0.79224181658E+02 0.  0.
         11    1    3    3    0    0 -0.23681543986E+02 -0.12471799472E+02 -0.20319159786E+02  0.33604011101E+02  0.00000000000E+00 0.  1.
        -11    1    3    3    0    0 -0.31962729005E+03  0.82922356400E+02 -0.58147946838E+03  0.66869731111E+03  0.00000000000E+00 0. -1.
          2    1    6    6  502    0  0.39033485074E+03 -0.32786636288E+03  0.45890827310E+03  0.68589682222E+03  0.00000000000E+00 0. -1.
          3    1    5    5  503    0 -0.90298962401E+02  0.24896571456E+03 -0.33579889612E+02  0.26695587393E+03  0.00000000000E+00 0. -1.
         -4    1    5    5    0  503 -0.10364216073E+02  0.22483250155E+02 -0.30937247659E+02  0.39623563760E+02  0.00000000000E+00 0.  1.
         -1    1    6    6    0  502  0.53637161768E+02 -0.14033158763E+02  0.37838835322E+02  0.67124154564E+02  0.00000000000E+00 0.  1.
<mgrwt>
<rscale>  0 0.17537230E+04</rscale>
<asrwt>0</asrwt>
<pdfrwt beam="1">  1        1 0.14857465E+00 0.17537230E+04</pdfrwt>
<pdfrwt beam="2">  1       -1 0.12248716E+00 0.17537230E+04</pdfrwt>
<totfact> 0.89798479E+00</totfact>
</mgrwt>
</event>
<event>
12    1  0.1494110E-007  0.1145625E+04  0.7818608E-02  0.9161830E-01
          2   -1    0    0  501    0  0.00000000000E+00  0.00000000000E+00  0.67238696323E+03  0.67238696323E+03  0.00000000000E+00 0. -1.
         -2   -1    0    0    0  501 -0.00000000000E+00 -0.00000000000E+00 -0.48798378373E+03  0.48798378373E+03  0.00000000000E+00 0.  1.
         23    2    1    2    0    0 -0.55700508687E+01 -0.17076568335E+03 -0.85221359524E+02  0.21152288071E+03  0.91034635556E+02 0.  0.
        254    2    1    2    0    0  0.55700508687E+01  0.17076568335E+03  0.26962453903E+03  0.94884786625E+03  0.89354515116E+03 0.  0.
        -24    2    4    4    0    0 -0.34675964578E+03  0.23608729058E+03 -0.88641880844E+02  0.43599453423E+03  0.79084702183E+02 0.  0.
         24    2    4    4    0    0  0.35232969665E+03 -0.65321607234E+02  0.35826641987E+03  0.51285333202E+03  0.79123858863E+02 0.  0.
         11    1    3    3    0    0 -0.46117388912E+02 -0.60457927048E+02 -0.35368274098E+02  0.83862323577E+02  0.00000000000E+00 0. -1.
        -11    1    3    3    0    0  0.40547338044E+02 -0.11030775630E+03 -0.49853085426E+02  0.12766055714E+03  0.00000000000E+00 0.  1.
          2    1    6    6  502    0  0.90812489269E+02  0.17731524380E+02  0.86707349603E+02  0.12680488807E+03  0.00000000000E+00 0. -1.
          3    1    5    5  503    0 -0.31796121487E+02  0.53850290406E+02 -0.58498696433E+01  0.62809777052E+02  0.00000000000E+00 0. -1.
         -4    1    5    5    0  503 -0.31496352430E+03  0.18223700017E+03 -0.82792011201E+02  0.37318475718E+03  0.00000000000E+00 0.  1.
         -1    1    6    6    0  502  0.26151720738E+03 -0.83053131613E+02  0.27155907027E+03  0.38604844395E+03  0.00000000000E+00 0.  1.
<mgrwt>
<rscale>  0 0.11456246E+04</rscale>
<asrwt>0</asrwt>
<pdfrwt beam="1">  1        2 0.10344415E+00 0.11456246E+04</pdfrwt>
<pdfrwt beam="2">  1       -2 0.75074428E-01 0.11456246E+04</pdfrwt>
<totfact> 0.68041255E+01</totfact>
</mgrwt>
</event>
<event>
12    1  0.1494110E-007  0.1406943E+04  0.7818608E-02  0.8948808E-01
          2   -1    0    0  501    0  0.00000000000E+00  0.00000000000E+00  0.44666820321E+03  0.44666820321E+03  0.00000000000E+00 0. -1.
         -2   -1    0    0    0  501 -0.00000000000E+00 -0.00000000000E+00 -0.11079186732E+04  0.11079186732E+04  0.00000000000E+00 0.  1.
         23    2    1    2    0    0  0.10753079198E+03 -0.36629207521E+03 -0.30339155368E+02  0.39373456648E+03  0.91507862541E+02 0.  0.
        254    2    1    2    0    0 -0.10753079198E+03  0.36629207521E+03 -0.63091131467E+03  0.11608523100E+04  0.89654684374E+03 0.  0.
        -24    2    4    4    0    0  0.36842518305E+03  0.33923365044E+02 -0.33265988893E+03  0.50329318575E+03  0.75851953928E+02 0.  0.
         24    2    4    4    0    0 -0.47595597503E+03  0.33236871017E+03 -0.29825142574E+03  0.65755912423E+03  0.80168817149E+02 0.  0.
         13    1    3    3    0    0  0.61502687731E+02 -0.32001112211E+03 -0.37731193436E+02  0.32804472535E+03  0.00000000000E+00 0.  1.
        -13    1    3    3    0    0  0.46028104249E+02 -0.46280953097E+02  0.73920380681E+01  0.65689841126E+02  0.00000000000E+00 0. -1.
          4    1    6    6  502    0 -0.23339847692E+02  0.42595182345E+02 -0.26549864777E+02  0.55353350115E+02  0.00000000000E+00 0. -1.
          3    1    5    5  503    0  0.88906600504E+02 -0.14178422779E+02 -0.11342573696E+03  0.14481301423E+03  0.00000000000E+00 0. -1.
         -4    1    5    5    0  503  0.27951858255E+03  0.48101787823E+02 -0.21923415197E+03  0.35848017152E+03  0.00000000000E+00 0.  1.
         -3    1    6    6    0  502 -0.45261612734E+03  0.28977352782E+03 -0.27170156096E+03  0.60220577412E+03  0.00000000000E+00 0.  1.
<mgrwt>
<rscale>  0 0.14069428E+04</rscale>
<asrwt>0</asrwt>
<pdfrwt beam="1">  1        2 0.68718186E-01 0.14069428E+04</pdfrwt>
<pdfrwt beam="2">  1       -2 0.17044902E+00 0.14069428E+04</pdfrwt>
<totfact> 0.14420260E+01</totfact>
</mgrwt>
</event>
<event>
12    1  0.1494110E-007  0.1398834E+04  0.7818608E-02  0.8954663E-01
         -2   -1    0    0    0  501 -0.00000000000E+00  0.00000000000E+00  0.48538003947E+03  0.48538003947E+03  0.00000000000E+00 0.  1.
          2   -1    0    0  501    0  0.00000000000E+00 -0.00000000000E+00 -0.10078367548E+04  0.10078367548E+04  0.00000000000E+00 0. -1.
         23    2    1    2    0    0  0.33473106389E+03 -0.10920669674E+03  0.52568116417E+02  0.36938827799E+03  0.98556102340E+02 0.  0.
        254    2    1    2    0    0 -0.33473106389E+03  0.10920669674E+03 -0.57502483173E+03  0.11238285163E+04  0.89909175790E+03 0.  0.
        -24    2    4    4    0    0  0.10182361603E+03 -0.32099673030E+03 -0.17533986253E+03  0.38760808683E+03  0.78032121209E+02 0.  0.
         24    2    4    4    0    0 -0.43655467992E+03  0.43020342704E+03 -0.39968496920E+03  0.73622042944E+03  0.81347826740E+02 0.  0.
         13    1    3    3    0    0  0.25654814243E+02  0.16702656515E+02 -0.40559837556E+01  0.30880402081E+02  0.00000000000E+00 0. -1.
        -13    1    3    3    0    0  0.30907624965E+03 -0.12590935326E+03  0.56624100173E+02  0.33850787591E+03  0.00000000000E+00 0.  1.
          4    1    6    6  502    0 -0.73161227828E+01  0.17832090475E+02 -0.29598530351E+02  0.35321128269E+02  0.00000000000E+00 0. -1.
          1    1    5    5  503    0 -0.39932572283E-01 -0.26368517056E+02 -0.39649724920E+02  0.47617233987E+02  0.00000000000E+00 0. -1.
         -2    1    5    5    0  503  0.10186354861E+03 -0.29462821324E+03 -0.13569013761E+03  0.33999085284E+03  0.00000000000E+00 0.  1.
         -3    1    6    6    0  502 -0.42923855714E+03  0.41237133656E+03 -0.37008643885E+03  0.70089930117E+03  0.00000000000E+00 0.  1.
<mgrwt>
<rscale>  0 0.13988336E+04</rscale>
<asrwt>0</asrwt>
<pdfrwt beam="1">  1        2 0.15505181E+00 0.13988336E+04</pdfrwt>
<pdfrwt beam="2">  1       -2 0.74673852E-01 0.13988336E+04</pdfrwt>
<totfact> 0.39085172E+01</totfact>
</mgrwt>
</event>
<event>
12    1  0.1494110E-007  0.1364301E+04  0.7818608E-02  0.8980073E-01
         -1   -1    0    0    0  501 -0.00000000000E+00  0.00000000000E+00  0.54622460412E+03  0.54622460412E+03  0.00000000000E+00 0.  1.
          1   -1    0    0  501    0  0.00000000000E+00 -0.00000000000E+00 -0.85190067155E+03  0.85190067155E+03  0.00000000000E+00 0. -1.
         23    2    1    2    0    0 -0.36176353575E+03 -0.17881184201E+02 -0.15814957462E+03  0.40549672091E+03  0.90684674402E+02 0.  0.
        254    2    1    2    0    0  0.36176353575E+03  0.17881184201E+02 -0.14752649282E+03  0.99262855476E+03  0.91233480099E+03 0.  0.
        -24    2    4    4    0    0  0.18458016334E+03 -0.19448776664E+03  0.33161698796E+03  0.43375419760E+03  0.79230986135E+02 0.  0.
         24    2    4    4    0    0  0.17718337241E+03  0.21236895084E+03 -0.47914348078E+03  0.55887435716E+03  0.79167879765E+02 0.  0.
         11    1    3    3    0    0 -0.30145469677E+03 -0.39349218306E+02 -0.10295581563E+03  0.32097226541E+03  0.00000000000E+00 0.  1.
        -11    1    3    3    0    0 -0.60308838972E+02  0.21468034105E+02 -0.55193758988E+02  0.84524455501E+02  0.00000000000E+00 0. -1.
          2    1    6    6  502    0  0.39524388532E+02  0.10575634102E+02 -0.45721280922E+02  0.61355169747E+02  0.00000000000E+00 0. -1.
          3    1    5    5  503    0  0.76010690491E+02 -0.38331316423E+02  0.69442925037E+02  0.10986006884E+03  0.00000000000E+00 0. -1.
         -4    1    5    5    0  503  0.10856947285E+03 -0.15615645021E+03  0.26217406292E+03  0.32389412876E+03  0.00000000000E+00 0.  1.
         -1    1    6    6    0  502  0.13765898387E+03  0.20179331674E+03 -0.43342219986E+03  0.49751918742E+03  0.00000000000E+00 0.  1.
<mgrwt>
<rscale>  0 0.13643007E+04</rscale>
<asrwt>0</asrwt>
<pdfrwt beam="1">  1        1 0.13106164E+00 0.13643007E+04</pdfrwt>
<pdfrwt beam="2">  1       -1 0.84034555E-01 0.13643007E+04</pdfrwt>
<totfact> 0.27391055E+01</totfact>
</mgrwt>
</event>
<event>
12    1  0.1494110E-007  0.2405011E+04  0.7818608E-02  0.8437630E-01
          1   -1    0    0  501    0  0.00000000000E+00  0.00000000000E+00  0.17201218806E+04  0.17201218806E+04  0.00000000000E+00 0. -1.
         -1   -1    0    0    0  501 -0.00000000000E+00 -0.00000000000E+00 -0.84064942943E+03  0.84064942943E+03  0.00000000000E+00 0.  1.
         23    2    1    2    0    0 -0.35293531712E+03 -0.96648617170E+03  0.50059508869E+03  0.11478037462E+04  0.90549095646E+02 0.  0.
        254    2    1    2    0    0  0.35293531712E+03  0.96648617170E+03  0.37887736251E+03  0.14129675639E+04  0.89121850442E+03 0.  0.
        -24    2    4    4    0    0 -0.93542836578E+02  0.81838178196E+02 -0.21046882719E+03  0.25717358933E+03  0.79958602705E+02 0.  0.
         24    2    4    4    0    0  0.44647815370E+03  0.88464799351E+03  0.58934618969E+03  0.11557939746E+04  0.81153965897E+02 0.  0.
         13    1    3    3    0    0 -0.33296905948E+03 -0.93946613442E+03  0.46851070293E+03  0.11013479428E+04  0.00000000000E+00 0. -1.
        -13    1    3    3    0    0 -0.19966257637E+02 -0.27020037279E+02  0.32084385758E+02  0.46455803384E+02  0.00000000000E+00 0.  1.
          2    1    6    6  502    0  0.38368618075E+03  0.71292838912E+03  0.50701187536E+03  0.95527117358E+03  0.00000000000E+00 0. -1.
          3    1    5    5  503    0 -0.66663306365E+02  0.84073200092E+02 -0.20229810476E+03  0.22899087881E+03  0.00000000000E+00 0. -1.
         -4    1    5    5    0  503 -0.26879530213E+02 -0.22350218955E+01 -0.81707224284E+01  0.28182710521E+02  0.00000000000E+00 0.  1.
         -1    1    6    6    0  502  0.62791972941E+02  0.17171960438E+03  0.82334314329E+02  0.20052280098E+03  0.00000000000E+00 0.  1.
<mgrwt>
<rscale>  0 0.24050110E+04</rscale>
<asrwt>0</asrwt>
<pdfrwt beam="1">  1        1 0.26463413E+00 0.24050110E+04</pdfrwt>
<pdfrwt beam="2">  1       -1 0.12933068E+00 0.24050110E+04</pdfrwt>
<totfact> 0.21250585E+00</totfact>
</mgrwt>
</event>
<event>
12    1  0.1494110E-007  0.1974126E+04  0.7818608E-02  0.8618814E-01
         -1   -1    0    0    0  501 -0.00000000000E+00  0.00000000000E+00  0.61331701030E+03  0.61331701030E+03  0.00000000000E+00 0.  1.
          1   -1    0    0  501    0  0.00000000000E+00 -0.00000000000E+00 -0.15885646008E+04  0.15885646008E+04  0.00000000000E+00 0. -1.
         23    2    1    2    0    0 -0.24453489481E+03 -0.34043265981E+03  0.32252509819E+03  0.53682180679E+03  0.91997296930E+02 0.  0.
        254    2    1    2    0    0  0.24453489481E+03  0.34043265981E+03 -0.12977726887E+04  0.16650598043E+04  0.95525833665E+03 0.  0.
        -24    2    4    4    0    0 -0.99195074818E+01  0.22992289769E+03 -0.13495322207E+04  0.13714833990E+04  0.82259124304E+02 0.  0.
         24    2    4    4    0    0  0.25445440229E+03  0.11050976211E+03  0.51759532024E+02  0.29357640528E+03  0.80923458983E+02 0.  0.
         13    1    3    3    0    0 -0.83421443563E+02 -0.15417861119E+03  0.85579844526E+02  0.19507457852E+03  0.00000000000E+00 0. -1.
        -13    1    3    3    0    0 -0.16111345125E+03 -0.18625404861E+03  0.23694525366E+03  0.34174722827E+03  0.00000000000E+00 0.  1.
          4    1    6    6  502    0  0.12572047588E+03  0.12678440941E+02  0.34406310322E+02  0.13095867711E+03  0.00000000000E+00 0. -1.
          3    1    5    5  503    0 -0.16602749326E+01  0.76527942655E+00 -0.16225011012E+03  0.16226040921E+03  0.00000000000E+00 0. -1.
         -4    1    5    5    0  503 -0.82592325492E+01  0.22915761826E+03 -0.11872821106E+04  0.12092229898E+04  0.00000000000E+00 0.  1.
         -1    1    6    6    0  502  0.12873392641E+03  0.97831321174E+02  0.17353221702E+02  0.16261772817E+03  0.00000000000E+00 0.  1.
<mgrwt>
<rscale>  0 0.19741263E+04</rscale>
<asrwt>0</asrwt>
<pdfrwt beam="1">  1        1 0.24439456E+00 0.19741263E+04</pdfrwt>
<pdfrwt beam="2">  1       -1 0.94356462E-01 0.19741263E+04</pdfrwt>
<totfact> 0.57431359E+00</totfact>
</mgrwt>
</event>
<event>
12    1  0.1494110E-007  0.1834114E+04  0.7818608E-02  0.8688365E-01
         -1   -1    0    0    0  501 -0.00000000000E+00  0.00000000000E+00  0.52239240650E+03  0.52239240650E+03  0.00000000000E+00 0.  1.
          1   -1    0    0  501    0  0.00000000000E+00 -0.00000000000E+00 -0.16098888069E+04  0.16098888069E+04  0.00000000000E+00 0. -1.
         23    2    1    2    0    0 -0.19323942359E+03  0.54543789579E+03 -0.86529680277E+03  0.10450030430E+04  0.91917517895E+02 0.  0.
        254    2    1    2    0    0  0.19323942359E+03 -0.54543789579E+03 -0.22219959764E+03  0.10872781704E+04  0.89328449308E+03 0.  0.
        -24    2    4    4    0    0  0.22614981873E+03 -0.55624393746E+03 -0.50654791490E+03  0.78984475557E+03  0.81932224073E+02 0.  0.
         24    2    4    4    0    0 -0.32910395144E+02  0.10806041667E+02  0.28434831727E+03  0.29743341480E+03  0.80079997894E+02 0.  0.
         11    1    3    3    0    0 -0.18828850485E+03  0.52094196274E+03 -0.85318769691E+03  0.10172326852E+04  0.00000000000E+00 0. -1.
        -11    1    3    3    0    0 -0.49509187336E+01  0.24495933047E+02 -0.12109105862E+02  0.27770357883E+02  0.00000000000E+00 0.  1.
          4    1    6    6  502    0 -0.43506493022E+02  0.36422593043E+02  0.15276982961E+03  0.16296638015E+03  0.00000000000E+00 0. -1.
          3    1    5    5  503    0  0.22349827213E+03 -0.54375524863E+03 -0.47498973733E+03  0.75580189112E+03  0.00000000000E+00 0. -1.
         -4    1    5    5    0  503  0.26515466016E+01 -0.12488688825E+02 -0.31558177574E+02  0.34042864447E+02  0.00000000000E+00 0.  1.
         -3    1    6    6    0  502  0.10596097878E+02 -0.25616551377E+02  0.13157848765E+03  0.13446703465E+03  0.00000000000E+00 0.  1.
<mgrwt>
<rscale>  0 0.18341142E+04</rscale>
<asrwt>0</asrwt>
<pdfrwt beam="1">  1        1 0.24767520E+00 0.18341142E+04</pdfrwt>
<pdfrwt beam="2">  1       -1 0.80368064E-01 0.18341142E+04</pdfrwt>
<totfact> 0.79833387E+00</totfact>
</mgrwt>
</event>
<event>
12    1  0.1494110E-007  0.1097814E+04  0.7818608E-02  0.9207325E-01
          2   -1    0    0  501    0  0.00000000000E+00  0.00000000000E+00  0.12177984497E+04  0.12177984497E+04  0.00000000000E+00 0. -1.
         -2   -1    0    0    0  501 -0.00000000000E+00 -0.00000000000E+00 -0.24741264207E+03  0.24741264207E+03  0.00000000000E+00 0.  1.
         23    2    1    2    0    0 -0.84612870941E+00 -0.97861944412E+02  0.32930536309E+03  0.35542940595E+03  0.91161199862E+02 0.  0.
        254    2    1    2    0    0  0.84612870941E+00  0.97861944412E+02  0.64108044459E+03  0.11097816859E+04  0.90058513075E+03 0.  0.
        -24    2    4    4    0    0  0.14706701701E+03  0.43098131839E+03  0.13465681121E+03  0.48140052709E+03  0.78996242824E+02 0.  0.
         24    2    4    4    0    0 -0.14622088830E+03 -0.33311937398E+03  0.50642363338E+03  0.62838115877E+03  0.77774795086E+02 0.  0.
         11    1    3    3    0    0 -0.31296639479E+02 -0.90951187450E+02  0.28808301431E+03  0.30371602077E+03  0.00000000000E+00 0. -1.
        -11    1    3    3    0    0  0.30450510770E+02 -0.69107569626E+01  0.41222348779E+02  0.51713385180E+02  0.00000000000E+00 0.  1.
          4    1    6    6  502    0 -0.66201198419E+02 -0.16800090965E+03  0.18663275621E+03  0.25968960320E+03  0.00000000000E+00 0. -1.
          3    1    5    5  503    0  0.15583293935E+03  0.38922140081E+03  0.12680110541E+03  0.43801338355E+03  0.00000000000E+00 0. -1.
         -4    1    5    5    0  503 -0.87659223389E+01  0.41759917586E+02  0.78557058076E+01  0.43387143545E+02  0.00000000000E+00 0.  1.
         -3    1    6    6    0  502 -0.80019689885E+02 -0.16511846433E+03  0.31979087716E+03  0.36869155557E+03  0.00000000000E+00 0.  1.
<mgrwt>
<rscale>  0 0.10978137E+04</rscale>
<asrwt>0</asrwt>
<pdfrwt beam="1">  1        2 0.18735361E+00 0.10978137E+04</pdfrwt>
<pdfrwt beam="2">  1       -2 0.38063484E-01 0.10978137E+04</pdfrwt>
<totfact> 0.11948072E+02</totfact>
</mgrwt>
</event>
<event>
12    1  0.1494110E-007  0.1892730E+04  0.7818608E-02  0.8658484E-01
          2   -1    0    0  501    0  0.00000000000E+00  0.00000000000E+00  0.13245975844E+04  0.13245975844E+04  0.00000000000E+00 0.  1.
         -2   -1    0    0    0  501 -0.00000000000E+00 -0.00000000000E+00 -0.67613477300E+03  0.67613477300E+03  0.00000000000E+00 0. -1.
         23    2    1    2    0    0  0.74097525359E+02 -0.30884335311E+03 -0.44079894249E+03  0.55090390763E+03  0.91196204551E+02 0.  0.
        254    2    1    2    0    0 -0.74097525359E+02  0.30884335311E+03  0.10892617539E+04  0.14498284498E+04  0.90257227149E+03 0.  0.
        -24    2    4    4    0    0  0.86437624769E+02  0.46570453343E+03  0.18558547287E+03  0.51520218365E+03  0.81480960141E+02 0.  0.
         24    2    4    4    0    0 -0.16053515013E+03 -0.15686118032E+03  0.90367628104E+03  0.93462626614E+03  0.80737055394E+02 0.  0.
         13    1    3    3    0    0  0.71299406959E+02 -0.29710640246E+03 -0.44347914175E+03  0.53854393413E+03  0.00000000000E+00 0. -1.
        -13    1    3    3    0    0  0.27981184000E+01 -0.11736950642E+02  0.26801992631E+01  0.12359973505E+02  0.00000000000E+00 0.  1.
          4    1    6    6  502    0 -0.16496259024E+02 -0.33458284300E+02  0.28772257647E+03  0.29013077114E+03  0.00000000000E+00 0. -1.
          3    1    5    5  503    0  0.10207877514E+03  0.40020659755E+03  0.16533950255E+03  0.44488487068E+03  0.00000000000E+00 0. -1.
         -2    1    5    5    0  503 -0.15641150366E+02  0.65497935878E+02  0.20245970313E+02  0.70317312967E+02  0.00000000000E+00 0.  1.
         -3    1    6    6    0  502 -0.14403889110E+03 -0.12340289602E+03  0.61595370457E+03  0.64449549500E+03  0.00000000000E+00 0.  1.
<mgrwt>
<rscale>  0 0.18927298E+04</rscale>
<asrwt>0</asrwt>
<pdfrwt beam="1">  1        2 0.20378424E+00 0.18927298E+04</pdfrwt>
<pdfrwt beam="2">  1       -2 0.10402073E+00 0.18927298E+04</pdfrwt>
<totfact> 0.11270681E+01</totfact>
</mgrwt>
</event>
<event>
12    1  0.1494110E-007  0.1409087E+04  0.7818608E-02  0.8947267E-01
          1   -1    0    0  501    0  0.00000000000E+00  0.00000000000E+00  0.92238078513E+03  0.92238078513E+03  0.00000000000E+00 0. -1.
         -1   -1    0    0    0  501 -0.00000000000E+00 -0.00000000000E+00 -0.53815287936E+03  0.53815287936E+03  0.00000000000E+00 0.  1.
         23    2    1    2    0    0 -0.96784795778E+02  0.28803311486E+03 -0.16234013556E+03  0.35635665902E+03  0.91133840395E+02 0.  0.
        254    2    1    2    0    0  0.96784795778E+02 -0.28803311486E+03  0.54656804134E+03  0.11041770055E+04  0.91002190284E+03 0.  0.
        -24    2    4    4    0    0 -0.30223671419E+03  0.12782685796E+03  0.59147819328E+02  0.34525679370E+03  0.89537992190E+02 0.  0.
         24    2    4    4    0    0  0.39902150997E+03 -0.41585997282E+03  0.48742022201E+03  0.75892021177E+03  0.78890636907E+02 0.  0.
         11    1    3    3    0    0 -0.42872953329E+02  0.31484496683E+02 -0.13418502090E+02  0.54858179489E+02  0.00000000000E+00 0. -1.
        -11    1    3    3    0    0 -0.53911842450E+02  0.25654861817E+03 -0.14892163347E+03  0.30149847953E+03  0.00000000000E+00 0.  1.
          2    1    6    6  502    0  0.39713490304E+03 -0.41944334177E+03  0.48333165442E+03  0.75316554377E+03  0.00000000000E+00 0. -1.
          1    1    5    5  503    0 -0.29750911687E+03  0.10414592806E+03  0.48723262735E+02  0.31895455050E+03  0.00000000000E+00 0. -1.
         -2    1    5    5    0  503 -0.47275973197E+01  0.23680929899E+02  0.10424556593E+02  0.26302243202E+02  0.00000000000E+00 0.  1.
         -1    1    6    6    0  502  0.18866069316E+01  0.35833689503E+01  0.40885675933E+01  0.57546679933E+01  0.00000000000E+00 0.  1.
<mgrwt>
<rscale>  0 0.14090875E+04</rscale>
<asrwt>0</asrwt>
<pdfrwt beam="1">  1        1 0.14190474E+00 0.14090875E+04</pdfrwt>
<pdfrwt beam="2">  1       -1 0.82792751E-01 0.14090875E+04</pdfrwt>
<totfact> 0.24644602E+01</totfact>
</mgrwt>
</event>
<event>
12    1  0.1494110E-007  0.1437736E+04  0.7818608E-02  0.8926947E-01
          2   -1    0    0  501    0  0.00000000000E+00  0.00000000000E+00  0.10552868308E+04  0.10552868308E+04  0.00000000000E+00 0. -1.
         -2   -1    0    0    0  501 -0.00000000000E+00 -0.00000000000E+00 -0.48969747380E+03  0.48969747380E+03  0.00000000000E+00 0.  1.
         23    2    1    2    0    0  0.22206733116E+02  0.14169907802E+03  0.61406289748E+03  0.63912792972E+03  0.10411292319E+03 0.  0.
        254    2    1    2    0    0 -0.22206733116E+02 -0.14169907802E+03 -0.48473540506E+02  0.90585637485E+03  0.89311495342E+03 0.  0.
        -24    2    4    4    0    0 -0.22230487324E+03 -0.44685091967E+03  0.79375467706E+02  0.51129387144E+03  0.77625749774E+02 0.  0.
         24    2    4    4    0    0  0.20009814013E+03  0.30515184164E+03 -0.12784900821E+03  0.39456250340E+03  0.78595725386E+02 0.  0.
         11    1    3    3    0    0  0.55420099247E+02  0.45715638679E+02  0.19157004173E+03  0.20459811316E+03  0.00000000000E+00 0.  1.
        -11    1    3    3    0    0 -0.33213366131E+02  0.95983439343E+02  0.42249285575E+03  0.43452981656E+03  0.00000000000E+00 0. -1.
          2    1    6    6  502    0  0.17131840363E+03  0.29667440126E+03 -0.11082360045E+03  0.36006605811E+03  0.00000000000E+00 0. -1.
          3    1    5    5  503    0 -0.13945743777E+03 -0.29668178478E+03  0.15207261903E+02  0.32817635379E+03  0.00000000000E+00 0. -1.
         -4    1    5    5    0  503 -0.82847435475E+02 -0.15016913488E+03  0.64168205803E+02  0.18311751765E+03  0.00000000000E+00 0.  1.
         -1    1    6    6    0  502  0.28779736498E+02  0.84774403832E+01 -0.17025407764E+02  0.34496445294E+02  0.00000000000E+00 0.  1.
<mgrwt>
<rscale>  0 0.14377361E+04</rscale>
<asrwt>0</asrwt>
<pdfrwt beam="1">  1        2 0.16235182E+00 0.14377361E+04</pdfrwt>
<pdfrwt beam="2">  1       -2 0.75338073E-01 0.14377361E+04</pdfrwt>
<totfact> 0.35654501E+01</totfact>
</mgrwt>
</event>
<event>
12    1  0.1893916E-007  0.2276619E+04  0.7818608E-02  0.8487197E-01
          1   -1    0    0  501    0  0.00000000000E+00  0.00000000000E+00  0.10853229245E+04  0.10853229245E+04  0.00000000000E+00 0. -1.
         -1   -1    0    0    0  501 -0.00000000000E+00 -0.00000000000E+00 -0.11938825337E+04  0.11938825337E+04  0.00000000000E+00 0.  1.
         23    2    1    2    0    0 -0.33731948141E+03 -0.19941332706E+03  0.80679217846E+03  0.90153703935E+03  0.91133454616E+02 0.  0.
        254    2    1    2    0    0  0.33731948141E+03  0.19941332706E+03 -0.91535178767E+03  0.13776684188E+04  0.95212985953E+03 0.  0.
        -24    2    4    4    0    0  0.53145936103E+03  0.45144863771E+03 -0.62154454536E+03  0.93722481221E+03  0.76274516308E+02 0.  0.
         24    2    4    4    0    0 -0.19413987962E+03 -0.25203531064E+03 -0.29380724231E+03  0.44044360660E+03  0.80347895360E+02 0.  0.
         13    1    3    3    0    0 -0.26444695353E+03 -0.16885844160E+03  0.71241441638E+03  0.77844695721E+03  0.00000000000E+00 0. -1.
        -13    1    3    3    0    0 -0.72872527884E+02 -0.30554885464E+02  0.94377762087E+02  0.12309008215E+03  0.00000000000E+00 0.  1.
          2    1    6    6  502    0 -0.20872529053E+02  0.15125274334E+01 -0.21543255046E+02  0.30034347776E+02  0.00000000000E+00 0. -1.
          3    1    5    5  503    0  0.53604928005E+02  0.19224065894E+02 -0.56734282355E+02  0.80385519904E+02  0.00000000000E+00 0. -1.
         -4    1    5    5    0  503  0.47785443302E+03  0.43222457181E+03 -0.56481026301E+03  0.85683929230E+03  0.00000000000E+00 0.  1.
         -1    1    6    6    0  502 -0.17326735056E+03 -0.25354783808E+03 -0.27226398727E+03  0.41040925882E+03  0.00000000000E+00 0.  1.
<mgrwt>
<rscale>  0 0.22766186E+04</rscale>
<asrwt>0</asrwt>
<pdfrwt beam="1">  1        1 0.16697276E+00 0.22766186E+04</pdfrwt>
<pdfrwt beam="2">  1       -1 0.18367423E+00 0.22766186E+04</pdfrwt>
<totfact> 0.23076190E+00</totfact>
</mgrwt>
</event>
<event>
12    1  0.1494110E-007  0.1806637E+04  0.7818608E-02  0.8702778E-01
         -1   -1    0    0    0  501 -0.00000000000E+00  0.00000000000E+00  0.27650350684E+03  0.27650350684E+03  0.00000000000E+00 0.  1.
          1   -1    0    0  501    0  0.00000000000E+00 -0.00000000000E+00 -0.29510806886E+04  0.29510806886E+04  0.00000000000E+00 0. -1.
         23    2    1    2    0    0 -0.64906388809E+03  0.15144356659E+03 -0.11933944712E+04  0.13699011282E+04  0.90662298933E+02 0.  0.
        254    2    1    2    0    0  0.64906388809E+03 -0.15144356659E+03 -0.14811827105E+04  0.18576830672E+04  0.90159030139E+03 0.  0.
        -24    2    4    4    0    0  0.71801384925E+03 -0.12841493343E+02 -0.54517228400E+03  0.90560311102E+03  0.84825608046E+02 0.  0.
         24    2    4    4    0    0 -0.68949961159E+02 -0.13860207325E+03 -0.93601042654E+03  0.95207995620E+03  0.79850438700E+02 0.  0.
         13    1    3    3    0    0 -0.55237114771E+03  0.11475623942E+03 -0.10633997583E+04  0.12037864949E+04  0.00000000000E+00 0. -1.
        -13    1    3    3    0    0 -0.96692740378E+02  0.36687327168E+02 -0.12999471287E+03  0.16611463328E+03  0.00000000000E+00 0.  1.
          2    1    6    6  502    0 -0.84568222571E+02 -0.92322148261E+02 -0.69021475635E+03  0.70147813452E+03  0.00000000000E+00 0. -1.
          3    1    5    5  503    0  0.68140646290E+03 -0.77902040018E+01 -0.49053770746E+03  0.83964438747E+03  0.00000000000E+00 0. -1.
         -4    1    5    5    0  503  0.36607386346E+02 -0.50512893412E+01 -0.54634576534E+02  0.65958723549E+02  0.00000000000E+00 0.  1.
         -1    1    6    6    0  502  0.15618261411E+02 -0.46279924986E+02 -0.24579567018E+03  0.25060182168E+03  0.00000000000E+00 0.  1.
<mgrwt>
<rscale>  0 0.18066368E+04</rscale>
<asrwt>0</asrwt>
<pdfrwt beam="1">  1        1 0.45401241E+00 0.18066368E+04</pdfrwt>
<pdfrwt beam="2">  1       -1 0.42539002E-01 0.18066368E+04</pdfrwt>
<totfact> 0.33369191E+00</totfact>
</mgrwt>
</event>
<event>
12    1  0.1494110E-007  0.1358809E+04  0.7818608E-02  0.8984187E-01
         -1   -1    0    0    0  501 -0.00000000000E+00  0.00000000000E+00  0.41736648005E+03  0.41736648005E+03  0.00000000000E+00 0.  1.
          1   -1    0    0  501    0  0.00000000000E+00 -0.00000000000E+00 -0.11059589830E+04  0.11059589830E+04  0.00000000000E+00 0. -1.
         23    2    1    2    0    0  0.12635453111E+03  0.15863711955E+03  0.15449598218E+03  0.27333777462E+03  0.98556213855E+02 0.  0.
        254    2    1    2    0    0 -0.12635453111E+03 -0.15863711955E+03 -0.84308848515E+03  0.12499876884E+04  0.90029985240E+03 0.  0.
        -24    2    4    4    0    0  0.22403920470E+03 -0.84001694103E+02 -0.84640543781E+03  0.88321292690E+03  0.80081578569E+02 0.  0.
         24    2    4    4    0    0 -0.35039373582E+03 -0.74635425444E+02  0.33169526631E+01  0.36677476154E+03  0.78527108045E+02 0.  0.
         13    1    3    3    0    0  0.13233138760E+02  0.82660719776E+02  0.30491514113E+02  0.89093450871E+02  0.00000000000E+00 0. -1.
        -13    1    3    3    0    0  0.11312139235E+03  0.75976399772E+02  0.12400446807E+03  0.18424432374E+03  0.00000000000E+00 0.  1.
          2    1    6    6  502    0 -0.21303451721E+03 -0.19350677127E+02 -0.27081843074E+02  0.21561906329E+03  0.00000000000E+00 0. -1.
          1    1    5    5  503    0  0.13423256713E+03 -0.59695735260E+02 -0.37570499498E+03  0.40340575869E+03  0.00000000000E+00 0. -1.
         -2    1    5    5    0  503  0.89806637573E+02 -0.24305958844E+02 -0.47070044283E+03  0.47980716821E+03  0.00000000000E+00 0.  1.
         -1    1    6    6    0  502 -0.13735921861E+03 -0.55284748317E+02  0.30398795737E+02  0.15115569825E+03  0.00000000000E+00 0.  1.
<mgrwt>
<rscale>  0 0.13588086E+04</rscale>
<asrwt>0</asrwt>
<pdfrwt beam="1">  1        1 0.17014753E+00 0.13588086E+04</pdfrwt>
<pdfrwt beam="2">  1       -1 0.64210230E-01 0.13588086E+04</pdfrwt>
<totfact> 0.30191276E+01</totfact>
</mgrwt>
</event>
<event>
12    1  0.1494110E-007  0.2889454E+04  0.7818608E-02  0.8276022E-01
          2   -1    0    0  501    0  0.00000000000E+00  0.00000000000E+00  0.10713285050E+04  0.10713285050E+04  0.00000000000E+00 0. -1.
         -2   -1    0    0    0  501 -0.00000000000E+00 -0.00000000000E+00 -0.19482691193E+04  0.19482691193E+04  0.00000000000E+00 0.  1.
         23    2    1    2    0    0  0.10094330182E+04  0.86911872138E+02 -0.12546030586E+04  0.16145527622E+04  0.79013261710E+02 0.  0.
        254    2    1    2    0    0 -0.10094330182E+04 -0.86911872138E+02  0.37766244420E+03  0.14050448621E+04  0.89722541825E+03 0.  0.
        -24    2    4    4    0    0 -0.11196952924E+04 -0.45030846133E+02  0.48812710839E+03  0.12247378875E+04  0.77262502222E+02 0.  0.
         24    2    4    4    0    0  0.11026227420E+03 -0.41881026005E+02 -0.11046466420E+03  0.18030697463E+03  0.79977331868E+02 0.  0.
         13    1    3    3    0    0  0.34917081902E+03  0.65182897766E+02 -0.46102606029E+03  0.58199149417E+03  0.00000000000E+00 0. -1.
        -13    1    3    3    0    0  0.66026219917E+03  0.21728974372E+02 -0.79357699827E+03  0.10325612680E+04  0.00000000000E+00 0.  1.
          4    1    6    6  502    0  0.85461186933E+02 -0.64333711192E+02 -0.96464088060E+02  0.14404083155E+03  0.00000000000E+00 0. -1.
          1    1    5    5  503    0 -0.84273958460E+03 -0.34901661574E+02  0.33046405449E+03  0.90588885894E+03  0.00000000000E+00 0. -1.
         -2    1    5    5    0  503 -0.27695570780E+03 -0.10129184559E+02  0.15766305390E+03  0.31884902858E+03  0.00000000000E+00 0.  1.
         -3    1    6    6    0  502  0.24801087272E+02  0.22452685188E+02 -0.14000576136E+02  0.36266143083E+02  0.00000000000E+00 0.  1.
<mgrwt>
<rscale>  0 0.28894541E+04</rscale>
<asrwt>0</asrwt>
<pdfrwt beam="1">  1        2 0.16481977E+00 0.28894541E+04</pdfrwt>
<pdfrwt beam="2">  1       -2 0.29973371E+00 0.28894541E+04</pdfrwt>
<totfact> 0.62549925E-01</totfact>
</mgrwt>
</event>
<event>
12    1  0.1494110E-007  0.1087071E+04  0.7818608E-02  0.9217886E-01
         -2   -1    0    0    0  501 -0.00000000000E+00  0.00000000000E+00  0.16061346140E+03  0.16061346140E+03  0.00000000000E+00 0. -1.
          2   -1    0    0  501    0  0.00000000000E+00 -0.00000000000E+00 -0.18393909376E+04  0.18393909376E+04  0.00000000000E+00 0.  1.
         23    2    1    2    0    0  0.95367161170E+02  0.19526789996E+02 -0.52009680241E+02  0.14238967155E+03  0.89964552848E+02 0.  0.
        254    2    1    2    0    0 -0.95367161170E+02 -0.19526789996E+02 -0.16267677960E+04  0.18576147274E+04  0.89156201281E+03 0.  0.
        -24    2    4    4    0    0 -0.22765411959E+03  0.20102613841E+03 -0.13390331013E+03  0.34056265163E+03  0.76255601304E+02 0.  0.
         24    2    4    4    0    0  0.13228695842E+03 -0.22055292841E+03 -0.14928644858E+04  0.15170520758E+04  0.81603885268E+02 0.  0.
         11    1    3    3    0    0  0.73423148051E+02  0.46641006053E+02 -0.61152863922E+02  0.10632974598E+03  0.00000000000E+00 0. -1.
        -11    1    3    3    0    0  0.21944013119E+02 -0.27114216057E+02  0.91431836812E+01  0.36059925568E+02  0.00000000000E+00 0.  1.
          4    1    6    6  502    0  0.33276983430E+02 -0.31418183618E+02 -0.13594297856E+03  0.14343972012E+03  0.00000000000E+00 0. -1.
          3    1    5    5  503    0 -0.49711101649E+02  0.71248848157E+02 -0.89287785911E+01  0.87334501075E+02  0.00000000000E+00 0. -1.
         -4    1    5    5    0  503 -0.17794301794E+03  0.12977729025E+03 -0.12497453154E+03  0.25322815055E+03  0.00000000000E+00 0.  1.
         -3    1    6    6    0  502  0.99009974988E+02 -0.18913474479E+03 -0.13569215073E+04  0.13736123557E+04  0.00000000000E+00 0.  1.
<mgrwt>
<rscale>  0 0.10870712E+04</rscale>
<asrwt>0</asrwt>
<pdfrwt beam="1">  1        2 0.28298323E+00 0.10870712E+04</pdfrwt>
<pdfrwt beam="2">  1       -2 0.24709763E-01 0.10870712E+04</pdfrwt>
<totfact> 0.11957285E+02</totfact>
</mgrwt>
</event>
<event>
12    1  0.1545328E-007  0.1523322E+04  0.7818608E-02  0.8869091E-01
          1   -1    0    0  501    0  0.00000000000E+00  0.00000000000E+00  0.88454361101E+03  0.88454361101E+03  0.00000000000E+00 0. -1.
         -1   -1    0    0    0  501 -0.00000000000E+00 -0.00000000000E+00 -0.65584926952E+03  0.65584926952E+03  0.00000000000E+00 0.  1.
         23    2    1    2    0    0 -0.44474828164E+03 -0.70724823686E+02  0.26162235930E+03  0.52884649183E+03  0.91811319181E+02 0.  0.
        254    2    1    2    0    0  0.44474828164E+03  0.70724823686E+02 -0.32928017815E+02  0.10115463887E+04  0.90517335766E+03 0.  0.
        -24    2    4    4    0    0 -0.16291434614E+03  0.29931915460E+03  0.44489435360E+02  0.35284411992E+03  0.79916347626E+02 0.  0.
         24    2    4    4    0    0  0.60766262777E+03 -0.22859433091E+03 -0.77417453174E+02  0.65870226878E+03  0.79912323943E+02 0.  0.
         11    1    3    3    0    0 -0.42239273234E+03 -0.51506089663E+02  0.26133499932E+03  0.49936407507E+03  0.00000000000E+00 0. -1.
        -11    1    3    3    0    0 -0.22355549300E+02 -0.19218734023E+02  0.28735997711E+00  0.29482416755E+02  0.00000000000E+00 0.  1.
          2    1    6    6  502    0  0.54938761030E+03 -0.21402206374E+03 -0.92381992998E+02  0.59679696945E+03  0.00000000000E+00 0. -1.
          1    1    5    5  503    0 -0.14260775010E+03  0.26826703662E+03  0.12857639882E+02  0.30408796791E+03  0.00000000000E+00 0. -1.
         -2    1    5    5    0  503 -0.20306596035E+02  0.31052117976E+02  0.31631795478E+02  0.48756152006E+02  0.00000000000E+00 0.  1.
         -1    1    6    6    0  502  0.58275017475E+02 -0.14572267165E+02  0.14964539824E+02  0.61905299322E+02  0.00000000000E+00 0.  1.
<mgrwt>
<rscale>  0 0.15233217E+04</rscale>
<asrwt>0</asrwt>
<pdfrwt beam="1">  1        1 0.13608363E+00 0.15233217E+04</pdfrwt>
<pdfrwt beam="2">  1       -1 0.10089989E+00 0.15233217E+04</pdfrwt>
<totfact> 0.16898523E+01</totfact>
</mgrwt>
</event>
<event>
12    1  0.1494110E-007  0.1201998E+04  0.7818608E-02  0.9111109E-01
          2   -1    0    0  501    0  0.00000000000E+00  0.00000000000E+00  0.15701687715E+04  0.15701687715E+04  0.00000000000E+00 0. -1.
         -2   -1    0    0    0  501 -0.00000000000E+00 -0.00000000000E+00 -0.23003896119E+03  0.23003896119E+03  0.00000000000E+00 0.  1.
         23    2    1    2    0    0  0.21532534669E+03  0.35396175612E+02  0.19087265883E+03  0.30401509878E+03  0.91514557420E+02 0.  0.
        254    2    1    2    0    0 -0.21532534669E+03 -0.35396175612E+02  0.11492571515E+04  0.14961926340E+04  0.93283573227E+03 0.  0.
        -24    2    4    4    0    0  0.24648667354E+03  0.28871202146E+03  0.44001713805E+03  0.58655991768E+03  0.79543344659E+02 0.  0.
         24    2    4    4    0    0 -0.46181202023E+03 -0.32410819707E+03  0.70924001348E+03  0.90963271628E+03  0.78062900060E+02 0.  0.
         13    1    3    3    0    0  0.68074552011E+02  0.31657328353E+02  0.11754394168E+03  0.13947368675E+03  0.00000000000E+00 0. -1.
        -13    1    3    3    0    0  0.14725079468E+03  0.37388472588E+01  0.73328717150E+02  0.16454141202E+03  0.00000000000E+00 0.  1.
          2    1    6    6  502    0 -0.37333747227E+03 -0.29567816974E+03  0.60568261031E+03  0.77049196796E+03  0.00000000000E+00 0. -1.
          1    1    5    5  503    0  0.98669826203E+02  0.17299986744E+03  0.24732653898E+03  0.31754543867E+03  0.00000000000E+00 0. -1.
         -2    1    5    5    0  503  0.14781684734E+03  0.11571215402E+03  0.19269059907E+03  0.26901447900E+03  0.00000000000E+00 0.  1.
         -1    1    6    6    0  502 -0.88474547959E+02 -0.28430027330E+02  0.10355740317E+03  0.13914074831E+03  0.00000000000E+00 0.  1.
<mgrwt>
<rscale>  0 0.12019983E+04</rscale>
<asrwt>0</asrwt>
<pdfrwt beam="1">  1        2 0.24156442E+00 0.12019983E+04</pdfrwt>
<pdfrwt beam="2">  1       -2 0.35390610E-01 0.12019983E+04</pdfrwt>
<totfact> 0.85713517E+01</totfact>
</mgrwt>
</event>
<event>
12    1  0.1494110E-007  0.1941365E+04  0.7818608E-02  0.8634536E-01
         -2   -1    0    0    0  501 -0.00000000000E+00  0.00000000000E+00  0.31761162354E+03  0.31761162354E+03  0.00000000000E+00 0.  1.
          2   -1    0    0  501    0  0.00000000000E+00 -0.00000000000E+00 -0.29665932022E+04  0.29665932022E+04  0.00000000000E+00 0. -1.
         23    2    1    2    0    0  0.57699756523E+02 -0.34431170813E+03  0.96056455384E+02  0.37368695562E+03  0.92386600321E+02 0.  0.
        254    2    1    2    0    0 -0.57699756523E+02  0.34431170813E+03 -0.27450380341E+04  0.29105178702E+04  0.90221984554E+03 0.  0.
        -24    2    4    4    0    0 -0.41654809373E+03  0.69500628595E+02 -0.76016611217E+03  0.87318861301E+03  0.79140280750E+02 0.  0.
         24    2    4    4    0    0  0.35884833720E+03  0.27481107953E+03 -0.19848719219E+04  0.20373292571E+04  0.81857785719E+02 0.  0.
         13    1    3    3    0    0 -0.37760060697E+01 -0.23963797123E+03  0.67261462791E+02  0.24892713764E+03  0.00000000000E+00 0. -1.
        -13    1    3    3    0    0  0.61475762593E+02 -0.10467373690E+03  0.28794992593E+02  0.12475981797E+03  0.00000000000E+00 0.  1.
          4    1    6    6  502    0  0.50668096112E+02  0.79928348775E+02 -0.39413711246E+03  0.40533919169E+03  0.00000000000E+00 0. -1.
          1    1    5    5  503    0 -0.99292742153E+02  0.45656834104E+02 -0.23501735742E+03  0.25918478627E+03  0.00000000000E+00 0. -1.
         -2    1    5    5    0  503 -0.31725535157E+03  0.23843794492E+02 -0.52514875475E+03  0.61400382674E+03  0.00000000000E+00 0.  1.
         -3    1    6    6    0  502  0.30818024109E+03  0.19488273076E+03 -0.15907348094E+04  0.16319900655E+04  0.00000000000E+00 0.  1.
<mgrwt>
<rscale>  0 0.19413650E+04</rscale>
<asrwt>0</asrwt>
<pdfrwt beam="1">  1        2 0.45639895E+00 0.19413650E+04</pdfrwt>
<pdfrwt beam="2">  1       -2 0.48863327E-01 0.19413650E+04</pdfrwt>
<totfact> 0.67810099E+00</totfact>
</mgrwt>
</event>
<event>
12    1  0.1494110E-007  0.1696400E+04  0.7818608E-02  0.8763420E-01
          2   -1    0    0  501    0  0.00000000000E+00  0.00000000000E+00  0.19126513374E+04  0.19126513374E+04  0.00000000000E+00 0. -1.
         -2   -1    0    0    0  501 -0.00000000000E+00 -0.00000000000E+00 -0.37614989692E+03  0.37614989692E+03  0.00000000000E+00 0.  1.
         23    2    1    2    0    0  0.43109703317E+03 -0.24275591325E+03  0.10178879767E+04  0.11359348519E+04  0.97349726634E+02 0.  0.
        254    2    1    2    0    0 -0.43109703317E+03  0.24275591325E+03  0.51861346378E+03  0.11528663824E+04  0.90297612671E+03 0.  0.
        -24    2    4    4    0    0 -0.18454952730E+03 -0.29772662219E+03  0.40851909006E+03  0.54391104572E+03  0.79067750204E+02 0.  0.
         24    2    4    4    0    0 -0.24654750587E+03  0.54048253544E+03  0.11009437372E+03  0.60895533667E+03  0.76149768041E+02 0.  0.
         13    1    3    3    0    0  0.21076025447E+03 -0.13295013336E+03  0.40591164655E+03  0.47629810794E+03  0.00000000000E+00 0.  1.
        -13    1    3    3    0    0  0.22033677870E+03 -0.10980577990E+03  0.61197633016E+03  0.65963674399E+03  0.00000000000E+00 0. -1.
          4    1    6    6  502    0 -0.16840412752E+03  0.39319452811E+03  0.45527638248E+02  0.43015654470E+03  0.00000000000E+00 0. -1.
          3    1    5    5  503    0 -0.15581449447E+03 -0.25122299795E+03  0.29355547751E+03  0.41661249353E+03  0.00000000000E+00 0. -1.
         -4    1    5    5    0  503 -0.28735032832E+02 -0.46503624234E+02  0.11496361255E+03  0.12729855219E+03  0.00000000000E+00 0.  1.
         -1    1    6    6    0  502 -0.78143378346E+02  0.14728800733E+03  0.64566735467E+02  0.17879879197E+03  0.00000000000E+00 0.  1.
<mgrwt>
<rscale>  0 0.16964004E+04</rscale>
<asrwt>0</asrwt>
<pdfrwt beam="1">  1        2 0.29425405E+00 0.16964004E+04</pdfrwt>
<pdfrwt beam="2">  1       -2 0.57869216E-01 0.16964004E+04</pdfrwt>
<totfact> 0.19878462E+01</totfact>
</mgrwt>
</event>
<event>
12    1  0.1494110E-007  0.2090381E+04  0.7818608E-02  0.8565493E-01
         -1   -1    0    0    0  501 -0.00000000000E+00  0.00000000000E+00  0.20515898667E+04  0.20515898667E+04  0.00000000000E+00 0.  1.
          1   -1    0    0  501    0  0.00000000000E+00 -0.00000000000E+00 -0.53247629701E+03  0.53247629701E+03  0.00000000000E+00 0. -1.
         23    2    1    2    0    0  0.50264861056E+03  0.61819840008E+03  0.26477773391E+03  0.84440216853E+03  0.89904873538E+02 0.  0.
        254    2    1    2    0    0 -0.50264861056E+03 -0.61819840008E+03  0.12543358358E+04  0.17396639952E+04  0.90457036194E+03 0.  0.
        -24    2    4    4    0    0 -0.62506142983E+03 -0.53390649084E+03  0.13211865447E+04  0.15580869704E+04  0.79644142131E+02 0.  0.
         24    2    4    4    0    0  0.12241281927E+03 -0.84291909240E+02 -0.66850708852E+02  0.18157702486E+03  0.80069809530E+02 0.  0.
         13    1    3    3    0    0  0.20605600333E+03  0.20807878135E+03  0.13156166431E+03  0.32103633326E+03  0.00000000000E+00 0.  1.
        -13    1    3    3    0    0  0.29659260723E+03  0.41011961873E+03  0.13321606961E+03  0.52336583527E+03  0.00000000000E+00 0. -1.
          2    1    6    6  502    0  0.22142428641E+02 -0.48132754778E+02 -0.51498712589E+02  0.73886173449E+02  0.00000000000E+00 0. -1.
          3    1    5    5  503    0 -0.49860795868E+03 -0.45367530544E+03  0.11210540261E+04  0.13081258765E+04  0.00000000000E+00 0. -1.
         -4    1    5    5    0  503 -0.12645347115E+03 -0.80231185399E+02  0.20013251857E+03  0.24996109390E+03  0.00000000000E+00 0.  1.
         -1    1    6    6    0  502  0.10027039063E+03 -0.36159154462E+02 -0.15351996263E+02  0.10769085141E+03  0.00000000000E+00 0.  1.
<mgrwt>
<rscale>  0 0.20903808E+04</rscale>
<asrwt>0</asrwt>
<pdfrwt beam="1">  1        1 0.81919432E-01 0.20903808E+04</pdfrwt>
<pdfrwt beam="2">  1       -1 0.31562921E+00 0.20903808E+04</pdfrwt>
<totfact> 0.97748129E-01</totfact>
</mgrwt>
</event>
<event>
12    1  0.1494110E-007  0.1423413E+04  0.7818608E-02  0.8937043E-01
         -2   -1    0    0    0  501 -0.00000000000E+00  0.00000000000E+00  0.25705208644E+03  0.25705208644E+03  0.00000000000E+00 0.  1.
          2   -1    0    0  501    0  0.00000000000E+00 -0.00000000000E+00 -0.19705185192E+04  0.19705185192E+04  0.00000000000E+00 0. -1.
         23    2    1    2    0    0 -0.31316837994E+02 -0.41745946282E+03 -0.67250432317E+03  0.79732970553E+03  0.90661166966E+02 0.  0.
        254    2    1    2    0    0  0.31316837994E+02  0.41745946282E+03 -0.10409621096E+04  0.14302409001E+04  0.88698014144E+03 0.  0.
        -24    2    4    4    0    0  0.24970500235E+03  0.14583296350E+03 -0.10294588984E+04  0.10724991041E+04  0.82757859551E+02 0.  0.
         24    2    4    4    0    0 -0.21838816436E+03  0.27162649932E+03 -0.11503211147E+02  0.35774179599E+03  0.79828085706E+02 0.  0.
         13    1    3    3    0    0 -0.15943916380E+02 -0.38276444426E+03 -0.55920753477E+03  0.67784651302E+03  0.00000000000E+00 0. -1.
        -13    1    3    3    0    0 -0.15372921613E+02 -0.34695018553E+02 -0.11329678840E+03  0.11948319251E+03  0.00000000000E+00 0.  1.
          4    1    6    6  502    0 -0.18592924004E+03  0.19518394763E+03  0.16572231373E+02  0.27007609032E+03  0.00000000000E+00 0. -1.
          3    1    5    5  503    0  0.11936037746E+03  0.10295159327E+03 -0.44318922292E+03  0.47038560519E+03  0.00000000000E+00 0. -1.
         -4    1    5    5    0  503  0.13034462489E+03  0.42881370232E+02 -0.58626967552E+03  0.60211349892E+03  0.00000000000E+00 0.  1.
         -3    1    6    6    0  502 -0.32458924320E+02  0.76442551690E+02 -0.28075442520E+02  0.87665705665E+02  0.00000000000E+00 0.  1.
<mgrwt>
<rscale>  0 0.14234127E+04</rscale>
<asrwt>0</asrwt>
<pdfrwt beam="1">  1        2 0.30315670E+00 0.14234127E+04</pdfrwt>
<pdfrwt beam="2">  1       -2 0.39546474E-01 0.14234127E+04</pdfrwt>
<totfact> 0.40791472E+01</totfact>
</mgrwt>
</event>
<event>
12    1  0.1494110E-007  0.1316651E+04  0.7818608E-02  0.9016464E-01
          1   -1    0    0  501    0  0.00000000000E+00  0.00000000000E+00  0.23175681589E+04  0.23175681589E+04  0.00000000000E+00 0. -1.
         -1   -1    0    0    0  501 -0.00000000000E+00 -0.00000000000E+00 -0.18700319663E+03  0.18700319663E+03  0.00000000000E+00 0.  1.
         23    2    1    2    0    0 -0.19440261917E+03  0.11651370963E+03  0.85936435878E+02  0.25831181237E+03  0.89286608882E+02 0.  0.
        254    2    1    2    0    0  0.19440261917E+03 -0.11651370963E+03  0.20446285264E+04  0.22462595432E+04  0.90211324201E+03 0.  0.
        -24    2    4    4    0    0  0.44372745389E+03 -0.23876519326E+02  0.18574666101E+04  0.19115217916E+04  0.79178346947E+02 0.  0.
         24    2    4    4    0    0 -0.24932483472E+03 -0.92637190304E+02  0.18716191635E+03  0.33473775161E+03  0.79216520895E+02 0.  0.
         13    1    3    3    0    0 -0.10137270965E+03  0.31032706265E+02  0.90000491144E+00  0.10602011662E+03  0.00000000000E+00 0. -1.
        -13    1    3    3    0    0 -0.93029909520E+02  0.85481003364E+02  0.85036430967E+02  0.15229169575E+03  0.00000000000E+00 0.  1.
          4    1    6    6  502    0 -0.19943594774E+03 -0.86304940548E+02  0.18331443296E+03  0.28430163796E+03  0.00000000000E+00 0. -1.
          3    1    5    5  503    0  0.44181165553E+03 -0.27936248742E+02  0.18531523540E+04  0.19052956779E+04  0.00000000000E+00 0. -1.
         -4    1    5    5    0  503  0.19157983634E+01  0.40597294165E+01  0.43142560186E+01  0.62261136593E+01  0.00000000000E+00 0.  1.
         -3    1    6    6    0  502 -0.49888886988E+02 -0.63322497555E+01  0.38474833863E+01  0.50436113651E+02  0.00000000000E+00 0.  1.
<mgrwt>
<rscale>  0 0.13166513E+04</rscale>
<asrwt>0</asrwt>
<pdfrwt beam="1">  1        1 0.35654893E+00 0.13166513E+04</pdfrwt>
<pdfrwt beam="2">  1       -1 0.28769724E-01 0.13166513E+04</pdfrwt>
<totfact> 0.19566230E+01</totfact>
</mgrwt>
</event>
<event>
12    1  0.1494110E-007  0.1240215E+04  0.7818608E-02  0.9078367E-01
          2   -1    0    0  501    0  0.00000000000E+00  0.00000000000E+00  0.56227991267E+03  0.56227991267E+03  0.00000000000E+00 0. -1.
         -2   -1    0    0    0  501 -0.00000000000E+00 -0.00000000000E+00 -0.68388246224E+03  0.68388246224E+03  0.00000000000E+00 0.  1.
         23    2    1    2    0    0  0.13717511439E+03  0.41887270517E+02 -0.29992609304E+03  0.34462640047E+03  0.90775212336E+02 0.  0.
        254    2    1    2    0    0 -0.13717511439E+03 -0.41887270517E+02  0.17832354347E+03  0.90153597444E+03  0.87200703645E+03 0.  0.
        -24    2    4    4    0    0  0.27116566821E+03  0.20379011120E+03 -0.74634842843E+02  0.35622772208E+03  0.79161866934E+02 0.  0.
         24    2    4    4    0    0 -0.40834078259E+03 -0.24567738171E+03  0.25295838631E+03  0.54530825236E+03  0.79205897992E+02 0.  0.
         11    1    3    3    0    0  0.95533768902E+02  0.69652335538E+00 -0.25010810977E+03  0.26773354798E+03  0.00000000000E+00 0. -1.
        -11    1    3    3    0    0  0.41641345484E+02  0.41190747162E+02 -0.49817983272E+02  0.76892852481E+02  0.00000000000E+00 0.  1.
          2    1    6    6  502    0 -0.92971225694E+02 -0.89395109959E+02  0.45609652239E+02  0.13680414785E+03  0.00000000000E+00 0. -1.
          3    1    5    5  503    0  0.18902825410E+03  0.17563630611E+03 -0.33660597838E+02  0.26021688784E+03  0.00000000000E+00 0. -1.
         -4    1    5    5    0  503  0.82137414108E+02  0.28153805087E+02 -0.40974245005E+02  0.96010834237E+02  0.00000000000E+00 0.  1.
         -1    1    6    6    0  502 -0.31536955690E+03 -0.15628227175E+03  0.20734873407E+03  0.40850410451E+03  0.00000000000E+00 0.  1.
<mgrwt>
<rscale>  0 0.12402151E+04</rscale>
<asrwt>0</asrwt>
<pdfrwt beam="1">  1        2 0.86504603E-01 0.12402151E+04</pdfrwt>
<pdfrwt beam="2">  1       -2 0.10521269E+00 0.12402151E+04</pdfrwt>
<totfact> 0.38609564E+01</totfact>
</mgrwt>
</event>
<event>
12    1  0.1494110E-007  0.1142690E+04  0.7818608E-02  0.9164554E-01
         -1   -1    0    0    0  501 -0.00000000000E+00  0.00000000000E+00  0.29184385512E+03  0.29184385512E+03  0.00000000000E+00 0.  1.
          1   -1    0    0  501    0  0.00000000000E+00 -0.00000000000E+00 -0.11185266971E+04  0.11185266971E+04  0.00000000000E+00 0. -1.
         23    2    1    2    0    0  0.67115094904E+02 -0.37265902883E+02 -0.38408526394E+03  0.40124443833E+03  0.87077125784E+02 0.  0.
        254    2    1    2    0    0 -0.67115094904E+02  0.37265902883E+02 -0.44259757803E+03  0.10091261139E+04  0.90363140392E+03 0.  0.
        -24    2    4    4    0    0 -0.23796989015E+03  0.22026860904E+03 -0.61179263546E+03  0.69710101100E+03  0.80694869655E+02 0.  0.
         24    2    4    4    0    0  0.17085479525E+03 -0.18300270616E+03  0.16919505743E+03  0.31202510287E+03  0.77790396867E+02 0.  0.
         13    1    3    3    0    0  0.45374834463E+02 -0.65092933236E+02 -0.29298985852E+03  0.30354410348E+03  0.00000000000E+00 0. -1.
        -13    1    3    3    0    0  0.21740260441E+02  0.27827030352E+02 -0.91095405423E+02  0.97700334858E+02  0.00000000000E+00 0.  1.
          4    1    6    6  502    0  0.21549045456E+02 -0.63265130570E+02  0.21279673931E+02  0.70140306734E+02  0.00000000000E+00 0. -1.
          3    1    5    5  503    0 -0.16177840059E+02  0.20071879998E+02 -0.11097229467E+03  0.11392740258E+03  0.00000000000E+00 0. -1.
         -4    1    5    5    0  503 -0.22179205009E+03  0.20019672905E+03 -0.50082034079E+03  0.58317360842E+03  0.00000000000E+00 0.  1.
         -3    1    6    6    0  502  0.14930574979E+03 -0.11973757559E+03  0.14791538350E+03  0.24188479614E+03  0.00000000000E+00 0.  1.
<mgrwt>
<rscale>  0 0.11426901E+04</rscale>
<asrwt>0</asrwt>
<pdfrwt beam="1">  1        1 0.17208103E+00 0.11426901E+04</pdfrwt>
<pdfrwt beam="2">  1       -1 0.44899054E-01 0.11426901E+04</pdfrwt>
<totfact> 0.59973372E+01</totfact>
</mgrwt>
</event>
<event>
12    1  0.1494110E-007  0.1828727E+04  0.7818608E-02  0.8691170E-01
         -2   -1    0    0    0  501 -0.00000000000E+00  0.00000000000E+00  0.10271651715E+04  0.10271651715E+04  0.00000000000E+00 0.  1.
          2   -1    0    0  501    0  0.00000000000E+00 -0.00000000000E+00 -0.81394939263E+03  0.81394939263E+03  0.00000000000E+00 0. -1.
         23    2    1    2    0    0 -0.29923134896E+02  0.67697301019E+03  0.23711035319E+03  0.72354351878E+03  0.90033624024E+02 0.  0.
        254    2    1    2    0    0  0.29923134896E+02 -0.67697301019E+03 -0.23894574280E+02  0.11175710454E+04  0.88837280478E+03 0.  0.
        -24    2    4    4    0    0  0.29691730968E+02 -0.15754092844E+03  0.40233732157E+03  0.44028920873E+03  0.79237137591E+02 0.  0.
         24    2    4    4    0    0  0.23140392837E+00 -0.51943208175E+03 -0.42623189585E+03  0.67728183666E+03  0.85013623228E+02 0.  0.
         13    1    3    3    0    0 -0.74162302051E+01  0.63186762474E+03  0.23080124417E+03  0.67274133957E+03  0.00000000000E+00 0.  1.
        -13    1    3    3    0    0 -0.22506904691E+02  0.45105385453E+02  0.63091090152E+01  0.50802179207E+02  0.00000000000E+00 0. -1.
          4    1    6    6  502    0  0.11310788585E+02 -0.39866065436E+03 -0.36834672154E+03  0.54289737385E+03  0.00000000000E+00 0. -1.
          3    1    5    5  503    0  0.24570947407E+02 -0.10098023363E+03  0.34194038567E+03  0.35738489950E+03  0.00000000000E+00 0. -1.
         -4    1    5    5    0  503  0.51207835608E+01 -0.56560694816E+02  0.60396935895E+02  0.82904309224E+02  0.00000000000E+00 0.  1.
         -3    1    6    6    0  502 -0.11079384657E+02 -0.12077142739E+03 -0.57885174309E+02  0.13438446280E+03  0.00000000000E+00 0.  1.
<mgrwt>
<rscale>  0 0.18287268E+04</rscale>
<asrwt>0</asrwt>
<pdfrwt beam="1">  1        2 0.12522298E+00 0.18287268E+04</pdfrwt>
<pdfrwt beam="2">  1       -2 0.15802541E+00 0.18287268E+04</pdfrwt>
<totfact> 0.82566415E+00</totfact>
</mgrwt>
</event>
<event>
12    1  0.1912149E-007  0.2191921E+04  0.7818608E-02  0.8521798E-01
          2   -1    0    0  501    0  0.00000000000E+00  0.00000000000E+00  0.10595969441E+04  0.10595969441E+04  0.00000000000E+00 0. -1.
         -2   -1    0    0    0  501 -0.00000000000E+00 -0.00000000000E+00 -0.11335720351E+04  0.11335720351E+04  0.00000000000E+00 0.  1.
         23    2    1    2    0    0 -0.74848678092E+03 -0.12570912444E+03  0.47813707322E+03  0.90156483924E+03  0.90381709337E+02 0.  0.
        254    2    1    2    0    0  0.74848678092E+03  0.12570912444E+03 -0.55211216422E+03  0.12916041399E+04  0.88734331977E+03 0.  0.
        -24    2    4    4    0    0  0.50202092282E+03  0.63330177028E+01 -0.77671070129E+03  0.92839959259E+03  0.81124447419E+02 0.  0.
         24    2    4    4    0    0  0.24646585810E+03  0.11937610674E+03  0.22459853707E+03  0.36320454731E+03  0.80479601540E+02 0.  0.
         13    1    3    3    0    0 -0.69296849218E+03 -0.13386452867E+03  0.46057832898E+03  0.84276772619E+03  0.00000000000E+00 0. -1.
        -13    1    3    3    0    0 -0.55518288744E+02  0.81554042301E+01  0.17558744240E+02  0.58797113046E+02  0.00000000000E+00 0.  1.
          4    1    6    6  502    0  0.81620026290E+02 -0.47057830605E+00  0.65313741123E+02  0.10453676346E+03  0.00000000000E+00 0. -1.
          1    1    5    5  503    0  0.27828464154E+02  0.95193134054E+01 -0.20664042509E+02  0.35945005184E+02  0.00000000000E+00 0. -1.
         -2    1    5    5    0  503  0.47419245867E+03 -0.31862957026E+01 -0.75604665878E+03  0.89245458741E+03  0.00000000000E+00 0.  1.
         -3    1    6    6    0  502  0.16484583181E+03  0.11984668505E+03  0.15928479594E+03  0.25866778385E+03  0.00000000000E+00 0.  1.
<mgrwt>
<rscale>  0 0.21919210E+04</rscale>
<asrwt>0</asrwt>
<pdfrwt beam="1">  1        2 0.16301491E+00 0.21919210E+04</pdfrwt>
<pdfrwt beam="2">  1       -2 0.17439570E+00 0.21919210E+04</pdfrwt>
<totfact> 0.41889462E+00</totfact>
</mgrwt>
</event>
<event>
12    1  0.1494110E-007  0.2005285E+04  0.7818608E-02  0.8604154E-01
          2   -1    0    0  501    0  0.00000000000E+00  0.00000000000E+00  0.10191520327E+04  0.10191520327E+04  0.00000000000E+00 0. -1.
         -2   -1    0    0    0  501 -0.00000000000E+00 -0.00000000000E+00 -0.98640063940E+03  0.98640063940E+03  0.00000000000E+00 0.  1.
         23    2    1    2    0    0  0.28531307986E+01  0.62257960542E+03  0.51694835859E+03  0.81468747176E+03  0.94162443457E+02 0.  0.
        254    2    1    2    0    0 -0.28531307986E+01 -0.62257960542E+03 -0.48419696530E+03  0.11908652003E+04  0.89224420353E+03 0.  0.
        -24    2    4    4    0    0  0.30471024739E+03  0.20958092650E+02 -0.33032984384E+03  0.45676917634E+03  0.78947439591E+02 0.  0.
         24    2    4    4    0    0 -0.30756337819E+03 -0.64353769807E+03 -0.15386712146E+03  0.73409602400E+03  0.80534967203E+02 0.  0.
         13    1    3    3    0    0 -0.25978935375E+02  0.54990273818E+03  0.46696199632E+03  0.72188740989E+03  0.00000000000E+00 0. -1.
        -13    1    3    3    0    0  0.28832066174E+02  0.72676867241E+02  0.49986362265E+02  0.92800061876E+02  0.00000000000E+00 0.  1.
          4    1    6    6  502    0 -0.26255266070E+03 -0.51326997103E+03 -0.15214019308E+03  0.59626051450E+03  0.00000000000E+00 0. -1.
          3    1    5    5  503    0  0.12429232950E+03  0.29258379262E+02 -0.90359462834E+02  0.15642719857E+03  0.00000000000E+00 0. -1.
         -4    1    5    5    0  503  0.18041791789E+03 -0.83002866123E+01 -0.23997038100E+03  0.30034197777E+03  0.00000000000E+00 0.  1.
         -3    1    6    6    0  502 -0.45010717491E+02 -0.13026772704E+03 -0.17269283828E+01  0.13783550950E+03  0.00000000000E+00 0.  1.
<mgrwt>
<rscale>  0 0.20052852E+04</rscale>
<asrwt>0</asrwt>
<pdfrwt beam="1">  1        2 0.15679262E+00 0.20052852E+04</pdfrwt>
<pdfrwt beam="2">  1       -2 0.15175394E+00 0.20052852E+04</pdfrwt>
<totfact> 0.66052802E+00</totfact>
</mgrwt>
</event>
<event>
12    1  0.1494110E-007  0.3365083E+04  0.7818608E-02  0.8146530E-01
          1   -1    0    0  501    0  0.00000000000E+00  0.00000000000E+00  0.18489358550E+04  0.18489358550E+04  0.00000000000E+00 0. -1.
         -1   -1    0    0    0  501 -0.00000000000E+00 -0.00000000000E+00 -0.15311217737E+04  0.15311217737E+04  0.00000000000E+00 0.  1.
         23    2    1    2    0    0  0.11496770111E+04 -0.25735237528E+03 -0.88325410731E+03  0.14754045801E+04  0.93238308022E+02 0.  0.
        254    2    1    2    0    0 -0.11496770111E+04  0.25735237528E+03  0.12010681887E+04  0.19046530486E+04  0.89283311243E+03 0.  0.
        -24    2    4    4    0    0 -0.11964860965E+04  0.43050333901E+03  0.96884661343E+03  0.16004215443E+04  0.75981938387E+02 0.  0.
         24    2    4    4    0    0  0.46809085420E+02 -0.17315096373E+03  0.23222157525E+03  0.30423150429E+03  0.80359202782E+02 0.  0.
         13    1    3    3    0    0  0.56683305311E+03 -0.16793101026E+03 -0.41241849922E+03  0.72082560498E+03  0.00000000000E+00 0.  1.
        -13    1    3    3    0    0  0.58284395799E+03 -0.89421365018E+02 -0.47083560810E+03  0.75457897515E+03  0.00000000000E+00 0. -1.
          4    1    6    6  502    0  0.64734972813E+02 -0.16304497390E+03  0.20039266362E+03  0.26632968263E+03  0.00000000000E+00 0. -1.
          3    1    5    5  503    0 -0.11227089326E+04  0.41882609388E+03  0.92530537567E+03  0.15139619158E+04  0.00000000000E+00 0. -1.
         -4    1    5    5    0  503 -0.73777163919E+02  0.11677245125E+02  0.43541237756E+02  0.86459628469E+02  0.00000000000E+00 0.  1.
         -3    1    6    6    0  502 -0.17925887393E+02 -0.10105989834E+02  0.31828911635E+02  0.37901821661E+02  0.00000000000E+00 0.  1.
<mgrwt>
<rscale>  0 0.33650830E+04</rscale>
<asrwt>0</asrwt>
<pdfrwt beam="1">  1        1 0.28445167E+00 0.33650830E+04</pdfrwt>
<pdfrwt beam="2">  1       -1 0.23555720E+00 0.33650830E+04</pdfrwt>
<totfact> 0.27005659E-01</totfact>
</mgrwt>
</event>
<event>
12    1  0.1494110E-007  0.2163405E+04  0.7818608E-02  0.8533816E-01
          1   -1    0    0  501    0  0.00000000000E+00  0.00000000000E+00  0.17830038135E+04  0.17830038135E+04  0.00000000000E+00 0. -1.
         -1   -1    0    0    0  501 -0.00000000000E+00 -0.00000000000E+00 -0.65624083459E+03  0.65624083459E+03  0.00000000000E+00 0.  1.
         23    2    1    2    0    0 -0.83272052116E+03 -0.79917870576E+02  0.12222391667E+03  0.85087920873E+03  0.96158253183E+02 0.  0.
        254    2    1    2    0    0  0.83272052116E+03  0.79917870576E+02  0.10045390623E+04  0.15883654394E+04  0.90221710748E+03 0.  0.
        -24    2    4    4    0    0 -0.20772029979E+01  0.34281129601E+03  0.27435427494E+03  0.44596476749E+03  0.78041054697E+02 0.  0.
         24    2    4    4    0    0  0.83479772416E+03 -0.26289342543E+03  0.73018478735E+03  0.11424006719E+04  0.76871829204E+02 0.  0.
         11    1    3    3    0    0 -0.48771816685E+03 -0.27626211645E+02  0.11503793266E+03  0.50186247499E+03  0.00000000000E+00 0. -1.
        -11    1    3    3    0    0 -0.34500235431E+03 -0.52291658931E+02  0.71859840067E+01  0.34901673375E+03  0.00000000000E+00 0.  1.
          4    1    6    6  502    0  0.61292094168E+03 -0.21364066230E+03  0.57551865221E+03  0.86748840475E+03  0.00000000000E+00 0. -1.
          1    1    5    5  503    0  0.25303713189E+02  0.29696816586E+03  0.23721060677E+03  0.38091894334E+03  0.00000000000E+00 0. -1.
         -2    1    5    5    0  503 -0.27380916187E+02  0.45843130151E+02  0.37143668171E+02  0.65045824144E+02  0.00000000000E+00 0.  1.
         -3    1    6    6    0  502  0.22187678247E+03 -0.49252763128E+02  0.15466613514E+03  0.27491226716E+03  0.00000000000E+00 0.  1.
<mgrwt>
<rscale>  0 0.21634046E+04</rscale>
<asrwt>0</asrwt>
<pdfrwt beam="1">  1        1 0.27430828E+00 0.21634046E+04</pdfrwt>
<pdfrwt beam="2">  1       -1 0.10096013E+00 0.21634046E+04</pdfrwt>
<totfact> 0.35676898E+00</totfact>
</mgrwt>
</event>
<event>
12    1  0.1494110E-007  0.2453876E+04  0.7818608E-02  0.8419604E-01
         -1   -1    0    0    0  501 -0.00000000000E+00  0.00000000000E+00  0.92348932002E+03  0.92348932002E+03  0.00000000000E+00 0.  1.
          1   -1    0    0  501    0  0.00000000000E+00 -0.00000000000E+00 -0.16300964043E+04  0.16300964043E+04  0.00000000000E+00 0. -1.
         23    2    1    2    0    0 -0.36286717467E+03 -0.99848895709E+03 -0.25463671664E+03  0.10964005414E+04  0.92744303259E+02 0.  0.
        254    2    1    2    0    0  0.36286717467E+03  0.99848895709E+03 -0.45197036763E+03  0.14571851829E+04  0.88907742086E+03 0.  0.
        -24    2    4    4    0    0  0.42135207791E+03  0.16508577766E+03  0.76290628355E+02  0.46541194972E+03  0.77441173967E+02 0.  0.
         24    2    4    4    0    0 -0.58484903240E+02  0.83340317943E+03 -0.52826099599E+03  0.99177323322E+03  0.81074797915E+02 0.  0.
         11    1    3    3    0    0 -0.30239426289E+02 -0.13667537387E+03 -0.77188902948E+01  0.14019330224E+03  0.00000000000E+00 0.  1.
        -11    1    3    3    0    0 -0.33262774838E+03 -0.86181358321E+03 -0.24691782635E+03  0.95620723913E+03  0.00000000000E+00 0. -1.
          2    1    6    6  502    0 -0.38920258584E+01  0.31216957481E+03 -0.15650762435E+03  0.34922718648E+03  0.00000000000E+00 0. -1.
          1    1    5    5  503    0  0.11838493980E+03  0.19816223142E+02 -0.34621837683E+01  0.12008190283E+03  0.00000000000E+00 0. -1.
         -2    1    5    5    0  503  0.30296713810E+03  0.14526955452E+03  0.79752812123E+02  0.34533004689E+03  0.00000000000E+00 0.  1.
         -1    1    6    6    0  502 -0.54592877382E+02  0.52123360462E+03 -0.37175337164E+03  0.64254604673E+03  0.00000000000E+00 0.  1.
<mgrwt>
<rscale>  0 0.24538758E+04</rscale>
<asrwt>0</asrwt>
<pdfrwt beam="1">  1        1 0.25078406E+00 0.24538758E+04</pdfrwt>
<pdfrwt beam="2">  1       -1 0.14207528E+00 0.24538758E+04</pdfrwt>
<totfact> 0.19138671E+00</totfact>
</mgrwt>
</event>
<event>
12    1  0.1494110E-007  0.2386317E+04  0.7818608E-02  0.8444644E-01
         -2   -1    0    0    0  501 -0.00000000000E+00  0.00000000000E+00  0.83307597671E+03  0.83307597671E+03  0.00000000000E+00 0.  1.
          2   -1    0    0  501    0  0.00000000000E+00 -0.00000000000E+00 -0.17088798352E+04  0.17088798352E+04  0.00000000000E+00 0. -1.
         23    2    1    2    0    0  0.38043570492E+03 -0.48302078050E+03  0.49535030116E+03  0.79465453219E+03  0.89797019379E+02 0.  0.
        254    2    1    2    0    0 -0.38043570492E+03  0.48302078050E+03 -0.13711541597E+04  0.17473012798E+04  0.89160396624E+03 0.  0.
        -24    2    4    4    0    0 -0.42785966447E+03  0.71311314748E+03 -0.10481291400E+04  0.13403352450E+04  0.79558917056E+02 0.  0.
         24    2    4    4    0    0  0.47423959542E+02 -0.23009236697E+03 -0.32302501965E+03  0.40696603472E+03  0.78004235915E+02 0.  0.
         11    1    3    3    0    0  0.89523626707E+01 -0.48595590016E+01  0.27911073378E+02  0.29711750675E+02  0.00000000000E+00 0. -1.
        -11    1    3    3    0    0  0.37148334225E+03 -0.47816122150E+03  0.46743922779E+03  0.76494278151E+03  0.00000000000E+00 0.  1.
          4    1    6    6  502    0  0.30394070148E+02 -0.21427981091E+02 -0.36539090790E+02  0.52135046078E+02  0.00000000000E+00 0. -1.
          1    1    5    5  503    0 -0.26654573943E+03  0.39952830421E+03 -0.55275585930E+03  0.73226261482E+03  0.00000000000E+00 0. -1.
         -2    1    5    5    0  503 -0.16131392504E+03  0.31358484327E+03 -0.49537328074E+03  0.60807263021E+03  0.00000000000E+00 0.  1.
         -3    1    6    6    0  502  0.17029889394E+02 -0.20866438588E+03 -0.28648592886E+03  0.35483098864E+03  0.00000000000E+00 0.  1.
<mgrwt>
<rscale>  0 0.23863166E+04</rscale>
<asrwt>0</asrwt>
<pdfrwt beam="1">  1        2 0.26290459E+00 0.23863166E+04</pdfrwt>
<pdfrwt beam="2">  1       -2 0.12816554E+00 0.23863166E+04</pdfrwt>
<totfact> 0.39301884E+00</totfact>
</mgrwt>
</event>
<event>
12    1  0.1494110E-007  0.1002006E+04  0.7818608E-02  0.9306347E-01
          2   -1    0    0  501    0  0.00000000000E+00  0.00000000000E+00  0.24333911779E+04  0.24333911779E+04  0.00000000000E+00 0. -1.
         -2   -1    0    0    0  501 -0.00000000000E+00 -0.00000000000E+00 -0.10314997539E+03  0.10314997539E+03  0.00000000000E+00 0.  1.
         23    2    1    2    0    0  0.55669811122E+02 -0.78860122107E+01  0.39710790351E+03  0.41109325235E+03  0.90231136762E+02 0.  0.
        254    2    1    2    0    0 -0.55669811122E+02  0.78860122107E+01  0.19331332990E+04  0.21254479010E+04  0.88168197828E+03 0.  0.
        -24    2    4    4    0    0  0.11422753889E+03 -0.39952011690E+03  0.76276456433E+03  0.87214423007E+03  0.78495369247E+02 0.  0.
         24    2    4    4    0    0 -0.16989735001E+03  0.40740612911E+03  0.11703687347E+04  0.12533036709E+04  0.78500017453E+02 0.  0.
         13    1    3    3    0    0  0.16358804350E+02 -0.36558236749E+00  0.34500216318E+03  0.34538997775E+03  0.00000000000E+00 0. -1.
        -13    1    3    3    0    0  0.39311006772E+02 -0.75204298432E+01  0.52105740329E+02  0.65703274604E+02  0.00000000000E+00 0.  1.
          4    1    6    6  502    0 -0.37456101616E+02  0.62624143717E+02  0.12673185288E+03  0.14623852249E+03  0.00000000000E+00 0. -1.
          1    1    5    5  503    0  0.33920964038E+01 -0.13665360235E+03  0.27435831898E+03  0.30652601937E+03  0.00000000000E+00 0. -1.
         -2    1    5    5    0  503  0.11083544249E+03 -0.26286651455E+03  0.48840624535E+03  0.56561821070E+03  0.00000000000E+00 0.  1.
         -3    1    6    6    0  502 -0.13244124840E+03  0.34478198539E+03  0.10436368818E+04  0.11070651484E+04  0.00000000000E+00 0.  1.
<mgrwt>
<rscale>  0 0.10020065E+04</rscale>
<asrwt>0</asrwt>
<pdfrwt beam="1">  1        2 0.37436783E+00 0.10020065E+04</pdfrwt>
<pdfrwt beam="2">  1       -2 0.15869229E-01 0.10020065E+04</pdfrwt>
<totfact> 0.12248850E+02</totfact>
</mgrwt>
</event>
<event>
12    1  0.1494110E-007  0.1357790E+04  0.7818608E-02  0.8984952E-01
          2   -1    0    0  501    0  0.00000000000E+00  0.00000000000E+00  0.18718326448E+04  0.18718326448E+04  0.00000000000E+00 0. -1.
         -2   -1    0    0    0  501 -0.00000000000E+00 -0.00000000000E+00 -0.24622839438E+03  0.24622839438E+03  0.00000000000E+00 0.  1.
         23    2    1    2    0    0  0.29936419746E+03 -0.20393501803E+03  0.45010538566E+03  0.58482957759E+03  0.90677242582E+02 0.  0.
        254    2    1    2    0    0 -0.29936419746E+03  0.20393501803E+03  0.11754988648E+04  0.15332314616E+04  0.91531017664E+03 0.  0.
        -24    2    4    4    0    0 -0.40005501692E+03 -0.53246787256E+02  0.11740535050E+04  0.12439845002E+04  0.78845210266E+02 0.  0.
         24    2    4    4    0    0  0.10069081945E+03  0.25718180529E+03  0.14453597810E+01  0.28924696142E+03  0.85910380835E+02 0.  0.
         11    1    3    3    0    0  0.29290591549E+03 -0.21302978452E+03  0.43467616716E+03  0.56579053961E+03  0.00000000000E+00 0. -1.
        -11    1    3    3    0    0  0.64582819782E+01  0.90947664885E+01  0.15429218498E+02  0.19039037976E+02  0.00000000000E+00 0.  1.
          4    1    6    6  502    0  0.14740318005E+02  0.41187222078E+00  0.10854087785E+02  0.18310047385E+02  0.00000000000E+00 0. -1.
          1    1    5    5  503    0 -0.17010972741E+03 -0.40564262091E+02  0.40384721663E+03  0.44008562019E+03  0.00000000000E+00 0. -1.
         -2    1    5    5    0  503 -0.22994528951E+03 -0.12682525165E+02  0.77020628838E+03  0.80389888000E+03  0.00000000000E+00 0.  1.
         -3    1    6    6    0  502  0.85950501448E+02  0.25676993307E+03 -0.94087280037E+01  0.27093691404E+03  0.00000000000E+00 0.  1.
<mgrwt>
<rscale>  0 0.13577899E+04</rscale>
<asrwt>0</asrwt>
<pdfrwt beam="1">  1        2 0.28797424E+00 0.13577899E+04</pdfrwt>
<pdfrwt beam="2">  1       -2 0.37881293E-01 0.13577899E+04</pdfrwt>
<totfact> 0.50554168E+01</totfact>
</mgrwt>
</event>
<event>
12    1  0.1494110E-007  0.1855428E+04  0.7818608E-02  0.8677366E-01
         -1   -1    0    0    0  501 -0.00000000000E+00  0.00000000000E+00  0.18164334799E+04  0.18164334799E+04  0.00000000000E+00 0.  1.
          1   -1    0    0  501    0  0.00000000000E+00 -0.00000000000E+00 -0.47381483083E+03  0.47381483083E+03  0.00000000000E+00 0. -1.
         23    2    1    2    0    0 -0.85602704586E+02 -0.15444624147E+02  0.13885408869E+04  0.13945208505E+04  0.95269346761E+02 0.  0.
        254    2    1    2    0    0  0.85602704586E+02  0.15444624147E+02 -0.45922237790E+02  0.89572746027E+03  0.89031032326E+03 0.  0.
        -24    2    4    4    0    0  0.46507645324E+03 -0.78672343136E+02  0.61841494622E+02  0.48240002554E+03  0.79999807791E+02 0.  0.
         24    2    4    4    0    0 -0.37947374866E+03  0.94116967283E+02 -0.10776373241E+03  0.41332743473E+03  0.79801107913E+02 0.  0.
         13    1    3    3    0    0  0.10151805909E+02 -0.64479354661E+01  0.26646796827E+02  0.29235027213E+02  0.00000000000E+00 0. -1.
        -13    1    3    3    0    0 -0.95754510495E+02 -0.89966886810E+01  0.13618940901E+04  0.13652858233E+04  0.00000000000E+00 0.  1.
          4    1    6    6  502    0 -0.63963244793E+02  0.27855679164E+02  0.92066431577E+01  0.70370432885E+02  0.00000000000E+00 0. -1.
          3    1    5    5  503    0  0.32113966794E+03 -0.55569433464E+02  0.50551975638E+01  0.32595122838E+03  0.00000000000E+00 0. -1.
         -4    1    5    5    0  503  0.14393678531E+03 -0.23102909672E+02  0.56786297058E+02  0.15644879716E+03  0.00000000000E+00 0.  1.
         -3    1    6    6    0  502 -0.31551050386E+03  0.66261288119E+02 -0.11697037557E+03  0.34295700184E+03  0.00000000000E+00 0.  1.
<mgrwt>
<rscale>  0 0.18554278E+04</rscale>
<asrwt>0</asrwt>
<pdfrwt beam="1">  1        1 0.72894590E-01 0.18554278E+04</pdfrwt>
<pdfrwt beam="2">  1       -1 0.27945130E+00 0.18554278E+04</pdfrwt>
<totfact> 0.20124751E+00</totfact>
</mgrwt>
</event>
<event>
12    1  0.1494110E-007  0.1955499E+04  0.7818608E-02  0.8627713E-01
         -1   -1    0    0    0  501 -0.00000000000E+00  0.00000000000E+00  0.56380167812E+03  0.56380167812E+03  0.00000000000E+00 0.  1.
          1   -1    0    0  501    0  0.00000000000E+00 -0.00000000000E+00 -0.16956217952E+04  0.16956217952E+04  0.00000000000E+00 0. -1.
         23    2    1    2    0    0  0.93767760577E+02 -0.72443394447E+03 -0.17569882439E+03  0.75685662063E+03  0.91460015673E+02 0.  0.
        254    2    1    2    0    0 -0.93767760577E+02  0.72443394447E+03 -0.95612129274E+03  0.15025668527E+04  0.89996793703E+03 0.  0.
        -24    2    4    4    0    0  0.23482653323E+03 -0.40394799325E+02 -0.47386683673E+03  0.53728487599E+03  0.85732248831E+02 0.  0.
         24    2    4    4    0    0 -0.32859429381E+03  0.76482874380E+03 -0.48225445601E+03  0.96528197675E+03  0.79137330213E+02 0.  0.
         13    1    3    3    0    0  0.37676469510E+02 -0.10310569997E+03 -0.49250135412E+02  0.12031574111E+03  0.00000000000E+00 0.  1.
        -13    1    3    3    0    0  0.56091291067E+02 -0.62132824450E+03 -0.12644868898E+03  0.63654087952E+03  0.00000000000E+00 0. -1.
          2    1    6    6  502    0 -0.32376953403E+01  0.26375946036E+02 -0.30617008421E+02  0.40541021263E+02  0.00000000000E+00 0. -1.
          1    1    5    5  503    0  0.80955029939E+02 -0.58920349692E+01 -0.25443052530E+03  0.26706427158E+03  0.00000000000E+00 0. -1.
         -2    1    5    5    0  503  0.15387150329E+03 -0.34502764356E+02 -0.21943631143E+03  0.27022060441E+03  0.00000000000E+00 0.  1.
         -1    1    6    6    0  502 -0.32535659847E+03  0.73845279776E+03 -0.45163744759E+03  0.92474095549E+03  0.00000000000E+00 0.  1.
<mgrwt>
<rscale>  0 0.19554993E+04</rscale>
<asrwt>0</asrwt>
<pdfrwt beam="1">  1        1 0.26086489E+00 0.19554993E+04</pdfrwt>
<pdfrwt beam="2">  1       -1 0.86738722E-01 0.19554993E+04</pdfrwt>
<totfact> 0.58535161E+00</totfact>
</mgrwt>
</event>
<event>
12    1  0.1494110E-007  0.1929088E+04  0.7818608E-02  0.8640512E-01
         -1   -1    0    0    0  501 -0.00000000000E+00  0.00000000000E+00  0.67452977490E+03  0.67452977490E+03  0.00000000000E+00 0.  1.
          1   -1    0    0  501    0  0.00000000000E+00 -0.00000000000E+00 -0.13792494060E+04  0.13792494060E+04  0.00000000000E+00 0. -1.
         23    2    1    2    0    0 -0.25884846783E+03  0.57192216063E+03 -0.71354382942E+03  0.95636295298E+03  0.10671370203E+03 0.  0.
        254    2    1    2    0    0  0.25884846783E+03 -0.57192216063E+03  0.88241983096E+01  0.10974162279E+04  0.90008167613E+03 0.  0.
        -24    2    4    4    0    0 -0.27804843558E+03 -0.34420163420E+03  0.18123883493E+03  0.48456141221E+03  0.78527379975E+02 0.  0.
         24    2    4    4    0    0  0.53689690341E+03 -0.22772052643E+03 -0.17241463662E+03  0.61285481571E+03  0.75824106779E+02 0.  0.
         11    1    3    3    0    0 -0.38800800634E+02  0.15887233951E+03 -0.13388162187E+03  0.21135328497E+03  0.00000000000E+00 0.  1.
        -11    1    3    3    0    0 -0.22004766720E+03  0.41304982112E+03 -0.57966220754E+03  0.74500966801E+03  0.00000000000E+00 0. -1.
          2    1    6    6  502    0  0.49877816912E+03 -0.20403411796E+03 -0.17822093710E+03  0.56760222490E+03  0.00000000000E+00 0. -1.
          1    1    5    5  503    0 -0.19522294321E+03 -0.19852775760E+03  0.84047575719E+02  0.29084233371E+03  0.00000000000E+00 0. -1.
         -2    1    5    5    0  503 -0.82825492371E+02 -0.14567387660E+03  0.97191259208E+02  0.19371907851E+03  0.00000000000E+00 0.  1.
         -1    1    6    6    0  502  0.38118734289E+02 -0.23686408473E+02  0.58063004865E+01  0.45252590815E+02  0.00000000000E+00 0.  1.
<mgrwt>
<rscale>  0 0.19290877E+04</rscale>
<asrwt>0</asrwt>
<pdfrwt beam="1">  1        1 0.21219222E+00 0.19290877E+04</pdfrwt>
<pdfrwt beam="2">  1       -1 0.10377381E+00 0.19290877E+04</pdfrwt>
<totfact> 0.64887247E+00</totfact>
</mgrwt>
</event>
<event>
12    1  0.1494110E-007  0.1402579E+04  0.7818608E-02  0.8951954E-01
         -2   -1    0    0    0  501 -0.00000000000E+00  0.00000000000E+00  0.36210222166E+03  0.36210222166E+03  0.00000000000E+00 0.  1.
          2   -1    0    0  501    0  0.00000000000E+00 -0.00000000000E+00 -0.13581991710E+04  0.13581991710E+04  0.00000000000E+00 0. -1.
         23    2    1    2    0    0 -0.90125933710E+02  0.57119121166E+02 -0.77593242371E+03  0.78852120382E+03  0.91155278375E+02 0.  0.
        254    2    1    2    0    0  0.90125933710E+02 -0.57119121166E+02 -0.22016452565E+03  0.93178018887E+03  0.89908654983E+03 0.  0.
        -24    2    4    4    0    0  0.18440934346E+03 -0.16041615254E+03  0.29589935566E+03  0.39169534018E+03  0.78285777079E+02 0.  0.
         24    2    4    4    0    0 -0.94283409748E+02  0.10329703137E+03 -0.51606388131E+03  0.54008484868E+03  0.76223855454E+02 0.  0.
         13    1    3    3    0    0 -0.86600208167E+02  0.15235859644E+02 -0.36487709582E+03  0.37532255797E+03  0.00000000000E+00 0. -1.
        -13    1    3    3    0    0 -0.35257255436E+01  0.41883261521E+02 -0.41105532790E+03  0.41319864584E+03  0.00000000000E+00 0.  1.
          4    1    6    6  502    0 -0.86527657511E+02  0.11182936227E+03 -0.41630959483E+03  0.43966637411E+03  0.00000000000E+00 0. -1.
          3    1    5    5  503    0  0.10143569409E+03 -0.10341320070E+03  0.22850367835E+03  0.27055021925E+03  0.00000000000E+00 0. -1.
         -4    1    5    5    0  503  0.82973649365E+02 -0.57002951835E+02  0.67395677311E+02  0.12114512094E+03  0.00000000000E+00 0.  1.
         -3    1    6    6    0  502 -0.77557522363E+01 -0.85323308983E+01 -0.99754286481E+02  0.10041847457E+03  0.00000000000E+00 0.  1.
<mgrwt>
<rscale>  0 0.14025790E+04</rscale>
<asrwt>0</asrwt>
<pdfrwt beam="1">  1        2 0.20895372E+00 0.14025790E+04</pdfrwt>
<pdfrwt beam="2">  1       -2 0.55708034E-01 0.14025790E+04</pdfrwt>
<totfact> 0.45047564E+01</totfact>
</mgrwt>
</event>
<event>
12    1  0.1494110E-007  0.2035002E+04  0.7818608E-02  0.8590429E-01
          1   -1    0    0  501    0  0.00000000000E+00  0.00000000000E+00  0.28783273746E+04  0.28783273746E+04  0.00000000000E+00 0. -1.
         -1   -1    0    0    0  501 -0.00000000000E+00 -0.00000000000E+00 -0.35969108643E+03  0.35969108643E+03  0.00000000000E+00 0.  1.
         23    2    1    2    0    0 -0.77131136080E+03  0.18699041024E+03  0.77391338817E+03  0.11136815913E+04  0.10704263491E+03 0.  0.
        254    2    1    2    0    0  0.77131136080E+03 -0.18699041024E+03  0.17447229000E+04  0.21243368697E+04  0.91589437674E+03 0.  0.
        -24    2    4    4    0    0  0.76639319910E+03  0.11910374647E+03  0.15937041148E+04  0.17742242242E+04  0.80215672472E+02 0.  0.
         24    2    4    4    0    0  0.49181616919E+01 -0.30609415671E+03  0.15101878514E+03  0.35011264545E+03  0.77809831984E+02 0.  0.
         13    1    3    3    0    0 -0.76388346802E+03  0.19162387660E+03  0.77491865564E+03  0.11048694881E+04  0.00000000000E+00 0.  1.
        -13    1    3    3    0    0 -0.74278927734E+01 -0.46334663583E+01 -0.10052674630E+01  0.88121032800E+01  0.00000000000E+00 0. -1.
          4    1    6    6  502    0 -0.25254395813E+02 -0.25455621555E+03  0.12870862343E+03  0.28636089316E+03  0.00000000000E+00 0. -1.
          1    1    5    5  503    0  0.48608247924E+03  0.40617215442E+02  0.10379865626E+04  0.11468836205E+04  0.00000000000E+00 0. -1.
         -2    1    5    5    0  503  0.28031071986E+03  0.78486531029E+02  0.55571755223E+03  0.62734060372E+03  0.00000000000E+00 0.  1.
         -3    1    6    6    0  502  0.30172557504E+02 -0.51537941160E+02  0.22310161707E+02  0.63751752296E+02  0.00000000000E+00 0.  1.
<mgrwt>
<rscale>  0 0.20350024E+04</rscale>
<asrwt>0</asrwt>
<pdfrwt beam="1">  1        1 0.44281958E+00 0.20350024E+04</pdfrwt>
<pdfrwt beam="2">  1       -1 0.55337092E-01 0.20350024E+04</pdfrwt>
<totfact> 0.22391762E+00</totfact>
</mgrwt>
</event>
<event>
12    1  0.1494110E-007  0.1579175E+04  0.7818608E-02  0.8833445E-01
          2   -1    0    0  501    0  0.00000000000E+00  0.00000000000E+00  0.39775549985E+04  0.39775549985E+04  0.00000000000E+00 0. -1.
         -2   -1    0    0    0  501 -0.00000000000E+00 -0.00000000000E+00 -0.15674166604E+03  0.15674166604E+03  0.00000000000E+00 0.  1.
         23    2    1    2    0    0 -0.43298605381E+02  0.66942387158E+02 -0.69984594097E+02  0.14069341418E+03  0.92416129312E+02 0.  0.
        254    2    1    2    0    0  0.43298605381E+02 -0.66942387158E+02  0.38907979266E+04  0.39936032504E+04  0.89677330669E+03 0.  0.
        -24    2    4    4    0    0  0.25842373610E+03 -0.33202061081E+02  0.34755305766E+03  0.44277449160E+03  0.85854052194E+02 0.  0.
         24    2    4    4    0    0 -0.21512513072E+03 -0.33740326078E+02  0.35432448689E+04  0.35508287588E+04  0.79896443359E+02 0.  0.
         11    1    3    3    0    0  0.68199801457E+01 -0.19296618155E+02 -0.33508123903E+01  0.20738841460E+02  0.00000000000E+00 0. -1.
        -11    1    3    3    0    0 -0.50118585527E+02  0.86239005313E+02 -0.66633781707E+02  0.11995457272E+03  0.00000000000E+00 0.  1.
          2    1    6    6  502    0 -0.64305317981E+02  0.15314400096E+02  0.14911045421E+04  0.14925690806E+04  0.00000000000E+00 0. -1.
          1    1    5    5  503    0  0.63759763469E+02 -0.46609533820E+02  0.10836411667E+03  0.13409152793E+03  0.00000000000E+00 0. -1.
         -2    1    5    5    0  503  0.19466397263E+03  0.13407472740E+02  0.23918894100E+03  0.30868296367E+03  0.00000000000E+00 0.  1.
         -1    1    6    6    0  502 -0.15081981274E+03 -0.49054726174E+02  0.20521403268E+04  0.20582596782E+04  0.00000000000E+00 0.  1.
<mgrwt>
<rscale>  0 0.15791752E+04</rscale>
<asrwt>0</asrwt>
<pdfrwt beam="1">  1        2 0.61193146E+00 0.15791752E+04</pdfrwt>
<pdfrwt beam="2">  1       -2 0.24114105E-01 0.15791752E+04</pdfrwt>
<totfact> 0.53552004E+00</totfact>
</mgrwt>
</event>
<event>
12    1  0.1494110E-007  0.2188282E+04  0.7818608E-02  0.8523321E-01
         -1   -1    0    0    0  501 -0.00000000000E+00  0.00000000000E+00  0.85783125092E+03  0.85783125092E+03  0.00000000000E+00 0.  1.
          1   -1    0    0  501    0  0.00000000000E+00 -0.00000000000E+00 -0.13955482231E+04  0.13955482231E+04  0.00000000000E+00 0. -1.
         23    2    1    2    0    0 -0.67544380115E+03 -0.12862672787E+03 -0.83624017632E+03  0.10867579938E+04  0.94742498037E+02 0.  0.
        254    2    1    2    0    0  0.67544380115E+03  0.12862672787E+03  0.29852320411E+03  0.11666214802E+04  0.89393535065E+03 0.  0.
        -24    2    4    4    0    0  0.22776259361E+03 -0.36876244624E+03  0.31945304279E+02  0.44188966361E+03  0.79902637840E+02 0.  0.
         24    2    4    4    0    0  0.44768120754E+03  0.49738917410E+03  0.26657789984E+03  0.72473181664E+03  0.79736912845E+02 0.  0.
         11    1    3    3    0    0 -0.58283142994E+03 -0.12731106059E+03 -0.76381260789E+03  0.96918021123E+03  0.00000000000E+00 0. -1.
        -11    1    3    3    0    0 -0.92612371215E+02 -0.13156672753E+01 -0.72427568436E+02  0.11757778256E+03  0.00000000000E+00 0.  1.
          2    1    6    6  502    0  0.83588183146E+02  0.56375137577E+02  0.55821638362E+02  0.11524407060E+03  0.00000000000E+00 0. -1.
          1    1    5    5  503    0  0.31784393517E+02 -0.49422588401E+02 -0.23195871434E+02  0.63173478353E+02  0.00000000000E+00 0. -1.
         -2    1    5    5    0  503  0.19597820009E+03 -0.31933985784E+03  0.55141175713E+02  0.37871618526E+03  0.00000000000E+00 0.  1.
         -1    1    6    6    0  502  0.36409302439E+03  0.44101403653E+03  0.21075626147E+03  0.60948774604E+03  0.00000000000E+00 0.  1.
<mgrwt>
<rscale>  0 0.21882823E+04</rscale>
<asrwt>0</asrwt>
<pdfrwt beam="1">  1        1 0.21469972E+00 0.21882823E+04</pdfrwt>
<pdfrwt beam="2">  1       -1 0.13197404E+00 0.21882823E+04</pdfrwt>
<totfact> 0.34475137E+00</totfact>
</mgrwt>
</event>
<event>
12    1  0.1494110E-007  0.1387241E+04  0.7818608E-02  0.8963106E-01
          2   -1    0    0  501    0  0.00000000000E+00  0.00000000000E+00  0.18811094843E+04  0.18811094843E+04  0.00000000000E+00 0. -1.
         -2   -1    0    0    0  501 -0.00000000000E+00 -0.00000000000E+00 -0.25575845938E+03  0.25575845938E+03  0.00000000000E+00 0.  1.
         23    2    1    2    0    0  0.35130824074E+03 -0.63761366197E+02  0.20998184004E+03  0.42423741457E+03  0.91662527455E+02 0.  0.
        254    2    1    2    0    0 -0.35130824074E+03  0.63761366197E+02  0.14153691849E+04  0.17126305291E+04  0.89574014530E+03 0.  0.
        -24    2    4    4    0    0 -0.37085090030E+03  0.36477650085E+03  0.43160075122E+03  0.68050173248E+03  0.78810618691E+02 0.  0.
         24    2    4    4    0    0  0.19542659558E+02 -0.30101513466E+03  0.98376843365E+03  0.10321287966E+04  0.80607040333E+02 0.  0.
         11    1    3    3    0    0  0.47687483970E+02 -0.28473480672E+02  0.66291433558E+02  0.86483463113E+02  0.00000000000E+00 0. -1.
        -11    1    3    3    0    0  0.30362075677E+03 -0.35287885525E+02  0.14369040649E+03  0.33775395145E+03  0.00000000000E+00 0.  1.
          4    1    6    6  502    0 -0.25863491816E+02 -0.19762310083E+03  0.62959480105E+03  0.66038884281E+03  0.00000000000E+00 0. -1.
          1    1    5    5  503    0 -0.35821502516E+03  0.32451618970E+03  0.40520226600E+03  0.63072786366E+03  0.00000000000E+00 0. -1.
         -2    1    5    5    0  503 -0.12635875139E+02  0.40260311150E+02  0.26398485221E+02  0.49773868811E+02  0.00000000000E+00 0.  1.
         -1    1    6    6    0  502  0.45406151374E+02 -0.10339203383E+03  0.35417363260E+03  0.37173995382E+03  0.00000000000E+00 0.  1.
<mgrwt>
<rscale>  0 0.13872414E+04</rscale>
<asrwt>0</asrwt>
<pdfrwt beam="1">  1        2 0.28940145E+00 0.13872414E+04</pdfrwt>
<pdfrwt beam="2">  1       -2 0.39347457E-01 0.13872414E+04</pdfrwt>
<totfact> 0.46298316E+01</totfact>
</mgrwt>
</event>
<event>
12    1  0.1494110E-007  0.1742922E+04  0.7818608E-02  0.8737256E-01
          2   -1    0    0  501    0  0.00000000000E+00  0.00000000000E+00  0.15372873914E+04  0.15372873914E+04  0.00000000000E+00 0. -1.
         -2   -1    0    0    0  501 -0.00000000000E+00 -0.00000000000E+00 -0.49401585754E+03  0.49401585754E+03  0.00000000000E+00 0.  1.
         23    2    1    2    0    0 -0.23649476885E+03  0.27901830694E+03 -0.22360544634E+03  0.43798360670E+03  0.89717628152E+02 0.  0.
        254    2    1    2    0    0  0.23649476885E+03 -0.27901830694E+03  0.12668769802E+04  0.15933196422E+04  0.89437643531E+03 0.  0.
        -24    2    4    4    0    0  0.66554580383E+02 -0.38685024404E+02  0.12821208622E+04  0.12873621344E+04  0.86840753647E+02 0.  0.
         24    2    4    4    0    0  0.16994018847E+03 -0.24033328254E+03 -0.15243882083E+02  0.30595750776E+03  0.82084506837E+02 0.  0.
         11    1    3    3    0    0 -0.26309693397E+02  0.73438106355E+02 -0.20547882766E+02  0.80669516658E+02  0.00000000000E+00 0. -1.
        -11    1    3    3    0    0 -0.21018507546E+03  0.20558020059E+03 -0.20305756357E+03  0.35731409004E+03  0.00000000000E+00 0.  1.
          2    1    6    6  502    0  0.68587025831E+02 -0.79110461585E+02  0.32497483947E+02  0.10962997632E+03  0.00000000000E+00 0. -1.
          1    1    5    5  503    0  0.74595582812E+01  0.16356230471E+02  0.61522800265E+02  0.64095446308E+02  0.00000000000E+00 0. -1.
         -2    1    5    5    0  503  0.59095022102E+02 -0.55041254876E+02  0.12205980620E+04  0.12232666881E+04  0.00000000000E+00 0.  1.
         -1    1    6    6    0  502  0.10135316264E+03 -0.16122282095E+03 -0.47741366030E+02  0.19632753144E+03  0.00000000000E+00 0.  1.
<mgrwt>
<rscale>  0 0.17429221E+04</rscale>
<asrwt>0</asrwt>
<pdfrwt beam="1">  1        2 0.23650575E+00 0.17429221E+04</pdfrwt>
<pdfrwt beam="2">  1       -2 0.76002440E-01 0.17429221E+04</pdfrwt>
<totfact> 0.17780433E+01</totfact>
</mgrwt>
</event>
<event>
12    1  0.1494110E-007  0.1608776E+04  0.7818608E-02  0.8815174E-01
         -2   -1    0    0    0  501 -0.00000000000E+00  0.00000000000E+00  0.50261901665E+03  0.50261901665E+03  0.00000000000E+00 0.  1.
          2   -1    0    0  501    0  0.00000000000E+00 -0.00000000000E+00 -0.12873375416E+04  0.12873375416E+04  0.00000000000E+00 0. -1.
         23    2    1    2    0    0 -0.18114863269E+03 -0.24367877102E+03  0.23360236818E+03  0.39374196650E+03  0.90931288311E+02 0.  0.
        254    2    1    2    0    0  0.18114863269E+03  0.24367877102E+03 -0.10183208932E+04  0.13962145918E+04  0.90567299521E+03 0.  0.
        -24    2    4    4    0    0  0.24021195666E+03  0.20025540163E+03 -0.11678102100E+04  0.12116463164E+04  0.80635596507E+02 0.  0.
         24    2    4    4    0    0 -0.59063323967E+02  0.43423369391E+02  0.14948931684E+03  0.18456827538E+03  0.79651284850E+02 0.  0.
         11    1    3    3    0    0 -0.89277762720E+02 -0.19152605053E+03  0.15676524652E+03  0.26311231340E+03  0.00000000000E+00 0.  1.
        -11    1    3    3    0    0 -0.91870869971E+02 -0.52152720489E+02  0.76837121666E+02  0.13062965310E+03  0.00000000000E+00 0. -1.
          2    1    6    6  502    0 -0.30454888160E+02  0.40202588127E+02  0.24065640073E+02  0.55882943168E+02  0.00000000000E+00 0. -1.
          3    1    5    5  503    0  0.21626162379E+03  0.14255385583E+03 -0.98346106870E+03  0.10169987047E+04  0.00000000000E+00 0. -1.
         -2    1    5    5    0  503  0.23950332865E+02  0.57701545794E+02 -0.18434914131E+03  0.19464761168E+03  0.00000000000E+00 0.  1.
         -1    1    6    6    0  502 -0.28608435807E+02  0.32207812634E+01  0.12542367677E+03  0.12868533221E+03  0.00000000000E+00 0.  1.
<mgrwt>
<rscale>  0 0.16087763E+04</rscale>
<asrwt>0</asrwt>
<pdfrwt beam="1">  1        2 0.19805193E+00 0.16087763E+04</pdfrwt>
<pdfrwt beam="2">  1       -2 0.77326003E-01 0.16087763E+04</pdfrwt>
<totfact> 0.24041211E+01</totfact>
</mgrwt>
</event>
<event>
12    1  0.1494110E-007  0.1198336E+04  0.7818608E-02  0.9114314E-01
         -1   -1    0    0    0  501 -0.00000000000E+00  0.00000000000E+00  0.28096488054E+03  0.28096488054E+03  0.00000000000E+00 0.  1.
          1   -1    0    0  501    0  0.00000000000E+00 -0.00000000000E+00 -0.12777487333E+04  0.12777487333E+04  0.00000000000E+00 0. -1.
         23    2    1    2    0    0  0.12341575040E+03 -0.12777649811E+03 -0.42350858094E+03  0.46841300336E+03  0.92157162888E+02 0.  0.
        254    2    1    2    0    0 -0.12341575040E+03  0.12777649811E+03 -0.57327527179E+03  0.10903006105E+04  0.91024864900E+03 0.  0.
        -24    2    4    4    0    0 -0.32922694194E+03 -0.10952121608E+03 -0.66536120771E+03  0.75388891399E+03  0.72509873988E+02 0.  0.
         24    2    4    4    0    0  0.20581119154E+03  0.23729771419E+03  0.92085935921E+02  0.33641169648E+03  0.77618027605E+02 0.  0.
         11    1    3    3    0    0  0.23807667510E+02 -0.90772873078E+02 -0.19487513497E+03  0.21629340662E+03  0.00000000000E+00 0. -1.
        -11    1    3    3    0    0  0.99608082893E+02 -0.37003625027E+02 -0.22863344597E+03  0.25211959674E+03  0.00000000000E+00 0.  1.
          2    1    6    6  502    0  0.22628653076E+02  0.84021209991E+01 -0.97852267076E+01  0.26046155936E+02  0.00000000000E+00 0. -1.
          1    1    5    5  503    0 -0.50437380958E+00 -0.16826260968E+01 -0.33257716722E+02  0.33304074001E+02  0.00000000000E+00 0. -1.
         -2    1    5    5    0  503 -0.32872256813E+03 -0.10783858998E+03 -0.63210349099E+03  0.72058483998E+03  0.00000000000E+00 0.  1.
         -1    1    6    6    0  502  0.18318253847E+03  0.22889559319E+03  0.10187116263E+03  0.31036554054E+03  0.00000000000E+00 0.  1.
<mgrwt>
<rscale>  0 0.11983364E+04</rscale>
<asrwt>0</asrwt>
<pdfrwt beam="1">  1        1 0.19657673E+00 0.11983364E+04</pdfrwt>
<pdfrwt beam="2">  1       -1 0.43225366E-01 0.11983364E+04</pdfrwt>
<totfact> 0.49013751E+01</totfact>
</mgrwt>
</event>
<event>
12    1  0.1494110E-007  0.2002609E+04  0.7818608E-02  0.8605402E-01
         -2   -1    0    0    0  501 -0.00000000000E+00  0.00000000000E+00  0.46402940665E+03  0.46402940665E+03  0.00000000000E+00 0.  1.
          2   -1    0    0  501    0  0.00000000000E+00 -0.00000000000E+00 -0.21606615830E+04  0.21606615830E+04  0.00000000000E+00 0. -1.
         23    2    1    2    0    0 -0.29380020090E+03  0.70217240104E+03 -0.48422401699E+03  0.90709710140E+03  0.94803026918E+02 0.  0.
        254    2    1    2    0    0  0.29380020090E+03 -0.70217240104E+03 -0.12124081594E+04  0.17175938883E+04  0.94912095185E+03 0.  0.
        -24    2    4    4    0    0 -0.72593502454E+01 -0.83302450423E+03 -0.10501235879E+04  0.13428054850E+04  0.79903052766E+02 0.  0.
         24    2    4    4    0    0  0.30105955115E+03  0.13085210320E+03 -0.16228457152E+03  0.37478840330E+03  0.79818161154E+02 0.  0.
         13    1    3    3    0    0 -0.26441254416E+03  0.54113573448E+03 -0.36076013427E+03  0.70206107363E+03  0.00000000000E+00 0.  1.
        -13    1    3    3    0    0 -0.29387656746E+02  0.16103666656E+03 -0.12346388272E+03  0.20503602777E+03  0.00000000000E+00 0. -1.
          2    1    6    6  502    0  0.86929484817E+02  0.49538942734E+02 -0.11845512578E+02  0.10075295701E+03  0.00000000000E+00 0. -1.
          3    1    5    5  503    0 -0.22640053201E+02 -0.45202471704E+03 -0.51324121051E+03  0.68429193842E+03  0.00000000000E+00 0. -1.
         -4    1    5    5    0  503  0.15380702955E+02 -0.38099978719E+03 -0.53688237736E+03  0.65851354654E+03  0.00000000000E+00 0.  1.
         -1    1    6    6    0  502  0.21413006633E+03  0.81313160462E+02 -0.15043905894E+03  0.27403544630E+03  0.00000000000E+00 0.  1.
<mgrwt>
<rscale>  0 0.20026088E+04</rscale>
<asrwt>0</asrwt>
<pdfrwt beam="1">  1        2 0.33240948E+00 0.20026088E+04</pdfrwt>
<pdfrwt beam="2">  1       -2 0.71389139E-01 0.20026088E+04</pdfrwt>
<totfact> 0.89865731E+00</totfact>
</mgrwt>
</event>
<event>
12    1  0.1494110E-007  0.1576223E+04  0.7818608E-02  0.8835290E-01
         -2   -1    0    0    0  501 -0.00000000000E+00  0.00000000000E+00  0.39961791700E+03  0.39961791700E+03  0.00000000000E+00 0.  1.
          2   -1    0    0  501    0  0.00000000000E+00 -0.00000000000E+00 -0.15542835408E+04  0.15542835408E+04  0.00000000000E+00 0. -1.
         23    2    1    2    0    0 -0.46060067832E+03 -0.23434229183E+03 -0.58765182144E+03  0.78765002051E+03  0.89378951375E+02 0.  0.
        254    2    1    2    0    0  0.46060067832E+03  0.23434229183E+03 -0.56701380235E+03  0.11662514373E+04  0.87838970183E+03 0.  0.
        -24    2    4    4    0    0  0.20554258741E+03 -0.30912751493E+03 -0.36608859268E+03  0.52813541028E+03  0.84253060361E+02 0.  0.
         24    2    4    4    0    0  0.25505809091E+03  0.54346980676E+03 -0.20092520967E+03  0.63811602699E+03  0.80044134252E+02 0.  0.
         13    1    3    3    0    0 -0.36984082250E+03 -0.15021513856E+03 -0.47321866304E+03  0.61909831602E+03  0.00000000000E+00 0. -1.
        -13    1    3    3    0    0 -0.90759855820E+02 -0.84127153266E+02 -0.11443315840E+03  0.16855170449E+03  0.00000000000E+00 0.  1.
          2    1    6    6  502    0  0.24765921660E+03  0.49577880832E+03 -0.16592995598E+03  0.57850191412E+03  0.00000000000E+00 0. -1.
          3    1    5    5  503    0  0.93650384685E+02 -0.21463773987E+03 -0.22868551360E+03  0.32731761037E+03  0.00000000000E+00 0. -1.
         -4    1    5    5    0  503  0.11189220273E+03 -0.94489775058E+02 -0.13740307908E+03  0.20081779991E+03  0.00000000000E+00 0.  1.
         -1    1    6    6    0  502  0.73988743142E+01  0.47690998434E+02 -0.34995253694E+02  0.59614112875E+02  0.00000000000E+00 0.  1.
<mgrwt>
<rscale>  0 0.15762228E+04</rscale>
<asrwt>0</asrwt>
<pdfrwt beam="1">  1        2 0.23912054E+00 0.15762228E+04</pdfrwt>
<pdfrwt beam="2">  1       -2 0.61479680E-01 0.15762228E+04</pdfrwt>
<totfact> 0.27947915E+01</totfact>
</mgrwt>
</event>
<event>
12    1  0.1494110E-007  0.1127839E+04  0.7818608E-02  0.9178475E-01
          1   -1    0    0  501    0  0.00000000000E+00  0.00000000000E+00  0.14209965715E+04  0.14209965715E+04  0.00000000000E+00 0. -1.
         -1   -1    0    0    0  501 -0.00000000000E+00 -0.00000000000E+00 -0.22379007489E+03  0.22379007489E+03  0.00000000000E+00 0.  1.
         23    2    1    2    0    0  0.16078863842E+03 -0.77446153984E+02  0.16040261732E+03  0.25490443037E+03  0.86002185817E+02 0.  0.
        254    2    1    2    0    0 -0.16078863842E+03  0.77446153984E+02  0.10368038793E+04  0.13898822160E+04  0.90827275490E+03 0.  0.
        -24    2    4    4    0    0 -0.27317947336E+03 -0.16136498174E+02  0.11518416422E+04  0.11866933356E+04  0.81329532372E+02 0.  0.
         24    2    4    4    0    0  0.11239083494E+03  0.93582652158E+02 -0.11503776285E+03  0.20318888047E+03  0.81624884083E+02 0.  0.
         11    1    3    3    0    0  0.29856477682E+02 -0.95023437419E+01  0.82149847638E+02  0.87922131816E+02  0.00000000000E+00 0. -1.
        -11    1    3    3    0    0  0.13093216074E+03 -0.67943810242E+02  0.78252769679E+02  0.16698229855E+03  0.00000000000E+00 0.  1.
          4    1    6    6  502    0  0.75974527719E+02  0.88347897338E+02 -0.11855431183E+03  0.16623057685E+03  0.00000000000E+00 0. -1.
          3    1    5    5  503    0 -0.14302407983E+03  0.13054477360E+02  0.73937951811E+03  0.75319876433E+03  0.00000000000E+00 0. -1.
         -4    1    5    5    0  503 -0.13015539353E+03 -0.29190975533E+02  0.41246212404E+03  0.43349457123E+03  0.00000000000E+00 0.  1.
         -1    1    6    6    0  502  0.36416307221E+02  0.52347548203E+01  0.35165489824E+01  0.36958303619E+02  0.00000000000E+00 0.  1.
<mgrwt>
<rscale>  0 0.11278385E+04</rscale>
<asrwt>0</asrwt>
<pdfrwt beam="1">  1        1 0.21861485E+00 0.11278385E+04</pdfrwt>
<pdfrwt beam="2">  1       -1 0.34429243E-01 0.11278385E+04</pdfrwt>
<totfact> 0.59008715E+01</totfact>
</mgrwt>
</event>
<event>
12    1  0.1494110E-007  0.1303944E+04  0.7818608E-02  0.9026444E-01
         -1   -1    0    0    0  501 -0.00000000000E+00  0.00000000000E+00  0.22902488262E+03  0.22902488262E+03  0.00000000000E+00 0. -1.
          1   -1    0    0  501    0  0.00000000000E+00 -0.00000000000E+00 -0.18559875038E+04  0.18559875038E+04  0.00000000000E+00 0.  1.
         23    2    1    2    0    0 -0.20256000798E+03 -0.26260253796E+03 -0.47101381162E+03  0.58330753166E+03  0.91667965909E+02 0.  0.
        254    2    1    2    0    0  0.20256000798E+03  0.26260253796E+03 -0.11559488096E+04  0.15017048548E+04  0.89939377956E+03 0.  0.
        -24    2    4    4    0    0  0.36430155732E+03  0.66848118532E+02 -0.71476205889E+02  0.38506896352E+03  0.77362542858E+02 0.  0.
         24    2    4    4    0    0 -0.16174154934E+03  0.19575441943E+03 -0.10844726037E+04  0.11166358913E+04  0.79465489258E+02 0.  0.
         11    1    3    3    0    0 -0.65514486591E+02 -0.13729838845E+03 -0.26806910584E+03  0.30822725534E+03  0.00000000000E+00 0.  1.
        -11    1    3    3    0    0 -0.13704552139E+03 -0.12530414951E+03 -0.20294470578E+03  0.27508027632E+03  0.00000000000E+00 0. -1.
          4    1    6    6  502    0 -0.55304553397E+02  0.25300815965E+02 -0.34624039796E+03  0.35154109020E+03  0.00000000000E+00 0. -1.
          1    1    5    5  503    0  0.63609258037E+02 -0.63674482562E+01  0.10819529242E+02  0.64836288592E+02  0.00000000000E+00 0. -1.
         -2    1    5    5    0  503  0.30069229928E+03  0.73215566788E+02 -0.82295735131E+02  0.32023267492E+03  0.00000000000E+00 0.  1.
         -3    1    6    6    0  502 -0.10643699594E+03  0.17045360346E+03 -0.73823220574E+03  0.76509480108E+03  0.00000000000E+00 0.  1.
<mgrwt>
<rscale>  0 0.13039437E+04</rscale>
<asrwt>0</asrwt>
<pdfrwt beam="1">  1        1 0.28553653E+00 0.13039437E+04</pdfrwt>
<pdfrwt beam="2">  1       -1 0.35234599E-01 0.13039437E+04</pdfrwt>
<totfact> 0.28126856E+01</totfact>
</mgrwt>
</event>
<event>
12    1  0.1494110E-007  0.1697111E+04  0.7818608E-02  0.8763014E-01
          2   -1    0    0  501    0  0.00000000000E+00  0.00000000000E+00  0.17722106159E+04  0.17722106159E+04  0.00000000000E+00 0. -1.
         -2   -1    0    0    0  501 -0.00000000000E+00 -0.00000000000E+00 -0.40629863877E+03  0.40629863877E+03  0.00000000000E+00 0.  1.
         23    2    1    2    0    0  0.35870694075E+03  0.25245761842E+03  0.10424233007E+04  0.11346200851E+04  0.91164034281E+02 0.  0.
        254    2    1    2    0    0 -0.35870694075E+03 -0.25245761842E+03  0.32348867636E+03  0.10438891695E+04  0.89031126922E+03 0.  0.
        -24    2    4    4    0    0 -0.52173102913E+03 -0.10367187819E+03  0.51177748621E+03  0.74297734281E+03  0.84545913260E+02 0.  0.
         24    2    4    4    0    0  0.16302408838E+03 -0.14878574023E+03 -0.18828880985E+03  0.30091182673E+03  0.79882423970E+02 0.  0.
         11    1    3    3    0    0  0.32956864295E+03  0.25741238894E+03  0.98293888443E+03  0.10681973034E+04  0.00000000000E+00 0. -1.
        -11    1    3    3    0    0  0.29138297796E+02 -0.49547705165E+01  0.59484416294E+02  0.66422781719E+02  0.00000000000E+00 0.  1.
          4    1    6    6  502    0  0.13769599076E+03 -0.15301608442E+03 -0.14956749209E+03  0.25444948939E+03  0.00000000000E+00 0. -1.
          3    1    5    5  503    0 -0.40064459383E+03 -0.10459936382E+03  0.42939132643E+03  0.59651825512E+03  0.00000000000E+00 0. -1.
         -4    1    5    5    0  503 -0.12108643529E+03  0.92748563440E+00  0.82386159782E+02  0.14645908769E+03  0.00000000000E+00 0.  1.
         -3    1    6    6    0  502  0.25328097618E+02  0.42303441887E+01 -0.38721317765E+02  0.46462337332E+02  0.00000000000E+00 0.  1.
<mgrwt>
<rscale>  0 0.16971114E+04</rscale>
<asrwt>0</asrwt>
<pdfrwt beam="1">  1        2 0.27264778E+00 0.16971114E+04</pdfrwt>
<pdfrwt beam="2">  1       -2 0.62507484E-01 0.16971114E+04</pdfrwt>
<totfact> 0.20200257E+01</totfact>
</mgrwt>
</event>
<event>
12    1  0.1494110E-007  0.1901199E+04  0.7818608E-02  0.8654260E-01
         -1   -1    0    0    0  501 -0.00000000000E+00  0.00000000000E+00  0.87575608508E+03  0.87575608508E+03  0.00000000000E+00 0.  1.
          1   -1    0    0  501    0  0.00000000000E+00 -0.00000000000E+00 -0.10318387204E+04  0.10318387204E+04  0.00000000000E+00 0. -1.
         23    2    1    2    0    0  0.53052648541E+03  0.50695118423E+02  0.44544839649E+03  0.70070660665E+03  0.92396579512E+02 0.  0.
        254    2    1    2    0    0 -0.53052648541E+03 -0.50695118423E+02 -0.60153103177E+03  0.12068881988E+04  0.90039502189E+03 0.  0.
        -24    2    4    4    0    0 -0.16915648038E+03 -0.44452906117E+03 -0.41460822282E+03  0.63580010265E+03  0.78241875148E+02 0.  0.
         24    2    4    4    0    0 -0.36137000504E+03  0.39383394275E+03 -0.18692280895E+03  0.57108809614E+03  0.74216049764E+02 0.  0.
         11    1    3    3    0    0  0.39213572523E+03  0.66820090791E+02  0.36472037439E+03  0.53968166823E+03  0.00000000000E+00 0.  1.
        -11    1    3    3    0    0  0.13839076019E+03 -0.16124972368E+02  0.80728022105E+02  0.16102493841E+03  0.00000000000E+00 0. -1.
          2    1    6    6  502    0 -0.14364149267E+03  0.11747632267E+03 -0.40030592871E+02  0.18983153893E+03  0.00000000000E+00 0. -1.
          3    1    5    5  503    0 -0.44661650202E+02 -0.47999291280E+02 -0.69923188375E+02  0.95853258863E+02  0.00000000000E+00 0. -1.
         -4    1    5    5    0  503 -0.12449483017E+03 -0.39652976989E+03 -0.34468503444E+03  0.53994684379E+03  0.00000000000E+00 0.  1.
         -1    1    6    6    0  502 -0.21772851236E+03  0.27635762008E+03 -0.14689221608E+03  0.38125655721E+03  0.00000000000E+00 0.  1.
<mgrwt>
<rscale>  0 0.19011986E+04</rscale>
<asrwt>0</asrwt>
<pdfrwt beam="1">  1        1 0.15874442E+00 0.19011986E+04</pdfrwt>
<pdfrwt beam="2">  1       -1 0.13473171E+00 0.19011986E+04</pdfrwt>
<totfact> 0.61913932E+00</totfact>
</mgrwt>
</event>
<event>
12    1  0.1494110E-007  0.1321989E+04  0.7818608E-02  0.9012307E-01
          1   -1    0    0  501    0  0.00000000000E+00  0.00000000000E+00  0.97950833448E+03  0.97950833448E+03  0.00000000000E+00 0. -1.
         -1   -1    0    0    0  501 -0.00000000000E+00 -0.00000000000E+00 -0.44605390157E+03  0.44605390157E+03  0.00000000000E+00 0.  1.
         23    2    1    2    0    0  0.15347306846E+03  0.26708630073E+03  0.28089951916E+03  0.42697041786E+03  0.92250328367E+02 0.  0.
        254    2    1    2    0    0 -0.15347306846E+03 -0.26708630073E+03  0.25255491374E+03  0.99859181819E+03  0.91570331446E+03 0.  0.
        -24    2    4    4    0    0  0.37811804579E+03 -0.15196335498E+03  0.79464365901E+02  0.42257463567E+03  0.78667779016E+02 0.  0.
         24    2    4    4    0    0 -0.53159111425E+03 -0.11512294574E+03  0.17309054784E+03  0.57601718251E+03  0.77414801016E+02 0.  0.
         11    1    3    3    0    0  0.41578132403E+02  0.67858093127E+02  0.13232979611E+03  0.15441708725E+03  0.00000000000E+00 0.  1.
        -11    1    3    3    0    0  0.11189493605E+03  0.19922820760E+03  0.14856972306E+03  0.27255333061E+03  0.00000000000E+00 0. -1.
          4    1    6    6  502    0 -0.32290547022E+02 -0.25894301128E+02  0.21478035803E+02  0.46631537395E+02  0.00000000000E+00 0. -1.
          3    1    5    5  503    0  0.12200597079E+02 -0.21322041382E+02 -0.47317098081E+01  0.25017455815E+02  0.00000000000E+00 0. -1.
         -4    1    5    5    0  503  0.36591744871E+03 -0.13064131360E+03  0.84196075709E+02  0.39755717986E+03  0.00000000000E+00 0.  1.
         -3    1    6    6    0  502 -0.49930056722E+03 -0.89228644615E+02  0.15161251204E+03  0.52938564512E+03  0.00000000000E+00 0.  1.
<mgrwt>
<rscale>  0 0.13219887E+04</rscale>
<asrwt>0</asrwt>
<pdfrwt beam="1">  1        1 0.15069359E+00 0.13219887E+04</pdfrwt>
<pdfrwt beam="2">  1       -1 0.68623677E-01 0.13219887E+04</pdfrwt>
<totfact> 0.33107667E+01</totfact>
</mgrwt>
</event>
<event>
12    1  0.1494110E-007  0.1042959E+04  0.7818608E-02  0.9262644E-01
         -2   -1    0    0    0  501 -0.00000000000E+00  0.00000000000E+00  0.27876896508E+03  0.27876896508E+03  0.00000000000E+00 0.  1.
          2   -1    0    0  501    0  0.00000000000E+00 -0.00000000000E+00 -0.97550643443E+03  0.97550643443E+03  0.00000000000E+00 0. -1.
         23    2    1    2    0    0 -0.93007111296E+01  0.63742485556E+02 -0.20654527181E+03  0.23667616236E+03  0.95942945699E+02 0.  0.
        254    2    1    2    0    0  0.93007111296E+01 -0.63742485556E+02 -0.49019219753E+03  0.10175992372E+04  0.88942127771E+03 0.  0.
        -24    2    4    4    0    0 -0.14719165329E+03  0.22881163275E+03  0.12824875134E+03  0.31135872135E+03  0.80475866324E+02 0.  0.
         24    2    4    4    0    0  0.15649236442E+03 -0.29255411830E+03 -0.61844094887E+03  0.70624051580E+03  0.78922029035E+02 0.  0.
         13    1    3    3    0    0 -0.56352695207E+01  0.29948094650E+02 -0.19968668173E+03  0.20199855320E+03  0.00000000000E+00 0. -1.
        -13    1    3    3    0    0 -0.36654416088E+01  0.33794390906E+02 -0.68585900805E+01  0.34677609156E+02  0.00000000000E+00 0.  1.
          4    1    6    6  502    0  0.93451338541E+02 -0.14781557426E+03 -0.24699114654E+03  0.30263381030E+03  0.00000000000E+00 0. -1.
          1    1    5    5  503    0 -0.10145877771E+02  0.79777820778E+02  0.47378438122E+02  0.93338930370E+02  0.00000000000E+00 0. -1.
         -2    1    5    5    0  503 -0.13704577552E+03  0.14903381197E+03  0.80870313215E+02  0.21801979098E+03  0.00000000000E+00 0.  1.
         -3    1    6    6    0  502  0.63041025882E+02 -0.14473854404E+03 -0.37144980233E+03  0.40360670550E+03  0.00000000000E+00 0.  1.
<mgrwt>
<rscale>  0 0.10429591E+04</rscale>
<asrwt>0</asrwt>
<pdfrwt beam="1">  1        2 0.15007791E+00 0.10429591E+04</pdfrwt>
<pdfrwt beam="2">  1       -2 0.42887533E-01 0.10429591E+04</pdfrwt>
<totfact> 0.13405179E+02</totfact>
</mgrwt>
</event>
<event>
12    1  0.1494110E-007  0.1873895E+04  0.7818608E-02  0.8667960E-01
         -1   -1    0    0    0  501 -0.00000000000E+00  0.00000000000E+00  0.45979385380E+03  0.45979385380E+03  0.00000000000E+00 0.  1.
          1   -1    0    0  501    0  0.00000000000E+00 -0.00000000000E+00 -0.19092708982E+04  0.19092708982E+04  0.00000000000E+00 0. -1.
         23    2    1    2    0    0  0.28839371599E+03 -0.62696771266E+03 -0.82711313474E+03  0.10812675884E+04  0.93616301387E+02 0.  0.
        254    2    1    2    0    0 -0.28839371599E+03  0.62696771266E+03 -0.62236390966E+03  0.12877971636E+04  0.89152972492E+03 0.  0.
        -24    2    4    4    0    0 -0.27734100379E+03  0.20144703595E+03 -0.75583001543E+03  0.83379651945E+03  0.80241404220E+02 0.  0.
         24    2    4    4    0    0 -0.11052712207E+02  0.42552067670E+03  0.13346610577E+03  0.45400064415E+03  0.84340824952E+02 0.  0.
         11    1    3    3    0    0  0.28625651705E+03 -0.57134639886E+03 -0.77990947239E+03  0.10082848239E+04  0.00000000000E+00 0. -1.
        -11    1    3    3    0    0  0.21371989463E+01 -0.55621313795E+02 -0.47203662348E+02  0.72982764449E+02  0.00000000000E+00 0.  1.
          4    1    6    6  502    0 -0.18513443908E+02  0.19251649572E+03  0.19130421305E+02  0.19434845446E+03  0.00000000000E+00 0. -1.
          1    1    5    5  503    0 -0.22028098587E+02 -0.54406462932E+01 -0.63608498618E+02  0.67534279117E+02  0.00000000000E+00 0. -1.
         -2    1    5    5    0  503 -0.25531290520E+03  0.20688768225E+03 -0.69222151681E+03  0.76626224034E+03  0.00000000000E+00 0.  1.
         -3    1    6    6    0  502  0.74607317011E+01  0.23300418098E+03  0.11433568447E+03  0.25965218970E+03  0.00000000000E+00 0.  1.
<mgrwt>
<rscale>  0 0.18738954E+04</rscale>
<asrwt>0</asrwt>
<pdfrwt beam="1">  1        1 0.29373398E+00 0.18738954E+04</pdfrwt>
<pdfrwt beam="2">  1       -1 0.70737517E-01 0.18738954E+04</pdfrwt>
<totfact> 0.65015183E+00</totfact>
</mgrwt>
</event>
<event>
12    1  0.1494110E-007  0.1395268E+04  0.7818608E-02  0.8957251E-01
         -1   -1    0    0    0  501 -0.00000000000E+00  0.00000000000E+00  0.76182979241E+03  0.76182979241E+03  0.00000000000E+00 0.  1.
          1   -1    0    0  501    0  0.00000000000E+00 -0.00000000000E+00 -0.63884770279E+03  0.63884770279E+03  0.00000000000E+00 0. -1.
         23    2    1    2    0    0 -0.39688508086E+03  0.55378358769E+02  0.98579926620E+01  0.41088837571E+03  0.90263764845E+02 0.  0.
        254    2    1    2    0    0  0.39688508086E+03 -0.55378358769E+02  0.11312409696E+03  0.98978911949E+03  0.89794259823E+03 0.  0.
        -24    2    4    4    0    0 -0.25471383641E+03 -0.17026260713E+03  0.44534311968E+02  0.31966084711E+03  0.79569205007E+02 0.  0.
         24    2    4    4    0    0  0.65159891727E+03  0.11488424836E+03  0.68589784994E+02  0.67012827238E+03  0.81165284055E+02 0.  0.
         11    1    3    3    0    0  0.45094913076E+01  0.36651323240E+01  0.18451502467E+01  0.60969899326E+01  0.00000000000E+00 0. -1.
        -11    1    3    3    0    0 -0.40139457217E+03  0.51713226445E+02  0.80128424153E+01  0.40479138578E+03  0.00000000000E+00 0.  1.
          4    1    6    6  502    0  0.73816754167E+02  0.39579351506E+02  0.13822878558E+02  0.84891166990E+02  0.00000000000E+00 0. -1.
          1    1    5    5  503    0 -0.48480472996E+02 -0.31554484775E+02 -0.22776136672E+02  0.62167468769E+02  0.00000000000E+00 0. -1.
         -2    1    5    5    0  503 -0.20623336341E+03 -0.13870812236E+03  0.67310448640E+02  0.25749337834E+03  0.00000000000E+00 0.  1.
         -3    1    6    6    0  502  0.57778216310E+03  0.75304896858E+02  0.54766906437E+02  0.58523710539E+03  0.00000000000E+00 0.  1.
<mgrwt>
<rscale>  0 0.13952680E+04</rscale>
<asrwt>0</asrwt>
<pdfrwt beam="1">  1        1 0.98284262E-01 0.13952680E+04</pdfrwt>
<pdfrwt beam="2">  1       -1 0.11720458E+00 0.13952680E+04</pdfrwt>
<totfact> 0.19992234E+01</totfact>
</mgrwt>
</event>
<event>
12    1  0.1494110E-007  0.1733170E+04  0.7818608E-02  0.8742669E-01
         -2   -1    0    0    0  501 -0.00000000000E+00  0.00000000000E+00  0.37715214265E+03  0.37715214265E+03  0.00000000000E+00 0. -1.
          2   -1    0    0  501    0  0.00000000000E+00 -0.00000000000E+00 -0.19911584700E+04  0.19911584700E+04  0.00000000000E+00 0.  1.
         23    2    1    2    0    0  0.40042591958E+03 -0.32100894852E+03 -0.10623521156E+04  0.11833154057E+04  0.90860716572E+02 0.  0.
        254    2    1    2    0    0 -0.40042591958E+03  0.32100894852E+03 -0.55165421179E+03  0.11849952070E+04  0.91460571234E+03 0.  0.
        -24    2    4    4    0    0  0.60219936521E+02 -0.91005941882E+02  0.17893548715E+03  0.22473768663E+03  0.81120879069E+02 0.  0.
         24    2    4    4    0    0 -0.46064585610E+03  0.41201489040E+03 -0.73058969893E+03  0.96025752033E+03  0.79889439278E+02 0.  0.
         11    1    3    3    0    0  0.33866476361E+03 -0.25184597437E+03 -0.79087233743E+03  0.89643698665E+03  0.00000000000E+00 0.  1.
        -11    1    3    3    0    0  0.61761155970E+02 -0.69162974142E+02 -0.27147977817E+03  0.28687841908E+03  0.00000000000E+00 0. -1.
          4    1    6    6  502    0 -0.32685784463E+03  0.33634743919E+03 -0.53415939943E+03  0.71083888080E+03  0.00000000000E+00 0. -1.
          1    1    5    5  503    0  0.54213227343E+02 -0.11543166568E+02  0.61213255331E+02  0.82579545539E+02  0.00000000000E+00 0. -1.
         -2    1    5    5    0  503  0.60067091778E+01 -0.79462775314E+02  0.11772223181E+03  0.14215814109E+03  0.00000000000E+00 0.  1.
         -3    1    6    6    0  502 -0.13378801146E+03  0.75667451205E+02 -0.19643029950E+03  0.24941863953E+03  0.00000000000E+00 0.  1.
<mgrwt>
<rscale>  0 0.17331701E+04</rscale>
<asrwt>0</asrwt>
<pdfrwt beam="1">  1        2 0.30633207E+00 0.17331701E+04</pdfrwt>
<pdfrwt beam="2">  1       -2 0.58023407E-01 0.17331701E+04</pdfrwt>
<totfact> 0.17827418E+01</totfact>
</mgrwt>
</event>
<event>
12    1  0.1494110E-007  0.1504073E+04  0.7818608E-02  0.8881749E-01
          2   -1    0    0  501    0  0.00000000000E+00  0.00000000000E+00  0.96277599356E+03  0.96277599356E+03  0.00000000000E+00 0. -1.
         -2   -1    0    0    0  501 -0.00000000000E+00 -0.00000000000E+00 -0.58742558608E+03  0.58742558608E+03  0.00000000000E+00 0.  1.
         23    2    1    2    0    0 -0.43207383577E+01 -0.43647263599E+03 -0.13663645798E+03  0.46610318146E+03  0.89753124543E+02 0.  0.
        254    2    1    2    0    0  0.43207383577E+01  0.43647263599E+03  0.51198686546E+03  0.10840983982E+04  0.85006573615E+03 0.  0.
        -24    2    4    4    0    0  0.35243589768E+03  0.14453356571E+02  0.51523413076E+02  0.36514655074E+03  0.79103602501E+02 0.  0.
         24    2    4    4    0    0 -0.34811515933E+03  0.42201927942E+03  0.46046345239E+03  0.71895184744E+03  0.74704294351E+02 0.  0.
         13    1    3    3    0    0 -0.19569763293E+02 -0.39190937764E+03 -0.96179120305E+02  0.40401282046E+03  0.00000000000E+00 0.  1.
        -13    1    3    3    0    0  0.15249024935E+02 -0.44563258359E+02 -0.40457337678E+02  0.62090360999E+02  0.00000000000E+00 0. -1.
          4    1    6    6  502    0 -0.11182337196E+03  0.14192967876E+03  0.19897321254E+03  0.26877284002E+03  0.00000000000E+00 0. -1.
          3    1    5    5  503    0  0.42598955411E+02  0.16988430087E+02 -0.14973591938E+02  0.48244027760E+02  0.00000000000E+00 0. -1.
         -4    1    5    5    0  503  0.30983694227E+03 -0.25350735156E+01  0.66497005014E+02  0.31690252298E+03  0.00000000000E+00 0.  1.
         -3    1    6    6    0  502 -0.23629178737E+03  0.28008960067E+03  0.26149023985E+03  0.45017900741E+03  0.00000000000E+00 0.  1.
<mgrwt>
<rscale>  0 0.15040735E+04</rscale>
<asrwt>0</asrwt>
<pdfrwt beam="1">  1        2 0.14811938E+00 0.15040735E+04</pdfrwt>
<pdfrwt beam="2">  1       -2 0.90373167E-01 0.15040735E+04</pdfrwt>
<totfact> 0.26931253E+01</totfact>
</mgrwt>
</event>
<event>
12    1  0.1494110E-007  0.1643070E+04  0.7818608E-02  0.8794517E-01
         -2   -1    0    0    0  501 -0.00000000000E+00  0.00000000000E+00  0.79079537447E+03  0.79079537447E+03  0.00000000000E+00 0.  1.
          2   -1    0    0  501    0  0.00000000000E+00 -0.00000000000E+00 -0.85346933588E+03  0.85346933588E+03  0.00000000000E+00 0. -1.
         23    2    1    2    0    0 -0.27687965168E+03 -0.16573568064E+03  0.45715320090E+03  0.56702800089E+03  0.91657227504E+02 0.  0.
        254    2    1    2    0    0  0.27687965168E+03  0.16573568064E+03 -0.51982716230E+03  0.10772367095E+04  0.88661603425E+03 0.  0.
        -24    2    4    4    0    0 -0.18287395582E+03 -0.98542561742E+02 -0.49215501141E+03  0.53981990059E+03  0.77688156276E+02 0.  0.
         24    2    4    4    0    0  0.45975360750E+03  0.26427824238E+03 -0.27672150891E+02  0.53741680887E+03  0.82672301956E+02 0.  0.
         11    1    3    3    0    0 -0.86407681333E+01 -0.46382954434E+00 -0.31626107312E+01  0.92130406716E+01  0.00000000000E+00 0. -1.
        -11    1    3    3    0    0 -0.26823888355E+03 -0.16527185110E+03  0.46031581163E+03  0.55781496022E+03  0.00000000000E+00 0.  1.
          4    1    6    6  502    0  0.40349313166E+03  0.23631246673E+03 -0.51053587236E+02  0.47037937667E+03  0.00000000000E+00 0. -1.
          1    1    5    5  503    0 -0.12292799895E+03 -0.74724177035E+02 -0.24243817113E+03  0.28190647807E+03  0.00000000000E+00 0. -1.
         -2    1    5    5    0  503 -0.59945956876E+02 -0.23818384707E+02 -0.24971684028E+03  0.25791342252E+03  0.00000000000E+00 0.  1.
         -3    1    6    6    0  502  0.56260475845E+02  0.27965775653E+02  0.23381436345E+02  0.67037432199E+02  0.00000000000E+00 0.  1.
<mgrwt>
<rscale>  0 0.16430698E+04</rscale>
<asrwt>0</asrwt>
<pdfrwt beam="1">  1        2 0.13130297E+00 0.16430698E+04</pdfrwt>
<pdfrwt beam="2">  1       -2 0.12166083E+00 0.16430698E+04</pdfrwt>
<totfact> 0.15478171E+01</totfact>
</mgrwt>
</event>
<event>
12    1  0.1494110E-007  0.1379610E+04  0.7818608E-02  0.8968711E-01
          2   -1    0    0  501    0  0.00000000000E+00  0.00000000000E+00  0.95909569835E+03  0.95909569835E+03  0.00000000000E+00 0.  1.
         -2   -1    0    0    0  501 -0.00000000000E+00 -0.00000000000E+00 -0.49612466890E+03  0.49612466890E+03  0.00000000000E+00 0. -1.
         23    2    1    2    0    0  0.62584637589E+02 -0.36136403075E+03  0.26456663792E+03  0.46068315236E+03  0.87935552452E+02 0.  0.
        254    2    1    2    0    0 -0.62584637589E+02  0.36136403075E+03  0.19840439153E+03  0.99453721488E+03  0.90290595835E+03 0.  0.
        -24    2    4    4    0    0 -0.25551486486E+03  0.23008311651E+03  0.49522045142E+03  0.60861985315E+03  0.83359123544E+02 0.  0.
         24    2    4    4    0    0  0.19293022727E+03  0.13128091424E+03 -0.29681605989E+03  0.38591736173E+03  0.79847890595E+02 0.  0.
         13    1    3    3    0    0  0.62031793298E+02 -0.26596167824E+03  0.23641050199E+03  0.36121113372E+03  0.00000000000E+00 0.  1.
        -13    1    3    3    0    0  0.55284429133E+00 -0.95402352514E+02  0.28156135926E+02  0.99472018640E+02  0.00000000000E+00 0. -1.
          2    1    6    6  502    0  0.16771485032E+03  0.11488168346E+03 -0.29148047442E+03  0.35536873693E+03  0.00000000000E+00 0. -1.
          3    1    5    5  503    0 -0.17926538395E+03  0.10769238270E+03  0.27749256073E+03  0.34747064399E+03  0.00000000000E+00 0. -1.
         -4    1    5    5    0  503 -0.76249480912E+02  0.12239073381E+03  0.21772789069E+03  0.26114920916E+03  0.00000000000E+00 0.  1.
         -1    1    6    6    0  502  0.25215376950E+02  0.16399230780E+02 -0.53355854678E+01  0.30548624801E+02  0.00000000000E+00 0.  1.
<mgrwt>
<rscale>  0 0.13796101E+04</rscale>
<asrwt>0</asrwt>
<pdfrwt beam="1">  1        2 0.14755318E+00 0.13796101E+04</pdfrwt>
<pdfrwt beam="2">  1       -2 0.76326872E-01 0.13796101E+04</pdfrwt>
<totfact> 0.40096890E+01</totfact>
</mgrwt>
</event>
<event>
12    1  0.1494110E-007  0.2287502E+04  0.7818608E-02  0.8482865E-01
         -2   -1    0    0    0  501 -0.00000000000E+00  0.00000000000E+00  0.39451298385E+03  0.39451298385E+03  0.00000000000E+00 0. -1.
          2   -1    0    0  501    0  0.00000000000E+00 -0.00000000000E+00 -0.33159020255E+04  0.33159020255E+04  0.00000000000E+00 0.  1.
         23    2    1    2    0    0  0.50353956389E+03  0.17463760347E+03  0.66816150054E+02  0.54611596364E+03  0.98629928937E+02 0.  0.
        254    2    1    2    0    0 -0.50353956389E+03 -0.17463760347E+03 -0.29882051917E+04  0.31642990457E+04  0.89407370954E+03 0.  0.
        -24    2    4    4    0    0  0.54492592337E+02  0.16772205091E+03 -0.13449468128E+03  0.23534519711E+03  0.78730003998E+02 0.  0.
         24    2    4    4    0    0 -0.55803215623E+03 -0.34235965437E+03 -0.28537105104E+04  0.29289538486E+04  0.80603658095E+02 0.  0.
         11    1    3    3    0    0  0.25178745834E+02  0.33984505684E+02  0.14753231139E+02  0.44794795428E+02  0.00000000000E+00 0.  1.
        -11    1    3    3    0    0  0.47836081806E+03  0.14065309778E+03  0.52062918914E+02  0.50132116821E+03  0.00000000000E+00 0. -1.
          2    1    6    6  502    0 -0.36886782793E+03 -0.21920818291E+03 -0.20316501607E+04  0.20764676924E+04  0.00000000000E+00 0. -1.
          3    1    5    5  503    0  0.93446897069E+01  0.18869097446E+02  0.97538509411E+01  0.23205681897E+02  0.00000000000E+00 0. -1.
         -4    1    5    5    0  503  0.45147902630E+02  0.14885295346E+03 -0.14424853222E+03  0.21213951521E+03  0.00000000000E+00 0.  1.
         -1    1    6    6    0  502 -0.18916432829E+03 -0.12315147147E+03 -0.82206034970E+03  0.85248615624E+03  0.00000000000E+00 0.  1.
<mgrwt>
<rscale>  0 0.22875020E+04</rscale>
<asrwt>0</asrwt>
<pdfrwt beam="1">  1        2 0.51013878E+00 0.22875020E+04</pdfrwt>
<pdfrwt beam="2">  1       -2 0.60694305E-01 0.22875020E+04</pdfrwt>
<totfact> 0.24980288E+00</totfact>
</mgrwt>
</event>
<event>
12    1  0.1494110E-007  0.1994694E+04  0.7818608E-02  0.8609105E-01
          1   -1    0    0  501    0  0.00000000000E+00  0.00000000000E+00  0.15906236781E+04  0.15906236781E+04  0.00000000000E+00 0. -1.
         -1   -1    0    0    0  501 -0.00000000000E+00 -0.00000000000E+00 -0.62535286468E+03  0.62535286468E+03  0.00000000000E+00 0.  1.
         23    2    1    2    0    0  0.18960155116E+03  0.40568305708E+02 -0.46495284332E+03  0.51205730036E+03  0.91798674857E+02 0.  0.
        254    2    1    2    0    0 -0.18960155116E+03 -0.40568305708E+02  0.14302236567E+04  0.17039192424E+04  0.90565254968E+03 0.  0.
        -24    2    4    4    0    0  0.20092478481E+03  0.32147654640E+03  0.61934187880E+03  0.73053497307E+03  0.79868923862E+02 0.  0.
         24    2    4    4    0    0 -0.39052633597E+03 -0.36204485211E+03  0.81088177792E+03  0.97338426933E+03  0.79752015621E+02 0.  0.
         13    1    3    3    0    0  0.74906805859E+02 -0.14318306666E+02 -0.10117569680E+03  0.12669871780E+03  0.00000000000E+00 0. -1.
        -13    1    3    3    0    0  0.11469474530E+03  0.54886612374E+02 -0.36377714652E+03  0.38535858255E+03  0.00000000000E+00 0.  1.
          2    1    6    6  502    0 -0.35779542377E+03 -0.33527691405E+03  0.77882123698E+03  0.92032097311E+03  0.00000000000E+00 0. -1.
          3    1    5    5  503    0  0.14317621856E+03  0.15925415915E+03  0.37016323055E+03  0.42764720743E+03  0.00000000000E+00 0. -1.
         -4    1    5    5    0  503  0.57748566242E+02  0.16222238726E+03  0.24917864825E+03  0.30288776564E+03  0.00000000000E+00 0.  1.
         -1    1    6    6    0  502 -0.32730912192E+02 -0.26767938058E+02  0.32060540942E+02  0.53063296225E+02  0.00000000000E+00 0.  1.
<mgrwt>
<rscale>  0 0.19946940E+04</rscale>
<asrwt>0</asrwt>
<pdfrwt beam="1">  1        1 0.24471133E+00 0.19946940E+04</pdfrwt>
<pdfrwt beam="2">  1       -1 0.96208133E-01 0.19946940E+04</pdfrwt>
<totfact> 0.54696992E+00</totfact>
</mgrwt>
</event>
<event>
12    1  0.1494110E-007  0.2183112E+04  0.7818608E-02  0.8525490E-01
         -2   -1    0    0    0  501 -0.00000000000E+00  0.00000000000E+00  0.51343840284E+03  0.51343840284E+03  0.00000000000E+00 0.  1.
          2   -1    0    0  501    0  0.00000000000E+00 -0.00000000000E+00 -0.23206188761E+04  0.23206188761E+04  0.00000000000E+00 0. -1.
         23    2    1    2    0    0 -0.13261255050E+03  0.17177630604E+03  0.37454222110E+03  0.44231006255E+03  0.90901750133E+02 0.  0.
        254    2    1    2    0    0  0.13261255050E+03 -0.17177630604E+03 -0.21817226944E+04  0.23917472164E+04  0.95574454965E+03 0.  0.
        -24    2    4    4    0    0  0.48959722544E+03 -0.27631066129E+03 -0.99775732589E+03  0.11481279490E+04  0.81394601932E+02 0.  0.
         24    2    4    4    0    0 -0.35698467494E+03  0.10453435525E+03 -0.11839653685E+04  0.12436192674E+04  0.80308149713E+02 0.  0.
         11    1    3    3    0    0 -0.27780308468E+02  0.48310559161E+02  0.34180717661E+02  0.65375661563E+02  0.00000000000E+00 0. -1.
        -11    1    3    3    0    0 -0.10483224203E+03  0.12346574688E+03  0.34036150344E+03  0.37693440098E+03  0.00000000000E+00 0.  1.
          2    1    6    6  502    0 -0.12273126075E+03  0.58330281860E+02 -0.32948605884E+03  0.35640769790E+03  0.00000000000E+00 0. -1.
          3    1    5    5  503    0  0.22899942099E+03 -0.17564921364E+03 -0.49746830201E+03  0.57512441486E+03  0.00000000000E+00 0. -1.
         -4    1    5    5    0  503  0.26059780445E+03 -0.10066144765E+03 -0.50028902388E+03  0.57300353414E+03  0.00000000000E+00 0.  1.
         -1    1    6    6    0  502 -0.23425341418E+03  0.46204073390E+02 -0.85447930968E+03  0.88721156954E+03  0.00000000000E+00 0.  1.
<mgrwt>
<rscale>  0 0.21831123E+04</rscale>
<asrwt>0</asrwt>
<pdfrwt beam="1">  1        2 0.35701828E+00 0.21831123E+04</pdfrwt>
<pdfrwt beam="2">  1       -2 0.78990524E-01 0.21831123E+04</pdfrwt>
<totfact> 0.57447309E+00</totfact>
</mgrwt>
</event>
<event>
12    1  0.1494110E-007  0.1603344E+04  0.7818608E-02  0.8818496E-01
         -1   -1    0    0    0  501 -0.00000000000E+00  0.00000000000E+00  0.85154168657E+03  0.85154168657E+03  0.00000000000E+00 0.  1.
          1   -1    0    0  501    0  0.00000000000E+00 -0.00000000000E+00 -0.75472296264E+03  0.75472296264E+03  0.00000000000E+00 0. -1.
         23    2    1    2    0    0  0.14214144574E+03  0.12370356789E+03  0.54714644056E+03  0.58584760740E+03  0.91331420511E+02 0.  0.
        254    2    1    2    0    0 -0.14214144574E+03 -0.12370356789E+03 -0.45032771663E+03  0.10204170418E+04  0.89607428460E+03 0.  0.
        -24    2    4    4    0    0 -0.19161880650E+03 -0.33705443828E+03  0.11245061996E+03  0.41127169751E+03  0.78586295703E+02 0.  0.
         24    2    4    4    0    0  0.49477360764E+02  0.21335087039E+03 -0.56277833660E+03  0.60914534429E+03  0.79824753046E+02 0.  0.
         13    1    3    3    0    0  0.10187538527E+01  0.46580552979E+02  0.92017039137E+02  0.10314029895E+03  0.00000000000E+00 0. -1.
        -13    1    3    3    0    0  0.14112269189E+03  0.77123014915E+02  0.45512940143E+03  0.48270730846E+03  0.00000000000E+00 0.  1.
          4    1    6    6  502    0  0.41992021350E+02  0.65699032039E+02 -0.27179835747E+03  0.28276145386E+03  0.00000000000E+00 0. -1.
          3    1    5    5  503    0 -0.24505496907E+02 -0.79401543883E+02  0.52733156100E+02  0.98417022420E+02  0.00000000000E+00 0. -1.
         -4    1    5    5    0  503 -0.16711330960E+03 -0.25765289440E+03  0.59717463864E+02  0.31285467509E+03  0.00000000000E+00 0.  1.
         -3    1    6    6    0  502  0.74853394144E+01  0.14765183835E+03 -0.29097997913E+03  0.32638389042E+03  0.00000000000E+00 0.  1.
<mgrwt>
<rscale>  0 0.16033441E+04</rscale>
<asrwt>0</asrwt>
<pdfrwt beam="1">  1        1 0.11611122E+00 0.16033441E+04</pdfrwt>
<pdfrwt beam="2">  1       -1 0.13100641E+00 0.16033441E+04</pdfrwt>
<totfact> 0.11572955E+01</totfact>
</mgrwt>
</event>
<event>
12    1  0.1494110E-007  0.3047780E+04  0.7818608E-02  0.8230217E-01
         -2   -1    0    0    0  501 -0.00000000000E+00  0.00000000000E+00  0.65189717261E+03  0.65189717261E+03  0.00000000000E+00 0. -1.
          2   -1    0    0  501    0  0.00000000000E+00 -0.00000000000E+00 -0.35622802155E+04  0.35622802155E+04  0.00000000000E+00 0.  1.
         23    2    1    2    0    0  0.68584895391E+03  0.58887054203E+03  0.12634182509E+03  0.91726989736E+03  0.90909322843E+02 0.  0.
        254    2    1    2    0    0 -0.68584895391E+03 -0.58887054203E+03 -0.30367248680E+04  0.32969074908E+04  0.91145146660E+03 0.  0.
        -24    2    4    4    0    0  0.15490109520E+03 -0.27833977044E+03 -0.12974145525E+04  0.13386176894E+04  0.84530587220E+02 0.  0.
         24    2    4    4    0    0 -0.84075004911E+03 -0.31053077159E+03 -0.17393103154E+04  0.19582898013E+04  0.80053528705E+02 0.  0.
         13    1    3    3    0    0  0.57762383216E+03  0.53321902145E+03  0.96880475875E+02  0.79205911580E+03  0.00000000000E+00 0. -1.
        -13    1    3    3    0    0  0.10822512175E+03  0.55651520580E+02  0.29461349214E+02  0.12521078156E+03  0.00000000000E+00 0.  1.
          2    1    6    6  502    0 -0.82415679243E+03 -0.30376131365E+03 -0.17234014195E+04  0.19343261894E+04  0.00000000000E+00 0. -1.
          1    1    5    5  503    0  0.16212112719E+03 -0.23464389153E+03 -0.11324091662E+04  0.11677720391E+04  0.00000000000E+00 0. -1.
         -2    1    5    5    0  503 -0.72200319947E+01 -0.43695878915E+02 -0.16500538636E+03  0.17084565030E+03  0.00000000000E+00 0.  1.
         -1    1    6    6    0  502 -0.16593256684E+02 -0.67694579372E+01 -0.15908895921E+02  0.23963611947E+02  0.00000000000E+00 0.  1.
<mgrwt>
<rscale>  0 0.30477798E+04</rscale>
<asrwt>0</asrwt>
<pdfrwt beam="1">  1        2 0.54804312E+00 0.30477798E+04</pdfrwt>
<pdfrwt beam="2">  1       -2 0.10029187E+00 0.30477798E+04</pdfrwt>
<totfact> 0.51338473E-01</totfact>
</mgrwt>
</event>
<event>
12    1  0.1494110E-007  0.1608881E+04  0.7818608E-02  0.8815111E-01
         -2   -1    0    0    0  501 -0.00000000000E+00  0.00000000000E+00  0.25314505282E+03  0.25314505282E+03  0.00000000000E+00 0.  1.
          2   -1    0    0  501    0  0.00000000000E+00 -0.00000000000E+00 -0.25563380809E+04  0.25563380809E+04  0.00000000000E+00 0. -1.
         23    2    1    2    0    0  0.27682093436E+03 -0.14329504965E+03 -0.10812207857E+02  0.32471483911E+03  0.90330072237E+02 0.  0.
        254    2    1    2    0    0 -0.27682093436E+03  0.14329504965E+03 -0.22923808203E+04  0.24847682946E+04  0.90658720043E+03 0.  0.
        -24    2    4    4    0    0 -0.56736799841E+03  0.17532727698E+03 -0.18797336845E+04  0.19729476452E+04  0.80483453964E+02 0.  0.
         24    2    4    4    0    0  0.29054706405E+03 -0.32032227330E+02 -0.41264713574E+03  0.51182064942E+03  0.78987711225E+02 0.  0.
         11    1    3    3    0    0  0.26920367284E+03 -0.11567942780E+03  0.27525886311E+01  0.29301864144E+03  0.00000000000E+00 0.  1.
        -11    1    3    3    0    0  0.76172615162E+01 -0.27615621855E+02 -0.13564796488E+02  0.31696197677E+02  0.00000000000E+00 0. -1.
          2    1    6    6  502    0  0.71687344945E+02 -0.69679100791E+01 -0.16697597378E+03  0.18184774680E+03  0.00000000000E+00 0. -1.
          3    1    5    5  503    0 -0.90262398391E+02  0.56712161628E+01 -0.22597451225E+03  0.24340078768E+03  0.00000000000E+00 0. -1.
         -4    1    5    5    0  503 -0.47710560002E+03  0.16965606082E+03 -0.16537591723E+04  0.17295468575E+04  0.00000000000E+00 0.  1.
         -1    1    6    6    0  502  0.21885971911E+03 -0.25064317251E+02 -0.24567116195E+03  0.32997290262E+03  0.00000000000E+00 0.  1.
<mgrwt>
<rscale>  0 0.16088808E+04</rscale>
<asrwt>0</asrwt>
<pdfrwt beam="1">  1        2 0.39328277E+00 0.16088808E+04</pdfrwt>
<pdfrwt beam="2">  1       -2 0.38945394E-01 0.16088808E+04</pdfrwt>
<totfact> 0.19322572E+01</totfact>
</mgrwt>
</event>
<event>
12    1  0.1494110E-007  0.2044329E+04  0.7818608E-02  0.8586171E-01
          2   -1    0    0  501    0  0.00000000000E+00  0.00000000000E+00  0.98304896456E+03  0.98304896456E+03  0.00000000000E+00 0.  1.
         -2   -1    0    0    0  501 -0.00000000000E+00 -0.00000000000E+00 -0.10628367912E+04  0.10628367912E+04  0.00000000000E+00 0. -1.
         23    2    1    2    0    0  0.25160825248E+03 -0.55759865262E+02 -0.81073011661E+03  0.85555359226E+03  0.90954669830E+02 0.  0.
        254    2    1    2    0    0 -0.25160825248E+03  0.55759865262E+02  0.73094228995E+03  0.11903321635E+04  0.90343685610E+03 0.  0.
        -24    2    4    4    0    0 -0.26159776793E+03 -0.39077911271E+03  0.29221904138E+03  0.55916882888E+03  0.78333287511E+02 0.  0.
         24    2    4    4    0    0  0.99895154443E+01  0.44653897797E+03  0.43872324857E+03  0.63116333463E+03  0.79951340703E+02 0.  0.
         11    1    3    3    0    0  0.97911595710E+02 -0.61741826996E+02 -0.27996783509E+03  0.30295333380E+03  0.00000000000E+00 0.  1.
        -11    1    3    3    0    0  0.15369665677E+03  0.59819617335E+01 -0.53076228152E+03  0.55260025847E+03  0.00000000000E+00 0. -1.
          2    1    6    6  502    0  0.17874787832E+02  0.23078410010E+03  0.27947247756E+03  0.36288520859E+03  0.00000000000E+00 0. -1.
          1    1    5    5  503    0 -0.46056001616E+02 -0.50757480492E+02  0.75464487996E+02  0.10194295493E+03  0.00000000000E+00 0. -1.
         -2    1    5    5    0  503 -0.21554176631E+03 -0.34002163221E+03  0.21675455339E+03  0.45722587395E+03  0.00000000000E+00 0.  1.
         -1    1    6    6    0  502 -0.78852723874E+01  0.21575487787E+03  0.15925077101E+03  0.26827812604E+03  0.00000000000E+00 0.  1.
<mgrwt>
<rscale>  0 0.20443293E+04</rscale>
<asrwt>0</asrwt>
<pdfrwt beam="1">  1        2 0.15123830E+00 0.20443293E+04</pdfrwt>
<pdfrwt beam="2">  1       -2 0.16351335E+00 0.20443293E+04</pdfrwt>
<totfact> 0.56749123E+00</totfact>
</mgrwt>
</event>
<event>
12    1  0.1494110E-007  0.1878993E+04  0.7818608E-02  0.8665384E-01
          1   -1    0    0  501    0  0.00000000000E+00  0.00000000000E+00  0.47506615190E+03  0.47506615190E+03  0.00000000000E+00 0. -1.
         -1   -1    0    0    0  501 -0.00000000000E+00 -0.00000000000E+00 -0.18579596091E+04  0.18579596091E+04  0.00000000000E+00 0.  1.
         23    2    1    2    0    0 -0.27063072803E+02 -0.58040621275E+03 -0.10837388818E+02  0.58860266379E+03  0.93444449313E+02 0.  0.
        254    2    1    2    0    0  0.27063072803E+02  0.58040621275E+03 -0.13720560684E+04  0.17444230972E+04  0.90712199048E+03 0.  0.
        -24    2    4    4    0    0 -0.33806299603E+03  0.55698336266E+03 -0.61233491402E+03  0.89777297535E+03  0.80778789210E+02 0.  0.
         24    2    4    4    0    0  0.36512606883E+03  0.23422850094E+02 -0.75972115436E+03  0.84665012186E+03  0.75990265261E+02 0.  0.
         13    1    3    3    0    0 -0.17051606099E+01 -0.42678228939E+03  0.29361341496E+02  0.42779448159E+03  0.00000000000E+00 0.  1.
        -13    1    3    3    0    0 -0.25357912193E+02 -0.15362392337E+03 -0.40198730315E+02  0.16080818220E+03  0.00000000000E+00 0. -1.
          4    1    6    6  502    0  0.40454170060E+02 -0.54997178670E+01 -0.43027526976E+02  0.59314035856E+02  0.00000000000E+00 0. -1.
          3    1    5    5  503    0 -0.56873113609E+01  0.24102362240E+02 -0.75784867093E+01  0.25897931131E+02  0.00000000000E+00 0. -1.
         -4    1    5    5    0  503 -0.33237568467E+03  0.53288100042E+03 -0.60475642731E+03  0.87187504422E+03  0.00000000000E+00 0.  1.
         -3    1    6    6    0  502  0.32467189877E+03  0.28922567961E+02 -0.71669362738E+03  0.78733608600E+03  0.00000000000E+00 0.  1.
<mgrwt>
<rscale>  0 0.18789931E+04</rscale>
<asrwt>0</asrwt>
<pdfrwt beam="1">  1        1 0.73087100E-01 0.18789931E+04</pdfrwt>
<pdfrwt beam="2">  1       -1 0.28583994E+00 0.18789931E+04</pdfrwt>
<totfact> 0.18195526E+00</totfact>
</mgrwt>
</event>
<event>
12    1  0.1494110E-007  0.2079497E+04  0.7818608E-02  0.8570329E-01
          1   -1    0    0  501    0  0.00000000000E+00  0.00000000000E+00  0.14220293167E+04  0.14220293167E+04  0.00000000000E+00 0. -1.
         -1   -1    0    0    0  501 -0.00000000000E+00 -0.00000000000E+00 -0.76023498288E+03  0.76023498288E+03  0.00000000000E+00 0.  1.
         23    2    1    2    0    0 -0.42528982786E+03  0.66695074337E+03  0.43928627836E+03  0.91245867426E+03  0.11795620424E+03 0.  0.
        254    2    1    2    0    0  0.42528982786E+03 -0.66695074337E+03  0.22250805545E+03  0.12698056253E+04  0.96809181359E+03 0.  0.
        -24    2    4    4    0    0  0.16299690472E+03 -0.77095887211E+03 -0.13937731211E+03  0.80420785001E+03  0.79866497715E+02 0.  0.
         24    2    4    4    0    0  0.26229292314E+03  0.10400812874E+03  0.36188536756E+03  0.46559777529E+03  0.78771826985E+02 0.  0.
         11    1    3    3    0    0 -0.20556740301E+02  0.12698657703E+02 -0.41086309471E+01  0.24509515041E+02  0.00000000000E+00 0. -1.
        -11    1    3    3    0    0 -0.40473308756E+03  0.65425208567E+03  0.44339490931E+03  0.88794915922E+03  0.00000000000E+00 0.  1.
          4    1    6    6  502    0  0.80124067949E+01  0.22280521250E+02  0.47495997419E+02  0.53070613908E+02  0.00000000000E+00 0. -1.
          1    1    5    5  503    0  0.62254284597E+02 -0.21809791319E+03 -0.73364723521E+02  0.23837927416E+03  0.00000000000E+00 0. -1.
         -2    1    5    5    0  503  0.10074262012E+03 -0.55286095892E+03 -0.66012588593E+02  0.56582857586E+03  0.00000000000E+00 0.  1.
         -3    1    6    6    0  502  0.25428051635E+03  0.81727607490E+02  0.31438937014E+03  0.41252716138E+03  0.00000000000E+00 0.  1.
<mgrwt>
<rscale>  0 0.20794965E+04</rscale>
<asrwt>0</asrwt>
<pdfrwt beam="1">  1        1 0.21877374E+00 0.20794965E+04</pdfrwt>
<pdfrwt beam="2">  1       -1 0.11695923E+00 0.20794965E+04</pdfrwt>
<totfact> 0.45016412E+00</totfact>
</mgrwt>
</event>
<event>
12    1  0.1494110E-007  0.1511230E+04  0.7818608E-02  0.8877019E-01
         -1   -1    0    0    0  501 -0.00000000000E+00  0.00000000000E+00  0.15216002083E+04  0.15216002083E+04  0.00000000000E+00 0.  1.
          1   -1    0    0  501    0  0.00000000000E+00 -0.00000000000E+00 -0.37523285881E+03  0.37523285881E+03  0.00000000000E+00 0. -1.
         23    2    1    2    0    0  0.26002695986E+03  0.16477572700E+03  0.89250934882E+03  0.94850285589E+03  0.91212224208E+02 0.  0.
        254    2    1    2    0    0 -0.26002695986E+03 -0.16477572700E+03  0.25385800067E+03  0.94833021122E+03  0.86030299601E+03 0.  0.
        -24    2    4    4    0    0  0.27258237062E+03 -0.23704015165E+03  0.10955237777E+03  0.38609283136E+03  0.81097279147E+02 0.  0.
         24    2    4    4    0    0 -0.53260933048E+03  0.72264424653E+02  0.14430562290E+03  0.56223737986E+03  0.79949437272E+02 0.  0.
         11    1    3    3    0    0  0.12075074200E+03  0.96855846053E+02  0.32123546659E+03  0.35658662567E+03  0.00000000000E+00 0. -1.
        -11    1    3    3    0    0  0.13927621786E+03  0.67919880942E+02  0.57127388223E+03  0.59191623023E+03  0.00000000000E+00 0.  1.
          4    1    6    6  502    0 -0.30225452255E+03  0.31319126638E+02  0.41545482165E+02  0.30669970848E+03  0.00000000000E+00 0. -1.
          1    1    5    5  503    0  0.47000779012E+02 -0.53505820761E+02  0.55523624706E+02  0.90304036364E+02  0.00000000000E+00 0. -1.
         -2    1    5    5    0  503  0.22558159161E+03 -0.18353433089E+03  0.54028753060E+02  0.29578879499E+03  0.00000000000E+00 0.  1.
         -3    1    6    6    0  502 -0.23035480793E+03  0.40945298015E+02  0.10276014074E+03  0.25553767138E+03  0.00000000000E+00 0.  1.
<mgrwt>
<rscale>  0 0.15112305E+04</rscale>
<asrwt>0</asrwt>
<pdfrwt beam="1">  1        1 0.57728133E-01 0.15112305E+04</pdfrwt>
<pdfrwt beam="2">  1       -1 0.23409234E+00 0.15112305E+04</pdfrwt>
<totfact> 0.55997753E+00</totfact>
</mgrwt>
</event>
<event>
12    1  0.1494110E-007  0.1968980E+04  0.7818608E-02  0.8621262E-01
         -2   -1    0    0    0  501 -0.00000000000E+00  0.00000000000E+00  0.19933415495E+03  0.19933415495E+03  0.00000000000E+00 0.  1.
          2   -1    0    0  501    0  0.00000000000E+00 -0.00000000000E+00 -0.48622897444E+04  0.48622897444E+04  0.00000000000E+00 0. -1.
         23    2    1    2    0    0  0.46500616650E+03  0.13833769152E+01 -0.34768303638E+04  0.35089423333E+04  0.89968167862E+02 0.  0.
        254    2    1    2    0    0 -0.46500616650E+03 -0.13833769152E+01 -0.11861252257E+04  0.15526815660E+04  0.88752146227E+03 0.  0.
        -24    2    4    4    0    0  0.21452616368E+03 -0.16174016577E+03 -0.21110464543E+03  0.35077928126E+03  0.79369872792E+02 0.  0.
         24    2    4    4    0    0 -0.67953233018E+03  0.16035678886E+03 -0.97502058023E+03  0.12019022848E+04  0.80159109470E+02 0.  0.
         11    1    3    3    0    0  0.30037455421E+03 -0.26724254637E+02 -0.24721417409E+04  0.24904665920E+04  0.00000000000E+00 0. -1.
        -11    1    3    3    0    0  0.16463161228E+03  0.28107631552E+02 -0.10046886228E+04  0.10184757413E+04  0.00000000000E+00 0.  1.
          2    1    6    6  502    0 -0.21898776424E+03  0.63345877479E+02 -0.25884104705E+03  0.34491597342E+03  0.00000000000E+00 0. -1.
          3    1    5    5  503    0  0.16164665850E+03 -0.12675404733E+03 -0.19944225630E+03  0.28631004927E+03  0.00000000000E+00 0. -1.
         -4    1    5    5    0  503  0.52879505179E+02 -0.34986118447E+02 -0.11662389135E+02  0.64469231982E+02  0.00000000000E+00 0.  1.
         -1    1    6    6    0  502 -0.46054456594E+03  0.97010911380E+02 -0.71617953317E+03  0.85698631137E+03  0.00000000000E+00 0.  1.
<mgrwt>
<rscale>  0 0.19689799E+04</rscale>
<asrwt>0</asrwt>
<pdfrwt beam="1">  1        2 0.74804451E+00 0.19689799E+04</pdfrwt>
<pdfrwt beam="2">  1       -2 0.30666796E-01 0.19689799E+04</pdfrwt>
<totfact> 0.47371631E-01</totfact>
</mgrwt>
</event>
<event>
12    1  0.1494110E-007  0.2536055E+04  0.7818608E-02  0.8390252E-01
          1   -1    0    0  501    0  0.00000000000E+00  0.00000000000E+00  0.12662057352E+04  0.12662057352E+04  0.00000000000E+00 0. -1.
         -1   -1    0    0    0  501 -0.00000000000E+00 -0.00000000000E+00 -0.12698520591E+04  0.12698520591E+04  0.00000000000E+00 0.  1.
         23    2    1    2    0    0 -0.59143625520E+03 -0.43114895243E+03  0.82953900778E+03  0.11103649620E+04  0.95336877747E+02 0.  0.
        254    2    1    2    0    0  0.59143625520E+03  0.43114895243E+03 -0.83318533169E+03  0.14256928323E+04  0.89594419029E+03 0.  0.
        -24    2    4    4    0    0 -0.22496432469E+03  0.12407950713E+03 -0.11126765806E+03  0.29059331543E+03  0.77841581262E+02 0.  0.
         24    2    4    4    0    0  0.81640057989E+03  0.30706944530E+03 -0.72191767362E+03  0.11350995169E+04  0.80524745994E+02 0.  0.
         13    1    3    3    0    0 -0.22999672638E+03 -0.16676977139E+03  0.39345684013E+03  0.48530293203E+03  0.00000000000E+00 0.  1.
        -13    1    3    3    0    0 -0.36143952883E+03 -0.26437918104E+03  0.43608216765E+03  0.62506202997E+03  0.00000000000E+00 0. -1.
          2    1    6    6  502    0  0.47726616119E+03  0.20844963807E+03 -0.39259077786E+03  0.65219763806E+03  0.00000000000E+00 0. -1.
          1    1    5    5  503    0 -0.11758445430E+03  0.46929927338E+02 -0.93055245234E+02  0.15712352032E+03  0.00000000000E+00 0. -1.
         -2    1    5    5    0  503 -0.10737987038E+03  0.77149579792E+02 -0.18212412829E+02  0.13346979511E+03  0.00000000000E+00 0.  1.
         -1    1    6    6    0  502  0.33913441870E+03  0.98619807233E+02 -0.32932689577E+03  0.48290187886E+03  0.00000000000E+00 0.  1.
<mgrwt>
<rscale>  0 0.25360552E+04</rscale>
<asrwt>0</asrwt>
<pdfrwt beam="1">  1        1 0.19480088E+00 0.25360552E+04</pdfrwt>
<pdfrwt beam="2">  1       -1 0.19536185E+00 0.25360552E+04</pdfrwt>
<totfact> 0.13730810E+00</totfact>
</mgrwt>
</event>
<event>
12    1  0.1494110E-007  0.1330182E+04  0.7818608E-02  0.9005967E-01
         -2   -1    0    0    0  501 -0.00000000000E+00  0.00000000000E+00  0.78799095284E+03  0.78799095284E+03  0.00000000000E+00 0. -1.
          2   -1    0    0  501    0  0.00000000000E+00 -0.00000000000E+00 -0.56135898607E+03  0.56135898607E+03  0.00000000000E+00 0.  1.
         23    2    1    2    0    0  0.25487021918E+03  0.48375649416E+02 -0.18413748399E+03  0.33129820187E+03  0.92481638564E+02 0.  0.
        254    2    1    2    0    0 -0.25487021918E+03 -0.48375649416E+02  0.41076945077E+03  0.10180517370E+04  0.89465007993E+03 0.  0.
        -24    2    4    4    0    0  0.28694953218E+03  0.68618223762E+02 -0.26851811652E+02  0.30742258431E+03  0.82092209758E+02 0.  0.
         24    2    4    4    0    0 -0.54181975136E+03 -0.11699387318E+03  0.43762126242E+03  0.71062915273E+03  0.78900025719E+02 0.  0.
         11    1    3    3    0    0  0.18187483319E+03  0.37993448419E+02 -0.76732944282E+02  0.20102214258E+03  0.00000000000E+00 0. -1.
        -11    1    3    3    0    0  0.72995385989E+02  0.10382200996E+02 -0.10740453971E+03  0.13027605929E+03  0.00000000000E+00 0.  1.
          2    1    6    6  502    0 -0.11989741454E+03  0.55940139208E+00  0.70230175607E+02  0.13895315940E+03  0.00000000000E+00 0. -1.
          3    1    5    5  503    0  0.11605030183E+03  0.27898305593E+02  0.29453489945E+02  0.12293695978E+03  0.00000000000E+00 0. -1.
         -4    1    5    5    0  503  0.17089923035E+03  0.40719918169E+02 -0.56305301597E+02  0.18448562453E+03  0.00000000000E+00 0.  1.
         -3    1    6    6    0  502 -0.42192233682E+03 -0.11755327457E+03  0.36739108681E+03  0.57167599332E+03  0.00000000000E+00 0.  1.
<mgrwt>
<rscale>  0 0.13301816E+04</rscale>
<asrwt>0</asrwt>
<pdfrwt beam="1">  1        2 0.86362921E-01 0.13301816E+04</pdfrwt>
<pdfrwt beam="2">  1       -2 0.12122938E+00 0.13301816E+04</pdfrwt>
<totfact> 0.27199167E+01</totfact>
</mgrwt>
</event>
<event>
12    1  0.1494110E-007  0.2927938E+04  0.7818608E-02  0.8264613E-01
          2   -1    0    0  501    0  0.00000000000E+00  0.00000000000E+00  0.20859645735E+04  0.20859645735E+04  0.00000000000E+00 0. -1.
         -2   -1    0    0    0  501 -0.00000000000E+00 -0.00000000000E+00 -0.10274408289E+04  0.10274408289E+04  0.00000000000E+00 0.  1.
         23    2    1    2    0    0 -0.28457142323E+03 -0.63569094411E+03  0.16853777768E+04  0.18262571683E+04  0.98148472776E+02 0.  0.
        254    2    1    2    0    0  0.28457142323E+03  0.63569094411E+03 -0.62685403220E+03  0.12871482342E+04  0.88245154417E+03 0.  0.
        -24    2    4    4    0    0  0.44497631085E+03  0.69527182081E+03 -0.70064562710E+03  0.10856154066E+04  0.79055008035E+02 0.  0.
         24    2    4    4    0    0 -0.16040488762E+03 -0.59580876698E+02  0.73791594901E+02  0.20153282759E+03  0.76750715149E+02 0.  0.
         13    1    3    3    0    0 -0.28998794617E+03 -0.59383744102E+03  0.15709210103E+04  0.17042678005E+04  0.00000000000E+00 0. -1.
        -13    1    3    3    0    0  0.54165229413E+01 -0.41853503092E+02  0.11445676653E+03  0.12198936776E+03  0.00000000000E+00 0.  1.
          4    1    6    6  502    0 -0.13951170809E+03 -0.63525759811E+02  0.87234686926E+02  0.17637723622E+03  0.00000000000E+00 0. -1.
          1    1    5    5  503    0  0.22228101698E+03  0.41457387105E+03 -0.37827333173E+03  0.60363155862E+03  0.00000000000E+00 0. -1.
         -2    1    5    5    0  503  0.22269529387E+03  0.28069794975E+03 -0.32237229537E+03  0.48198384800E+03  0.00000000000E+00 0.  1.
         -3    1    6    6    0  502 -0.20893179536E+02  0.39448831128E+01 -0.13443092026E+02  0.25155591369E+02  0.00000000000E+00 0.  1.
<mgrwt>
<rscale>  0 0.29279380E+04</rscale>
<asrwt>0</asrwt>
<pdfrwt beam="1">  1        2 0.32091763E+00 0.29279380E+04</pdfrwt>
<pdfrwt beam="2">  1       -2 0.15806782E+00 0.29279380E+04</pdfrwt>
<totfact> 0.13413715E+00</totfact>
</mgrwt>
</event>
<event>
12    1  0.1494110E-007  0.2216295E+04  0.7818608E-02  0.8511676E-01
          3   -1    0    0  501    0  0.00000000000E+00  0.00000000000E+00  0.94072088753E+03  0.94072088753E+03  0.00000000000E+00 0. -1.
         -3   -1    0    0    0  501 -0.00000000000E+00 -0.00000000000E+00 -0.13053722742E+04  0.13053722742E+04  0.00000000000E+00 0.  1.
         23    2    1    2    0    0  0.61881402875E+03 -0.59884444388E+03  0.17472996202E+03  0.88341563736E+03  0.91362785383E+02 0.  0.
        254    2    1    2    0    0 -0.61881402875E+03  0.59884444388E+03 -0.53938134870E+03  0.13626775244E+04  0.90797154470E+03 0.  0.
        -24    2    4    4    0    0  0.32720518428E+02  0.34606501720E+03 -0.55316995241E+03  0.65832794664E+03  0.81037402634E+02 0.  0.
         24    2    4    4    0    0 -0.65153454718E+03  0.25277942668E+03  0.13788603713E+02  0.70434957774E+03  0.86738096274E+02 0.  0.
         11    1    3    3    0    0  0.60839465852E+03 -0.60060652554E+03  0.17578472006E+03  0.87279581051E+03  0.00000000000E+00 0. -1.
        -11    1    3    3    0    0  0.10419370230E+02  0.17620816588E+01 -0.10547580341E+01  0.10619826848E+02  0.00000000000E+00 0.  1.
          4    1    6    6  502    0 -0.11608818132E+03  0.39580237188E+02  0.35264703715E+02  0.12761920054E+03  0.00000000000E+00 0. -1.
          3    1    5    5  503    0  0.11561969494E+02  0.30665979990E+03 -0.51513957833E+03  0.59961879322E+03  0.00000000000E+00 0. -1.
         -4    1    5    5    0  503  0.21158548934E+02  0.39405217305E+02 -0.38030374075E+02  0.58709153427E+02  0.00000000000E+00 0.  1.
         -3    1    6    6    0  502 -0.53544636586E+03  0.21319918949E+03 -0.21476100002E+02  0.57673037720E+03  0.00000000000E+00 0.  1.
<mgrwt>
<rscale>  0 0.22162951E+04</rscale>
<asrwt>0</asrwt>
<pdfrwt beam="1">  1        3 0.14472629E+00 0.22162951E+04</pdfrwt>
<pdfrwt beam="2">  1       -3 0.20082650E+00 0.22162951E+04</pdfrwt>
<totfact> 0.12226094E-01</totfact>
</mgrwt>
</event>
<event>
12    1  0.1494110E-007  0.3137550E+04  0.7818608E-02  0.8205507E-01
          1   -1    0    0  501    0  0.00000000000E+00  0.00000000000E+00  0.22962893304E+04  0.22962893304E+04  0.00000000000E+00 0. -1.
         -1   -1    0    0    0  501 -0.00000000000E+00 -0.00000000000E+00 -0.10717532424E+04  0.10717532424E+04  0.00000000000E+00 0.  1.
         23    2    1    2    0    0 -0.10438684312E+04  0.81428462680E+03 -0.40569595316E+02  0.13269714752E+04  0.80539734663E+02 0.  0.
        254    2    1    2    0    0  0.10438684312E+04 -0.81428462680E+03  0.12651056833E+04  0.20410710976E+04  0.90153096467E+03 0.  0.
        -24    2    4    4    0    0  0.11731215780E+04 -0.76112203026E+03  0.96926341674E+03  0.17033439560E+04  0.79925463793E+02 0.  0.
         24    2    4    4    0    0 -0.12925314678E+03 -0.53162596536E+02  0.29584226659E+03  0.33772714157E+03  0.83691922123E+02 0.  0.
         11    1    3    3    0    0 -0.75828573536E+03  0.62075689171E+03 -0.56787653714E+02  0.98161153858E+03  0.00000000000E+00 0.  1.
        -11    1    3    3    0    0 -0.28558269584E+03  0.19352773509E+03  0.16218058398E+02  0.34535993663E+03  0.00000000000E+00 0. -1.
          4    1    6    6  502    0 -0.98410067185E+02 -0.72744920363E+02  0.25552796320E+03  0.28332120418E+03  0.00000000000E+00 0. -1.
          1    1    5    5  503    0  0.23128484024E+03 -0.15481358924E+03  0.15530033159E+03  0.31871322177E+03  0.00000000000E+00 0. -1.
         -2    1    5    5    0  503  0.94183673774E+03 -0.60630844102E+03  0.81396308514E+03  0.13846307342E+04  0.00000000000E+00 0.  1.
         -3    1    6    6    0  502 -0.30843079590E+02  0.19582323827E+02  0.40314303395E+02  0.54405937390E+02  0.00000000000E+00 0.  1.
<mgrwt>
<rscale>  0 0.31375503E+04</rscale>
<asrwt>0</asrwt>
<pdfrwt beam="1">  1        1 0.35327528E+00 0.31375503E+04</pdfrwt>
<pdfrwt beam="2">  1       -1 0.16488511E+00 0.31375503E+04</pdfrwt>
<totfact> 0.42274925E-01</totfact>
</mgrwt>
</event>
<event>
12    1  0.1494110E-007  0.1832370E+04  0.7818608E-02  0.8689273E-01
          2   -1    0    0  501    0  0.00000000000E+00  0.00000000000E+00  0.79095620105E+03  0.79095620105E+03  0.00000000000E+00 0.  1.
         -2   -1    0    0    0  501 -0.00000000000E+00 -0.00000000000E+00 -0.10612404347E+04  0.10612404347E+04  0.00000000000E+00 0. -1.
         23    2    1    2    0    0  0.44693638113E+03 -0.33553772496E+03 -0.49776524037E+03  0.75400386148E+03  0.91727285798E+02 0.  0.
        254    2    1    2    0    0 -0.44693638113E+03  0.33553772496E+03  0.22748100668E+03  0.10981927743E+04  0.91757401199E+03 0.  0.
        -24    2    4    4    0    0 -0.93551721469E+02 -0.28799531910E+03 -0.66985164279E+02  0.31944512846E+03  0.76582957973E+02 0.  0.
         24    2    4    4    0    0 -0.35338465966E+03  0.62353304406E+03  0.29446617096E+03  0.77874764584E+03  0.77867806827E+02 0.  0.
         13    1    3    3    0    0  0.35741084781E+03 -0.25827332240E+03 -0.43791836236E+03  0.62146610148E+03  0.00000000000E+00 0. -1.
        -13    1    3    3    0    0  0.89525533318E+02 -0.77264402555E+02 -0.59846878009E+02  0.13253776000E+03  0.00000000000E+00 0.  1.
          2    1    6    6  502    0 -0.25838492049E+03  0.46746271034E+03  0.25479327595E+03  0.59178016709E+03  0.00000000000E+00 0. -1.
          3    1    5    5  503    0 -0.87878331320E+02 -0.26576924841E+03 -0.38011485943E+02  0.28249029643E+03  0.00000000000E+00 0. -1.
         -4    1    5    5    0  503 -0.56733901486E+01 -0.22226070696E+02 -0.28973678336E+02  0.36954832034E+02  0.00000000000E+00 0.  1.
         -1    1    6    6    0  502 -0.94999739167E+02  0.15607033372E+03  0.39672895010E+02  0.18696747874E+03  0.00000000000E+00 0.  1.
<mgrwt>
<rscale>  0 0.18323697E+04</rscale>
<asrwt>0</asrwt>
<pdfrwt beam="1">  1        2 0.12168557E+00 0.18323697E+04</pdfrwt>
<pdfrwt beam="2">  1       -2 0.16326776E+00 0.18323697E+04</pdfrwt>
<totfact> 0.78446128E+00</totfact>
</mgrwt>
</event>
<event>
12    1  0.1494110E-007  0.1817675E+04  0.7818608E-02  0.8696956E-01
         -2   -1    0    0    0  501 -0.00000000000E+00  0.00000000000E+00  0.56429042719E+03  0.56429042719E+03  0.00000000000E+00 0.  1.
          2   -1    0    0  501    0  0.00000000000E+00 -0.00000000000E+00 -0.14637603789E+04  0.14637603789E+04  0.00000000000E+00 0. -1.
         23    2    1    2    0    0  0.28507702962E+03 -0.26081068471E+02  0.34712193167E+03  0.45944790417E+03  0.93003259391E+02 0.  0.
        254    2    1    2    0    0 -0.28507702962E+03  0.26081068471E+02 -0.12465918834E+04  0.15686029019E+04  0.90806090391E+03 0.  0.
        -24    2    4    4    0    0 -0.10939855437E+03 -0.21614619162E+03  0.27984887584E+02  0.25671841897E+03  0.80212049321E+02 0.  0.
         24    2    4    4    0    0 -0.17567847525E+03  0.24222726009E+03 -0.12745767710E+04  0.13118844829E+04  0.83414502862E+02 0.  0.
         13    1    3    3    0    0 -0.24460748425E+01 -0.91515737465E+00  0.32072524264E+02  0.32178682506E+02  0.00000000000E+00 0. -1.
        -13    1    3    3    0    0  0.28752310446E+03 -0.25165911096E+02  0.31504940741E+03  0.42726922167E+03  0.00000000000E+00 0.  1.
          2    1    6    6  502    0 -0.15639311291E+03  0.22571367801E+03 -0.12326750661E+04  0.12628908460E+04  0.00000000000E+00 0. -1.
          1    1    5    5  503    0 -0.24949388775E+02 -0.10207197226E+03  0.43937255127E+02  0.11389311617E+03  0.00000000000E+00 0. -1.
         -2    1    5    5    0  503 -0.84449165592E+02 -0.11407421936E+03 -0.15952367543E+02  0.14282530281E+03  0.00000000000E+00 0.  1.
         -1    1    6    6    0  502 -0.19285362335E+02  0.16513582085E+02 -0.41901704814E+02  0.48993636933E+02  0.00000000000E+00 0.  1.
<mgrwt>
<rscale>  0 0.18176754E+04</rscale>
<asrwt>0</asrwt>
<pdfrwt beam="1">  1        2 0.22519390E+00 0.18176754E+04</pdfrwt>
<pdfrwt beam="2">  1       -2 0.86813912E-01 0.18176754E+04</pdfrwt>
<totfact> 0.14405625E+01</totfact>
</mgrwt>
</event>
<event>
12    1  0.1494110E-007  0.1847177E+04  0.7818608E-02  0.8681606E-01
         -1   -1    0    0    0  501 -0.00000000000E+00  0.00000000000E+00  0.37500193362E+03  0.37500193362E+03  0.00000000000E+00 0. -1.
          1   -1    0    0  501    0  0.00000000000E+00 -0.00000000000E+00 -0.22746966544E+04  0.22746966544E+04  0.00000000000E+00 0.  1.
         23    2    1    2    0    0  0.27114880489E+03  0.50733387301E+03 -0.15328407352E+03  0.60314209932E+03  0.96824850522E+02 0.  0.
        254    2    1    2    0    0 -0.27114880489E+03 -0.50733387301E+03 -0.17464106473E+04  0.20465564887E+04  0.89862894431E+03 0.  0.
        -24    2    4    4    0    0  0.22868120609E+03 -0.17751190087E+03 -0.11820197645E+04  0.12196298737E+04  0.80751074529E+02 0.  0.
         24    2    4    4    0    0 -0.49983001098E+03 -0.32982197214E+03 -0.56439088275E+03  0.82692661506E+03  0.81596476604E+02 0.  0.
         13    1    3    3    0    0  0.23460889200E+03  0.44323607695E+03 -0.98089307884E+02  0.51100006305E+03  0.00000000000E+00 0. -1.
        -13    1    3    3    0    0  0.36539912886E+02  0.64097796057E+02 -0.55194765640E+02  0.92142036265E+02  0.00000000000E+00 0.  1.
          4    1    6    6  502    0 -0.35036786903E+03 -0.21663300403E+03 -0.43521395405E+03  0.59924843586E+03  0.00000000000E+00 0. -1.
          1    1    5    5  503    0  0.10182851972E+03 -0.74208567461E+02 -0.35795533318E+03  0.37948383294E+03  0.00000000000E+00 0. -1.
         -2    1    5    5    0  503  0.12685268637E+03 -0.10330333341E+03 -0.82406443134E+03  0.84014604072E+03  0.00000000000E+00 0.  1.
         -3    1    6    6    0  502 -0.14946214195E+03 -0.11318896811E+03 -0.12917692870E+03  0.22767817920E+03  0.00000000000E+00 0.  1.
<mgrwt>
<rscale>  0 0.18471769E+04</rscale>
<asrwt>0</asrwt>
<pdfrwt beam="1">  1        1 0.34995333E+00 0.18471769E+04</pdfrwt>
<pdfrwt beam="2">  1       -1 0.57692605E-01 0.18471769E+04</pdfrwt>
<totfact> 0.55420762E+00</totfact>
</mgrwt>
</event>
<event>
12    1  0.1494110E-007  0.1396499E+04  0.7818608E-02  0.8956357E-01
          2   -1    0    0  501    0  0.00000000000E+00  0.00000000000E+00  0.25653657159E+04  0.25653657159E+04  0.00000000000E+00 0. -1.
         -2   -1    0    0    0  501 -0.00000000000E+00 -0.00000000000E+00 -0.19005179331E+03  0.19005179331E+03  0.00000000000E+00 0.  1.
         23    2    1    2    0    0 -0.25424563935E+03  0.62338113018E+02  0.99685786269E+02  0.29457224785E+03  0.91151893877E+02 0.  0.
        254    2    1    2    0    0  0.25424563935E+03 -0.62338113018E+02  0.22756281363E+04  0.24608452614E+04  0.89930478707E+03 0.  0.
        -24    2    4    4    0    0  0.43140676888E+03  0.23210831681E+03  0.78319332960E+03  0.92725488013E+03  0.80148301433E+02 0.  0.
         24    2    4    4    0    0 -0.17716112954E+03 -0.29444642982E+03  0.14924348067E+04  0.15335903812E+04  0.80330811136E+02 0.  0.
         13    1    3    3    0    0 -0.83900814324E+02  0.55199314133E+02  0.73978096737E+01  0.10070272346E+03  0.00000000000E+00 0.  1.
        -13    1    3    3    0    0 -0.17034482502E+03  0.71387988850E+01  0.92287976595E+02  0.19386952439E+03  0.00000000000E+00 0. -1.
          2    1    6    6  502    0 -0.13017827234E+02 -0.15403424085E+02  0.20835255295E+03  0.20932633761E+03  0.00000000000E+00 0. -1.
          1    1    5    5  503    0  0.47717809713E+02  0.47992624898E+02  0.74955159331E+02  0.10098790679E+03  0.00000000000E+00 0. -1.
         -4    1    5    5    0  503  0.38368895917E+03  0.18411569191E+03  0.70823817027E+03  0.82626697334E+03  0.00000000000E+00 0.  1.
         -1    1    6    6    0  502 -0.16414330230E+03 -0.27904300574E+03  0.12840822538E+04  0.13242640436E+04  0.00000000000E+00 0.  1.
<mgrwt>
<rscale>  0 0.13964990E+04</rscale>
<asrwt>0</asrwt>
<pdfrwt beam="1">  1        2 0.39467162E+00 0.13964990E+04</pdfrwt>
<pdfrwt beam="2">  1       -2 0.29238739E-01 0.13964990E+04</pdfrwt>
<totfact> 0.33542117E+01</totfact>
</mgrwt>
</event>
<event>
12    1  0.1494110E-007  0.4062336E+04  0.7818608E-02  0.7992088E-01
          2   -1    0    0  501    0  0.00000000000E+00  0.00000000000E+00  0.20530134942E+04  0.20530134942E+04  0.00000000000E+00 0.  1.
         -2   -1    0    0    0  501 -0.00000000000E+00 -0.00000000000E+00 -0.20095549305E+04  0.20095549305E+04  0.00000000000E+00 0. -1.
         23    2    1    2    0    0 -0.16369051868E+04  0.10332653230E+04 -0.40392380077E+02  0.19383239946E+04  0.91501612701E+02 0.  0.
        254    2    1    2    0    0  0.16369051868E+04 -0.10332653230E+04  0.83850943822E+02  0.21242444302E+04  0.87079710605E+03 0.  0.
        -24    2    4    4    0    0  0.55923320150E+03 -0.74067116063E+03 -0.23294285034E+03  0.96073606917E+03  0.86115510929E+02 0.  0.
         24    2    4    4    0    0  0.10776719853E+04 -0.29259416238E+03  0.31679379417E+03  0.11635083610E+04  0.80032157716E+02 0.  0.
         11    1    3    3    0    0 -0.68139654877E+02  0.65584912622E+02 -0.65487488543E+01  0.94801262871E+02  0.00000000000E+00 0.  1.
        -11    1    3    3    0    0 -0.15687655320E+04  0.96768041038E+03 -0.33843631223E+02  0.18435227317E+04  0.00000000000E+00 0. -1.
          2    1    6    6  502    0  0.67204426465E+03 -0.20079439113E+03  0.23447217364E+03  0.73955329853E+03  0.00000000000E+00 0. -1.
          3    1    5    5  503    0  0.53132874655E+03 -0.67993613877E+03 -0.19810755227E+03  0.88536432726E+03  0.00000000000E+00 0. -1.
         -4    1    5    5    0  503  0.27904454956E+02 -0.60735021859E+02 -0.34835298079E+02  0.75371741912E+02  0.00000000000E+00 0.  1.
         -1    1    6    6    0  502  0.40562772068E+03 -0.91799771250E+02  0.82321620527E+02  0.42395506246E+03  0.00000000000E+00 0.  1.
<mgrwt>
<rscale>  0 0.40623360E+04</rscale>
<asrwt>0</asrwt>
<pdfrwt beam="1">  1        2 0.31584823E+00 0.40623360E+04</pdfrwt>
<pdfrwt beam="2">  1       -2 0.30916230E+00 0.40623360E+04</pdfrwt>
<totfact> 0.13681373E-01</totfact>
</mgrwt>
</event>
<event>
12    1  0.1494110E-007  0.1779922E+04  0.7818608E-02  0.8717050E-01
         -2   -1    0    0    0  501 -0.00000000000E+00  0.00000000000E+00  0.56902717740E+03  0.56902717740E+03  0.00000000000E+00 0.  1.
          2   -1    0    0  501    0  0.00000000000E+00 -0.00000000000E+00 -0.13919025866E+04  0.13919025866E+04  0.00000000000E+00 0. -1.
         23    2    1    2    0    0  0.15292991365E+03 -0.61935724298E+03 -0.14233428135E+03  0.65990965646E+03  0.90723503689E+02 0.  0.
        254    2    1    2    0    0 -0.15292991365E+03  0.61935724298E+03 -0.68054112787E+03  0.13010201076E+04  0.90693226904E+03 0.  0.
        -24    2    4    4    0    0  0.17432622085E+03  0.70394237536E+03 -0.30960983941E+03  0.79286681608E+03  0.82795146471E+02 0.  0.
         24    2    4    4    0    0 -0.32725613449E+03 -0.84585132381E+02 -0.37093128846E+03  0.50815329148E+03  0.79865666573E+02 0.  0.
         11    1    3    3    0    0  0.15379720787E+02 -0.58288176652E+02  0.13079417756E+02  0.61685642719E+02  0.00000000000E+00 0.  1.
        -11    1    3    3    0    0  0.13755019286E+03 -0.56106906633E+03 -0.15541369910E+03  0.59822401374E+03  0.00000000000E+00 0. -1.
          4    1    6    6  502    0 -0.16501649386E+03 -0.80045911789E+02 -0.22106321365E+03  0.28723985739E+03  0.00000000000E+00 0. -1.
          3    1    5    5  503    0  0.50813481324E+02  0.37709269411E+03 -0.15950026230E+03  0.41257877249E+03  0.00000000000E+00 0. -1.
         -4    1    5    5    0  503  0.12351273952E+03  0.32684968125E+03 -0.15010957711E+03  0.38028804359E+03  0.00000000000E+00 0.  1.
         -3    1    6    6    0  502 -0.16223964063E+03 -0.45392205923E+01 -0.14986807481E+03  0.22091343409E+03  0.00000000000E+00 0.  1.
<mgrwt>
<rscale>  0 0.17799218E+04</rscale>
<asrwt>0</asrwt>
<pdfrwt beam="1">  1        2 0.21413886E+00 0.17799218E+04</pdfrwt>
<pdfrwt beam="2">  1       -2 0.87542644E-01 0.17799218E+04</pdfrwt>
<totfact> 0.15578917E+01</totfact>
</mgrwt>
</event>
<event>
12    1  0.1494110E-007  0.1621912E+04  0.7818608E-02  0.8807199E-01
          2   -1    0    0  501    0  0.00000000000E+00  0.00000000000E+00  0.10128053005E+04  0.10128053005E+04  0.00000000000E+00 0.  1.
         -2   -1    0    0    0  501 -0.00000000000E+00 -0.00000000000E+00 -0.64933461030E+03  0.64933461030E+03  0.00000000000E+00 0. -1.
         23    2    1    2    0    0 -0.23203850361E+03 -0.32269693172E+03  0.52147244745E+03  0.66206481807E+03  0.91766731347E+02 0.  0.
        254    2    1    2    0    0  0.23203850361E+03  0.32269693172E+03 -0.15800175723E+03  0.10000750928E+04  0.90399693527E+03 0.  0.
        -24    2    4    4    0    0 -0.12878424565E+03 -0.20353444651E+03 -0.24337548913E+03  0.35161772701E+03  0.79948385799E+02 0.  0.
         24    2    4    4    0    0  0.36082274926E+03  0.52623137823E+03  0.85373731904E+02  0.64845736575E+03  0.78075356413E+02 0.  0.
         11    1    3    3    0    0 -0.24783304719E+02 -0.33873190040E+02  0.11311245465E+03  0.12064838413E+03  0.00000000000E+00 0. -1.
        -11    1    3    3    0    0 -0.20725519889E+03 -0.28882374168E+03  0.40835999280E+03  0.54141643395E+03  0.00000000000E+00 0.  1.
          4    1    6    6  502    0  0.32654851524E+03  0.50421091687E+03  0.90129990143E+02  0.60744217554E+03  0.00000000000E+00 0. -1.
          1    1    5    5  503    0 -0.10387446841E+03 -0.17956135994E+03 -0.16200251826E+03  0.26320524899E+03  0.00000000000E+00 0. -1.
         -2    1    5    5    0  503 -0.24909777244E+02 -0.23973086572E+02 -0.81372970867E+02  0.88412478021E+02  0.00000000000E+00 0.  1.
         -3    1    6    6    0  502  0.34274234013E+02  0.22020461365E+02 -0.47562582393E+01  0.41015190214E+02  0.00000000000E+00 0.  1.
<mgrwt>
<rscale>  0 0.16219119E+04</rscale>
<asrwt>0</asrwt>
<pdfrwt beam="1">  1        2 0.15581620E+00 0.16219119E+04</pdfrwt>
<pdfrwt beam="2">  1       -2 0.99897633E-01 0.16219119E+04</pdfrwt>
<totfact> 0.19596028E+01</totfact>
</mgrwt>
</event>
<event>
12    1  0.1494110E-007  0.1084502E+04  0.7818608E-02  0.9220430E-01
          1   -1    0    0  501    0  0.00000000000E+00  0.00000000000E+00  0.10247384592E+04  0.10247384592E+04  0.00000000000E+00 0. -1.
         -1   -1    0    0    0  501 -0.00000000000E+00 -0.00000000000E+00 -0.28693780916E+03  0.28693780916E+03  0.00000000000E+00 0.  1.
         23    2    1    2    0    0  0.64210896922E+02 -0.48995228464E+02 -0.36717067677E+02  0.12306166390E+03  0.85278709926E+02 0.  0.
        254    2    1    2    0    0 -0.64210896922E+02  0.48995228464E+02  0.77451771776E+03  0.11886146045E+04  0.89799967217E+03 0.  0.
        -24    2    4    4    0    0 -0.67602642812E+02  0.44703288183E+03  0.57561416329E+03  0.73652774822E+03  0.82054519506E+02 0.  0.
         24    2    4    4    0    0  0.33917458901E+01 -0.39803765337E+03  0.19890355447E+03  0.45208685628E+03  0.79839991251E+02 0.  0.
         11    1    3    3    0    0  0.70608651161E+02 -0.65840665082E+02 -0.20234370255E+02  0.98640785361E+02  0.00000000000E+00 0.  1.
        -11    1    3    3    0    0 -0.63977542391E+01  0.16845436618E+02 -0.16482697421E+02  0.24420878535E+02  0.00000000000E+00 0. -1.
          2    1    6    6  502    0  0.11790504785E+02 -0.39208544119E+03  0.18230769049E+03  0.43255762993E+03  0.00000000000E+00 0. -1.
          3    1    5    5  503    0 -0.84222330100E+02  0.38827228548E+03  0.51550910573E+03  0.65084437975E+03  0.00000000000E+00 0. -1.
         -4    1    5    5    0  503  0.16619687289E+02  0.58760596349E+02  0.60105057555E+02  0.85683368471E+02  0.00000000000E+00 0.  1.
         -3    1    6    6    0  502 -0.83987588944E+01 -0.59522121774E+01  0.16595863979E+02  0.19529226354E+02  0.00000000000E+00 0.  1.
<mgrwt>
<rscale>  0 0.10845021E+04</rscale>
<asrwt>0</asrwt>
<pdfrwt beam="1">  1        1 0.15765207E+00 0.10845021E+04</pdfrwt>
<pdfrwt beam="2">  1       -1 0.44144279E-01 0.10845021E+04</pdfrwt>
<totfact> 0.73243239E+01</totfact>
</mgrwt>
</event>
<event>
12    1  0.1494110E-007  0.1473918E+04  0.7818608E-02  0.8901985E-01
         -2   -1    0    0    0  501 -0.00000000000E+00  0.00000000000E+00  0.44465547248E+03  0.44465547248E+03  0.00000000000E+00 0.  1.
          2   -1    0    0  501    0  0.00000000000E+00 -0.00000000000E+00 -0.12214139990E+04  0.12214139990E+04  0.00000000000E+00 0. -1.
         23    2    1    2    0    0  0.24016936621E+03 -0.25072900664E+03 -0.58359515802E+03  0.68534686906E+03  0.92577876530E+02 0.  0.
        254    2    1    2    0    0 -0.24016936621E+03  0.25072900664E+03 -0.19316336850E+03  0.98072260244E+03  0.89663726041E+03 0.  0.
        -24    2    4    4    0    0  0.75751780072E+02  0.32675079788E+03  0.24911400433E+03  0.42503370882E+03  0.78047744263E+02 0.  0.
         24    2    4    4    0    0 -0.31592114628E+03 -0.76021791235E+02 -0.44227737283E+03  0.55568889361E+03  0.87151526406E+02 0.  0.
         13    1    3    3    0    0  0.67082198673E+01 -0.49667866742E+01 -0.66683219567E+02  0.67203578443E+02  0.00000000000E+00 0.  1.
        -13    1    3    3    0    0  0.23346114634E+03 -0.24576221997E+03 -0.51691193845E+03  0.61814329061E+03  0.00000000000E+00 0. -1.
          4    1    6    6  502    0 -0.88872776075E+02 -0.63072986784E+02 -0.14656651666E+03  0.18264259031E+03  0.00000000000E+00 0. -1.
          3    1    5    5  503    0  0.13322088715E+02  0.88014957003E+02  0.26980877253E+02  0.93016549287E+02  0.00000000000E+00 0. -1.
         -4    1    5    5    0  503  0.62429691357E+02  0.23873584087E+03  0.22213312708E+03  0.33201715954E+03  0.00000000000E+00 0.  1.
         -3    1    6    6    0  502 -0.22704837020E+03 -0.12948804450E+02 -0.29571085618E+03  0.37304630331E+03  0.00000000000E+00 0.  1.
<mgrwt>
<rscale>  0 0.14739178E+04</rscale>
<asrwt>0</asrwt>
<pdfrwt beam="1">  1        2 0.18790984E+00 0.14739178E+04</pdfrwt>
<pdfrwt beam="2">  1       -2 0.68408535E-01 0.14739178E+04</pdfrwt>
<totfact> 0.34801565E+01</totfact>
</mgrwt>
</event>
<event>
12    1  0.1876485E-007  0.2393746E+04  0.7818608E-02  0.8441849E-01
         -1   -1    0    0    0  501 -0.00000000000E+00  0.00000000000E+00  0.98822921891E+03  0.98822921891E+03  0.00000000000E+00 0.  1.
          1   -1    0    0  501    0  0.00000000000E+00 -0.00000000000E+00 -0.14495677610E+04  0.14495677610E+04  0.00000000000E+00 0. -1.
         23    2    1    2    0    0  0.36339180990E+03  0.11226290795E+03  0.77194563779E+03  0.86555474033E+03  0.92889034841E+02 0.  0.
        254    2    1    2    0    0 -0.36339180990E+03 -0.11226290795E+03 -0.12332841798E+04  0.15722422395E+04  0.89794165933E+03 0.  0.
        -24    2    4    4    0    0  0.22203660167E+03  0.17501081935E+03 -0.55544590023E+03  0.62830008619E+03  0.79446905869E+02 0.  0.
         24    2    4    4    0    0 -0.58542841158E+03 -0.28727372730E+03 -0.67783827960E+03  0.94394215335E+03  0.79431958931E+02 0.  0.
         13    1    3    3    0    0  0.15268275184E+03  0.48668384150E+02  0.22723577770E+03  0.27805886605E+03  0.00000000000E+00 0. -1.
        -13    1    3    3    0    0  0.21070905807E+03  0.63594523802E+02  0.54470986009E+03  0.58749587428E+03  0.00000000000E+00 0.  1.
          4    1    6    6  502    0 -0.66134141450E+02 -0.56232233897E+02 -0.67702533465E+02  0.11008824566E+03  0.00000000000E+00 0. -1.
          1    1    5    5  503    0  0.15101707563E+02  0.48849651445E+02 -0.10525060570E+03  0.11701299081E+03  0.00000000000E+00 0. -1.
         -2    1    5    5    0  503  0.20693489411E+03  0.12616116790E+03 -0.45019529453E+03  0.51128709538E+03  0.00000000000E+00 0.  1.
         -3    1    6    6    0  502 -0.51929427013E+03 -0.23104149340E+03 -0.61013574613E+03  0.83385390769E+03  0.00000000000E+00 0.  1.
<mgrwt>
<rscale>  0 0.23937462E+04</rscale>
<asrwt>0</asrwt>
<pdfrwt beam="1">  1        1 0.22301043E+00 0.23937462E+04</pdfrwt>
<pdfrwt beam="2">  1       -1 0.15203526E+00 0.23937462E+04</pdfrwt>
<totfact> 0.21392693E+00</totfact>
</mgrwt>
</event>
<event>
12    1  0.1494110E-007  0.3263443E+04  0.7818608E-02  0.8172260E-01
          2   -1    0    0  501    0  0.00000000000E+00  0.00000000000E+00  0.21344177780E+04  0.21344177780E+04  0.00000000000E+00 0. -1.
         -2   -1    0    0    0  501 -0.00000000000E+00 -0.00000000000E+00 -0.12474197415E+04  0.12474197415E+04  0.00000000000E+00 0.  1.
         23    2    1    2    0    0  0.10843987281E+04  0.49345980307E+03 -0.54820033898E+03  0.13146003965E+04  0.90705083266E+02 0.  0.
        254    2    1    2    0    0 -0.10843987281E+04 -0.49345980307E+03  0.14351983755E+04  0.20672371230E+04  0.89120803799E+03 0.  0.
        -24    2    4    4    0    0  0.65465385544E+02 -0.26473386047E+03  0.45666934001E+03  0.53801647287E+03  0.80901825597E+02 0.  0.
         24    2    4    4    0    0 -0.11498641136E+04 -0.22872594259E+03  0.97852903551E+03  0.15292206501E+04  0.80583415841E+02 0.  0.
         11    1    3    3    0    0  0.25297287085E+01 -0.22835919494E+01  0.15119384800E+01  0.37283075916E+01  0.00000000000E+00 0. -1.
        -11    1    3    3    0    0  0.10818689993E+04  0.49574339502E+03 -0.54971227746E+03  0.13108720889E+04  0.00000000000E+00 0.  1.
          4    1    6    6  502    0 -0.59194777086E+03 -0.15878149225E+03  0.51142397868E+03  0.79822817019E+03  0.00000000000E+00 0. -1.
          3    1    5    5  503    0  0.67281082680E+02 -0.16551950964E+03  0.34575775221E+03  0.38919387890E+03  0.00000000000E+00 0. -1.
         -4    1    5    5    0  503 -0.18156971358E+01 -0.99214350833E+02  0.11091158780E+03  0.14882259397E+03  0.00000000000E+00 0.  1.
         -3    1    6    6    0  502 -0.55791634273E+03 -0.69944450339E+02  0.46710505683E+03  0.73099247995E+03  0.00000000000E+00 0.  1.
<mgrwt>
<rscale>  0 0.32634429E+04</rscale>
<asrwt>0</asrwt>
<pdfrwt beam="1">  1        2 0.32837196E+00 0.32634429E+04</pdfrwt>
<pdfrwt beam="2">  1       -2 0.19191073E+00 0.32634429E+04</pdfrwt>
<totfact> 0.70866170E-01</totfact>
</mgrwt>
</event>
<event>
12    1  0.1494110E-007  0.2122735E+04  0.7818608E-02  0.8551294E-01
         -4   -1    0    0    0  501 -0.00000000000E+00  0.00000000000E+00  0.69258426870E+03  0.69258426870E+03  0.00000000000E+00 0.  1.
          4   -1    0    0  501    0  0.00000000000E+00 -0.00000000000E+00 -0.16265185993E+04  0.16265185993E+04  0.00000000000E+00 0. -1.
         23    2    1    2    0    0  0.41985148871E+03 -0.23985854715E+03  0.39774768863E+03  0.63320171112E+03  0.94518717413E+02 0.  0.
        254    2    1    2    0    0 -0.41985148871E+03  0.23985854715E+03 -0.13316820193E+04  0.16859011569E+04  0.91382619533E+03 0.  0.
        -24    2    4    4    0    0 -0.25774675149E+03  0.48131197044E+03 -0.33764569501E+03  0.64682636999E+03  0.79278854472E+02 0.  0.
         24    2    4    4    0    0 -0.16210473722E+03 -0.24145342329E+03 -0.99403632427E+03  0.10390747869E+04  0.83609194714E+02 0.  0.
         13    1    3    3    0    0  0.40351916078E+03 -0.24651293843E+03  0.37039742936E+03  0.60065847002E+03  0.00000000000E+00 0.  1.
        -13    1    3    3    0    0  0.16332327928E+02  0.66543912836E+01  0.27350259274E+02  0.32543241100E+02  0.00000000000E+00 0. -1.
          4    1    6    6  502    0 -0.15963013912E+03 -0.23937905273E+03 -0.89765046590E+03  0.94263485567E+03  0.00000000000E+00 0. -1.
          1    1    5    5  503    0 -0.14539425972E+03  0.34649775104E+03 -0.24218004229E+03  0.44704737458E+03  0.00000000000E+00 0. -1.
         -4    1    5    5    0  503 -0.11235249176E+03  0.13481421940E+03 -0.95465652719E+02  0.19977899541E+03  0.00000000000E+00 0.  1.
         -3    1    6    6    0  502 -0.24745981033E+01 -0.20743705577E+01 -0.96385858374E+02  0.96439931270E+02  0.00000000000E+00 0.  1.
<mgrwt>
<rscale>  0 0.21227352E+04</rscale>
<asrwt>0</asrwt>
<pdfrwt beam="1">  1        4 0.25023363E+00 0.21227352E+04</pdfrwt>
<pdfrwt beam="2">  1       -4 0.10655143E+00 0.21227352E+04</pdfrwt>
<totfact> 0.82040051E-02</totfact>
</mgrwt>
</event>
<event>
12    1  0.1494110E-007  0.2271133E+04  0.7818608E-02  0.8489391E-01
          2   -1    0    0  501    0  0.00000000000E+00  0.00000000000E+00  0.22414982237E+04  0.22414982237E+04  0.00000000000E+00 0.  1.
         -2   -1    0    0    0  501 -0.00000000000E+00 -0.00000000000E+00 -0.57528971739E+03  0.57528971739E+03  0.00000000000E+00 0. -1.
         23    2    1    2    0    0  0.95830465965E+03 -0.12693382826E+02  0.54980244877E+03  0.11083886334E+04  0.87941385730E+02 0.  0.
        254    2    1    2    0    0 -0.95830465965E+03  0.12693382826E+02  0.11164060575E+04  0.17083993077E+04  0.86819166464E+03 0.  0.
        -24    2    4    4    0    0 -0.35472950602E+03 -0.24422453172E+03  0.32029082433E+02  0.43856867374E+03  0.76406643203E+02 0.  0.
         24    2    4    4    0    0 -0.60357515362E+03  0.25691791455E+03  0.10843769751E+04  0.12698306340E+04  0.79288296083E+02 0.  0.
         13    1    3    3    0    0  0.10086761897E+03  0.22255464785E+02  0.74954300238E+02  0.12762338890E+03  0.00000000000E+00 0.  1.
        -13    1    3    3    0    0  0.85743704068E+03 -0.34948847612E+02  0.47484814853E+03  0.98076524451E+03  0.00000000000E+00 0. -1.
          2    1    6    6  502    0 -0.19713855453E+03  0.50042086187E+02  0.37214120097E+03  0.42409538258E+03  0.00000000000E+00 0. -1.
          3    1    5    5  503    0 -0.33355236812E+02 -0.26680997286E+02  0.26853435261E+02  0.50453487732E+02  0.00000000000E+00 0. -1.
         -4    1    5    5    0  503 -0.32137426921E+03 -0.21754353444E+03  0.51756471713E+01  0.38811518601E+03  0.00000000000E+00 0.  1.
         -1    1    6    6    0  502 -0.40643659910E+03  0.20687582836E+03  0.71223577415E+03  0.84573525137E+03  0.00000000000E+00 0.  1.
<mgrwt>
<rscale>  0 0.22711327E+04</rscale>
<asrwt>0</asrwt>
<pdfrwt beam="1">  1        2 0.34484588E+00 0.22711327E+04</pdfrwt>
<pdfrwt beam="2">  1       -2 0.88506112E-01 0.22711327E+04</pdfrwt>
<totfact> 0.48832929E+00</totfact>
</mgrwt>
</event>
<event>
12    1  0.1591249E-007  0.2246004E+04  0.7818608E-02  0.8499521E-01
          2   -1    0    0  501    0  0.00000000000E+00  0.00000000000E+00  0.14461235330E+04  0.14461235330E+04  0.00000000000E+00 0. -1.
         -2   -1    0    0    0  501 -0.00000000000E+00 -0.00000000000E+00 -0.87207868986E+03  0.87207868986E+03  0.00000000000E+00 0.  1.
         23    2    1    2    0    0  0.91256526701E+03 -0.23259671891E+03  0.20435658555E+03  0.96835927716E+03  0.95296775460E+02 0.  0.
        254    2    1    2    0    0 -0.91256526701E+03  0.23259671891E+03  0.36968825761E+03  0.13498429457E+04  0.89360504144E+03 0.  0.
        -24    2    4    4    0    0 -0.86364375169E+03 -0.17113174739E+03  0.25218912222E+03  0.91926258297E+03  0.79232179664E+02 0.  0.
         24    2    4    4    0    0 -0.48921515320E+02  0.40372846630E+03  0.11749913539E+03  0.43058036274E+03  0.78761747034E+02 0.  0.
         13    1    3    3    0    0  0.83803514693E+03 -0.22563191098E+03  0.21115605650E+03  0.89319625332E+03  0.00000000000E+00 0. -1.
        -13    1    3    3    0    0  0.74530120080E+02 -0.69648079324E+01 -0.67994709544E+01  0.75163023848E+02  0.00000000000E+00 0.  1.
          4    1    6    6  502    0 -0.18177728075E+02  0.14483205988E+02  0.11816512871E+02  0.26073416157E+02  0.00000000000E+00 0. -1.
          3    1    5    5  503    0 -0.26087890751E+03 -0.85031771866E+02  0.61212850758E+02  0.28113203252E+03  0.00000000000E+00 0. -1.
         -4    1    5    5    0  503 -0.60276484418E+03 -0.86099975526E+02  0.19097627146E+03  0.63813055045E+03  0.00000000000E+00 0.  1.
         -3    1    6    6    0  502 -0.30743787245E+02  0.38924526031E+03  0.10568262252E+03  0.40450694658E+03  0.00000000000E+00 0.  1.
<mgrwt>
<rscale>  0 0.22460040E+04</rscale>
<asrwt>0</asrwt>
<pdfrwt beam="1">  1        2 0.22248054E+00 0.22460040E+04</pdfrwt>
<pdfrwt beam="2">  1       -2 0.13416595E+00 0.22460040E+04</pdfrwt>
<totfact> 0.49716538E+00</totfact>
</mgrwt>
</event>
<event>
12    1  0.1494110E-007  0.1330638E+04  0.7818608E-02  0.9005616E-01
         -2   -1    0    0    0  501 -0.00000000000E+00  0.00000000000E+00  0.24444527065E+03  0.24444527065E+03  0.00000000000E+00 0.  1.
          2   -1    0    0  501    0  0.00000000000E+00 -0.00000000000E+00 -0.18108324795E+04  0.18108324795E+04  0.00000000000E+00 0. -1.
         23    2    1    2    0    0  0.64243366911E+02  0.20997244564E+03 -0.34249350488E+01  0.23757467070E+03  0.90633083704E+02 0.  0.
        254    2    1    2    0    0 -0.64243366911E+02 -0.20997244564E+03 -0.15629622738E+04  0.18177030794E+04  0.90165280324E+03 0.  0.
        -24    2    4    4    0    0  0.28808370559E+03  0.18008434460E+03 -0.35646133433E+03  0.49937177194E+03  0.82975244154E+02 0.  0.
         24    2    4    4    0    0 -0.35232707250E+03 -0.39005679023E+03 -0.12065009395E+04  0.13183313075E+04  0.77937499263E+02 0.  0.
         11    1    3    3    0    0  0.63601579491E+02  0.11833249056E+03 -0.38022822182E+02  0.13961903252E+03  0.00000000000E+00 0. -1.
        -11    1    3    3    0    0  0.64178741985E+00  0.91639955079E+02  0.34597887133E+02  0.97955638184E+02  0.00000000000E+00 0.  1.
          4    1    6    6  502    0 -0.31770191543E+03 -0.32329822417E+03 -0.98186513672E+03  0.10814413509E+04  0.00000000000E+00 0. -1.
          1    1    5    5  503    0  0.16242583169E+03  0.11351620878E+03 -0.26263208941E+03  0.32900409548E+03  0.00000000000E+00 0. -1.
         -2    1    5    5    0  503  0.12565787390E+03  0.66568135820E+02 -0.93829244920E+02  0.17036767646E+03  0.00000000000E+00 0.  1.
         -3    1    6    6    0  502 -0.34625157065E+02 -0.66758566067E+02 -0.22463580275E+03  0.23688995657E+03  0.00000000000E+00 0.  1.
<mgrwt>
<rscale>  0 0.13306381E+04</rscale>
<asrwt>0</asrwt>
<pdfrwt beam="1">  1        2 0.27858960E+00 0.13306381E+04</pdfrwt>
<pdfrwt beam="2">  1       -2 0.37606966E-01 0.13306381E+04</pdfrwt>
<totfact> 0.55526916E+01</totfact>
</mgrwt>
</event>
<event>
12    1  0.1494110E-007  0.1610233E+04  0.7818608E-02  0.8814286E-01
          1   -1    0    0  501    0  0.00000000000E+00  0.00000000000E+00  0.49953671707E+03  0.49953671707E+03  0.00000000000E+00 0. -1.
         -1   -1    0    0    0  501 -0.00000000000E+00 -0.00000000000E+00 -0.12976267931E+04  0.12976267931E+04  0.00000000000E+00 0.  1.
         23    2    1    2    0    0 -0.10462226998E+03  0.31432249310E+03 -0.75651948328E+03  0.83129399007E+03  0.94781434346E+02 0.  0.
        254    2    1    2    0    0  0.10462226998E+03 -0.31432249310E+03 -0.41570592727E+02  0.96586952008E+03  0.90632850920E+03 0.  0.
        -24    2    4    4    0    0 -0.30090423481E+03 -0.42957514133E+03 -0.64945154830E+02  0.53435809846E+03  0.79009769533E+02 0.  0.
         24    2    4    4    0    0  0.40552650479E+03  0.11525264824E+03  0.23374562103E+02  0.43151142161E+03  0.88998976504E+02 0.  0.
         13    1    3    3    0    0 -0.65096295098E+02  0.67157353382E+02 -0.18236138796E+03  0.20494709944E+03  0.00000000000E+00 0. -1.
        -13    1    3    3    0    0 -0.39525974878E+02  0.24716513971E+03 -0.57415809532E+03  0.62634689063E+03  0.00000000000E+00 0.  1.
          4    1    6    6  502    0  0.20643119785E+03  0.15398392361E+02  0.26939439553E+02  0.20875028943E+03  0.00000000000E+00 0. -1.
          1    1    5    5  503    0 -0.20411184740E+03 -0.34523734364E+03 -0.35396392110E+02  0.40262063318E+03  0.00000000000E+00 0. -1.
         -2    1    5    5    0  503 -0.96792387407E+02 -0.84337797695E+02 -0.29548762720E+02  0.13173746528E+03  0.00000000000E+00 0.  1.
         -3    1    6    6    0  502  0.19909530693E+03  0.99854255876E+02 -0.35648774494E+01  0.22276113218E+03  0.00000000000E+00 0.  1.
<mgrwt>
<rscale>  0 0.16102326E+04</rscale>
<asrwt>0</asrwt>
<pdfrwt beam="1">  1        1 0.76851803E-01 0.16102326E+04</pdfrwt>
<pdfrwt beam="2">  1       -1 0.19963489E+00 0.16102326E+04</pdfrwt>
<totfact> 0.64396791E+00</totfact>
</mgrwt>
</event>
<event>
12    1  0.1494110E-007  0.2591518E+04  0.7818608E-02  0.8371088E-01
          1   -1    0    0  501    0  0.00000000000E+00  0.00000000000E+00  0.24934600590E+04  0.24934600590E+04  0.00000000000E+00 0. -1.
         -1   -1    0    0    0  501 -0.00000000000E+00 -0.00000000000E+00 -0.67335792702E+03  0.67335792702E+03  0.00000000000E+00 0.  1.
         23    2    1    2    0    0 -0.87527703277E+03 -0.11526983047E+03  0.16757603908E+04  0.18961950960E+04  0.89364069978E+02 0.  0.
        254    2    1    2    0    0  0.87527703277E+03  0.11526983047E+03  0.14434174122E+03  0.12706228900E+04  0.90235856090E+03 0.  0.
        -24    2    4    4    0    0  0.65013443395E+03  0.46656204007E+03  0.23152711666E+03  0.83686164744E+03  0.79860451886E+02 0.  0.
         24    2    4    4    0    0  0.22514259882E+03 -0.35129220960E+03 -0.87185375432E+02  0.43376124256E+03  0.80325086549E+02 0.  0.
         13    1    3    3    0    0 -0.57663745886E+03 -0.68161813995E+02  0.10102410986E+04  0.11652226694E+04  0.00000000000E+00 0.  1.
        -13    1    3    3    0    0 -0.29863957391E+03 -0.47108016479E+02  0.66551929215E+03  0.73097242666E+03  0.00000000000E+00 0. -1.
          2    1    6    6  502    0  0.12379831584E+03 -0.26162723977E+03 -0.64836822608E+02  0.29661195047E+03  0.00000000000E+00 0. -1.
          1    1    5    5  503    0  0.57547413254E+03  0.43693071635E+03  0.19362974059E+03  0.74804505516E+03  0.00000000000E+00 0. -1.
         -2    1    5    5    0  503  0.74660301407E+02  0.29631323722E+02  0.37897376066E+02  0.88816592281E+02  0.00000000000E+00 0.  1.
         -1    1    6    6    0  502  0.10134428299E+03 -0.89664969826E+02 -0.22348552824E+02  0.13714929209E+03  0.00000000000E+00 0.  1.
<mgrwt>
<rscale>  0 0.25915178E+04</rscale>
<asrwt>0</asrwt>
<pdfrwt beam="1">  1        1 0.38360923E+00 0.25915178E+04</pdfrwt>
<pdfrwt beam="2">  1       -1 0.10359353E+00 0.25915178E+04</pdfrwt>
<totfact> 0.10596003E+00</totfact>
</mgrwt>
</event>
<event>
12    1  0.1494110E-007  0.3701855E+04  0.7818608E-02  0.8067551E-01
          1   -1    0    0  501    0  0.00000000000E+00  0.00000000000E+00  0.33653204104E+04  0.33653204104E+04  0.00000000000E+00 0. -1.
         -1   -1    0    0    0  501 -0.00000000000E+00 -0.00000000000E+00 -0.10180109376E+04  0.10180109376E+04  0.00000000000E+00 0.  1.
         23    2    1    2    0    0  0.33040079408E+03 -0.96894433367E+02  0.31239314751E+04  0.31442707508E+04  0.94538231897E+02 0.  0.
        254    2    1    2    0    0 -0.33040079408E+03  0.96894433367E+02 -0.77662200229E+03  0.12390605972E+04  0.90198459689E+03 0.  0.
        -24    2    4    4    0    0 -0.61080451946E+03  0.23745598600E+02 -0.69246958472E+03  0.92706979629E+03  0.79361621603E+02 0.  0.
         24    2    4    4    0    0  0.28040372538E+03  0.73148834767E+02 -0.84152417562E+02  0.31199080086E+03  0.79244111462E+02 0.  0.
         13    1    3    3    0    0  0.54600494185E+02 -0.37801209360E+02  0.36810173020E+03  0.37404415404E+03  0.00000000000E+00 0.  1.
        -13    1    3    3    0    0  0.27580029989E+03 -0.59093224008E+02  0.27558297449E+04  0.27702265968E+04  0.00000000000E+00 0. -1.
          2    1    6    6  502    0  0.27848446189E+03  0.60912682410E+02 -0.89077733574E+02  0.29866166980E+03  0.00000000000E+00 0. -1.
          3    1    5    5  503    0 -0.59304879560E+03  0.33904600498E+02 -0.68080247530E+03  0.90352000878E+03  0.00000000000E+00 0. -1.
         -4    1    5    5    0  503 -0.17755723863E+02 -0.10159001897E+02 -0.11667109422E+02  0.23549787509E+02  0.00000000000E+00 0.  1.
         -1    1    6    6    0  502  0.19192634971E+01  0.12236152357E+02  0.49253160114E+01  0.13329131055E+02  0.00000000000E+00 0.  1.
<mgrwt>
<rscale>  0 0.37018552E+04</rscale>
<asrwt>0</asrwt>
<pdfrwt beam="1">  1        1 0.51774160E+00 0.37018552E+04</pdfrwt>
<pdfrwt beam="2">  1       -1 0.15661707E+00 0.37018552E+04</pdfrwt>
<totfact> 0.79069294E-02</totfact>
</mgrwt>
</event>
<event>
12    1  0.1494110E-007  0.2910997E+04  0.7818608E-02  0.8269613E-01
         -3   -1    0    0    0  501 -0.00000000000E+00  0.00000000000E+00  0.14739365982E+04  0.14739365982E+04  0.00000000000E+00 0.  1.
          3   -1    0    0  501    0  0.00000000000E+00 -0.00000000000E+00 -0.14372914413E+04  0.14372914413E+04  0.00000000000E+00 0. -1.
         23    2    1    2    0    0  0.10707179356E+04  0.35584483852E+03  0.69758912045E+03  0.13297118980E+04  0.91873304521E+02 0.  0.
        254    2    1    2    0    0 -0.10707179356E+04 -0.35584483852E+03 -0.66094396359E+03  0.15815161415E+04  0.88954141897E+03 0.  0.
        -24    2    4    4    0    0 -0.93209862595E+02 -0.33890657257E+03 -0.45281981813E+03  0.57880568250E+03  0.80152897544E+02 0.  0.
         24    2    4    4    0    0 -0.97750807300E+03 -0.16938265941E+02 -0.20812414546E+03  0.10027104590E+04  0.79395635860E+02 0.  0.
         13    1    3    3    0    0  0.88252821992E+03  0.25622931885E+03  0.55830504765E+03  0.10752739414E+04  0.00000000000E+00 0.  1.
        -13    1    3    3    0    0  0.18818971568E+03  0.99615519667E+02  0.13928407280E+03  0.25443795664E+03  0.00000000000E+00 0. -1.
          4    1    6    6  502    0 -0.49184481936E+03  0.13465333577E+02 -0.13842473271E+03  0.51113016753E+03  0.00000000000E+00 0. -1.
          1    1    5    5  503    0 -0.90344925679E+02 -0.31623696112E+03 -0.38038687350E+03  0.50285404911E+03  0.00000000000E+00 0. -1.
         -2    1    5    5    0  503 -0.28649369160E+01 -0.22669611452E+02 -0.72432944628E+02  0.75951633389E+02  0.00000000000E+00 0.  1.
         -3    1    6    6    0  502 -0.48566325365E+03 -0.30403599518E+02 -0.69699412754E+02  0.49158029145E+03  0.00000000000E+00 0.  1.
<mgrwt>
<rscale>  0 0.29109974E+04</rscale>
<asrwt>0</asrwt>
<pdfrwt beam="1">  1        3 0.22112176E+00 0.29109974E+04</pdfrwt>
<pdfrwt beam="2">  1       -3 0.22675948E+00 0.29109974E+04</pdfrwt>
<totfact> 0.24492712E-02</totfact>
</mgrwt>
</event>
<event>
12    1  0.1494110E-007  0.1600223E+04  0.7818608E-02  0.8820411E-01
         -2   -1    0    0    0  501 -0.00000000000E+00  0.00000000000E+00  0.96524864671E+03  0.96524864671E+03  0.00000000000E+00 0.  1.
          2   -1    0    0  501    0  0.00000000000E+00 -0.00000000000E+00 -0.66322658344E+03  0.66322658344E+03  0.00000000000E+00 0. -1.
         23    2    1    2    0    0 -0.54858795397E+02 -0.51787077188E+03 -0.53724991958E+02  0.53169377503E+03  0.92802326717E+02 0.  0.
        254    2    1    2    0    0  0.54858795397E+02  0.51787077188E+03  0.35574705523E+03  0.10967814551E+04  0.89731486625E+03 0.  0.
        -24    2    4    4    0    0 -0.44997645678E+02  0.68210454725E+03  0.49431705280E+03  0.84753187560E+03  0.81667190225E+02 0.  0.
         24    2    4    4    0    0  0.99856441075E+02 -0.16423377537E+03 -0.13856999757E+03  0.24924957953E+03  0.77328305755E+02 0.  0.
         11    1    3    3    0    0 -0.56846738045E+02 -0.49225210157E+03 -0.71208816651E+02  0.50061400170E+03  0.00000000000E+00 0. -1.
        -11    1    3    3    0    0  0.19879426478E+01 -0.25618670305E+02  0.17483824693E+02  0.31079773328E+02  0.00000000000E+00 0.  1.
          4    1    6    6  502    0  0.40412929672E+02 -0.73971863044E+02 -0.15930806347E+02  0.85783634790E+02  0.00000000000E+00 0. -1.
          1    1    5    5  503    0 -0.17249370632E+02  0.51290897600E+03  0.33060644640E+03  0.61047013100E+03  0.00000000000E+00 0. -1.
         -2    1    5    5    0  503 -0.27748275046E+02  0.16919557125E+03  0.16371060640E+03  0.23706174459E+03  0.00000000000E+00 0.  1.
         -3    1    6    6    0  502  0.59443511403E+02 -0.90261912328E+02 -0.12263919122E+03  0.16346594474E+03  0.00000000000E+00 0.  1.
<mgrwt>
<rscale>  0 0.16002232E+04</rscale>
<asrwt>0</asrwt>
<pdfrwt beam="1">  1        2 0.10203486E+00 0.16002232E+04</pdfrwt>
<pdfrwt beam="2">  1       -2 0.14849979E+00 0.16002232E+04</pdfrwt>
<totfact> 0.12930857E+01</totfact>
</mgrwt>
</event>
<event>
12    1  0.1494110E-007  0.1287969E+04  0.7818608E-02  0.9039160E-01
          2   -1    0    0  501    0  0.00000000000E+00  0.00000000000E+00  0.19267434991E+04  0.19267434991E+04  0.00000000000E+00 0. -1.
         -2   -1    0    0    0  501 -0.00000000000E+00 -0.00000000000E+00 -0.21524202401E+03  0.21524202401E+03  0.00000000000E+00 0.  1.
         23    2    1    2    0    0 -0.84179628467E+01  0.23261562221E+03  0.79767427779E+03  0.83599646536E+03  0.91787509230E+02 0.  0.
        254    2    1    2    0    0  0.84179628467E+01 -0.23261562221E+03  0.91382719733E+03  0.13059890578E+04  0.90351888895E+03 0.  0.
        -24    2    4    4    0    0 -0.28798208531E+03  0.81627408539E+02  0.79178961000E+03  0.85007880877E+03  0.78143965450E+02 0.  0.
         24    2    4    4    0    0  0.29640004815E+03 -0.31424303075E+03  0.12203758733E+03  0.45591024901E+03  0.79745291511E+02 0.  0.
         11    1    3    3    0    0  0.38825010851E+02  0.14895380783E+03  0.50731158001E+03  0.53015059893E+03  0.00000000000E+00 0. -1.
        -11    1    3    3    0    0 -0.47242973698E+02  0.83661814372E+02  0.29036269779E+03  0.30584586643E+03  0.00000000000E+00 0.  1.
          4    1    6    6  502    0  0.71393771346E+02 -0.99154980657E+02  0.68474627035E+02  0.14006268355E+03  0.00000000000E+00 0. -1.
          3    1    5    5  503    0  0.48674277797E+01 -0.32511884741E+00  0.18795793254E+02  0.19418532372E+02  0.00000000000E+00 0. -1.
         -4    1    5    5    0  503 -0.29284951309E+03  0.81952527387E+02  0.77299381675E+03  0.83066027640E+03  0.00000000000E+00 0.  1.
         -3    1    6    6    0  502  0.22500627681E+03 -0.21508805009E+03  0.53562960294E+02  0.31584756546E+03  0.00000000000E+00 0.  1.
<mgrwt>
<rscale>  0 0.12879692E+04</rscale>
<asrwt>0</asrwt>
<pdfrwt beam="1">  1        2 0.29642207E+00 0.12879692E+04</pdfrwt>
<pdfrwt beam="2">  1       -2 0.33114159E-01 0.12879692E+04</pdfrwt>
<totfact> 0.61325714E+01</totfact>
</mgrwt>
</event>
<event>
12    1  0.1494110E-007  0.2206056E+04  0.7818608E-02  0.8515912E-01
         -2   -1    0    0    0  501 -0.00000000000E+00  0.00000000000E+00  0.82265415249E+03  0.82265415249E+03  0.00000000000E+00 0.  1.
          2   -1    0    0  501    0  0.00000000000E+00 -0.00000000000E+00 -0.14789578107E+04  0.14789578107E+04  0.00000000000E+00 0. -1.
         23    2    1    2    0    0 -0.45916951173E+03 -0.48577969345E+03 -0.92671072629E+03  0.11462320600E+04  0.90755793471E+02 0.  0.
        254    2    1    2    0    0  0.45916951173E+03  0.48577969345E+03  0.27040706804E+03  0.11553799032E+04  0.90275366923E+03 0.  0.
        -24    2    4    4    0    0  0.33940133419E+03 -0.67287002703E+02  0.43378591602E+03  0.56076202346E+03  0.81012465875E+02 0.  0.
         24    2    4    4    0    0  0.11976817754E+03  0.55306669616E+03 -0.16337884799E+03  0.59461787979E+03  0.81551138852E+02 0.  0.
         11    1    3    3    0    0 -0.73129620612E+02 -0.12978754743E+03 -0.22310159987E+03  0.26826679396E+03  0.00000000000E+00 0.  1.
        -11    1    3    3    0    0 -0.38603989112E+03 -0.35599214603E+03 -0.70360912642E+03  0.87796526603E+03  0.00000000000E+00 0. -1.
          2    1    6    6  502    0  0.12596422642E+03  0.52962833946E+03 -0.14280220813E+03  0.56281936263E+03  0.00000000000E+00 0. -1.
          1    1    5    5  503    0  0.22303525600E+03 -0.81776281718E+02  0.27558781156E+03  0.36384162427E+03  0.00000000000E+00 0. -1.
         -2    1    5    5    0  503  0.11636607819E+03  0.14489279015E+02  0.15819810447E+03  0.19692039919E+03  0.00000000000E+00 0.  1.
         -1    1    6    6    0  502 -0.61960488803E+01  0.23438356696E+02 -0.20576639851E+02  0.31798517165E+02  0.00000000000E+00 0.  1.
<mgrwt>
<rscale>  0 0.22060560E+04</rscale>
<asrwt>0</asrwt>
<pdfrwt beam="1">  1        2 0.22753197E+00 0.22060560E+04</pdfrwt>
<pdfrwt beam="2">  1       -2 0.12656218E+00 0.22060560E+04</pdfrwt>
<totfact> 0.55402675E+00</totfact>
</mgrwt>
</event>
<event>
12    1  0.1494110E-007  0.2321339E+04  0.7818608E-02  0.8469555E-01
          2   -1    0    0  501    0  0.00000000000E+00  0.00000000000E+00  0.12305798714E+04  0.12305798714E+04  0.00000000000E+00 0. -1.
         -2   -1    0    0    0  501 -0.00000000000E+00 -0.00000000000E+00 -0.10947304495E+04  0.10947304495E+04  0.00000000000E+00 0.  1.
         23    2    1    2    0    0  0.68328961315E+03 -0.43786940836E+03  0.60792840423E+03  0.10178661036E+04  0.88657463798E+02 0.  0.
        254    2    1    2    0    0 -0.68328961315E+03  0.43786940836E+03 -0.47207898238E+03  0.13074442174E+04  0.90991071083E+03 0.  0.
        -24    2    4    4    0    0 -0.77566063502E+03  0.61826803586E+03 -0.44162988882E+03  0.10886108690E+04  0.78306324561E+02 0.  0.
         24    2    4    4    0    0  0.92371021871E+02 -0.18039862750E+03 -0.30449093564E+02  0.21883334839E+03  0.76712558171E+02 0.  0.
         13    1    3    3    0    0  0.20098320429E+03 -0.10039471547E+03  0.20839496378E+03  0.30643401938E+03  0.00000000000E+00 0.  1.
        -13    1    3    3    0    0  0.48230640886E+03 -0.33747469289E+03  0.39953344045E+03  0.71143208418E+03  0.00000000000E+00 0. -1.
          2    1    6    6  502    0  0.43827340349E+02 -0.14988140701E+03 -0.53720447110E+01  0.15625021854E+03  0.00000000000E+00 0. -1.
          1    1    5    5  503    0 -0.29596696223E+03  0.27079327946E+03 -0.20805991082E+03  0.45190084025E+03  0.00000000000E+00 0. -1.
         -2    1    5    5    0  503 -0.47969367279E+03  0.34747475640E+03 -0.23356997800E+03  0.63671002872E+03  0.00000000000E+00 0.  1.
         -1    1    6    6    0  502  0.48543681522E+02 -0.30517220493E+02 -0.25077048853E+02  0.62583129848E+02  0.00000000000E+00 0.  1.
<mgrwt>
<rscale>  0 0.23213386E+04</rscale>
<asrwt>0</asrwt>
<pdfrwt beam="1">  1        2 0.18931998E+00 0.23213386E+04</pdfrwt>
<pdfrwt beam="2">  1       -2 0.16842007E+00 0.23213386E+04</pdfrwt>
<totfact> 0.35957785E+00</totfact>
</mgrwt>
</event>
<event>
12    1  0.1494110E-007  0.1356703E+04  0.7818608E-02  0.8985769E-01
         -2   -1    0    0    0  501 -0.00000000000E+00  0.00000000000E+00  0.14015187707E+03  0.14015187707E+03  0.00000000000E+00 0.  1.
          2   -1    0    0  501    0  0.00000000000E+00 -0.00000000000E+00 -0.32833010547E+04  0.32833010547E+04  0.00000000000E+00 0. -1.
         23    2    1    2    0    0  0.32078650537E+03  0.17134726071E+03 -0.71577627457E+03  0.81133964922E+03  0.11692940340E+03 0.  0.
        254    2    1    2    0    0 -0.32078650537E+03 -0.17134726071E+03 -0.24273729030E+04  0.26121132825E+04  0.89371848171E+03 0.  0.
        -24    2    4    4    0    0 -0.39157190421E+03  0.12775170408E+03 -0.21482957250E+04  0.21889140015E+04  0.80752275064E+02 0.  0.
         24    2    4    4    0    0  0.70785398849E+02 -0.29909896478E+03 -0.27907717807E+03  0.42319928103E+03  0.82114534185E+02 0.  0.
         13    1    3    3    0    0  0.17520871940E+03  0.15745776292E+03 -0.45466232212E+03  0.51206334531E+03  0.00000000000E+00 0.  1.
        -13    1    3    3    0    0  0.14557778597E+03  0.13889497791E+02 -0.26111395246E+03  0.29927630391E+03  0.00000000000E+00 0. -1.
          2    1    6    6  502    0  0.25726132860E+02 -0.13911544822E+02 -0.29780612152E+02  0.41740266548E+02  0.00000000000E+00 0. -1.
          3    1    5    5  503    0 -0.12267776963E+03  0.37100043788E+01 -0.56731160243E+03  0.58043608911E+03  0.00000000000E+00 0. -1.
         -4    1    5    5    0  503 -0.26889413459E+03  0.12404169970E+03 -0.15809841225E+04  0.16084779124E+04  0.00000000000E+00 0.  1.
         -1    1    6    6    0  502  0.45059265989E+02 -0.28518741996E+03 -0.24929656591E+03  0.38145901449E+03  0.00000000000E+00 0.  1.
<mgrwt>
<rscale>  0 0.13567031E+04</rscale>
<asrwt>0</asrwt>
<pdfrwt beam="1">  1        2 0.50512320E+00 0.13567031E+04</pdfrwt>
<pdfrwt beam="2">  1       -2 0.21561829E-01 0.13567031E+04</pdfrwt>
<totfact> 0.21186659E+01</totfact>
</mgrwt>
</event>
<event>
12    1  0.1494110E-007  0.1692249E+04  0.7818608E-02  0.8765797E-01
         -2   -1    0    0    0  501 -0.00000000000E+00  0.00000000000E+00  0.58569541034E+03  0.58569541034E+03  0.00000000000E+00 0.  1.
          2   -1    0    0  501    0  0.00000000000E+00 -0.00000000000E+00 -0.12223532399E+04  0.12223532399E+04  0.00000000000E+00 0. -1.
         23    2    1    2    0    0  0.59612274319E+03 -0.74675136368E+02 -0.33147841324E+03  0.69272127088E+03  0.95111091607E+02 0.  0.
        254    2    1    2    0    0 -0.59612274319E+03  0.74675136368E+02 -0.30517941627E+03  0.11153273793E+04  0.88875305118E+03 0.  0.
        -24    2    4    4    0    0  0.10238268769E+03  0.30525398816E+03 -0.11699732662E+03  0.35089563263E+03  0.76007621564E+02 0.  0.
         24    2    4    4    0    0 -0.69850543088E+03 -0.23057885179E+03 -0.18818208966E+03  0.76443174669E+03  0.88695843264E+02 0.  0.
         13    1    3    3    0    0  0.20434989819E+03  0.11857368107E+02 -0.83584238677E+02  0.22110134107E+03  0.00000000000E+00 0. -1.
        -13    1    3    3    0    0  0.39177284500E+03 -0.86532504475E+02 -0.24789417457E+03  0.47161992981E+03  0.00000000000E+00 0.  1.
          4    1    6    6  502    0 -0.65503134263E+03 -0.19593528565E+03 -0.16032972227E+03  0.70225516433E+03  0.00000000000E+00 0. -1.
          3    1    5    5  503    0  0.10162959760E+03  0.30921183628E+03 -0.11879174830E+03  0.34648522951E+03  0.00000000000E+00 0. -1.
         -4    1    5    5    0  503  0.75309009205E+00 -0.39578481236E+01  0.17944216854E+01  0.44104031155E+01  0.00000000000E+00 0.  1.
         -1    1    6    6    0  502 -0.43474088256E+02 -0.34643566139E+02 -0.27852367389E+02  0.62176582358E+02  0.00000000000E+00 0.  1.
<mgrwt>
<rscale>  0 0.16922490E+04</rscale>
<asrwt>0</asrwt>
<pdfrwt beam="1">  1        2 0.18805434E+00 0.16922490E+04</pdfrwt>
<pdfrwt beam="2">  1       -2 0.90106988E-01 0.16922490E+04</pdfrwt>
<totfact> 0.18434261E+01</totfact>
</mgrwt>
</event>
<event>
12    1  0.1494110E-007  0.1191172E+04  0.7818608E-02  0.9120619E-01
         -1   -1    0    0    0  501 -0.00000000000E+00  0.00000000000E+00  0.39021591483E+03  0.39021591483E+03  0.00000000000E+00 0.  1.
          1   -1    0    0  501    0  0.00000000000E+00 -0.00000000000E+00 -0.90904236655E+03  0.90904236655E+03  0.00000000000E+00 0. -1.
         23    2    1    2    0    0  0.86341774519E+02 -0.21947326945E+03 -0.12133967397E+03  0.27978357632E+03  0.89062422330E+02 0.  0.
        254    2    1    2    0    0 -0.86341774519E+02  0.21947326945E+03 -0.39748677775E+03  0.10194747051E+04  0.90868559894E+03 0.  0.
        -24    2    4    4    0    0  0.51681860084E+02 -0.77533983960E+02  0.25606071448E+03  0.28430555524E+03  0.81117358870E+02 0.  0.
         24    2    4    4    0    0 -0.13802363460E+03  0.29700725341E+03 -0.65354749223E+03  0.73516914981E+03  0.78009755456E+02 0.  0.
         13    1    3    3    0    0  0.36698780041E+02 -0.47350373277E+02 -0.72613921666E+02  0.94136283789E+02  0.00000000000E+00 0.  1.
        -13    1    3    3    0    0  0.49642994478E+02 -0.17212289617E+03 -0.48725752304E+02  0.18564729254E+03  0.00000000000E+00 0. -1.
          2    1    6    6  502    0 -0.47623006556E+02  0.17672646986E+03 -0.40823610634E+03  0.44738899676E+03  0.00000000000E+00 0. -1.
          3    1    5    5  503    0  0.80544154959E+01 -0.28367153574E+02  0.12495846391E+02  0.32026788598E+02  0.00000000000E+00 0. -1.
         -4    1    5    5    0  503  0.43627444588E+02 -0.49166830386E+02  0.24356486809E+03  0.25227876664E+03  0.00000000000E+00 0.  1.
         -1    1    6    6    0  502 -0.90400628047E+02  0.12028078355E+03 -0.24531138590E+03  0.28778015306E+03  0.00000000000E+00 0.  1.
<mgrwt>
<rscale>  0 0.11911722E+04</rscale>
<asrwt>0</asrwt>
<pdfrwt beam="1">  1        1 0.13985267E+00 0.11911722E+04</pdfrwt>
<pdfrwt beam="2">  1       -1 0.60033219E-01 0.11911722E+04</pdfrwt>
<totfact> 0.49844481E+01</totfact>
</mgrwt>
</event>
<event>
12    1  0.1494110E-007  0.2530728E+04  0.7818608E-02  0.8392120E-01
          1   -1    0    0  501    0  0.00000000000E+00  0.00000000000E+00  0.85652754112E+03  0.85652754112E+03  0.00000000000E+00 0. -1.
         -1   -1    0    0    0  501 -0.00000000000E+00 -0.00000000000E+00 -0.18693457232E+04  0.18693457232E+04  0.00000000000E+00 0.  1.
         23    2    1    2    0    0  0.69987242753E+02 -0.83352498159E+03  0.33041822832E+03  0.90425240697E+03  0.93989897412E+02 0.  0.
        254    2    1    2    0    0 -0.69987242753E+02  0.83352498159E+03 -0.13432364105E+04  0.18216208574E+04  0.90241696829E+03 0.  0.
        -24    2    4    4    0    0  0.14008670197E+03  0.19441319692E+03 -0.10556011842E+04  0.10854888499E+04  0.81064221680E+02 0.  0.
         24    2    4    4    0    0 -0.21007394472E+03  0.63911178467E+03 -0.28763522630E+03  0.73613200751E+03  0.81002305653E+02 0.  0.
         13    1    3    3    0    0  0.42364254586E+02 -0.33526345637E+03  0.18092643388E+03  0.38331539197E+03  0.00000000000E+00 0.  1.
        -13    1    3    3    0    0  0.27622988167E+02 -0.49826152522E+03  0.14949179444E+03  0.52093701500E+03  0.00000000000E+00 0. -1.
          2    1    6    6  502    0 -0.82343914213E+02  0.31461832712E+03 -0.17707372515E+03  0.37029760478E+03  0.00000000000E+00 0. -1.
          3    1    5    5  503    0  0.11799481513E+02  0.22575277609E+02 -0.26826278028E+03  0.26946946062E+03  0.00000000000E+00 0. -1.
         -4    1    5    5    0  503  0.12828722045E+03  0.17183791931E+03 -0.78733840388E+03  0.81601938927E+03  0.00000000000E+00 0.  1.
         -1    1    6    6    0  502 -0.12773003051E+03  0.32449345755E+03 -0.11056150115E+03  0.36583440273E+03  0.00000000000E+00 0.  1.
<mgrwt>
<rscale>  0 0.25307280E+04</rscale>
<asrwt>0</asrwt>
<pdfrwt beam="1">  1        1 0.13177347E+00 0.25307280E+04</pdfrwt>
<pdfrwt beam="2">  1       -1 0.28759165E+00 0.25307280E+04</pdfrwt>
<totfact> 0.69639534E-01</totfact>
</mgrwt>
</event>
<event>
12    1  0.1494110E-007  0.1483534E+04  0.7818608E-02  0.8895477E-01
          2   -1    0    0  501    0  0.00000000000E+00  0.00000000000E+00  0.10183231719E+04  0.10183231719E+04  0.00000000000E+00 0. -1.
         -2   -1    0    0    0  501 -0.00000000000E+00 -0.00000000000E+00 -0.54031804151E+03  0.54031804151E+03  0.00000000000E+00 0.  1.
         23    2    1    2    0    0 -0.30134969022E+03  0.15492886258E+03 -0.17298568025E+03  0.39094052093E+03  0.89976980784E+02 0.  0.
        254    2    1    2    0    0  0.30134969022E+03 -0.15492886258E+03  0.65099081066E+03  0.11677006925E+04  0.90825177315E+03 0.  0.
        -24    2    4    4    0    0 -0.37562521127E+02 -0.48262283128E+03  0.31166422916E+03  0.58137562752E+03  0.80791634884E+02 0.  0.
         24    2    4    4    0    0  0.33891221135E+03  0.32769396870E+03  0.33932658150E+03  0.58632506498E+03  0.79935779161E+02 0.  0.
         11    1    3    3    0    0 -0.21734879978E+03  0.11022619698E+03 -0.76498610875E+02  0.25542582628E+03  0.00000000000E+00 0. -1.
        -11    1    3    3    0    0 -0.84000890446E+02  0.44702665597E+02 -0.96487069379E+02  0.13551469464E+03  0.00000000000E+00 0.  1.
          2    1    6    6  502    0  0.64601476951E+02  0.78022961452E+02  0.37135924689E+02  0.10788887913E+03  0.00000000000E+00 0. -1.
          3    1    5    5  503    0  0.24829684037E+02 -0.13361599325E+03  0.96066372030E+02  0.16642864746E+03  0.00000000000E+00 0. -1.
         -2    1    5    5    0  503 -0.62392205164E+02 -0.34900683803E+03  0.21559785713E+03  0.41494698005E+03  0.00000000000E+00 0.  1.
         -1    1    6    6    0  502  0.27431073440E+03  0.24967100724E+03  0.30219065681E+03  0.47843618585E+03  0.00000000000E+00 0.  1.
<mgrwt>
<rscale>  0 0.14835341E+04</rscale>
<asrwt>0</asrwt>
<pdfrwt beam="1">  1        2 0.15666510E+00 0.14835341E+04</pdfrwt>
<pdfrwt beam="2">  1       -2 0.83125853E-01 0.14835341E+04</pdfrwt>
<totfact> 0.30069701E+01</totfact>
</mgrwt>
</event>
<event>
12    1  0.1494110E-007  0.1772297E+04  0.7818608E-02  0.8721172E-01
          1   -1    0    0  501    0  0.00000000000E+00  0.00000000000E+00  0.24016823053E+04  0.24016823053E+04  0.00000000000E+00 0. -1.
         -1   -1    0    0    0  501 -0.00000000000E+00 -0.00000000000E+00 -0.32696227892E+03  0.32696227892E+03  0.00000000000E+00 0.  1.
         23    2    1    2    0    0  0.57456053624E+03 -0.11040359321E+03  0.35986940947E+03  0.69275779235E+03  0.89992242984E+02 0.  0.
        254    2    1    2    0    0 -0.57456053624E+03  0.11040359321E+03  0.17148506169E+04  0.20358867919E+04  0.92833917713E+03 0.  0.
        -24    2    4    4    0    0  0.22514429287E+03  0.16285794179E+03  0.50510328439E+03  0.58242576688E+03  0.82932407466E+02 0.  0.
         24    2    4    4    0    0 -0.79970482911E+03 -0.52454348578E+02  0.12097473325E+04  0.14534610250E+04  0.82347254013E+02 0.  0.
         11    1    3    3    0    0  0.25258760222E+03 -0.48983318228E+02  0.10647684030E+03  0.27845498699E+03  0.00000000000E+00 0.  1.
        -11    1    3    3    0    0  0.32197293402E+03 -0.61420274985E+02  0.25339256917E+03  0.41430280536E+03  0.00000000000E+00 0. -1.
          2    1    6    6  502    0 -0.73537093828E+03 -0.34464900481E+02  0.11386320472E+04  0.13558912881E+04  0.00000000000E+00 0. -1.
          1    1    5    5  503    0  0.18267402919E+03  0.10874836768E+03  0.31293795101E+03  0.37832019454E+03  0.00000000000E+00 0. -1.
         -2    1    5    5    0  503  0.42470263676E+02  0.54109574109E+02  0.19216533338E+03  0.20410557234E+03  0.00000000000E+00 0.  1.
         -1    1    6    6    0  502 -0.64333890824E+02 -0.17989448098E+02  0.71115285364E+02  0.97569736926E+02  0.00000000000E+00 0.  1.
<mgrwt>
<rscale>  0 0.17722974E+04</rscale>
<asrwt>0</asrwt>
<pdfrwt beam="1">  1        1 0.36948957E+00 0.17722974E+04</pdfrwt>
<pdfrwt beam="2">  1       -1 0.50301891E-01 0.17722974E+04</pdfrwt>
<totfact> 0.59521556E+00</totfact>
</mgrwt>
</event>
<event>
12    1  0.1494110E-007  0.2588611E+04  0.7818608E-02  0.8372080E-01
         -2   -1    0    0    0  501 -0.00000000000E+00  0.00000000000E+00  0.80859969012E+03  0.80859969012E+03  0.00000000000E+00 0. -1.
          2   -1    0    0  501    0  0.00000000000E+00 -0.00000000000E+00 -0.20717626471E+04  0.20717626471E+04  0.00000000000E+00 0.  1.
         23    2    1    2    0    0 -0.79102182701E+02  0.41064364444E+03  0.62232838119E+03  0.75517591126E+03  0.90070443974E+02 0.  0.
        254    2    1    2    0    0  0.79102182701E+02 -0.41064364444E+03 -0.18854913382E+04  0.21251864260E+04  0.88682264334E+03 0.  0.
        -24    2    4    4    0    0  0.12656305008E+03  0.43524523890E+02 -0.15373388964E+04  0.15451380212E+04  0.78281748833E+02 0.  0.
         24    2    4    4    0    0 -0.47460867380E+02 -0.45416816833E+03 -0.34815244179E+03  0.58004840482E+03  0.82004695966E+02 0.  0.
         11    1    3    3    0    0 -0.80533186788E+02  0.40919143285E+03  0.62527482688E+03  0.75159286320E+03  0.00000000000E+00 0. -1.
        -11    1    3    3    0    0  0.14310040874E+01  0.14522115849E+01 -0.29464456825E+01  0.35830480523E+01  0.00000000000E+00 0.  1.
          2    1    6    6  502    0 -0.56943024925E+02 -0.37528848066E+03 -0.31760244031E+03  0.49492955246E+03  0.00000000000E+00 0. -1.
          1    1    5    5  503    0  0.12487801054E+03  0.54336929267E+02 -0.12141622353E+04  0.12217761469E+04  0.00000000000E+00 0. -1.
         -2    1    5    5    0  503  0.16850395386E+01 -0.10812405377E+02 -0.32317666109E+03  0.32336187429E+03  0.00000000000E+00 0.  1.
         -1    1    6    6    0  502  0.94821575444E+01 -0.78879687663E+02 -0.30550001482E+02  0.85118852366E+02  0.00000000000E+00 0.  1.
<mgrwt>
<rscale>  0 0.25886109E+04</rscale>
<asrwt>0</asrwt>
<pdfrwt beam="1">  1        2 0.31873272E+00 0.25886109E+04</pdfrwt>
<pdfrwt beam="2">  1       -2 0.12439995E+00 0.25886109E+04</pdfrwt>
<totfact> 0.26181652E+00</totfact>
</mgrwt>
</event>
<event>
12    1  0.1494110E-007  0.2307788E+04  0.7818608E-02  0.8474857E-01
         -2   -1    0    0    0  501 -0.00000000000E+00  0.00000000000E+00  0.19113156306E+04  0.19113156306E+04  0.00000000000E+00 0.  1.
          2   -1    0    0  501    0  0.00000000000E+00 -0.00000000000E+00 -0.69662568542E+03  0.69662568542E+03  0.00000000000E+00 0. -1.
         23    2    1    2    0    0 -0.37618676317E+03  0.66761483864E+03  0.11994151405E+04  0.14261195805E+04  0.89410990655E+02 0.  0.
        254    2    1    2    0    0  0.37618676317E+03 -0.66761483864E+03  0.15274804693E+02  0.11818217355E+04  0.89957948019E+03 0.  0.
        -24    2    4    4    0    0  0.21313416335E+03 -0.64562412171E+03 -0.35331209133E+03  0.77044130796E+03  0.80583478546E+02 0.  0.
         24    2    4    4    0    0  0.16305259983E+03 -0.21990716935E+02  0.36858689602E+03  0.41138042750E+03  0.79421749332E+02 0.  0.
         11    1    3    3    0    0 -0.15829906784E+03  0.24380668368E+03  0.52882379170E+03  0.60345248078E+03  0.00000000000E+00 0. -1.
        -11    1    3    3    0    0 -0.21788769534E+03  0.42380815496E+03  0.67059134877E+03  0.82266709977E+03  0.00000000000E+00 0.  1.
          2    1    6    6  502    0  0.16580986614E+03 -0.81605715847E+01  0.35450960802E+03  0.39145442751E+03  0.00000000000E+00 0. -1.
          3    1    5    5  503    0  0.18673457953E+03 -0.45142139025E+03 -0.25929526877E+03  0.55306881233E+03  0.00000000000E+00 0. -1.
         -4    1    5    5    0  503  0.26399583817E+02 -0.19420273146E+03 -0.94016822562E+02  0.21737249563E+03  0.00000000000E+00 0.  1.
         -1    1    6    6    0  502 -0.27572663171E+01 -0.13830145350E+02  0.14077288000E+02  0.19925999984E+02  0.00000000000E+00 0.  1.
<mgrwt>
<rscale>  0 0.23077882E+04</rscale>
<asrwt>0</asrwt>
<pdfrwt beam="1">  1        2 0.10717318E+00 0.23077882E+04</pdfrwt>
<pdfrwt beam="2">  1       -2 0.29404856E+00 0.23077882E+04</pdfrwt>
<totfact> 0.12913730E+00</totfact>
</mgrwt>
</event>
<event>
12    1  0.1494110E-007  0.1746457E+04  0.7818608E-02  0.8735303E-01
         -1   -1    0    0    0  501 -0.00000000000E+00  0.00000000000E+00  0.40335439243E+03  0.40335439243E+03  0.00000000000E+00 0.  1.
          1   -1    0    0  501    0  0.00000000000E+00 -0.00000000000E+00 -0.18904671796E+04  0.18904671796E+04  0.00000000000E+00 0. -1.
         23    2    1    2    0    0  0.20651820983E+03 -0.45081989721E+03 -0.15623127213E+02  0.50446842964E+03  0.91410960426E+02 0.  0.
        254    2    1    2    0    0 -0.20651820983E+03  0.45081989721E+03 -0.14714896600E+04  0.17893531424E+04  0.88916505676E+03 0.  0.
        -24    2    4    4    0    0 -0.25636065900E+03  0.69835035379E+03 -0.10088047526E+04  0.12560332557E+04  0.80737266842E+02 0.  0.
         24    2    4    4    0    0  0.49842449172E+02 -0.24753045658E+03 -0.46268490735E+03  0.53331988677E+03  0.81223035278E+02 0.  0.
         11    1    3    3    0    0  0.85747670443E+02 -0.22040685451E+03 -0.50979378195E+02  0.24193127434E+03  0.00000000000E+00 0. -1.
        -11    1    3    3    0    0  0.12077053938E+03 -0.23041304270E+03  0.35356250982E+02  0.26253715530E+03  0.00000000000E+00 0.  1.
          4    1    6    6  502    0  0.61921523743E+02 -0.10520927466E+03 -0.20002269925E+03  0.23433383621E+03  0.00000000000E+00 0. -1.
          3    1    5    5  503    0 -0.53532586468E+02  0.73777563522E+02 -0.10913046601E+03  0.14219115762E+03  0.00000000000E+00 0. -1.
         -4    1    5    5    0  503 -0.20282807253E+03  0.62457279027E+03 -0.89967428664E+03  0.11138420980E+04  0.00000000000E+00 0.  1.
         -3    1    6    6    0  502 -0.12079074571E+02 -0.14232118192E+03 -0.26266220810E+03  0.29898605056E+03  0.00000000000E+00 0.  1.
<mgrwt>
<rscale>  0 0.17464573E+04</rscale>
<asrwt>0</asrwt>
<pdfrwt beam="1">  1        1 0.29084111E+00 0.17464573E+04</pdfrwt>
<pdfrwt beam="2">  1       -1 0.62054522E-01 0.17464573E+04</pdfrwt>
<totfact> 0.88301791E+00</totfact>
</mgrwt>
</event>
<event>
12    1  0.1494110E-007  0.1885960E+04  0.7818608E-02  0.8661877E-01
          1   -1    0    0  501    0  0.00000000000E+00  0.00000000000E+00  0.15472624158E+04  0.15472624158E+04  0.00000000000E+00 0. -1.
         -1   -1    0    0    0  501 -0.00000000000E+00 -0.00000000000E+00 -0.57469962450E+03  0.57469962450E+03  0.00000000000E+00 0.  1.
         23    2    1    2    0    0 -0.72288397101E+03 -0.49103622872E+02  0.44337567459E+03  0.85440872238E+03  0.91977577356E+02 0.  0.
        254    2    1    2    0    0  0.72288397101E+03  0.49103622872E+02  0.52918711669E+03  0.12675533179E+04  0.89536585145E+03 0.  0.
        -24    2    4    4    0    0  0.75207555317E+02 -0.19565742042E+03 -0.16888030211E+03  0.28096402491E+03  0.80512261832E+02 0.  0.
         24    2    4    4    0    0  0.64767641569E+03  0.24476104330E+03  0.69806741881E+03  0.98658929300E+03  0.81655398526E+02 0.  0.
         11    1    3    3    0    0 -0.67457223112E+02 -0.22025657869E+02  0.69654785061E+02  0.99435384228E+02  0.00000000000E+00 0.  1.
        -11    1    3    3    0    0 -0.65542674790E+03 -0.27077965003E+02  0.37372088953E+03  0.75497333815E+03  0.00000000000E+00 0. -1.
          4    1    6    6  502    0  0.62617629611E+03  0.24039703202E+03  0.69224022523E+03  0.96389004364E+03  0.00000000000E+00 0. -1.
          3    1    5    5  503    0  0.25239061408E+02 -0.14860476846E+03 -0.14251514350E+03  0.20743903576E+03  0.00000000000E+00 0. -1.
         -4    1    5    5    0  503  0.49968493909E+02 -0.47052651960E+02 -0.26365158617E+02  0.73524989146E+02  0.00000000000E+00 0.  1.
         -3    1    6    6    0  502  0.21500119581E+02  0.43640112764E+01  0.58271935812E+01  0.22699249358E+02  0.00000000000E+00 0.  1.
<mgrwt>
<rscale>  0 0.18859598E+04</rscale>
<asrwt>0</asrwt>
<pdfrwt beam="1">  1        1 0.23804037E+00 0.18859598E+04</pdfrwt>
<pdfrwt beam="2">  1       -1 0.88415328E-01 0.18859598E+04</pdfrwt>
<totfact> 0.71386372E+00</totfact>
</mgrwt>
</event>
<event>
12    1  0.1494110E-007  0.2680106E+04  0.7818608E-02  0.8341489E-01
          2   -1    0    0  501    0  0.00000000000E+00  0.00000000000E+00  0.21995291121E+04  0.21995291121E+04  0.00000000000E+00 0. -1.
         -2   -1    0    0    0  501 -0.00000000000E+00 -0.00000000000E+00 -0.81642122064E+03  0.81642122064E+03  0.00000000000E+00 0.  1.
         23    2    1    2    0    0 -0.17399235277E+03  0.10217781221E+04  0.12154849161E+04  0.16009297161E+04  0.10615321513E+03 0.  0.
        254    2    1    2    0    0  0.17399235277E+03 -0.10217781221E+04  0.16762297534E+03  0.14150206166E+04  0.94862111196E+03 0.  0.
        -24    2    4    4    0    0  0.22073840084E+03 -0.48031295339E+02  0.34615292535E+03  0.42077644273E+03  0.78730680702E+02 0.  0.
         24    2    4    4    0    0 -0.46746048079E+02 -0.97374682673E+03 -0.17852995001E+03  0.99424417390E+03  0.79249345127E+02 0.  0.
         13    1    3    3    0    0 -0.84779679756E+02  0.40315888033E+03  0.40806187933E+03  0.57986134053E+03  0.00000000000E+00 0.  1.
        -13    1    3    3    0    0 -0.89212673010E+02  0.61861924174E+03  0.80742303678E+03  0.10210683756E+04  0.00000000000E+00 0. -1.
          4    1    6    6  502    0 -0.98527162759E+01 -0.54039497383E+03 -0.13543279926E+03  0.55719462208E+03  0.00000000000E+00 0. -1.
          3    1    5    5  503    0  0.12826300695E+03  0.11481703711E+02  0.17332450853E+03  0.21592733437E+03  0.00000000000E+00 0. -1.
         -4    1    5    5    0  503  0.92475393892E+02 -0.59512999050E+02  0.17282841683E+03  0.20484910836E+03  0.00000000000E+00 0.  1.
         -3    1    6    6    0  502 -0.36893331803E+02 -0.43335185290E+03 -0.43097150756E+02  0.43704955182E+03  0.00000000000E+00 0.  1.
<mgrwt>
<rscale>  0 0.26801061E+04</rscale>
<asrwt>0</asrwt>
<pdfrwt beam="1">  1        2 0.33838909E+00 0.26801061E+04</pdfrwt>
<pdfrwt beam="2">  1       -2 0.12560327E+00 0.26801061E+04</pdfrwt>
<totfact> 0.21506527E+00</totfact>
</mgrwt>
</event>
<event>
12    1  0.1881726E-007  0.1983191E+04  0.7818608E-02  0.8614520E-01
         -1   -1    0    0    0  501 -0.00000000000E+00  0.00000000000E+00  0.12460731876E+04  0.12460731876E+04  0.00000000000E+00 0.  1.
          1   -1    0    0  501    0  0.00000000000E+00 -0.00000000000E+00 -0.78908812459E+03  0.78908812459E+03  0.00000000000E+00 0. -1.
         23    2    1    2    0    0 -0.58756206445E+03  0.48241008756E+03  0.36917441994E+03  0.84993676189E+03  0.90299915389E+02 0.  0.
        254    2    1    2    0    0  0.58756206445E+03 -0.48241008756E+03  0.87810643112E+02  0.11852245503E+04  0.90504024968E+03 0.  0.
        -24    2    4    4    0    0 -0.52522603220E+01 -0.55212343076E+03  0.15745414003E+03  0.57981525857E+03  0.80784025760E+02 0.  0.
         24    2    4    4    0    0  0.59281432477E+03  0.69713343209E+02 -0.69643496921E+02  0.60540929178E+03  0.73358162643E+02 0.  0.
         11    1    3    3    0    0 -0.56931657959E+03  0.44783416077E+03  0.36348316393E+03  0.81043001784E+03  0.00000000000E+00 0. -1.
        -11    1    3    3    0    0 -0.18245484861E+02  0.34575926784E+02  0.56912560075E+01  0.39506744054E+02  0.00000000000E+00 0.  1.
          2    1    6    6  502    0  0.10858385609E+03 -0.15144152926E+02 -0.17858585361E+02  0.11107982824E+03  0.00000000000E+00 0. -1.
          1    1    5    5  503    0 -0.12042982112E+02 -0.44841035602E+02  0.34377819505E+02  0.57771847520E+02  0.00000000000E+00 0. -1.
         -2    1    5    5    0  503  0.67907217896E+01 -0.50728239516E+03  0.12307632053E+03  0.52204341105E+03  0.00000000000E+00 0.  1.
         -1    1    6    6    0  502  0.48423046868E+03  0.84857496135E+02 -0.51784911560E+02  0.49432946353E+03  0.00000000000E+00 0.  1.
<mgrwt>
<rscale>  0 0.19831909E+04</rscale>
<asrwt>0</asrwt>
<pdfrwt beam="1">  1        1 0.12139817E+00 0.19831909E+04</pdfrwt>
<pdfrwt beam="2">  1       -1 0.19170357E+00 0.19831909E+04</pdfrwt>
<totfact> 0.36091102E+00</totfact>
</mgrwt>
</event>
<event>
12    1  0.1978119E-007  0.1901465E+04  0.7818608E-02  0.8654128E-01
          2   -1    0    0  501    0  0.00000000000E+00  0.00000000000E+00  0.13818437631E+04  0.13818437631E+04  0.00000000000E+00 0. -1.
         -2   -1    0    0    0  501 -0.00000000000E+00 -0.00000000000E+00 -0.65412040729E+03  0.65412040729E+03  0.00000000000E+00 0.  1.
         23    2    1    2    0    0  0.95336461142E+02 -0.67933655798E+03 -0.11936749235E+02  0.69285225027E+03  0.96511941711E+02 0.  0.
        254    2    1    2    0    0 -0.95336461142E+02  0.67933655798E+03  0.73966010510E+03  0.13431119202E+04  0.88671605331E+03 0.  0.
        -24    2    4    4    0    0 -0.78727662667E+02  0.54919606870E+02 -0.18575758905E+03  0.22377178171E+03  0.79710227137E+02 0.  0.
         24    2    4    4    0    0 -0.16608798475E+02  0.62441695111E+03  0.92541769415E+03  0.11193401385E+04  0.79699786129E+02 0.  0.
         11    1    3    3    0    0 -0.13347021018E+01 -0.13273021508E+03  0.30324601567E+02  0.13615679522E+03  0.00000000000E+00 0. -1.
        -11    1    3    3    0    0  0.96671163244E+02 -0.54660634289E+03 -0.42261350802E+02  0.55669545504E+03  0.00000000000E+00 0.  1.
          2    1    6    6  502    0 -0.11320859138E+01  0.74019656892E+01  0.64386770449E+00  0.75156689790E+01  0.00000000000E+00 0. -1.
          1    1    5    5  503    0  0.89662105784E+01 -0.11387556130E+02 -0.27318187608E+02  0.30924953370E+02  0.00000000000E+00 0. -1.
         -2    1    5    5    0  503 -0.87693873246E+02  0.66307163000E+02 -0.15843940145E+03  0.19284682834E+03  0.00000000000E+00 0.  1.
         -1    1    6    6    0  502 -0.15476712561E+02  0.61701498542E+03  0.92477382645E+03  0.11118244695E+04  0.00000000000E+00 0.  1.
<mgrwt>
<rscale>  0 0.19014649E+04</rscale>
<asrwt>0</asrwt>
<pdfrwt beam="1">  1        2 0.21259135E+00 0.19014649E+04</pdfrwt>
<pdfrwt beam="2">  1       -2 0.10063391E+00 0.19014649E+04</pdfrwt>
<totfact> 0.11295766E+01</totfact>
</mgrwt>
</event>
<event>
12    1  0.1494110E-007  0.2571294E+04  0.7818608E-02  0.8378018E-01
          2   -1    0    0  501    0  0.00000000000E+00  0.00000000000E+00  0.77367788684E+03  0.77367788684E+03  0.00000000000E+00 0.  1.
         -2   -1    0    0    0  501 -0.00000000000E+00 -0.00000000000E+00 -0.21364041381E+04  0.21364041381E+04  0.00000000000E+00 0. -1.
         23    2    1    2    0    0  0.91901823268E+02  0.11036772229E+04 -0.80918628750E+03  0.13753487493E+04  0.10125402160E+03 0.  0.
        254    2    1    2    0    0 -0.91901823268E+02 -0.11036772229E+04 -0.55353996381E+03  0.15347332757E+04  0.90689049979E+03 0.  0.
        -24    2    4    4    0    0  0.13700941659E+03  0.47535892815E+01 -0.34671710176E+03  0.38134653674E+03  0.80114016191E+02 0.  0.
         24    2    4    4    0    0 -0.22891123985E+03 -0.11084308122E+04 -0.20682286205E+03  0.11533867390E+04  0.80660103435E+02 0.  0.
         13    1    3    3    0    0 -0.10549137745E+02  0.49641710963E+02 -0.57470980694E+02  0.76671359688E+02  0.00000000000E+00 0.  1.
        -13    1    3    3    0    0  0.10245096101E+03  0.10540355119E+04 -0.75171530680E+03  0.12986773896E+04  0.00000000000E+00 0. -1.
          4    1    6    6  502    0 -0.76636569455E+02 -0.35767933774E+03 -0.28766437929E+02  0.36692666893E+03  0.00000000000E+00 0. -1.
          1    1    5    5  503    0 -0.24148987737E+01  0.12120116043E+02 -0.73403468341E+02  0.74436537490E+02  0.00000000000E+00 0. -1.
         -2    1    5    5    0  503  0.13942431536E+03 -0.73665267618E+01 -0.27331363342E+03  0.30690999925E+03  0.00000000000E+00 0.  1.
         -3    1    6    6    0  502 -0.15227467040E+03 -0.75075147442E+03 -0.17805642412E+03  0.78646007003E+03  0.00000000000E+00 0.  1.
<mgrwt>
<rscale>  0 0.25712943E+04</rscale>
<asrwt>0</asrwt>
<pdfrwt beam="1">  1        2 0.11902737E+00 0.25712943E+04</pdfrwt>
<pdfrwt beam="2">  1       -2 0.32867756E+00 0.25712943E+04</pdfrwt>
<totfact> 0.67557842E-01</totfact>
</mgrwt>
</event>
<event>
12    1  0.1494110E-007  0.1827699E+04  0.7818608E-02  0.8691707E-01
          1   -1    0    0  501    0  0.00000000000E+00  0.00000000000E+00  0.21690525291E+04  0.21690525291E+04  0.00000000000E+00 0. -1.
         -1   -1    0    0    0  501 -0.00000000000E+00 -0.00000000000E+00 -0.38501648726E+03  0.38501648726E+03  0.00000000000E+00 0.  1.
         23    2    1    2    0    0 -0.44333898675E+03 -0.34710160838E+03  0.12171044813E+04  0.13442962330E+04  0.93595191103E+02 0.  0.
        254    2    1    2    0    0  0.44333898675E+03  0.34710160838E+03  0.56693156048E+03  0.12097727834E+04  0.90835555230E+03 0.  0.
        -24    2    4    4    0    0  0.28028899934E+03  0.74605902564E+02  0.76860129584E+03  0.82533733975E+03  0.79409121415E+02 0.  0.
         24    2    4    4    0    0  0.16304998741E+03  0.27249570582E+03 -0.20166973536E+03  0.38443544362E+03  0.79250994076E+02 0.  0.
         11    1    3    3    0    0 -0.35767599584E+03 -0.23337388004E+03  0.87177277944E+03  0.97076426843E+03  0.00000000000E+00 0. -1.
        -11    1    3    3    0    0 -0.85662990908E+02 -0.11372772835E+03  0.34533170190E+03  0.37353196456E+03  0.00000000000E+00 0.  1.
          2    1    6    6  502    0 -0.45939854949E+01  0.39125977573E+02 -0.31872569713E+02  0.50673538695E+02  0.00000000000E+00 0. -1.
          3    1    5    5  503    0  0.98375892978E+02 -0.84287450228E+01  0.21086136361E+03  0.23283336257E+03  0.00000000000E+00 0. -1.
         -4    1    5    5    0  503  0.18191310636E+03  0.83034647587E+02  0.55773993224E+03  0.59250397718E+03  0.00000000000E+00 0.  1.
         -1    1    6    6    0  502  0.16764397291E+03  0.23336972825E+03 -0.16979716565E+03  0.33376190492E+03  0.00000000000E+00 0.  1.
<mgrwt>
<rscale>  0 0.18276991E+04</rscale>
<asrwt>0</asrwt>
<pdfrwt beam="1">  1        1 0.33370038E+00 0.18276991E+04</pdfrwt>
<pdfrwt beam="2">  1       -1 0.59233307E-01 0.18276991E+04</pdfrwt>
<totfact> 0.62219774E+00</totfact>
</mgrwt>
</event>
<event>
12    1  0.1494110E-007  0.3150103E+04  0.7818608E-02  0.8202121E-01
          1   -1    0    0  501    0  0.00000000000E+00  0.00000000000E+00  0.14912171308E+04  0.14912171308E+04  0.00000000000E+00 0. -1.
         -1   -1    0    0    0  501 -0.00000000000E+00 -0.00000000000E+00 -0.16635985600E+04  0.16635985600E+04  0.00000000000E+00 0.  1.
         23    2    1    2    0    0  0.88399152085E+03  0.11293958164E+04  0.88354756880E+02  0.14398203600E+04  0.91105362819E+02 0.  0.
        254    2    1    2    0    0 -0.88399152085E+03 -0.11293958164E+04 -0.26073618602E+03  0.17149953308E+04  0.90346538781E+03 0.  0.
        -24    2    4    4    0    0 -0.44253389955E+03 -0.61151917865E+03  0.31330550684E+03  0.82119416777E+03  0.80047251373E+02 0.  0.
         24    2    4    4    0    0 -0.44145762129E+03 -0.51787663770E+03 -0.57404169286E+03  0.89380116301E+03  0.79218751464E+02 0.  0.
         11    1    3    3    0    0  0.33922038047E+03  0.39746922033E+03 -0.57020564546E+01  0.52257512483E+03  0.00000000000E+00 0.  1.
        -11    1    3    3    0    0  0.54477114037E+03  0.73192659602E+03  0.94056813335E+02  0.91724523519E+03  0.00000000000E+00 0. -1.
          4    1    6    6  502    0 -0.11826821808E+03 -0.13934828834E+03 -0.11006565733E+03  0.21335361679E+03  0.00000000000E+00 0. -1.
          3    1    5    5  503    0 -0.15258339478E+03 -0.22469995941E+03  0.72533225452E+02  0.28112778752E+03  0.00000000000E+00 0. -1.
         -4    1    5    5    0  503 -0.28995050477E+03 -0.38681921924E+03  0.24077228138E+03  0.54006638025E+03  0.00000000000E+00 0.  1.
         -3    1    6    6    0  502 -0.32318940321E+03 -0.37852834935E+03 -0.46397603553E+03  0.68044754622E+03  0.00000000000E+00 0.  1.
<mgrwt>
<rscale>  0 0.31501026E+04</rscale>
<asrwt>0</asrwt>
<pdfrwt beam="1">  1        1 0.22941802E+00 0.31501026E+04</pdfrwt>
<pdfrwt beam="2">  1       -1 0.25593824E+00 0.31501026E+04</pdfrwt>
<totfact> 0.35544536E-01</totfact>
</mgrwt>
</event>
<event>
12    1  0.1494110E-007  0.1675085E+04  0.7818608E-02  0.8775703E-01
          1   -1    0    0  501    0  0.00000000000E+00  0.00000000000E+00  0.11083947733E+04  0.11083947733E+04  0.00000000000E+00 0. -1.
         -1   -1    0    0    0  501 -0.00000000000E+00 -0.00000000000E+00 -0.63287686982E+03  0.63287686982E+03  0.00000000000E+00 0.  1.
         23    2    1    2    0    0  0.13903918727E+03  0.37497318946E+03  0.62297512186E+03  0.74581731750E+03  0.90601767167E+02 0.  0.
        254    2    1    2    0    0 -0.13903918727E+03 -0.37497318946E+03 -0.14745721840E+03  0.99545432560E+03  0.89958262249E+03 0.  0.
        -24    2    4    4    0    0  0.53396522884E+02  0.27114937907E+03  0.40201549210E+02  0.29095593160E+03  0.81645668269E+02 0.  0.
         24    2    4    4    0    0 -0.19243571015E+03 -0.64612256853E+03 -0.18765876761E+03  0.70449839400E+03  0.81217596513E+02 0.  0.
         11    1    3    3    0    0  0.11398282924E+03  0.27928059104E+03  0.39257882471E+03  0.49508369748E+03  0.00000000000E+00 0.  1.
        -11    1    3    3    0    0  0.25056358034E+02  0.95692598412E+02  0.23039629715E+03  0.25073362002E+03  0.00000000000E+00 0. -1.
          2    1    6    6  502    0 -0.11943343622E+03 -0.32484498042E+03 -0.13168622621E+03  0.37031050372E+03  0.00000000000E+00 0. -1.
          3    1    5    5  503    0  0.27699843895E+02  0.50187097718E+02  0.37477358430E+02  0.68487798359E+02  0.00000000000E+00 0. -1.
         -4    1    5    5    0  503  0.25696678989E+02  0.22096228135E+03  0.27241907801E+01  0.22246813324E+03  0.00000000000E+00 0.  1.
         -1    1    6    6    0  502 -0.73002273934E+02 -0.32127758810E+03 -0.55972541407E+02  0.33418789028E+03  0.00000000000E+00 0.  1.
<mgrwt>
<rscale>  0 0.16750850E+04</rscale>
<asrwt>0</asrwt>
<pdfrwt beam="1">  1        1 0.17052227E+00 0.16750850E+04</pdfrwt>
<pdfrwt beam="2">  1       -1 0.97365672E-01 0.16750850E+04</pdfrwt>
<totfact> 0.12071308E+01</totfact>
</mgrwt>
</event>
<event>
12    1  0.1625055E-007  0.1682688E+04  0.7818608E-02  0.8771300E-01
         -2   -1    0    0    0  501 -0.00000000000E+00  0.00000000000E+00  0.42873092883E+03  0.42873092883E+03  0.00000000000E+00 0.  1.
          2   -1    0    0  501    0  0.00000000000E+00 -0.00000000000E+00 -0.16510580664E+04  0.16510580664E+04  0.00000000000E+00 0. -1.
         23    2    1    2    0    0 -0.31497868234E+03 -0.24431566966E+03  0.11087864795E+03  0.42345857873E+03  0.90118680395E+02 0.  0.
        254    2    1    2    0    0  0.31497868234E+03  0.24431566966E+03 -0.13332057856E+04  0.16563304165E+04  0.89838247165E+03 0.  0.
        -24    2    4    4    0    0  0.24346213281E+03  0.55338704366E+03 -0.60972346725E+03  0.86234794770E+03  0.79813822031E+02 0.  0.
         24    2    4    4    0    0  0.71516549533E+02 -0.30907137401E+03 -0.72348231831E+03  0.79398246884E+03  0.79635198482E+02 0.  0.
         13    1    3    3    0    0 -0.22488468368E+03 -0.21321122115E+03  0.10777138252E+03  0.32809574314E+03  0.00000000000E+00 0.  1.
        -13    1    3    3    0    0 -0.90093998666E+02 -0.31104448509E+02  0.31072654252E+01  0.95362835587E+02  0.00000000000E+00 0. -1.
          2    1    6    6  502    0 -0.76594979264E+01 -0.48996766999E+01 -0.49328213641E+02  0.50159220501E+02  0.00000000000E+00 0. -1.
          1    1    5    5  503    0  0.15367776805E+02  0.65319155736E+01 -0.23601821841E+02  0.28911597659E+02  0.00000000000E+00 0. -1.
         -2    1    5    5    0  503  0.22809435601E+03  0.54685512809E+03 -0.58612164541E+03  0.83343635004E+03  0.00000000000E+00 0.  1.
         -1    1    6    6    0  502  0.79176047460E+02 -0.30417169731E+03 -0.67415410467E+03  0.74382324834E+03  0.00000000000E+00 0.  1.
<mgrwt>
<rscale>  0 0.16826879E+04</rscale>
<asrwt>0</asrwt>
<pdfrwt beam="1">  1        2 0.25400893E+00 0.16826879E+04</pdfrwt>
<pdfrwt beam="2">  1       -2 0.65958605E-01 0.16826879E+04</pdfrwt>
<totfact> 0.21045399E+01</totfact>
</mgrwt>
</event>
<event>
12    1  0.1494110E-007  0.1637952E+04  0.7818608E-02  0.8797566E-01
         -1   -1    0    0    0  501 -0.00000000000E+00  0.00000000000E+00  0.30752763142E+03  0.30752763142E+03  0.00000000000E+00 0.  1.
          1   -1    0    0  501    0  0.00000000000E+00 -0.00000000000E+00 -0.21810118627E+04  0.21810118627E+04  0.00000000000E+00 0. -1.
         23    2    1    2    0    0 -0.85070907709E+02  0.18113016125E+03 -0.14840988183E+04  0.15021032433E+04  0.11713093644E+03 0.  0.
        254    2    1    2    0    0  0.85070907709E+02 -0.18113016125E+03 -0.38938541296E+03  0.98643625084E+03  0.88396282868E+03 0.  0.
        -24    2    4    4    0    0 -0.22815497366E+03 -0.41133079454E+03 -0.34073265898E+03  0.58661353447E+03  0.82273807382E+02 0.  0.
         24    2    4    4    0    0  0.31322588137E+03  0.23020063329E+03 -0.48652753979E+02  0.39982271637E+03  0.79927027516E+02 0.  0.
         13    1    3    3    0    0 -0.12545330144E+02  0.13437786984E+03 -0.67097727510E+03  0.68441602911E+03  0.00000000000E+00 0. -1.
        -13    1    3    3    0    0 -0.72525577565E+02  0.46752291414E+02 -0.81312154321E+03  0.81768721415E+03  0.00000000000E+00 0.  1.
          4    1    6    6  502    0  0.22066642992E+03  0.18509618196E+03 -0.51995911551E+01  0.28806475942E+03  0.00000000000E+00 0. -1.
          1    1    5    5  503    0 -0.20395485453E+03 -0.39878260932E+03 -0.33343363224E+03  0.55839335534E+03  0.00000000000E+00 0. -1.
         -2    1    5    5    0  503 -0.24200119134E+02 -0.12548185219E+02 -0.72990267365E+01  0.28220179122E+02  0.00000000000E+00 0.  1.
         -3    1    6    6    0  502  0.92559451452E+02  0.45104451329E+02 -0.43453162824E+02  0.11175795695E+03  0.00000000000E+00 0.  1.
<mgrwt>
<rscale>  0 0.16379517E+04</rscale>
<asrwt>0</asrwt>
<pdfrwt beam="1">  1        1 0.33554028E+00 0.16379517E+04</pdfrwt>
<pdfrwt beam="2">  1       -1 0.47311944E-01 0.16379517E+04</pdfrwt>
<totfact> 0.95772516E+00</totfact>
</mgrwt>
</event>
<event>
12    1  0.1494110E-007  0.2108872E+04  0.7818608E-02  0.8557345E-01
         -2   -1    0    0    0  501 -0.00000000000E+00  0.00000000000E+00  0.27357201625E+03  0.27357201625E+03  0.00000000000E+00 0.  1.
          2   -1    0    0  501    0  0.00000000000E+00 -0.00000000000E+00 -0.40641416105E+04  0.40641416105E+04  0.00000000000E+00 0. -1.
         23    2    1    2    0    0 -0.12910222767E+03 -0.55047374731E+03 -0.22598211767E+03  0.61530418279E+03  0.88558388533E+02 0.  0.
        254    2    1    2    0    0  0.12910222767E+03  0.55047374731E+03 -0.35645874766E+04  0.37224094440E+04  0.91124061511E+03 0.  0.
        -24    2    4    4    0    0  0.31743059822E+03  0.71781347507E+03 -0.23306821714E+04  0.24605777275E+04  0.79655504708E+02 0.  0.
         24    2    4    4    0    0 -0.18832837055E+03 -0.16733972776E+03 -0.12339053052E+04  0.12618317165E+04  0.78910194595E+02 0.  0.
         11    1    3    3    0    0 -0.87272186017E+02 -0.48430177676E+03 -0.17704028171E+03  0.52297983401E+03  0.00000000000E+00 0.  1.
        -11    1    3    3    0    0 -0.41830041655E+02 -0.66171970549E+02 -0.48941835954E+02  0.92324348780E+02  0.00000000000E+00 0. -1.
          2    1    6    6  502    0 -0.77748031135E+02 -0.22712542033E+02 -0.43093916401E+03  0.43848509552E+03  0.00000000000E+00 0. -1.
          1    1    5    5  503    0  0.10096219753E+03  0.21552619076E+03 -0.82441742761E+03  0.85808449419E+03  0.00000000000E+00 0. -1.
         -2    1    5    5    0  503  0.21646840069E+03  0.50228728432E+03 -0.15062647438E+04  0.16024932333E+04  0.00000000000E+00 0.  1.
         -1    1    6    6    0  502 -0.11058033941E+03 -0.14462718573E+03 -0.80296614118E+03  0.82334662093E+03  0.00000000000E+00 0.  1.
<mgrwt>
<rscale>  0 0.21088721E+04</rscale>
<asrwt>0</asrwt>
<pdfrwt beam="1">  1        2 0.62525257E+00 0.21088721E+04</pdfrwt>
<pdfrwt beam="2">  1       -2 0.42088002E-01 0.21088721E+04</pdfrwt>
<totfact> 0.15075072E+00</totfact>
</mgrwt>
</event>
<event>
12    1  0.1494110E-007  0.1162569E+04  0.7818608E-02  0.9146266E-01
          2   -1    0    0  501    0  0.00000000000E+00  0.00000000000E+00  0.16079971293E+04  0.16079971293E+04  0.00000000000E+00 0. -1.
         -2   -1    0    0    0  501 -0.00000000000E+00 -0.00000000000E+00 -0.21013195035E+03  0.21013195035E+03  0.00000000000E+00 0.  1.
         23    2    1    2    0    0  0.87215637887E+02  0.16943059449E+03  0.36376179631E+03  0.42052491473E+03  0.90582921196E+02 0.  0.
        254    2    1    2    0    0 -0.87215637887E+02 -0.16943059449E+03  0.10341033826E+04  0.13976041649E+04  0.92065971020E+03 0.  0.
        -24    2    4    4    0    0 -0.23755193588E-01 -0.42571016083E+03  0.10284120133E+04  0.11159139389E+04  0.80021924083E+02 0.  0.
         24    2    4    4    0    0 -0.87191882693E+02  0.25627956633E+03  0.56913693610E+01  0.28169022604E+03  0.77687523030E+02 0.  0.
         11    1    3    3    0    0  0.77692268689E+02  0.53727163012E+02  0.14977764701E+03  0.17707636828E+03  0.00000000000E+00 0.  1.
        -11    1    3    3    0    0  0.95233691973E+01  0.11570343148E+03  0.21398414930E+03  0.24344854645E+03  0.00000000000E+00 0. -1.
          4    1    6    6  502    0 -0.47928084289E+02  0.46098304280E+02 -0.10227721061E+02  0.67281209852E+02  0.00000000000E+00 0. -1.
          1    1    5    5  503    0  0.44866448004E+01 -0.52104927814E+01  0.27761001407E+01  0.74152510801E+01  0.00000000000E+00 0. -1.
         -2    1    5    5    0  503 -0.45103999939E+01 -0.42049966805E+03  0.10256359131E+04  0.11084986878E+04  0.00000000000E+00 0.  1.
         -3    1    6    6    0  502 -0.39263798405E+02  0.21018126205E+03  0.15919090422E+02  0.21440901619E+03  0.00000000000E+00 0.  1.
<mgrwt>
<rscale>  0 0.11625688E+04</rscale>
<asrwt>0</asrwt>
<pdfrwt beam="1">  1        2 0.24738417E+00 0.11625688E+04</pdfrwt>
<pdfrwt beam="2">  1       -2 0.32327993E-01 0.11625688E+04</pdfrwt>
<totfact> 0.97238572E+01</totfact>
</mgrwt>
</event>
<event>
12    1  0.1494110E-007  0.1832204E+04  0.7818608E-02  0.8689359E-01
          1   -1    0    0  501    0  0.00000000000E+00  0.00000000000E+00  0.15551260268E+04  0.15551260268E+04  0.00000000000E+00 0. -1.
         -1   -1    0    0    0  501 -0.00000000000E+00 -0.00000000000E+00 -0.53966217323E+03  0.53966217323E+03  0.00000000000E+00 0.  1.
         23    2    1    2    0    0  0.48801838348E+03 -0.19717687737E+03  0.88999233194E+03  0.10378284221E+04  0.89223422683E+02 0.  0.
        254    2    1    2    0    0 -0.48801838348E+03  0.19717687737E+03  0.12547152167E+03  0.10569597780E+04  0.90795385674E+03 0.  0.
        -24    2    4    4    0    0 -0.49377736636E+03 -0.23222177597E+03 -0.10837453363E+03  0.56155681084E+03  0.76537386329E+02 0.  0.
         24    2    4    4    0    0  0.57589828758E+01  0.42939865334E+03  0.23384605529E+03  0.49540296715E+03  0.79522027866E+02 0.  0.
         11    1    3    3    0    0  0.30086563333E+03 -0.15163768571E+03  0.50085579729E+03  0.60363121749E+03  0.00000000000E+00 0.  1.
        -11    1    3    3    0    0  0.18715275015E+03 -0.45539191664E+02  0.38913653466E+03  0.43419720459E+03  0.00000000000E+00 0. -1.
          4    1    6    6  502    0 -0.30547932884E+01  0.36879911091E+03  0.16734513871E+03  0.40500186595E+03  0.00000000000E+00 0. -1.
          1    1    5    5  503    0 -0.21514777045E+03 -0.67436233600E+02 -0.66996414466E+02  0.23521209213E+03  0.00000000000E+00 0. -1.
         -2    1    5    5    0  503 -0.27862959591E+03 -0.16478554237E+03 -0.41378119160E+02  0.32634471872E+03  0.00000000000E+00 0.  1.
         -3    1    6    6    0  502  0.88137761643E+01  0.60599542423E+02  0.66500916585E+02  0.90401101203E+02  0.00000000000E+00 0.  1.
<mgrwt>
<rscale>  0 0.18322038E+04</rscale>
<asrwt>0</asrwt>
<pdfrwt beam="1">  1        1 0.23925016E+00 0.18322038E+04</pdfrwt>
<pdfrwt beam="2">  1       -1 0.83024950E-01 0.18322038E+04</pdfrwt>
<totfact> 0.81216645E+00</totfact>
</mgrwt>
</event>
<event>
12    1  0.1494110E-007  0.1679556E+04  0.7818608E-02  0.8773111E-01
         -2   -1    0    0    0  501 -0.00000000000E+00  0.00000000000E+00  0.35330358300E+03  0.35330358300E+03  0.00000000000E+00 0.  1.
          2   -1    0    0  501    0  0.00000000000E+00 -0.00000000000E+00 -0.19960930707E+04  0.19960930707E+04  0.00000000000E+00 0. -1.
         23    2    1    2    0    0  0.14068997665E+03  0.84855353710E+02 -0.14209294513E+04  0.14332695968E+04  0.90703533475E+02 0.  0.
        254    2    1    2    0    0 -0.14068997665E+03 -0.84855353710E+02 -0.22186003641E+03  0.91612705690E+03  0.87354038719E+03 0.  0.
        -24    2    4    4    0    0  0.33595943147E+03 -0.16678798493E+03 -0.18152379731E+03  0.42431964894E+03  0.80058128720E+02 0.  0.
         24    2    4    4    0    0 -0.47664940813E+03  0.81932631218E+02 -0.40336239099E+02  0.49180740796E+03  0.79623489078E+02 0.  0.
         11    1    3    3    0    0  0.57499606551E+02  0.29472810137E+02 -0.25477345099E+03  0.26283904318E+03  0.00000000000E+00 0.  1.
        -11    1    3    3    0    0  0.83190370101E+02  0.55382543573E+02 -0.11661560003E+04  0.11704305536E+04  0.00000000000E+00 0. -1.
          2    1    6    6  502    0 -0.33225260984E+03  0.30619475551E+02 -0.12696838149E+01  0.33366294539E+03  0.00000000000E+00 0. -1.
          1    1    5    5  503    0  0.12220316441E+03 -0.20992843572E+02 -0.46156275452E+02  0.13230538400E+03  0.00000000000E+00 0. -1.
         -2    1    5    5    0  503  0.21375626707E+03 -0.14579514136E+03 -0.13536752186E+03  0.29201426494E+03  0.00000000000E+00 0.  1.
         -1    1    6    6    0  502 -0.14439679829E+03  0.51313155667E+02 -0.39066555284E+02  0.15814446257E+03  0.00000000000E+00 0.  1.
<mgrwt>
<rscale>  0 0.16795557E+04</rscale>
<asrwt>0</asrwt>
<pdfrwt beam="1">  1        2 0.30709124E+00 0.16795557E+04</pdfrwt>
<pdfrwt beam="2">  1       -2 0.54354397E-01 0.16795557E+04</pdfrwt>
<totfact> 0.20393267E+01</totfact>
</mgrwt>
</event>
<event>
12    1  0.1494110E-007  0.1590922E+04  0.7818608E-02  0.8826145E-01
          2   -1    0    0  501    0  0.00000000000E+00  0.00000000000E+00  0.61148631827E+03  0.61148631827E+03  0.00000000000E+00 0. -1.
         -2   -1    0    0    0  501 -0.00000000000E+00 -0.00000000000E+00 -0.10347865713E+04  0.10347865713E+04  0.00000000000E+00 0.  1.
         23    2    1    2    0    0 -0.65092319828E+00 -0.53649979332E+03 -0.16904327670E+03  0.56968306628E+03  0.90170475686E+02 0.  0.
        254    2    1    2    0    0  0.65092319828E+00  0.53649979332E+03 -0.25425697629E+03  0.10765898232E+04  0.89809052194E+03 0.  0.
        -24    2    4    4    0    0 -0.38548632486E+03  0.34347423295E+03  0.75049819523E+02  0.52779727357E+03  0.79769864147E+02 0.  0.
         24    2    4    4    0    0  0.38613724806E+03  0.19302556037E+03 -0.32930679581E+03  0.54879254967E+03  0.79808868616E+02 0.  0.
         13    1    3    3    0    0 -0.27017161709E+02 -0.36708271289E+03 -0.80754205557E+02  0.37683005035E+03  0.00000000000E+00 0. -1.
        -13    1    3    3    0    0  0.26366238511E+02 -0.16941708042E+03 -0.88289071138E+02  0.19285301593E+03  0.00000000000E+00 0.  1.
          2    1    6    6  502    0  0.11093132109E+03  0.19413366579E+02 -0.68825899054E+02  0.13198348829E+03  0.00000000000E+00 0. -1.
          3    1    5    5  503    0 -0.77026174590E+02  0.69972862703E+02  0.48168675548E+02  0.11467107042E+03  0.00000000000E+00 0. -1.
         -4    1    5    5    0  503 -0.30846015027E+03  0.27350137024E+03  0.26881143975E+02  0.41312620315E+03  0.00000000000E+00 0.  1.
         -1    1    6    6    0  502  0.27520592697E+03  0.17361219379E+03 -0.26048089675E+03  0.41680906138E+03  0.00000000000E+00 0.  1.
<mgrwt>
<rscale>  0 0.15909215E+04</rscale>
<asrwt>0</asrwt>
<pdfrwt beam="1">  1        2 0.94074818E-01 0.15909215E+04</pdfrwt>
<pdfrwt beam="2">  1       -2 0.15919793E+00 0.15909215E+04</pdfrwt>
<totfact> 0.11866946E+01</totfact>
</mgrwt>
</event>
<event>
12    1  0.1494110E-007  0.1504821E+04  0.7818608E-02  0.8881253E-01
         -2   -1    0    0    0  501 -0.00000000000E+00  0.00000000000E+00  0.21474432965E+03  0.21474432965E+03  0.00000000000E+00 0.  1.
          2   -1    0    0  501    0  0.00000000000E+00 -0.00000000000E+00 -0.26362600996E+04  0.26362600996E+04  0.00000000000E+00 0. -1.
         23    2    1    2    0    0 -0.17804030564E+03  0.43439428482E+03 -0.95489074450E+03  0.10677024840E+04  0.88178882498E+02 0.  0.
        254    2    1    2    0    0  0.17804030564E+03 -0.43439428482E+03 -0.14666250255E+04  0.17833019453E+04  0.89932203216E+03 0.  0.
        -24    2    4    4    0    0  0.17164298617E+03 -0.49965944408E+03 -0.30149635580E+03  0.61360292410E+03  0.80545770535E+02 0.  0.
         24    2    4    4    0    0  0.63973194726E+01  0.65265159265E+02 -0.11651286697E+04  0.11696990212E+04  0.79815515287E+02 0.  0.
         11    1    3    3    0    0 -0.16053892689E+03  0.43080033351E+03 -0.92242644656E+03  0.10306465076E+04  0.00000000000E+00 0. -1.
        -11    1    3    3    0    0 -0.17501378747E+02  0.35939513086E+01 -0.32464297939E+02  0.37055976370E+02  0.00000000000E+00 0.  1.
          4    1    6    6  502    0  0.23012961737E+02  0.71576050807E+02 -0.10859689876E+04  0.10885684956E+04  0.00000000000E+00 0. -1.
          1    1    5    5  503    0  0.62039827898E+02 -0.20004826000E+03 -0.16485304891E+03  0.26654225614E+03  0.00000000000E+00 0. -1.
         -2    1    5    5    0  503  0.10960315827E+03 -0.29961118408E+03 -0.13664330689E+03  0.34706066797E+03  0.00000000000E+00 0.  1.
         -3    1    6    6    0  502 -0.16615642265E+02 -0.63108915420E+01 -0.79159682064E+02  0.81130525602E+02  0.00000000000E+00 0.  1.
<mgrwt>
<rscale>  0 0.15048215E+04</rscale>
<asrwt>0</asrwt>
<pdfrwt beam="1">  1        2 0.40557846E+00 0.15048215E+04</pdfrwt>
<pdfrwt beam="2">  1       -2 0.33037590E-01 0.15048215E+04</pdfrwt>
<totfact> 0.24019798E+01</totfact>
</mgrwt>
</event>
<event>
12    1  0.1809795E-007  0.1910181E+04  0.7818608E-02  0.8649805E-01
          1   -1    0    0  501    0  0.00000000000E+00  0.00000000000E+00  0.12358692345E+04  0.12358692345E+04  0.00000000000E+00 0. -1.
         -1   -1    0    0    0  501 -0.00000000000E+00 -0.00000000000E+00 -0.73810219696E+03  0.73810219696E+03  0.00000000000E+00 0.  1.
         23    2    1    2    0    0  0.52986553584E+03  0.46650188380E+03  0.10222747298E+03  0.71920474275E+03  0.91779693319E+02 0.  0.
        254    2    1    2    0    0 -0.52986553584E+03 -0.46650188380E+03  0.39553956461E+03  0.12547666888E+04  0.95896110577E+03 0.  0.
        -24    2    4    4    0    0 -0.74934264040E+03 -0.11987354982E+03  0.32821164533E+03  0.83075709616E+03  0.80934590987E+02 0.  0.
         24    2    4    4    0    0  0.21947710456E+03 -0.34662833397E+03  0.67327919282E+02  0.42400959260E+03  0.83244726930E+02 0.  0.
         13    1    3    3    0    0  0.48917488955E+03  0.42809436931E+03  0.67948758957E+02  0.65358541557E+03  0.00000000000E+00 0.  1.
        -13    1    3    3    0    0  0.40690646297E+02  0.38407514484E+02  0.34278714026E+02  0.65619327185E+02  0.00000000000E+00 0. -1.
          4    1    6    6  502    0 -0.50940924464E+01 -0.30038492817E+02  0.57162076400E+01  0.30998965440E+02  0.00000000000E+00 0. -1.
          1    1    5    5  503    0 -0.17253899782E+03  0.24003693242E+01  0.92315474870E+02  0.19569776300E+03  0.00000000000E+00 0. -1.
         -2    1    5    5    0  503 -0.57680364258E+03 -0.12227391915E+03  0.23589617046E+03  0.63505933316E+03  0.00000000000E+00 0.  1.
         -3    1    6    6    0  502  0.22457119700E+03 -0.31658984116E+03  0.61611711642E+02  0.39301062716E+03  0.00000000000E+00 0.  1.
<mgrwt>
<rscale>  0 0.19101809E+04</rscale>
<asrwt>0</asrwt>
<pdfrwt beam="1">  1        1 0.19013373E+00 0.19101809E+04</pdfrwt>
<pdfrwt beam="2">  1       -1 0.11355418E+00 0.19101809E+04</pdfrwt>
<totfact> 0.66552736E+00</totfact>
</mgrwt>
</event>
<event>
12    1  0.1494110E-007  0.2385173E+04  0.7818608E-02  0.8445075E-01
         -2   -1    0    0    0  501 -0.00000000000E+00  0.00000000000E+00  0.11988695793E+04  0.11988695793E+04  0.00000000000E+00 0.  1.
          2   -1    0    0  501    0  0.00000000000E+00 -0.00000000000E+00 -0.11863363723E+04  0.11863363723E+04  0.00000000000E+00 0. -1.
         23    2    1    2    0    0  0.37016883951E+02 -0.45090577387E+03 -0.91253167286E+03  0.10217514735E+04  0.81091016901E+02 0.  0.
        254    2    1    2    0    0 -0.37016883951E+02  0.45090577387E+03  0.92506487986E+03  0.13634544781E+04  0.89363125236E+03 0.  0.
        -24    2    4    4    0    0  0.21831983467E+03  0.31210902758E+03  0.98252810285E+03  0.10567968200E+04  0.79890240995E+02 0.  0.
         24    2    4    4    0    0 -0.25533671862E+03  0.13879674629E+03 -0.57463222995E+02  0.30665765804E+03  0.79218183399E+02 0.  0.
         13    1    3    3    0    0  0.58047084994E+02 -0.21853857278E+03 -0.43408062848E+03  0.48944311609E+03  0.00000000000E+00 0. -1.
        -13    1    3    3    0    0 -0.21030201043E+02 -0.23236720109E+03 -0.47845104438E+03  0.53230835741E+03  0.00000000000E+00 0.  1.
          4    1    6    6  502    0 -0.98554620661E+02  0.45224780347E+02  0.16460348410E+02  0.10967787872E+03  0.00000000000E+00 0. -1.
          3    1    5    5  503    0  0.21770923557E+02  0.57376609448E+02  0.98657123914E+02  0.11618638700E+03  0.00000000000E+00 0. -1.
         -4    1    5    5    0  503  0.19654891111E+03  0.25473241813E+03  0.88387097894E+03  0.94061043302E+03  0.00000000000E+00 0.  1.
         -3    1    6    6    0  502 -0.15678209796E+03  0.93571965947E+02 -0.73923571405E+02  0.19697977932E+03  0.00000000000E+00 0.  1.
<mgrwt>
<rscale>  0 0.23851730E+04</rscale>
<asrwt>0</asrwt>
<pdfrwt beam="1">  1        2 0.18251329E+00 0.23851730E+04</pdfrwt>
<pdfrwt beam="2">  1       -2 0.18444147E+00 0.23851730E+04</pdfrwt>
<totfact> 0.29372523E+00</totfact>
</mgrwt>
</event>
<event>
12    1  0.1494110E-007  0.1218119E+04  0.7818608E-02  0.9097143E-01
         -1   -1    0    0    0  501 -0.00000000000E+00  0.00000000000E+00  0.72232770619E+03  0.72232770619E+03  0.00000000000E+00 0.  1.
          1   -1    0    0  501    0  0.00000000000E+00 -0.00000000000E+00 -0.51355260264E+03  0.51355260264E+03  0.00000000000E+00 0. -1.
         23    2    1    2    0    0 -0.20132781825E+03  0.51182258602E+02  0.20269736438E+03  0.30413358032E+03  0.90876284895E+02 0.  0.
        254    2    1    2    0    0  0.20132781825E+03 -0.51182258602E+02  0.60777391782E+01  0.93174672852E+03  0.90827447019E+03 0.  0.
        -24    2    4    4    0    0 -0.16024967557E+03  0.31411330733E+03  0.15101129257E+03  0.39170182475E+03  0.79238757334E+02 0.  0.
         24    2    4    4    0    0  0.36157749382E+03 -0.36529556593E+03 -0.14493355340E+03  0.54004490377E+03  0.80396695571E+02 0.  0.
         11    1    3    3    0    0 -0.15385879517E+02  0.13973185080E+02 -0.65050152560E+01  0.21778209597E+02  0.00000000000E+00 0. -1.
        -11    1    3    3    0    0 -0.18594193873E+03  0.37209073523E+02  0.20920237963E+03  0.28235537072E+03  0.00000000000E+00 0.  1.
          2    1    6    6  502    0  0.28588342304E+03 -0.23899920553E+03 -0.11295577541E+03  0.38936995135E+03  0.00000000000E+00 0. -1.
          3    1    5    5  503    0 -0.14668886654E+02  0.10538858713E+03  0.54362318214E+02  0.11948720506E+03  0.00000000000E+00 0. -1.
         -4    1    5    5    0  503 -0.14558078892E+03  0.20872472021E+03  0.96648974360E+02  0.27221461969E+03  0.00000000000E+00 0.  1.
         -1    1    6    6    0  502  0.75694070776E+02 -0.12629636040E+03 -0.31977777984E+02  0.15067495242E+03  0.00000000000E+00 0.  1.
<mgrwt>
<rscale>  0 0.12181187E+04</rscale>
<asrwt>0</asrwt>
<pdfrwt beam="1">  1        1 0.79008093E-01 0.12181187E+04</pdfrwt>
<pdfrwt beam="2">  1       -1 0.11112734E+00 0.12181187E+04</pdfrwt>
<totfact> 0.31462431E+01</totfact>
</mgrwt>
</event>
<event>
12    1  0.1494110E-007  0.1398554E+04  0.7818608E-02  0.8954866E-01
          2   -1    0    0  501    0  0.00000000000E+00  0.00000000000E+00  0.28829933691E+04  0.28829933691E+04  0.00000000000E+00 0. -1.
         -2   -1    0    0    0  501 -0.00000000000E+00 -0.00000000000E+00 -0.16961129205E+03  0.16961129205E+03  0.00000000000E+00 0.  1.
         23    2    1    2    0    0  0.35117638277E+03 -0.26643041304E+02  0.36389532921E+03  0.51514387673E+03  0.94438867237E+02 0.  0.
        254    2    1    2    0    0 -0.35117638277E+03  0.26643041304E+02  0.23494867479E+04  0.25374607845E+04  0.89139472217E+03 0.  0.
        -24    2    4    4    0    0  0.51883522145E+02 -0.17544627218E+02  0.19821493741E+04  0.19844923945E+04  0.79336049609E+02 0.  0.
         24    2    4    4    0    0 -0.40305990492E+03  0.44187668522E+02  0.36733737378E+03  0.55296838995E+03  0.80171423282E+02 0.  0.
         13    1    3    3    0    0  0.78933537872E+01 -0.13288678053E+02  0.40432676584E+02  0.43286202584E+02  0.00000000000E+00 0. -1.
        -13    1    3    3    0    0  0.34328302899E+03 -0.13354363252E+02  0.32346265262E+03  0.47185767414E+03  0.00000000000E+00 0.  1.
          4    1    6    6  502    0 -0.38620229158E+03  0.34300608396E+02  0.36631293215E+03  0.53339844958E+03  0.00000000000E+00 0. -1.
          3    1    5    5  503    0  0.24436156821E+02 -0.48830979648E+02  0.10640160003E+04  0.10654161813E+04  0.00000000000E+00 0. -1.
         -4    1    5    5    0  503  0.27447365324E+02  0.31286352431E+02  0.91813337376E+03  0.91907621322E+03  0.00000000000E+00 0.  1.
         -3    1    6    6    0  502 -0.16857613341E+02  0.98870601264E+01  0.10244416283E+01  0.19569940371E+02  0.00000000000E+00 0.  1.
<mgrwt>
<rscale>  0 0.13985539E+04</rscale>
<asrwt>0</asrwt>
<pdfrwt beam="1">  1        2 0.44353740E+00 0.13985539E+04</pdfrwt>
<pdfrwt beam="2">  1       -2 0.26094047E-01 0.13985539E+04</pdfrwt>
<totfact> 0.26787589E+01</totfact>
</mgrwt>
</event>
<event>
12    1  0.1494110E-007  0.1333427E+04  0.7818608E-02  0.9003469E-01
         -2   -1    0    0    0  501 -0.00000000000E+00  0.00000000000E+00  0.35887757259E+03  0.35887757259E+03  0.00000000000E+00 0.  1.
          2   -1    0    0  501    0  0.00000000000E+00 -0.00000000000E+00 -0.12386028468E+04  0.12386028468E+04  0.00000000000E+00 0. -1.
         23    2    1    2    0    0 -0.26106393138E+03 -0.15165302888E+03 -0.31835813237E+02  0.31648206772E+03  0.89411200340E+02 0.  0.
        254    2    1    2    0    0  0.26106393138E+03  0.15165302888E+03 -0.84788946094E+03  0.12809983516E+04  0.91153015392E+03 0.  0.
        -24    2    4    4    0    0  0.18254528195E+03  0.48299336526E+03 -0.22985107814E+03  0.57076002429E+03  0.79562028374E+02 0.  0.
         24    2    4    4    0    0  0.78518649425E+02 -0.33134033637E+03 -0.61803838280E+03  0.71023832736E+03  0.80718289221E+02 0.  0.
         11    1    3    3    0    0 -0.10018742037E+03 -0.92803431951E+02  0.18798991918E+02  0.13785281383E+03  0.00000000000E+00 0.  1.
        -11    1    3    3    0    0 -0.16087651101E+03 -0.58849596931E+02 -0.50634805155E+02  0.17862925389E+03  0.00000000000E+00 0. -1.
          2    1    6    6  502    0 -0.12199982954E+02 -0.40522608927E+02 -0.48679660568E+02  0.64502951648E+02  0.00000000000E+00 0. -1.
          1    1    5    5  503    0  0.86106074615E+02  0.16438762904E+03 -0.49046811726E+02  0.19194566524E+03  0.00000000000E+00 0. -1.
         -2    1    5    5    0  503  0.96439207339E+02  0.31860573622E+03 -0.18080426641E+03  0.37881435905E+03  0.00000000000E+00 0.  1.
         -1    1    6    6    0  502  0.90718632379E+02 -0.29081772745E+03 -0.56935872223E+03  0.64573537571E+03  0.00000000000E+00 0.  1.
<mgrwt>
<rscale>  0 0.13334268E+04</rscale>
<asrwt>0</asrwt>
<pdfrwt beam="1">  1        2 0.19055428E+00 0.13334268E+04</pdfrwt>
<pdfrwt beam="2">  1       -2 0.55211934E-01 0.13334268E+04</pdfrwt>
<totfact> 0.54175015E+01</totfact>
</mgrwt>
</event>
<event>
12    1  0.1494110E-007  0.1683799E+04  0.7818608E-02  0.8770659E-01
          2   -1    0    0  501    0  0.00000000000E+00  0.00000000000E+00  0.15353002702E+04  0.15353002702E+04  0.00000000000E+00 0.  1.
         -2   -1    0    0    0  501 -0.00000000000E+00 -0.00000000000E+00 -0.46166505441E+03  0.46166505441E+03  0.00000000000E+00 0. -1.
         23    2    1    2    0    0 -0.19909002668E+03  0.43589238529E+03  0.80309681765E+03  0.93977810106E+03  0.92624890954E+02 0.  0.
        254    2    1    2    0    0  0.19909002668E+03 -0.43589238529E+03  0.27053839810E+03  0.10571872235E+04  0.90267092034E+03 0.  0.
        -24    2    4    4    0    0  0.76060235902E+02 -0.71149434611E+02 -0.32118874948E+03  0.34685231162E+03  0.79353082834E+02 0.  0.
         24    2    4    4    0    0  0.12302979077E+03 -0.36474295068E+03  0.59172714757E+03  0.71033491189E+03  0.79125977945E+02 0.  0.
         13    1    3    3    0    0 -0.15097412899E+03  0.25805284662E+03  0.43064490186E+03  0.52425136221E+03  0.00000000000E+00 0. -1.
        -13    1    3    3    0    0 -0.48115897683E+02  0.17783953868E+03  0.37245191579E+03  0.41552673885E+03  0.00000000000E+00 0.  1.
          4    1    6    6  502    0  0.65043137928E+02 -0.10085486799E+03  0.14457674746E+03  0.18789558296E+03  0.00000000000E+00 0. -1.
          3    1    5    5  503    0  0.37108775751E+02 -0.94477640053E+01 -0.36286799919E+02  0.52754652219E+02  0.00000000000E+00 0. -1.
         -4    1    5    5    0  503  0.38951460151E+02 -0.61701670606E+02 -0.28490194956E+03  0.29409765940E+03  0.00000000000E+00 0.  1.
         -3    1    6    6    0  502  0.57986652847E+02 -0.26388808269E+03  0.44715040011E+03  0.52243932893E+03  0.00000000000E+00 0.  1.
<mgrwt>
<rscale>  0 0.16837987E+04</rscale>
<asrwt>0</asrwt>
<pdfrwt beam="1">  1        2 0.23620004E+00 0.16837987E+04</pdfrwt>
<pdfrwt beam="2">  1       -2 0.71025394E-01 0.16837987E+04</pdfrwt>
<totfact> 0.20799649E+01</totfact>
</mgrwt>
</event>
<event>
12    1  0.1494110E-007  0.1152840E+04  0.7818608E-02  0.9155167E-01
          2   -1    0    0  501    0  0.00000000000E+00  0.00000000000E+00  0.27652711773E+03  0.27652711773E+03  0.00000000000E+00 0. -1.
         -2   -1    0    0    0  501 -0.00000000000E+00 -0.00000000000E+00 -0.12015468203E+04  0.12015468203E+04  0.00000000000E+00 0.  1.
         23    2    1    2    0    0  0.60887149922E+02  0.11676282704E+03  0.29448903294E+02  0.16190458373E+03  0.89470964697E+02 0.  0.
        254    2    1    2    0    0 -0.60887149922E+02 -0.11676282704E+03 -0.95446860586E+03  0.13161693543E+04  0.89663294989E+03 0.  0.
        -24    2    4    4    0    0 -0.31094972304E+03 -0.37027368112E+03 -0.32350740139E+03  0.58716482593E+03  0.79455426942E+02 0.  0.
         24    2    4    4    0    0  0.25006257311E+03  0.25351085408E+03 -0.63096120447E+03  0.72900452837E+03  0.80848730598E+02 0.  0.
         13    1    3    3    0    0  0.74967659445E+01 -0.73973066143E+01 -0.16138032584E+02  0.19270644526E+02  0.00000000000E+00 0.  1.
        -13    1    3    3    0    0  0.53390383978E+02  0.12416013365E+03  0.45586935878E+02  0.14263393920E+03  0.00000000000E+00 0. -1.
          2    1    6    6  502    0  0.44728076082E+02  0.33982178378E+02 -0.51452698436E+02  0.76175910980E+02  0.00000000000E+00 0. -1.
          1    1    5    5  503    0 -0.17817398872E+03 -0.25960119615E+03 -0.18127637854E+03  0.36331787282E+03  0.00000000000E+00 0. -1.
         -2    1    5    5    0  503 -0.13277573432E+03 -0.11067248497E+03 -0.14223102286E+03  0.22384695311E+03  0.00000000000E+00 0.  1.
         -1    1    6    6    0  502  0.20533449703E+03  0.21952867570E+03 -0.57950850603E+03  0.65282861739E+03  0.00000000000E+00 0.  1.
<mgrwt>
<rscale>  0 0.11528405E+04</rscale>
<asrwt>0</asrwt>
<pdfrwt beam="1">  1        2 0.42542633E-01 0.11528405E+04</pdfrwt>
<pdfrwt beam="2">  1       -2 0.18485336E+00 0.11528405E+04</pdfrwt>
<totfact> 0.19967402E+01</totfact>
</mgrwt>
</event>
<event>
12    1  0.1494110E-007  0.1403696E+04  0.7818608E-02  0.8951148E-01
         -1   -1    0    0    0  501 -0.00000000000E+00  0.00000000000E+00  0.42883177892E+03  0.42883177892E+03  0.00000000000E+00 0.  1.
          1   -1    0    0  501    0  0.00000000000E+00 -0.00000000000E+00 -0.11486802466E+04  0.11486802466E+04  0.00000000000E+00 0. -1.
         23    2    1    2    0    0  0.27933069175E+03  0.27547600905E+03 -0.92505967379E+02  0.41310603045E+03  0.90479674384E+02 0.  0.
        254    2    1    2    0    0 -0.27933069175E+03 -0.27547600905E+03 -0.62734250031E+03  0.11644059951E+04  0.89909401164E+03 0.  0.
        -24    2    4    4    0    0 -0.36170186919E+03 -0.54958070620E+03 -0.53982923945E+03  0.85483166438E+03  0.80339105493E+02 0.  0.
         24    2    4    4    0    0  0.82371177439E+02  0.27410469714E+03 -0.87513260858E+02  0.30957433069E+03  0.79115735032E+02 0.  0.
         11    1    3    3    0    0 -0.18743009594E+01  0.18170808206E+02 -0.16131815234E+02  0.24370612173E+02  0.00000000000E+00 0. -1.
        -11    1    3    3    0    0  0.28120499271E+03  0.25730520085E+03 -0.76374152145E+02  0.38873541828E+03  0.00000000000E+00 0.  1.
          2    1    6    6  502    0 -0.15626538992E+02  0.32983809322E+02 -0.73134748750E+01  0.37223746628E+02  0.00000000000E+00 0. -1.
          1    1    5    5  503    0 -0.12152224359E+03 -0.25454854139E+03 -0.24281579197E+03  0.37218560483E+03  0.00000000000E+00 0. -1.
         -2    1    5    5    0  503 -0.24017962559E+03 -0.29503216481E+03 -0.29701344748E+03  0.48264605956E+03  0.00000000000E+00 0.  1.
         -1    1    6    6    0  502  0.97997716431E+02  0.24112088782E+03 -0.80199785983E+02  0.27235058407E+03  0.00000000000E+00 0.  1.
<mgrwt>
<rscale>  0 0.14036960E+04</rscale>
<asrwt>0</asrwt>
<pdfrwt beam="1">  1        1 0.17672004E+00 0.14036960E+04</pdfrwt>
<pdfrwt beam="2">  1       -1 0.65974119E-01 0.14036960E+04</pdfrwt>
<totfact> 0.26463892E+01</totfact>
</mgrwt>
</event>
<event>
12    1  0.1494110E-007  0.2488345E+04  0.7818608E-02  0.8407149E-01
          1   -1    0    0  501    0  0.00000000000E+00  0.00000000000E+00  0.16494786491E+04  0.16494786491E+04  0.00000000000E+00 0. -1.
         -1   -1    0    0    0  501 -0.00000000000E+00 -0.00000000000E+00 -0.93845743840E+03  0.93845743840E+03  0.00000000000E+00 0.  1.
         23    2    1    2    0    0 -0.68801378793E+03 -0.61043889358E+02  0.11749118448E+04  0.13660178262E+04  0.92182046141E+02 0.  0.
        254    2    1    2    0    0  0.68801378793E+03  0.61043889358E+02 -0.46389063410E+03  0.12219182613E+04  0.89487450971E+03 0.  0.
        -24    2    4    4    0    0  0.27858028132E+03  0.56365844384E+02  0.25595200163E+03  0.38987935651E+03  0.75567214731E+02 0.  0.
         24    2    4    4    0    0  0.40943350661E+03  0.46780449736E+01 -0.71984263573E+03  0.83203890480E+03  0.80359432932E+02 0.  0.
         11    1    3    3    0    0 -0.42570506077E+03  0.56396282735E+01  0.74194052903E+03  0.85541355658E+03  0.00000000000E+00 0. -1.
        -11    1    3    3    0    0 -0.26230872716E+03 -0.66683517631E+02  0.43297131579E+03  0.51060426963E+03  0.00000000000E+00 0.  1.
          4    1    6    6  502    0  0.89729208061E+02  0.74087778837E+01 -0.23102398793E+03  0.24794818767E+03  0.00000000000E+00 0. -1.
          3    1    5    5  503    0  0.77645183334E+02 -0.74915166899E+01  0.10394097090E+03  0.12995623397E+03  0.00000000000E+00 0. -1.
         -4    1    5    5    0  503  0.20093509799E+03  0.63857361074E+02  0.15201103073E+03  0.25992312254E+03  0.00000000000E+00 0.  1.
         -3    1    6    6    0  502  0.31970429855E+03 -0.27307329101E+01 -0.48881864780E+03  0.58409071714E+03  0.00000000000E+00 0.  1.
<mgrwt>
<rscale>  0 0.24883452E+04</rscale>
<asrwt>0</asrwt>
<pdfrwt beam="1">  1        1 0.25376595E+00 0.24883452E+04</pdfrwt>
<pdfrwt beam="2">  1       -1 0.14437807E+00 0.24883452E+04</pdfrwt>
<totfact> 0.17736234E+00</totfact>
</mgrwt>
</event>
<event>
12    1  0.1494110E-007  0.1589480E+04  0.7818608E-02  0.8827037E-01
          2   -1    0    0  501    0  0.00000000000E+00  0.00000000000E+00  0.88414077049E+03  0.88414077049E+03  0.00000000000E+00 0. -1.
         -2   -1    0    0    0  501 -0.00000000000E+00 -0.00000000000E+00 -0.71437891347E+03  0.71437891347E+03  0.00000000000E+00 0.  1.
         23    2    1    2    0    0 -0.38026355460E+03  0.62664520357E+02  0.43058044476E+03  0.58498281979E+03  0.90984432607E+02 0.  0.
        254    2    1    2    0    0  0.38026355460E+03 -0.62664520357E+02 -0.26081858774E+03  0.10135368642E+04  0.90039070756E+03 0.  0.
        -24    2    4    4    0    0  0.60585912833E+02 -0.14089733102E+03  0.30678974948E+03  0.35216721726E+03  0.79869191864E+02 0.  0.
         24    2    4    4    0    0  0.31967764177E+03  0.78232810660E+02 -0.56760833721E+03  0.66136964691E+03  0.83165005067E+02 0.  0.
         13    1    3    3    0    0 -0.31002220351E+03  0.76440325419E+02  0.31173473263E+03  0.44624593393E+03  0.00000000000E+00 0. -1.
        -13    1    3    3    0    0 -0.70241351087E+02 -0.13775805063E+02  0.11884571213E+03  0.13873688586E+03  0.00000000000E+00 0.  1.
          2    1    6    6  502    0  0.12116583170E+03  0.57101145581E+02 -0.28994264440E+03  0.31938759626E+03  0.00000000000E+00 0. -1.
          3    1    5    5  503    0  0.52533500148E+02 -0.99443122654E+02  0.28103661357E+03  0.30270494123E+03  0.00000000000E+00 0. -1.
         -4    1    5    5    0  503  0.80524126850E+01 -0.41454208362E+02  0.25753135911E+02  0.49462276032E+02  0.00000000000E+00 0.  1.
         -1    1    6    6    0  502  0.19851181007E+03  0.21131665079E+02 -0.27766569281E+03  0.34198205065E+03  0.00000000000E+00 0.  1.
<mgrwt>
<rscale>  0 0.15894798E+04</rscale>
<asrwt>0</asrwt>
<pdfrwt beam="1">  1        2 0.13602166E+00 0.15894798E+04</pdfrwt>
<pdfrwt beam="2">  1       -2 0.10990445E+00 0.15894798E+04</pdfrwt>
<totfact> 0.18995989E+01</totfact>
</mgrwt>
</event>
<event>
12    1  0.1494110E-007  0.1202487E+04  0.7818608E-02  0.9110683E-01
          2   -1    0    0  501    0  0.00000000000E+00  0.00000000000E+00  0.19005617139E+04  0.19005617139E+04  0.00000000000E+00 0. -1.
         -2   -1    0    0    0  501 -0.00000000000E+00 -0.00000000000E+00 -0.19020350063E+03  0.19020350063E+03  0.00000000000E+00 0.  1.
         23    2    1    2    0    0  0.29274965714E+01  0.13600450765E+03  0.81507236900E+03  0.83065820450E+03  0.84523899906E+02 0.  0.
        254    2    1    2    0    0 -0.29274965714E+01 -0.13600450765E+03  0.89528584431E+03  0.12601070101E+04  0.87625746072E+03 0.  0.
        -24    2    4    4    0    0 -0.10696189000E+03  0.16271602932E+03 -0.85126232554E+02  0.22688453764E+03  0.79452915887E+02 0.  0.
         24    2    4    4    0    0  0.10403439343E+03 -0.29872053696E+03  0.98041207686E+03  0.10332224724E+04  0.79269936629E+02 0.  0.
         13    1    3    3    0    0 -0.10669075937E+02  0.13144056856E+03  0.56544084342E+03  0.58061501845E+03  0.00000000000E+00 0.  1.
        -13    1    3    3    0    0  0.13596572509E+02  0.45639390843E+01  0.24963152558E+03  0.25004318605E+03  0.00000000000E+00 0. -1.
          4    1    6    6  502    0  0.26816237995E+02 -0.19207663727E+02  0.15154707234E+03  0.15509532585E+03  0.00000000000E+00 0. -1.
          1    1    5    5  503    0 -0.21220102395E+02 -0.38738271469E+01 -0.17208894740E+02  0.27594299060E+02  0.00000000000E+00 0. -1.
         -2    1    5    5    0  503 -0.85741787601E+02  0.16658985646E+03 -0.67917337814E+02  0.19929023858E+03  0.00000000000E+00 0.  1.
         -3    1    6    6    0  502  0.77218155430E+02 -0.27951287324E+03  0.82886500452E+03  0.87812714657E+03  0.00000000000E+00 0.  1.
<mgrwt>
<rscale>  0 0.12024866E+04</rscale>
<asrwt>0</asrwt>
<pdfrwt beam="1">  1        2 0.29239410E+00 0.12024866E+04</pdfrwt>
<pdfrwt beam="2">  1       -2 0.29262078E-01 0.12024866E+04</pdfrwt>
<totfact> 0.80474502E+01</totfact>
</mgrwt>
</event>
<event>
12    1  0.1494110E-007  0.1682554E+04  0.7818608E-02  0.8771377E-01
         -2   -1    0    0    0  501 -0.00000000000E+00  0.00000000000E+00  0.68110164375E+03  0.68110164375E+03  0.00000000000E+00 0.  1.
          2   -1    0    0  501    0  0.00000000000E+00 -0.00000000000E+00 -0.10391209295E+04  0.10391209295E+04  0.00000000000E+00 0. -1.
         23    2    1    2    0    0  0.44923902111E+03 -0.12651257998E+03 -0.43579607772E+03  0.64521292309E+03  0.92522234020E+02 0.  0.
        254    2    1    2    0    0 -0.44923902111E+03  0.12651257998E+03  0.77776791987E+02  0.10750096501E+04  0.96528513276E+03 0.  0.
        -24    2    4    4    0    0  0.25197445199E+03 -0.16083666513E+03  0.55417550296E+01  0.30976716034E+03  0.81027311857E+02 0.  0.
         24    2    4    4    0    0 -0.70121347310E+03  0.28734924511E+03  0.72235036957E+02  0.76524248980E+03  0.78155256386E+02 0.  0.
         13    1    3    3    0    0  0.26572555136E+03 -0.62963264347E+02 -0.31326730043E+03  0.41558494056E+03  0.00000000000E+00 0. -1.
        -13    1    3    3    0    0  0.18351346975E+03 -0.63549315631E+02 -0.12252877729E+03  0.22962798253E+03  0.00000000000E+00 0.  1.
          4    1    6    6  502    0 -0.53242660020E+02  0.32320199513E+02 -0.13203484805E+02  0.63668737647E+02  0.00000000000E+00 0. -1.
          3    1    5    5  503    0  0.43905034135E+02 -0.31298751866E+02  0.32873542039E+02  0.63150088337E+02  0.00000000000E+00 0. -1.
         -4    1    5    5    0  503  0.20806941786E+03 -0.12953791326E+03 -0.27331787009E+02  0.24661707200E+03  0.00000000000E+00 0.  1.
         -3    1    6    6    0  502 -0.64797081308E+03  0.25502904559E+03  0.85438521762E+02  0.70157375215E+03  0.00000000000E+00 0.  1.
<mgrwt>
<rscale>  0 0.16825540E+04</rscale>
<asrwt>0</asrwt>
<pdfrwt beam="1">  1        2 0.15986476E+00 0.16825540E+04</pdfrwt>
<pdfrwt beam="2">  1       -2 0.10478487E+00 0.16825540E+04</pdfrwt>
<totfact> 0.16742163E+01</totfact>
</mgrwt>
</event>
<event>
12    1  0.1494110E-007  0.1478243E+04  0.7818608E-02  0.8899051E-01
          2   -1    0    0  501    0  0.00000000000E+00  0.00000000000E+00  0.19808263842E+04  0.19808263842E+04  0.00000000000E+00 0. -1.
         -2   -1    0    0    0  501 -0.00000000000E+00 -0.00000000000E+00 -0.27579421527E+03  0.27579421527E+03  0.00000000000E+00 0.  1.
         23    2    1    2    0    0 -0.30987684790E+03  0.19265077245E+03  0.95750097401E+03  0.10285275564E+04  0.89010325757E+02 0.  0.
        254    2    1    2    0    0  0.30987684790E+03 -0.19265077245E+03  0.74753119490E+03  0.12280930430E+04  0.90347753377E+03 0.  0.
        -24    2    4    4    0    0  0.34640433274E+03  0.23631626670E+03  0.86671957067E+02  0.43538158327E+03  0.78763921063E+02 0.  0.
         24    2    4    4    0    0 -0.36527484838E+02 -0.42896703915E+03  0.66085923784E+03  0.79271145977E+03  0.79432665753E+02 0.  0.
         13    1    3    3    0    0 -0.18186858938E+02  0.40879815641E+02  0.15349410782E+03  0.15988233893E+03  0.00000000000E+00 0.  1.
        -13    1    3    3    0    0 -0.29168998897E+03  0.15177095681E+03  0.80400686619E+03  0.86864521749E+03  0.00000000000E+00 0. -1.
          2    1    6    6  502    0 -0.61819814505E+02 -0.31866560561E+03  0.49291137751E+03  0.59019580119E+03  0.00000000000E+00 0. -1.
          3    1    5    5  503    0  0.33458718237E+03  0.22683106159E+03  0.98619517298E+02  0.41608499408E+03  0.00000000000E+00 0. -1.
         -4    1    5    5    0  503  0.11817150372E+02  0.94852051134E+01 -0.11947560231E+02  0.19296589191E+02  0.00000000000E+00 0.  1.
         -1    1    6    6    0  502  0.25292329667E+02 -0.11030143354E+03  0.16794786033E+03  0.20251565858E+03  0.00000000000E+00 0.  1.
<mgrwt>
<rscale>  0 0.14782428E+04</rscale>
<asrwt>0</asrwt>
<pdfrwt beam="1">  1        2 0.30474251E+00 0.14782428E+04</pdfrwt>
<pdfrwt beam="2">  1       -2 0.42429881E-01 0.14782428E+04</pdfrwt>
<totfact> 0.34903890E+01</totfact>
</mgrwt>
</event>
<event>
12    1  0.1494110E-007  0.1587477E+04  0.7818608E-02  0.8828278E-01
         -2   -1    0    0    0  501 -0.00000000000E+00  0.00000000000E+00  0.11299904887E+04  0.11299904887E+04  0.00000000000E+00 0.  1.
          2   -1    0    0  501    0  0.00000000000E+00 -0.00000000000E+00 -0.55754550009E+03  0.55754550009E+03  0.00000000000E+00 0. -1.
         23    2    1    2    0    0  0.22190477652E+03 -0.13903723952E+03  0.69071758708E+03  0.74431110585E+03  0.91297061168E+02 0.  0.
        254    2    1    2    0    0 -0.22190477652E+03  0.13903723952E+03 -0.11827259845E+03  0.94322488296E+03  0.89839394948E+03 0.  0.
        -24    2    4    4    0    0  0.16706702080E+03 -0.25128144914E+03  0.12439484319E+03  0.33691460920E+03  0.83568060646E+02 0.  0.
         24    2    4    4    0    0 -0.38897179732E+03  0.39031868866E+03 -0.24266744164E+03  0.60631027375E+03  0.71252529760E+02 0.  0.
         13    1    3    3    0    0  0.43062320941E+02  0.10040666786E+02  0.12292553444E+03  0.13063638656E+03  0.00000000000E+00 0. -1.
        -13    1    3    3    0    0  0.17884245558E+03 -0.14907790630E+03  0.56779205263E+03  0.61367471929E+03  0.00000000000E+00 0.  1.
          4    1    6    6  502    0 -0.33143643230E+03  0.34590294978E+03 -0.18504953331E+03  0.51355845734E+03  0.00000000000E+00 0. -1.
          1    1    5    5  503    0  0.46052706053E+02 -0.12700892961E+03  0.26291357506E+02  0.13763486265E+03  0.00000000000E+00 0. -1.
         -2    1    5    5    0  503  0.12101431475E+03 -0.12427251953E+03  0.98103485687E+02  0.19927974656E+03  0.00000000000E+00 0.  1.
         -3    1    6    6    0  502 -0.57535365024E+02  0.44415738877E+02 -0.57617908330E+02  0.92751816418E+02  0.00000000000E+00 0.  1.
<mgrwt>
<rscale>  0 0.15874774E+04</rscale>
<asrwt>0</asrwt>
<pdfrwt beam="1">  1        2 0.85776231E-01 0.15874774E+04</pdfrwt>
<pdfrwt beam="2">  1       -2 0.17384469E+00 0.15874774E+04</pdfrwt>
<totfact> 0.10398152E+01</totfact>
</mgrwt>
</event>
<event>
12    1  0.1494110E-007  0.2916271E+04  0.7818608E-02  0.8268053E-01
         -2   -1    0    0    0  501 -0.00000000000E+00  0.00000000000E+00  0.12445549481E+04  0.12445549481E+04  0.00000000000E+00 0.  1.
          2   -1    0    0  501    0  0.00000000000E+00 -0.00000000000E+00 -0.17083695166E+04  0.17083695166E+04  0.00000000000E+00 0. -1.
         23    2    1    2    0    0  0.89432294235E+02 -0.84825251708E+03 -0.12291552925E+04  0.14989083554E+04  0.91504407912E+02 0.  0.
        254    2    1    2    0    0 -0.89432294235E+02  0.84825251708E+03  0.76534072397E+03  0.14540161094E+04  0.89492231758E+03 0.  0.
        -24    2    4    4    0    0 -0.34296111887E+03  0.12914803815E+03  0.91412140951E+01  0.37727523595E+03  0.89171167156E+02 0.  0.
         24    2    4    4    0    0  0.25352882463E+03  0.71910447893E+03  0.75619950988E+03  0.10767408734E+04  0.78390644757E+02 0.  0.
         11    1    3    3    0    0  0.65570924711E+02 -0.28608133527E+03 -0.46650549470E+03  0.55115284009E+03  0.00000000000E+00 0.  1.
        -11    1    3    3    0    0  0.23861369524E+02 -0.56217118181E+03 -0.76264979782E+03  0.94775551527E+03  0.00000000000E+00 0. -1.
          4    1    6    6  502    0  0.89331076070E+02  0.25910170896E+03  0.22011921519E+03  0.35151985098E+03  0.00000000000E+00 0. -1.
          1    1    5    5  503    0 -0.22225706084E+02  0.69665283597E+01  0.24379761529E+02  0.33717759424E+02  0.00000000000E+00 0. -1.
         -2    1    5    5    0  503 -0.32073541279E+03  0.12218150979E+03 -0.15238547434E+02  0.34355747653E+03  0.00000000000E+00 0.  1.
         -3    1    6    6    0  502  0.16419774856E+03  0.46000276997E+03  0.53608029469E+03  0.72522102242E+03  0.00000000000E+00 0.  1.
<mgrwt>
<rscale>  0 0.29162714E+04</rscale>
<asrwt>0</asrwt>
<pdfrwt beam="1">  1        2 0.26282608E+00 0.29162714E+04</pdfrwt>
<pdfrwt beam="2">  1       -2 0.19146999E+00 0.29162714E+04</pdfrwt>
<totfact> 0.12672826E+00</totfact>
</mgrwt>
</event>
<event>
12    1  0.1494110E-007  0.1952817E+04  0.7818608E-02  0.8629003E-01
         -1   -1    0    0    0  501 -0.00000000000E+00  0.00000000000E+00  0.29759767534E+03  0.29759767534E+03  0.00000000000E+00 0.  1.
          1   -1    0    0  501    0  0.00000000000E+00 -0.00000000000E+00 -0.32035664927E+04  0.32035664927E+04  0.00000000000E+00 0. -1.
         23    2    1    2    0    0 -0.75049911253E+03  0.10512805180E+03 -0.95254314296E+03  0.12209739173E+04  0.95593108125E+02 0.  0.
        254    2    1    2    0    0  0.75049911253E+03 -0.10512805180E+03 -0.19534256744E+04  0.22801902507E+04  0.89949702002E+03 0.  0.
        -24    2    4    4    0    0  0.35663907697E+03  0.15915314953E+03 -0.17006393622E+03  0.43309601754E+03  0.78289601947E+02 0.  0.
         24    2    4    4    0    0  0.39386003556E+03 -0.26428120132E+03 -0.17833617382E+04  0.18470942332E+04  0.80048336690E+02 0.  0.
         11    1    3    3    0    0 -0.43440735326E+03  0.72717654203E+02 -0.47918475181E+03  0.65085761283E+03  0.00000000000E+00 0.  1.
        -11    1    3    3    0    0 -0.31609175927E+03  0.32410397594E+02 -0.47335839115E+03  0.57011630447E+03  0.00000000000E+00 0. -1.
          4    1    6    6  502    0  0.11892622464E+03 -0.12511799271E+03 -0.61206275984E+03  0.63593929034E+03  0.00000000000E+00 0. -1.
          3    1    5    5  503    0  0.29412239102E+03  0.12769256217E+03 -0.17039544967E+03  0.36310877241E+03  0.00000000000E+00 0. -1.
         -4    1    5    5    0  503  0.62516685950E+02  0.31460587356E+02  0.33151344332E+00  0.69987245125E+02  0.00000000000E+00 0.  1.
         -3    1    6    6    0  502  0.27493381092E+03 -0.13916320861E+03 -0.11712989783E+04  0.12111549429E+04  0.00000000000E+00 0.  1.
<mgrwt>
<rscale>  0 0.19528174E+04</rscale>
<asrwt>0</asrwt>
<pdfrwt beam="1">  1        1 0.49285638E+00 0.19528174E+04</pdfrwt>
<pdfrwt beam="2">  1       -1 0.45784258E-01 0.19528174E+04</pdfrwt>
<totfact> 0.18715130E+00</totfact>
</mgrwt>
</event>
<event>
12    1  0.1494110E-007  0.1906064E+04  0.7818608E-02  0.8651844E-01
         -2   -1    0    0    0  501 -0.00000000000E+00  0.00000000000E+00  0.10369894940E+04  0.10369894940E+04  0.00000000000E+00 0.  1.
          2   -1    0    0  501    0  0.00000000000E+00 -0.00000000000E+00 -0.87587196306E+03  0.87587196306E+03  0.00000000000E+00 0. -1.
         23    2    1    2    0    0 -0.73375368074E+03  0.73182978145E+02  0.24247004307E+02  0.74358471918E+03  0.92628856677E+02 0.  0.
        254    2    1    2    0    0  0.73375368074E+03 -0.73182978145E+02  0.13687052663E+03  0.11692767379E+04  0.89706428776E+03 0.  0.
        -24    2    4    4    0    0  0.77912788172E+03  0.24024457570E+03  0.18426510975E+03  0.83952719965E+03  0.78067765834E+02 0.  0.
         24    2    4    4    0    0 -0.45374200976E+02 -0.31342755385E+03 -0.47394583118E+02  0.32974953822E+03  0.78694738202E+02 0.  0.
         13    1    3    3    0    0 -0.66074214508E+03  0.92665975326E+02  0.14256085198E+02  0.66736077292E+03  0.00000000000E+00 0. -1.
        -13    1    3    3    0    0 -0.73011535658E+02 -0.19482997181E+02  0.99909191087E+01  0.76223946257E+02  0.00000000000E+00 0.  1.
          2    1    6    6  502    0 -0.65554599414E+02 -0.27397795903E+03 -0.45792521685E+02  0.28540897425E+03  0.00000000000E+00 0. -1.
          3    1    5    5  503    0  0.34033306580E+03  0.99650371832E+02  0.40913950131E+02  0.35697442989E+03  0.00000000000E+00 0. -1.
         -2    1    5    5    0  503  0.43879481592E+03  0.14059420387E+03  0.14335115962E+03  0.48255276976E+03  0.00000000000E+00 0.  1.
         -1    1    6    6    0  502  0.20180398438E+02 -0.39449594817E+02 -0.16020614336E+01  0.44340563970E+02  0.00000000000E+00 0.  1.
<mgrwt>
<rscale>  0 0.19060640E+04</rscale>
<asrwt>0</asrwt>
<pdfrwt beam="1">  1        2 0.13474953E+00 0.19060640E+04</pdfrwt>
<pdfrwt beam="2">  1       -2 0.15953685E+00 0.19060640E+04</pdfrwt>
<totfact> 0.72357858E+00</totfact>
</mgrwt>
</event>
<event>
12    1  0.1494110E-007  0.1417320E+04  0.7818608E-02  0.8941376E-01
         -3   -1    0    0    0  501 -0.00000000000E+00  0.00000000000E+00  0.38449565544E+03  0.38449565544E+03  0.00000000000E+00 0.  1.
          3   -1    0    0  501    0  0.00000000000E+00 -0.00000000000E+00 -0.13061232802E+04  0.13061232802E+04  0.00000000000E+00 0. -1.
         23    2    1    2    0    0 -0.43472126158E+02 -0.50245807096E+03 -0.39679702041E+03  0.64970786569E+03  0.10158000053E+03 0.  0.
        254    2    1    2    0    0  0.43472126158E+02  0.50245807096E+03 -0.52483060436E+03  0.10409110700E+04  0.74410668152E+03 0.  0.
        -24    2    4    4    0    0  0.12540233520E+03 -0.13024932897E+03  0.19289805040E+02  0.19850953814E+03  0.79644879209E+02 0.  0.
         24    2    4    4    0    0 -0.81930209043E+02  0.63270739993E+03 -0.54412040940E+03  0.84240153182E+03  0.80883297515E+02 0.  0.
         13    1    3    3    0    0 -0.61792667121E+01 -0.92247153912E+02 -0.12785179897E+03  0.15777770198E+03  0.00000000000E+00 0. -1.
        -13    1    3    3    0    0 -0.37292859446E+02 -0.41021091705E+03 -0.26894522143E+03  0.49193016371E+03  0.00000000000E+00 0.  1.
          2    1    6    6  502    0 -0.17838569710E+02  0.11206916717E+03 -0.14002180310E+03  0.18023267779E+03  0.00000000000E+00 0. -1.
          1    1    5    5  503    0  0.22562001262E+02  0.23438530535E+01  0.20691390956E+02  0.30702951125E+02  0.00000000000E+00 0. -1.
         -2    1    5    5    0  503  0.10284033394E+03 -0.13259318202E+03 -0.14015859160E+01  0.16780658702E+03  0.00000000000E+00 0.  1.
         -1    1    6    6    0  502 -0.64091639333E+02  0.52063823276E+03 -0.40409860630E+03  0.66216885404E+03  0.00000000000E+00 0.  1.
<mgrwt>
<rscale>  0 0.14173196E+04</rscale>
<asrwt>0</asrwt>
<pdfrwt beam="1">  1        3 0.20094205E+00 0.14173196E+04</pdfrwt>
<pdfrwt beam="2">  1       -3 0.59153177E-01 0.14173196E+04</pdfrwt>
<totfact> 0.10361002E+00</totfact>
</mgrwt>
</event>
<event>
12    1  0.1494110E-007  0.2112710E+04  0.7818608E-02  0.8555665E-01
          2   -1    0    0  501    0  0.00000000000E+00  0.00000000000E+00  0.16212136545E+04  0.16212136545E+04  0.00000000000E+00 0.  1.
         -2   -1    0    0    0  501 -0.00000000000E+00 -0.00000000000E+00 -0.68830299329E+03  0.68830299329E+03  0.00000000000E+00 0. -1.
         23    2    1    2    0    0 -0.70139754859E+03 -0.19741480873E+03 -0.12358909099E+03  0.74450453444E+03  0.89897778138E+02 0.  0.
        254    2    1    2    0    0  0.70139754859E+03  0.19741480873E+03  0.10564997522E+04  0.15650121133E+04  0.89562272227E+03 0.  0.
        -24    2    4    4    0    0  0.49515516076E+03  0.46765059144E+03  0.99819369899E+03  0.12109608740E+04  0.78484831047E+02 0.  0.
         24    2    4    4    0    0  0.20624238783E+03 -0.27023578271E+03  0.58306053172E+02  0.35405123934E+03  0.79933618993E+02 0.  0.
         11    1    3    3    0    0 -0.52160310622E+03 -0.18493720765E+03 -0.81005325317E+02  0.55931514723E+03  0.00000000000E+00 0. -1.
        -11    1    3    3    0    0 -0.17979444237E+03 -0.12477601082E+02 -0.42583765674E+02  0.18518938721E+03  0.00000000000E+00 0.  1.
          2    1    6    6  502    0  0.17018171783E+03 -0.25344191383E+03  0.68750006044E+02  0.31292360745E+03  0.00000000000E+00 0. -1.
          3    1    5    5  503    0  0.31331854621E+03  0.34018425699E+03  0.64261460443E+03  0.79173693228E+03  0.00000000000E+00 0. -1.
         -4    1    5    5    0  503  0.18183661454E+03  0.12746633445E+03  0.35557909457E+03  0.41922394171E+03  0.00000000000E+00 0.  1.
         -1    1    6    6    0  502  0.36060670003E+02 -0.16793868878E+02 -0.10443952872E+02  0.41127631886E+02  0.00000000000E+00 0.  1.
<mgrwt>
<rscale>  0 0.21127103E+04</rscale>
<asrwt>0</asrwt>
<pdfrwt beam="1">  1        2 0.24941748E+00 0.21127103E+04</pdfrwt>
<pdfrwt beam="2">  1       -2 0.10589277E+00 0.21127103E+04</pdfrwt>
<totfact> 0.71958685E+00</totfact>
</mgrwt>
</event>
<event>
12    1  0.1494110E-007  0.1813763E+04  0.7818608E-02  0.8699014E-01
          1   -1    0    0  501    0  0.00000000000E+00  0.00000000000E+00  0.72249489381E+03  0.72249489381E+03  0.00000000000E+00 0. -1.
         -1   -1    0    0    0  501 -0.00000000000E+00 -0.00000000000E+00 -0.11383254266E+04  0.11383254266E+04  0.00000000000E+00 0.  1.
         23    2    1    2    0    0  0.50489813423E+03 -0.41491821090E+02  0.30728652730E+03  0.60046638748E+03  0.97422664016E+02 0.  0.
        254    2    1    2    0    0 -0.50489813423E+03  0.41491821090E+02 -0.72311706008E+03  0.12603539329E+04  0.89941650891E+03 0.  0.
        -24    2    4    4    0    0  0.23763202455E+03  0.59385230508E+02 -0.67216142486E+02  0.26625767018E+03  0.79872100389E+02 0.  0.
         24    2    4    4    0    0 -0.74253015879E+03 -0.17893409419E+02 -0.65590091759E+03  0.99409626275E+03  0.79687860448E+02 0.  0.
         11    1    3    3    0    0  0.46011401364E+03 -0.14498156000E+02  0.29499311427E+03  0.54675043625E+03  0.00000000000E+00 0. -1.
        -11    1    3    3    0    0  0.44784120597E+02 -0.26993665089E+02  0.12293413026E+02  0.53715951229E+02  0.00000000000E+00 0.  1.
          2    1    6    6  502    0 -0.56449447245E+03  0.19906515871E+02 -0.48719208514E+03  0.74592654238E+03  0.00000000000E+00 0. -1.
          1    1    5    5  503    0  0.17204536384E+03  0.81946612831E+01 -0.61394204154E+02  0.18285515578E+03  0.00000000000E+00 0. -1.
         -2    1    5    5    0  503  0.65586660713E+02  0.51190569225E+02 -0.58219383327E+01  0.83402514393E+02  0.00000000000E+00 0.  1.
         -1    1    6    6    0  502 -0.17803568634E+03 -0.37799925290E+02 -0.16870883245E+03  0.24816972037E+03  0.00000000000E+00 0.  1.
<mgrwt>
<rscale>  0 0.18137633E+04</rscale>
<asrwt>0</asrwt>
<pdfrwt beam="1">  1        1 0.11115306E+00 0.18137633E+04</pdfrwt>
<pdfrwt beam="2">  1       -1 0.17512699E+00 0.18137633E+04</pdfrwt>
<totfact> 0.55210530E+00</totfact>
</mgrwt>
</event>
<event>
12    1  0.1494110E-007  0.1588701E+04  0.7818608E-02  0.8827520E-01
         -2   -1    0    0    0  501 -0.00000000000E+00  0.00000000000E+00  0.10085441270E+04  0.10085441270E+04  0.00000000000E+00 0.  1.
          2   -1    0    0  501    0  0.00000000000E+00 -0.00000000000E+00 -0.62564726422E+03  0.62564726422E+03  0.00000000000E+00 0. -1.
         23    2    1    2    0    0 -0.16757957026E+02 -0.26123739306E+03  0.61119271638E+03  0.67005167496E+03  0.82987383960E+02 0.  0.
        254    2    1    2    0    0  0.16757957026E+02  0.26123739306E+03 -0.22829585359E+03  0.96413971627E+03  0.89940012846E+03 0.  0.
        -24    2    4    4    0    0 -0.37035786137E+03  0.15591847830E+03  0.11981674989E+03  0.42682316870E+03  0.79664587044E+02 0.  0.
         24    2    4    4    0    0  0.38711581840E+03  0.10531891476E+03 -0.34811260348E+03  0.53731654758E+03  0.81092274237E+02 0.  0.
         11    1    3    3    0    0 -0.42939738257E+02 -0.11464907532E+03  0.32785818624E+03  0.34997031571E+03  0.00000000000E+00 0.  1.
        -11    1    3    3    0    0  0.26181781232E+02 -0.14658831774E+03  0.28333453014E+03  0.32008135925E+03  0.00000000000E+00 0. -1.
          4    1    6    6  502    0  0.22232471136E+02 -0.12921154990E+02 -0.20515745053E+02  0.32895817579E+02  0.00000000000E+00 0. -1.
          1    1    5    5  503    0 -0.97226603626E+02  0.53846007007E+02 -0.11452166477E+01  0.11114727367E+03  0.00000000000E+00 0. -1.
         -2    1    5    5    0  503 -0.27313125774E+03  0.10207247130E+03  0.12096196653E+03  0.31567589503E+03  0.00000000000E+00 0.  1.
         -3    1    6    6    0  502  0.36488334726E+03  0.11824006975E+03 -0.32759685842E+03  0.50442073000E+03  0.00000000000E+00 0.  1.
<mgrwt>
<rscale>  0 0.15887012E+04</rscale>
<asrwt>0</asrwt>
<pdfrwt beam="1">  1        2 0.96253425E-01 0.15887012E+04</pdfrwt>
<pdfrwt beam="2">  1       -2 0.15516063E+00 0.15887012E+04</pdfrwt>
<totfact> 0.12373765E+01</totfact>
</mgrwt>
</event>
<event>
12    1  0.1494110E-007  0.3141651E+04  0.7818608E-02  0.8204399E-01
         -2   -1    0    0    0  501 -0.00000000000E+00  0.00000000000E+00  0.27499447070E+04  0.27499447070E+04  0.00000000000E+00 0.  1.
          2   -1    0    0  501    0  0.00000000000E+00 -0.00000000000E+00 -0.89728832042E+03  0.89728832042E+03  0.00000000000E+00 0. -1.
         23    2    1    2    0    0 -0.27026379843E+03 -0.13903627091E+04  0.54116957657E+03  0.15191072726E+04  0.93120414186E+02 0.  0.
        254    2    1    2    0    0  0.27026379843E+03  0.13903627091E+04  0.13114868101E+04  0.21281257549E+04  0.89597466037E+03 0.  0.
        -24    2    4    4    0    0  0.13896173083E+03  0.94926637681E+03  0.13514232267E+04  0.16592956074E+04  0.80623558208E+02 0.  0.
         24    2    4    4    0    0  0.13130206760E+03  0.44109633227E+03 -0.39936416654E+02  0.46883014750E+03  0.80003640775E+02 0.  0.
         11    1    3    3    0    0 -0.21406693756E+03 -0.11023728820E+04  0.38794411220E+03  0.11880872270E+04  0.00000000000E+00 0. -1.
        -11    1    3    3    0    0 -0.56196860876E+02 -0.28798982705E+03  0.15322546437E+03  0.33102004560E+03  0.00000000000E+00 0.  1.
          4    1    6    6  502    0  0.25371624207E+02  0.74659870013E+02  0.23209908087E+02  0.82198025151E+02  0.00000000000E+00 0. -1.
          3    1    5    5  503    0  0.40578105716E+02  0.25533220782E+03  0.30487472627E+03  0.39973706074E+03  0.00000000000E+00 0. -1.
         -4    1    5    5    0  503  0.98383625116E+02  0.69393416899E+03  0.10465485004E+04  0.12595585466E+04  0.00000000000E+00 0.  1.
         -3    1    6    6    0  502  0.10593044340E+03  0.36643646225E+03 -0.63146324741E+02  0.38663212235E+03  0.00000000000E+00 0.  1.
<mgrwt>
<rscale>  0 0.31416513E+04</rscale>
<asrwt>0</asrwt>
<pdfrwt beam="1">  1        2 0.13804436E+00 0.31416513E+04</pdfrwt>
<pdfrwt beam="2">  1       -2 0.42306841E+00 0.31416513E+04</pdfrwt>
<totfact> 0.13022964E-01</totfact>
</mgrwt>
</event>
<event>
12    1  0.1494110E-007  0.3424866E+04  0.7818608E-02  0.8131830E-01
          2   -1    0    0  501    0  0.00000000000E+00  0.00000000000E+00  0.27116335460E+04  0.27116335460E+04  0.00000000000E+00 0. -1.
         -2   -1    0    0    0  501 -0.00000000000E+00 -0.00000000000E+00 -0.10814247248E+04  0.10814247248E+04  0.00000000000E+00 0.  1.
         23    2    1    2    0    0  0.39394325772E+03 -0.10292341441E+04  0.20318576776E+04  0.23132990632E+04  0.91611791703E+02 0.  0.
        254    2    1    2    0    0 -0.39394325772E+03  0.10292341441E+04 -0.40164885639E+03  0.14797592075E+04  0.90213707095E+03 0.  0.
        -24    2    4    4    0    0 -0.91659753526E+02  0.91821118261E+03  0.40098036513E+02  0.92723729971E+03  0.81534478263E+02 0.  0.
         24    2    4    4    0    0 -0.30228350419E+03  0.11102296149E+03 -0.44174689291E+03  0.55252190783E+03  0.80241674696E+02 0.  0.
         11    1    3    3    0    0  0.29359536749E+03 -0.64920592149E+03  0.13347030405E+04  0.15129767925E+04  0.00000000000E+00 0. -1.
        -11    1    3    3    0    0  0.10034789023E+03 -0.38002822261E+03  0.69715463705E+03  0.80032227072E+03  0.00000000000E+00 0.  1.
          4    1    6    6  502    0 -0.30649374288E+03  0.10793898313E+03 -0.44007393697E+03  0.54704141389E+03  0.00000000000E+00 0. -1.
          1    1    5    5  503    0  0.73279226761E+01  0.20267806025E+03 -0.10806323076E+02  0.20309818113E+03  0.00000000000E+00 0. -1.
         -2    1    5    5    0  503 -0.98987676202E+02  0.71553312236E+03  0.50904359590E+02  0.72413911858E+03  0.00000000000E+00 0.  1.
         -3    1    6    6    0  502  0.42102386892E+01  0.30839783573E+01 -0.16729559333E+01  0.54804939451E+01  0.00000000000E+00 0.  1.
<mgrwt>
<rscale>  0 0.34248665E+04</rscale>
<asrwt>0</asrwt>
<pdfrwt beam="1">  1        2 0.41717439E+00 0.34248665E+04</pdfrwt>
<pdfrwt beam="2">  1       -2 0.16637304E+00 0.34248665E+04</pdfrwt>
<totfact> 0.48875093E-01</totfact>
</mgrwt>
</event>
<event>
12    1  0.1494110E-007  0.2165780E+04  0.7818608E-02  0.8532808E-01
         -1   -1    0    0    0  501 -0.00000000000E+00  0.00000000000E+00  0.29798753182E+03  0.29798753182E+03  0.00000000000E+00 0.  1.
          1   -1    0    0  501    0  0.00000000000E+00 -0.00000000000E+00 -0.39352325907E+04  0.39352325907E+04  0.00000000000E+00 0. -1.
         23    2    1    2    0    0  0.82181172965E+03 -0.28916861248E+03 -0.11320369143E+04  0.14314733578E+04  0.92819142851E+02 0.  0.
        254    2    1    2    0    0 -0.82181172965E+03  0.28916861248E+03 -0.25052081446E+04  0.28017467648E+04  0.90262067368E+03 0.  0.
        -24    2    4    4    0    0 -0.69882751390E+03 -0.15381523628E+03 -0.19372386935E+04  0.20666961409E+04  0.79499447533E+02 0.  0.
         24    2    4    4    0    0 -0.12298421575E+03  0.44298384876E+03 -0.56796945107E+03  0.73505062381E+03  0.79688861350E+02 0.  0.
         13    1    3    3    0    0  0.56671858471E+03 -0.19421033416E+03 -0.84591525601E+03  0.10365617341E+04  0.00000000000E+00 0. -1.
        -13    1    3    3    0    0  0.25509314494E+03 -0.94958278321E+02 -0.28612165828E+03  0.39491162373E+03  0.00000000000E+00 0.  1.
          2    1    6    6  502    0 -0.42738867009E+02  0.29641432515E+03 -0.36746490329E+03  0.47404484814E+03  0.00000000000E+00 0. -1.
          3    1    5    5  503    0 -0.32641340972E+03 -0.53182384387E+02 -0.99593363882E+03  0.10494083538E+04  0.00000000000E+00 0. -1.
         -4    1    5    5    0  503 -0.37241410418E+03 -0.10063285189E+03 -0.94130505472E+03  0.10172877872E+04  0.00000000000E+00 0.  1.
         -1    1    6    6    0  502 -0.80245348741E+02  0.14656952362E+03 -0.20050454779E+03  0.26100577567E+03  0.00000000000E+00 0.  1.
<mgrwt>
<rscale>  0 0.21657795E+04</rscale>
<asrwt>0</asrwt>
<pdfrwt beam="1">  1        1 0.60542035E+00 0.21657795E+04</pdfrwt>
<pdfrwt beam="2">  1       -1 0.45844239E-01 0.21657795E+04</pdfrwt>
<totfact> 0.47536794E-01</totfact>
</mgrwt>
</event>
<event>
12    1  0.1494110E-007  0.1511746E+04  0.7818608E-02  0.8876679E-01
         -2   -1    0    0    0  501 -0.00000000000E+00  0.00000000000E+00  0.93150247296E+03  0.93150247296E+03  0.00000000000E+00 0. -1.
          2   -1    0    0  501    0  0.00000000000E+00 -0.00000000000E+00 -0.61335748058E+03  0.61335748058E+03  0.00000000000E+00 0.  1.
         23    2    1    2    0    0 -0.99067846135E+02 -0.43249035936E+03 -0.12236185128E+03  0.46911672063E+03  0.90750900015E+02 0.  0.
        254    2    1    2    0    0  0.99067846135E+02  0.43249035936E+03  0.44050684365E+03  0.10757432329E+04  0.87539412539E+03 0.  0.
        -24    2    4    4    0    0  0.34297867155E+02  0.35584707369E+03  0.69776727394E+03  0.78812022455E+03  0.80317097844E+02 0.  0.
         24    2    4    4    0    0  0.64769978980E+02  0.76643285672E+02 -0.25726043029E+03  0.28762300836E+03  0.80465660557E+02 0.  0.
         13    1    3    3    0    0 -0.11083227504E+03 -0.36473160858E+03 -0.83912429466E+02  0.39032580661E+03  0.00000000000E+00 0.  1.
        -13    1    3    3    0    0  0.11764428908E+02 -0.67758750777E+02 -0.38449421811E+02  0.78790914019E+02  0.00000000000E+00 0. -1.
          2    1    6    6  502    0  0.48765258790E+01  0.59278742558E+02 -0.79821829313E+02  0.99545337705E+02  0.00000000000E+00 0. -1.
          3    1    5    5  503    0  0.19901752851E+02  0.68582775900E+02  0.21064246469E+03  0.22241835547E+03  0.00000000000E+00 0. -1.
         -4    1    5    5    0  503  0.14396114305E+02  0.28726429779E+03  0.48712480925E+03  0.56570186908E+03  0.00000000000E+00 0.  1.
         -1    1    6    6    0  502  0.59893453101E+02  0.17364543114E+02 -0.17743860098E+03  0.18807767066E+03  0.00000000000E+00 0.  1.
<mgrwt>
<rscale>  0 0.15117460E+04</rscale>
<asrwt>0</asrwt>
<pdfrwt beam="1">  1        2 0.94362689E-01 0.15117460E+04</pdfrwt>
<pdfrwt beam="2">  1       -2 0.14330807E+00 0.15117460E+04</pdfrwt>
<totfact> 0.15741878E+01</totfact>
</mgrwt>
</event>
<event>
12    1  0.1494110E-007  0.1421728E+04  0.7818608E-02  0.8938239E-01
          1   -1    0    0  501    0  0.00000000000E+00  0.00000000000E+00  0.20725158231E+03  0.20725158231E+03  0.00000000000E+00 0. -1.
         -1   -1    0    0    0  501 -0.00000000000E+00 -0.00000000000E+00 -0.24382329569E+04  0.24382329569E+04  0.00000000000E+00 0.  1.
         23    2    1    2    0    0  0.11866788316E+03  0.18405434889E+03 -0.28026772635E+02  0.24480314165E+03  0.10575919978E+03 0.  0.
        254    2    1    2    0    0 -0.11866788316E+03 -0.18405434889E+03 -0.22029546019E+04  0.24006813975E+04  0.92860331920E+03 0.  0.
        -24    2    4    4    0    0 -0.10921312808E+03 -0.34412049367E+03 -0.26548171279E+03  0.45496830644E+03  0.78544245729E+02 0.  0.
         24    2    4    4    0    0 -0.94547550824E+01  0.16006614477E+03 -0.19374728891E+04  0.19457130911E+04  0.79294852010E+02 0.  0.
         13    1    3    3    0    0  0.66739293084E+02  0.71130697356E+02 -0.62469170389E+02  0.11582791804E+03  0.00000000000E+00 0.  1.
        -13    1    3    3    0    0  0.51928590081E+02  0.11292365154E+03  0.34442397755E+02  0.12897522362E+03  0.00000000000E+00 0. -1.
          4    1    6    6  502    0  0.11876399522E+02  0.37320439538E+02 -0.20121214015E+03  0.20498826654E+03  0.00000000000E+00 0. -1.
          3    1    5    5  503    0 -0.12743144232E+02 -0.60982274470E+01 -0.26110008867E+02  0.29686843314E+02  0.00000000000E+00 0. -1.
         -4    1    5    5    0  503 -0.96469983850E+02 -0.33802226622E+03 -0.23937170392E+03  0.42528146313E+03  0.00000000000E+00 0.  1.
         -1    1    6    6    0  502 -0.21331154605E+02  0.12274570524E+03 -0.17362607490E+04  0.17407248246E+04  0.00000000000E+00 0.  1.
<mgrwt>
<rscale>  0 0.14217280E+04</rscale>
<asrwt>0</asrwt>
<pdfrwt beam="1">  1        1 0.31884860E-01 0.14217280E+04</pdfrwt>
<pdfrwt beam="2">  1       -1 0.37511275E+00 0.14217280E+04</pdfrwt>
<totfact> 0.14704121E+00</totfact>
</mgrwt>
</event>
<event>
12    1  0.1494110E-007  0.1732805E+04  0.7818608E-02  0.8742873E-01
          1   -1    0    0  501    0  0.00000000000E+00  0.00000000000E+00  0.17719878568E+04  0.17719878568E+04  0.00000000000E+00 0. -1.
         -1   -1    0    0    0  501 -0.00000000000E+00 -0.00000000000E+00 -0.42362208328E+03  0.42362208328E+03  0.00000000000E+00 0.  1.
         23    2    1    2    0    0 -0.80639695511E+02 -0.56836641999E+03  0.85013901060E+03  0.10297803593E+04  0.90377559410E+02 0.  0.
        254    2    1    2    0    0  0.80639695511E+02  0.56836641999E+03  0.49822676291E+03  0.11658295807E+04  0.88396015532E+03 0.  0.
        -24    2    4    4    0    0  0.99105830573E+02 -0.81077880305E+02 -0.17219192512E+03  0.22867515269E+03  0.79035928865E+02 0.  0.
         24    2    4    4    0    0 -0.18466135062E+02  0.64944430029E+03  0.67041868803E+03  0.93715442806E+03  0.81720911940E+02 0.  0.
         11    1    3    3    0    0 -0.25184433654E+02 -0.44402149483E+03  0.66332449186E+03  0.79861675732E+03  0.00000000000E+00 0. -1.
        -11    1    3    3    0    0 -0.55455261856E+02 -0.12434492516E+03  0.18681451874E+03  0.23116360200E+03  0.00000000000E+00 0.  1.
          2    1    6    6  502    0 -0.65778417174E+01  0.24084617049E+03  0.30648796826E+03  0.38985256255E+03  0.00000000000E+00 0. -1.
          3    1    5    5  503    0  0.87281423847E+02 -0.22122501183E+02 -0.96073124312E+02  0.13167193028E+03  0.00000000000E+00 0. -1.
         -4    1    5    5    0  503  0.11824406726E+02 -0.58955379122E+02 -0.76118800805E+02  0.97003222410E+02  0.00000000000E+00 0.  1.
         -1    1    6    6    0  502 -0.11888293345E+02  0.40859812980E+03  0.36393071978E+03  0.54730186551E+03  0.00000000000E+00 0.  1.
<mgrwt>
<rscale>  0 0.17328049E+04</rscale>
<asrwt>0</asrwt>
<pdfrwt beam="1">  1        1 0.27261351E+00 0.17328049E+04</pdfrwt>
<pdfrwt beam="2">  1       -1 0.65172629E-01 0.17328049E+04</pdfrwt>
<totfact> 0.96420618E+00</totfact>
</mgrwt>
</event>
<event>
12    1  0.1494110E-007  0.2591724E+04  0.7818608E-02  0.8371018E-01
          1   -1    0    0  501    0  0.00000000000E+00  0.00000000000E+00  0.17420616430E+04  0.17420616430E+04  0.00000000000E+00 0. -1.
         -1   -1    0    0    0  501 -0.00000000000E+00 -0.00000000000E+00 -0.96394878434E+03  0.96394878434E+03  0.00000000000E+00 0.  1.
         23    2    1    2    0    0  0.83355154407E+03 -0.76006424427E+03  0.20840981996E+03  0.11509612556E+04  0.93655362389E+02 0.  0.
        254    2    1    2    0    0 -0.83355154407E+03  0.76006424427E+03  0.56970303872E+03  0.15550491717E+04  0.90615150061E+03 0.  0.
        -24    2    4    4    0    0 -0.90801366617E+03  0.41865007898E+03  0.16796250637E+03  0.10169058249E+04  0.78290144252E+02 0.  0.
         24    2    4    4    0    0  0.74462122103E+02  0.34141416529E+03  0.40174053235E+03  0.53814334676E+03  0.78067704164E+02 0.  0.
         13    1    3    3    0    0  0.60825198992E+03 -0.57485133481E+03  0.11539639571E+03  0.84483185813E+03  0.00000000000E+00 0. -1.
        -13    1    3    3    0    0  0.22529955415E+03 -0.18521290946E+03  0.93013424253E+02  0.30612939751E+03  0.00000000000E+00 0.  1.
          4    1    6    6  502    0  0.38594854230E+02  0.30317196986E+03  0.34187670354E+03  0.45856568396E+03  0.00000000000E+00 0. -1.
          1    1    5    5  503    0 -0.63821515291E+03  0.30765306846E+03  0.15271022385E+03  0.72476851780E+03  0.00000000000E+00 0. -1.
         -4    1    5    5    0  503 -0.26979851326E+03  0.11099701052E+03  0.15252282520E+02  0.29213730715E+03  0.00000000000E+00 0.  1.
         -3    1    6    6    0  502  0.35867267873E+02  0.38242195430E+02  0.59863828815E+02  0.79577662798E+02  0.00000000000E+00 0.  1.
<mgrwt>
<rscale>  0 0.25917239E+04</rscale>
<asrwt>0</asrwt>
<pdfrwt beam="1">  1        1 0.26800948E+00 0.25917239E+04</pdfrwt>
<pdfrwt beam="2">  1       -1 0.14829981E+00 0.25917239E+04</pdfrwt>
<totfact> 0.14146443E+00</totfact>
</mgrwt>
</event>
<event>
12    1  0.1494110E-007  0.1199386E+04  0.7818608E-02  0.9113394E-01
          2   -1    0    0  501    0  0.00000000000E+00  0.00000000000E+00  0.23952647382E+04  0.23952647382E+04  0.00000000000E+00 0. -1.
         -2   -1    0    0    0  501 -0.00000000000E+00 -0.00000000000E+00 -0.15014285844E+03  0.15014285844E+03  0.00000000000E+00 0.  1.
         23    2    1    2    0    0 -0.18878234280E+03 -0.39599591990E+02  0.84725309220E+03  0.87364787685E+03  0.90641656203E+02 0.  0.
        254    2    1    2    0    0  0.18878234280E+03  0.39599591990E+02  0.13978687875E+04  0.16717597198E+04  0.89640198173E+03 0.  0.
        -24    2    4    4    0    0  0.20127129977E+03  0.12993605387E+03 -0.15362282626E+02  0.25330682947E+03  0.80838331988E+02 0.  0.
         24    2    4    4    0    0 -0.12488956976E+02 -0.90336461885E+02  0.14132310701E+04  0.14184528903E+04  0.80435651055E+02 0.  0.
         13    1    3    3    0    0 -0.15407634636E+03 -0.10921436487E+02  0.75918589386E+03  0.77473996909E+03  0.00000000000E+00 0. -1.
        -13    1    3    3    0    0 -0.34705996444E+02 -0.28678155502E+02  0.88067198348E+02  0.98907907758E+02  0.00000000000E+00 0.  1.
          4    1    6    6  502    0  0.80516337695E+01 -0.57398797978E+02  0.12192035898E+04  0.12205805357E+04  0.00000000000E+00 0. -1.
          1    1    5    5  503    0  0.16533290986E+03  0.63192725263E+02 -0.87266405373E+01  0.17721299575E+03  0.00000000000E+00 0. -1.
         -2    1    5    5    0  503  0.35938389918E+02  0.66743328612E+02 -0.66356420885E+01  0.76093833719E+02  0.00000000000E+00 0.  1.
         -3    1    6    6    0  502 -0.20540590745E+02 -0.32937663907E+02  0.19402748037E+03  0.19787235459E+03  0.00000000000E+00 0.  1.
<mgrwt>
<rscale>  0 0.11993863E+04</rscale>
<asrwt>0</asrwt>
<pdfrwt beam="1">  1        2 0.36850224E+00 0.11993863E+04</pdfrwt>
<pdfrwt beam="2">  1       -2 0.23098903E-01 0.11993863E+04</pdfrwt>
<totfact> 0.65657632E+01</totfact>
</mgrwt>
</event>
<event>
12    1  0.1494110E-007  0.1097088E+04  0.7818608E-02  0.9208035E-01
         -1   -1    0    0    0  501 -0.00000000000E+00  0.00000000000E+00  0.38058835304E+03  0.38058835304E+03  0.00000000000E+00 0.  1.
          1   -1    0    0  501    0  0.00000000000E+00 -0.00000000000E+00 -0.79061943335E+03  0.79061943335E+03  0.00000000000E+00 0. -1.
         23    2    1    2    0    0 -0.95207417457E+02 -0.17856478616E+02 -0.20767361303E+03  0.24656305216E+03  0.91003862422E+02 0.  0.
        254    2    1    2    0    0  0.95207417457E+02  0.17856478616E+02 -0.20235746728E+03  0.92464473423E+03  0.89701506889E+03 0.  0.
        -24    2    4    4    0    0  0.12625224395E+03  0.44061635145E+03 -0.53924255768E+02  0.46847387918E+03  0.80483239515E+02 0.  0.
         24    2    4    4    0    0 -0.31044826495E+02 -0.42275987284E+03 -0.14843321151E+03  0.45617085505E+03  0.79810647078E+02 0.  0.
         11    1    3    3    0    0 -0.47707871808E+01 -0.30904628398E+02 -0.10288285384E+03  0.10753017288E+03  0.00000000000E+00 0. -1.
        -11    1    3    3    0    0 -0.90436630277E+02  0.13048149782E+02 -0.10479075919E+03  0.13903287928E+03  0.00000000000E+00 0.  1.
          2    1    6    6  502    0 -0.52390846039E+02 -0.23872108817E+03 -0.10421891164E+03  0.26569557811E+03  0.00000000000E+00 0. -1.
          1    1    5    5  503    0  0.15177168669E+02  0.13726719214E+03 -0.45194008011E+02  0.14531044989E+03  0.00000000000E+00 0. -1.
         -2    1    5    5    0  503  0.11107507528E+03  0.30334915931E+03 -0.87302477564E+01  0.32316342929E+03  0.00000000000E+00 0.  1.
         -3    1    6    6    0  502  0.21346019544E+02 -0.18403878467E+03 -0.44214299875E+02  0.19047527694E+03  0.00000000000E+00 0.  1.
<mgrwt>
<rscale>  0 0.10970881E+04</rscale>
<asrwt>0</asrwt>
<pdfrwt beam="1">  1        1 0.12163376E+00 0.10970881E+04</pdfrwt>
<pdfrwt beam="2">  1       -1 0.58552055E-01 0.10970881E+04</pdfrwt>
<totfact> 0.66382528E+01</totfact>
</mgrwt>
</event>
<event>
12    1  0.1494110E-007  0.2419457E+04  0.7818608E-02  0.8432255E-01
          2   -1    0    0  501    0  0.00000000000E+00  0.00000000000E+00  0.15838270690E+04  0.15838270690E+04  0.00000000000E+00 0. -1.
         -2   -1    0    0    0  501 -0.00000000000E+00 -0.00000000000E+00 -0.92399130567E+03  0.92399130567E+03  0.00000000000E+00 0.  1.
         23    2    1    2    0    0  0.67015877295E+02  0.66322362270E+03  0.11030015765E+04  0.12919398547E+04  0.90218673420E+02 0.  0.
        254    2    1    2    0    0 -0.67015877295E+02 -0.66322362270E+03 -0.44316581309E+03  0.12158785200E+04  0.91520923068E+03 0.  0.
        -24    2    4    4    0    0 -0.34555166480E+03 -0.74208396782E+03 -0.39209579453E+03  0.91152267842E+03  0.83904188483E+02 0.  0.
         24    2    4    4    0    0  0.27853578751E+03  0.78860345117E+02 -0.51070018565E+02  0.30435584156E+03  0.78887214035E+02 0.  0.
         13    1    3    3    0    0  0.58656085738E+02  0.59626939172E+03  0.93048833762E+03  0.11067006236E+04  0.00000000000E+00 0. -1.
        -13    1    3    3    0    0  0.83597915574E+01  0.66954230981E+02  0.17251323885E+03  0.18523923110E+03  0.00000000000E+00 0.  1.
          2    1    6    6  502    0  0.12080048744E+03  0.59148096070E+02 -0.55076015267E+02  0.14534311987E+03  0.00000000000E+00 0. -1.
          3    1    5    5  503    0 -0.60726218730E+02 -0.77574398447E+02 -0.64746542825E+02  0.11788797964E+03  0.00000000000E+00 0. -1.
         -4    1    5    5    0  503 -0.28482544607E+03 -0.66450956938E+03 -0.32734925170E+03  0.79363469878E+03  0.00000000000E+00 0.  1.
         -1    1    6    6    0  502  0.15773530007E+03  0.19712249048E+02  0.40059967017E+01  0.15901272169E+03  0.00000000000E+00 0.  1.
<mgrwt>
<rscale>  0 0.24194565E+04</rscale>
<asrwt>0</asrwt>
<pdfrwt beam="1">  1        2 0.24366570E+00 0.24194565E+04</pdfrwt>
<pdfrwt beam="2">  1       -2 0.14215251E+00 0.24194565E+04</pdfrwt>
<totfact> 0.35292133E+00</totfact>
</mgrwt>
</event>
<event>
12    1  0.1494110E-007  0.1908875E+04  0.7818608E-02  0.8650451E-01
         -1   -1    0    0    0  501 -0.00000000000E+00  0.00000000000E+00  0.18653691267E+04  0.18653691267E+04  0.00000000000E+00 0.  1.
          1   -1    0    0  501    0  0.00000000000E+00 -0.00000000000E+00 -0.48834901845E+03  0.48834901845E+03  0.00000000000E+00 0. -1.
         23    2    1    2    0    0 -0.29638762459E+03 -0.98966834277E+02 -0.28771812230E+03  0.43419983621E+03  0.90042887365E+02 0.  0.
        254    2    1    2    0    0  0.29638762459E+03  0.98966834277E+02  0.16647382305E+04  0.19195183089E+04  0.90308200281E+03 0.  0.
        -24    2    4    4    0    0 -0.28562802491E+03  0.12266516527E+03  0.89663635520E+03  0.95240672673E+03  0.80571137928E+02 0.  0.
         24    2    4    4    0    0  0.58201564950E+03 -0.23698330996E+02  0.76810187534E+03  0.96711158220E+03  0.77591844740E+02 0.  0.
         13    1    3    3    0    0 -0.15545224326E+03 -0.49526952823E+02 -0.89740183938E+02  0.18620316754E+03  0.00000000000E+00 0. -1.
        -13    1    3    3    0    0 -0.14093538133E+03 -0.49439881455E+02 -0.19797793837E+03  0.24799666866E+03  0.00000000000E+00 0.  1.
          2    1    6    6  502    0  0.54802444062E+03 -0.35445328409E+02  0.73976828394E+03  0.92132745142E+03  0.00000000000E+00 0. -1.
          3    1    5    5  503    0 -0.10081533218E+03  0.20168689000E+02  0.20716689188E+03  0.23127608677E+03  0.00000000000E+00 0. -1.
         -4    1    5    5    0  503 -0.18481269273E+03  0.10249647627E+03  0.68946946331E+03  0.72113063996E+03  0.00000000000E+00 0.  1.
         -1    1    6    6    0  502  0.33991208877E+02  0.11746997413E+02  0.28333591396E+02  0.45784130772E+02  0.00000000000E+00 0.  1.
<mgrwt>
<rscale>  0 0.19088753E+04</rscale>
<asrwt>0</asrwt>
<pdfrwt beam="1">  1        1 0.75130619E-01 0.19088753E+04</pdfrwt>
<pdfrwt beam="2">  1       -1 0.28697986E+00 0.19088753E+04</pdfrwt>
<totfact> 0.17179643E+00</totfact>
</mgrwt>
</event>
<event>
12    1  0.1494110E-007  0.1661468E+04  0.7818608E-02  0.8783651E-01
         -2   -1    0    0    0  501 -0.00000000000E+00  0.00000000000E+00  0.29911564222E+03  0.29911564222E+03  0.00000000000E+00 0.  1.
          2   -1    0    0  501    0  0.00000000000E+00 -0.00000000000E+00 -0.23071972779E+04  0.23071972779E+04  0.00000000000E+00 0. -1.
         23    2    1    2    0    0  0.40679116576E+03 -0.12069524630E+03 -0.81769805158E+02  0.44172923157E+03  0.91607957973E+02 0.  0.
        254    2    1    2    0    0 -0.40679116576E+03  0.12069524630E+03 -0.19263118305E+04  0.21645836885E+04  0.89145885001E+03 0.  0.
        -24    2    4    4    0    0 -0.60204273777E+03  0.48741515416E+02 -0.74462220784E+03  0.96211619788E+03  0.79838289000E+02 0.  0.
         24    2    4    4    0    0  0.19525157201E+03  0.71953730888E+02 -0.11816896227E+04  0.12024674906E+04  0.78975856943E+02 0.  0.
         13    1    3    3    0    0  0.28193353128E+03 -0.80656158096E+02 -0.12674719892E+02  0.29351759815E+03  0.00000000000E+00 0. -1.
        -13    1    3    3    0    0  0.12485763448E+03 -0.40039088207E+02 -0.69095085266E+02  0.14821163342E+03  0.00000000000E+00 0.  1.
          2    1    6    6  502    0  0.17499137227E+03  0.53061839135E+02 -0.84082398070E+03  0.86047806809E+03  0.00000000000E+00 0. -1.
          1    1    5    5  503    0 -0.43249448043E+03  0.70657139050E+02 -0.54258798224E+03  0.69745654013E+03  0.00000000000E+00 0. -1.
         -2    1    5    5    0  503 -0.16954825734E+03 -0.21915623635E+02 -0.20203422560E+03  0.26465965775E+03  0.00000000000E+00 0.  1.
         -1    1    6    6    0  502  0.20260199741E+02  0.18891891753E+02 -0.34086564197E+03  0.34198942256E+03  0.00000000000E+00 0.  1.
<mgrwt>
<rscale>  0 0.16614678E+04</rscale>
<asrwt>0</asrwt>
<pdfrwt beam="1">  1        2 0.35495345E+00 0.16614678E+04</pdfrwt>
<pdfrwt beam="2">  1       -2 0.46017788E-01 0.16614678E+04</pdfrwt>
<totfact> 0.19211340E+01</totfact>
</mgrwt>
</event>
<event>
12    1  0.1494110E-007  0.1275323E+04  0.7818608E-02  0.9049367E-01
         -2   -1    0    0    0  501 -0.00000000000E+00  0.00000000000E+00  0.88950921156E+02  0.88950921156E+02  0.00000000000E+00 0. -1.
          2   -1    0    0  501    0  0.00000000000E+00 -0.00000000000E+00 -0.45711934976E+04  0.45711934976E+04  0.00000000000E+00 0.  1.
         23    2    1    2    0    0 -0.18963196384E+03 -0.10782516174E+02 -0.20203913707E+04  0.20312977738E+04  0.90071141830E+02 0.  0.
        254    2    1    2    0    0  0.18963196384E+03  0.10782516174E+02 -0.24618512057E+04  0.26288466449E+04  0.90224540964E+03 0.  0.
        -24    2    4    4    0    0  0.47248467503E+03  0.14069127416E+03 -0.20214685087E+04  0.20821750310E+04  0.77987982759E+02 0.  0.
         24    2    4    4    0    0 -0.28285271119E+03 -0.12990875799E+03 -0.44038269703E+03  0.54667161393E+03  0.89615802170E+02 0.  0.
         11    1    3    3    0    0 -0.15245520185E+02  0.25052365113E+02 -0.42322457959E+03  0.42423942727E+03  0.00000000000E+00 0. -1.
        -11    1    3    3    0    0 -0.17438644365E+03 -0.35834881287E+02 -0.15971667912E+04  0.16070583465E+04  0.00000000000E+00 0.  1.
          4    1    6    6  502    0 -0.10831487024E+03 -0.41324182761E+02 -0.24013272952E+03  0.26665244604E+03  0.00000000000E+00 0. -1.
          3    1    5    5  503    0 -0.70877818374E+00  0.72352354647E+01 -0.37226579125E+02  0.37929792935E+02  0.00000000000E+00 0. -1.
         -4    1    5    5    0  503  0.47319345321E+03  0.13345603870E+03 -0.19842419296E+04  0.20442452381E+04  0.00000000000E+00 0.  1.
         -3    1    6    6    0  502 -0.17453784096E+03 -0.88584575225E+02 -0.20024996752E+03  0.28001916789E+03  0.00000000000E+00 0.  1.
<mgrwt>
<rscale>  0 0.12753225E+04</rscale>
<asrwt>0</asrwt>
<pdfrwt beam="1">  1        2 0.70326068E+00 0.12753225E+04</pdfrwt>
<pdfrwt beam="2">  1       -2 0.13684754E-01 0.12753225E+04</pdfrwt>
<totfact> 0.44391518E+00</totfact>
</mgrwt>
</event>
<event>
12    1  0.1494110E-007  0.1493434E+04  0.7818608E-02  0.8888831E-01
         -2   -1    0    0    0  501 -0.00000000000E+00  0.00000000000E+00  0.66452157246E+03  0.66452157246E+03  0.00000000000E+00 0. -1.
          2   -1    0    0  501    0  0.00000000000E+00 -0.00000000000E+00 -0.83907903635E+03  0.83907903635E+03  0.00000000000E+00 0.  1.
         23    2    1    2    0    0 -0.71875194671E+02 -0.38115322063E+03  0.20053409011E+03  0.44617745956E+03  0.91741936531E+02 0.  0.
        254    2    1    2    0    0  0.71875194671E+02  0.38115322063E+03 -0.37509155400E+03  0.10574231493E+04  0.90939882422E+03 0.  0.
        -24    2    4    4    0    0  0.36610456689E+03  0.40420720296E+03 -0.48374787373E+03  0.73338277993E+03  0.80139127363E+02 0.  0.
         24    2    4    4    0    0 -0.29422937222E+03 -0.23053982334E+02  0.10865631973E+03  0.32404036932E+03  0.78061229514E+02 0.  0.
         11    1    3    3    0    0  0.16695746959E+01 -0.73684644216E+02  0.37610800476E+01  0.73799457965E+02  0.00000000000E+00 0.  1.
        -11    1    3    3    0    0 -0.73544769367E+02 -0.30746857642E+03  0.19677301006E+03  0.37237800160E+03  0.00000000000E+00 0. -1.
          2    1    6    6  502    0 -0.12901809664E+03  0.14283195172E+02  0.15481739238E+02  0.13072629106E+03  0.00000000000E+00 0. -1.
          3    1    5    5  503    0  0.34945366031E+03  0.37893361825E+03 -0.42818923958E+03  0.67011534278E+03  0.00000000000E+00 0. -1.
         -4    1    5    5    0  503  0.16650906577E+02  0.25273584718E+02 -0.55558634152E+02  0.63267437147E+02  0.00000000000E+00 0.  1.
         -1    1    6    6    0  502 -0.16521127558E+03 -0.37337177506E+02  0.93174580493E+02  0.19331407826E+03  0.00000000000E+00 0.  1.
<mgrwt>
<rscale>  0 0.14934338E+04</rscale>
<asrwt>0</asrwt>
<pdfrwt beam="1">  1        2 0.12908908E+00 0.14934338E+04</pdfrwt>
<pdfrwt beam="2">  1       -2 0.10223409E+00 0.14934338E+04</pdfrwt>
<totfact> 0.24475272E+01</totfact>
</mgrwt>
</event>
<event>
12    1  0.1494110E-007  0.1122158E+04  0.7818608E-02  0.9183861E-01
          2   -1    0    0  501    0  0.00000000000E+00  0.00000000000E+00  0.11268186741E+04  0.11268186741E+04  0.00000000000E+00 0. -1.
         -2   -1    0    0    0  501 -0.00000000000E+00 -0.00000000000E+00 -0.27937898037E+03  0.27937898037E+03  0.00000000000E+00 0.  1.
         23    2    1    2    0    0 -0.64103728738E+02 -0.57249112920E+02  0.33971715923E+03  0.36201930126E+03  0.90903670150E+02 0.  0.
        254    2    1    2    0    0  0.64103728738E+02  0.57249112920E+02  0.50772253450E+03  0.10441783532E+04  0.90837190197E+03 0.  0.
        -24    2    4    4    0    0 -0.20324191979E+03  0.29422517344E+03 -0.58109494263E+02  0.37090877414E+03  0.79503929247E+02 0.  0.
         24    2    4    4    0    0  0.26734564853E+03 -0.23697606052E+03  0.56583202876E+03  0.67326957906E+03  0.74126191525E+02 0.  0.
         11    1    3    3    0    0  0.90128117572E+01 -0.33116470948E+02  0.40656966531E+02  0.53206393896E+02  0.00000000000E+00 0.  1.
        -11    1    3    3    0    0 -0.73116540496E+02 -0.24132641971E+02  0.29906019269E+03  0.30881290737E+03  0.00000000000E+00 0. -1.
          4    1    6    6  502    0  0.89495020494E+02 -0.50673830678E+02  0.11691751982E+03  0.15571416843E+03  0.00000000000E+00 0. -1.
          1    1    5    5  503    0 -0.11504884143E+03  0.98581466380E+02 -0.17753212152E+02  0.15254415089E+03  0.00000000000E+00 0. -1.
         -2    1    5    5    0  503 -0.88193078358E+02  0.19564370706E+03 -0.40356282111E+02  0.21836462325E+03  0.00000000000E+00 0.  1.
         -3    1    6    6    0  502  0.17785062803E+03 -0.18630222984E+03  0.44891450894E+03  0.51755541063E+03  0.00000000000E+00 0.  1.
<mgrwt>
<rscale>  0 0.11221577E+04</rscale>
<asrwt>0</asrwt>
<pdfrwt beam="1">  1        2 0.17335672E+00 0.11221577E+04</pdfrwt>
<pdfrwt beam="2">  1       -2 0.42981382E-01 0.11221577E+04</pdfrwt>
<totfact> 0.10666803E+02</totfact>
</mgrwt>
</event>
<event>
12    1  0.1882242E-007  0.1739705E+04  0.7818608E-02  0.8739037E-01
         -1   -1    0    0    0  501 -0.00000000000E+00  0.00000000000E+00  0.63911596891E+03  0.63911596891E+03  0.00000000000E+00 0.  1.
          1   -1    0    0  501    0  0.00000000000E+00 -0.00000000000E+00 -0.11838910768E+04  0.11838910768E+04  0.00000000000E+00 0. -1.
         23    2    1    2    0    0 -0.47261612565E+02 -0.34319876102E+03 -0.76456493038E+03  0.84472961656E+03  0.94813199145E+02 0.  0.
        254    2    1    2    0    0  0.47261612565E+02  0.34319876102E+03  0.21978982253E+03  0.97827742911E+03  0.88808789691E+03 0.  0.
        -24    2    4    4    0    0 -0.94658599795E+01 -0.76909573322E+02 -0.28951835007E+03  0.31071926334E+03  0.81981099083E+02 0.  0.
         24    2    4    4    0    0  0.56727472545E+02  0.42010833434E+03  0.50930817261E+03  0.66755816577E+03  0.80808856431E+02 0.  0.
         13    1    3    3    0    0 -0.14290502949E+02 -0.22975894867E+02 -0.13445434048E+03  0.13714984467E+03  0.00000000000E+00 0.  1.
        -13    1    3    3    0    0 -0.32971109616E+02 -0.32022286615E+03 -0.63011058991E+03  0.70757977189E+03  0.00000000000E+00 0. -1.
          2    1    6    6  502    0  0.67690149132E+02  0.37523391999E+03  0.47934163382E+03  0.61249559420E+03  0.00000000000E+00 0. -1.
          1    1    5    5  503    0 -0.24494642778E+02 -0.89679847955E+02 -0.24412291211E+03  0.26122492008E+03  0.00000000000E+00 0. -1.
         -2    1    5    5    0  503  0.15028782799E+02  0.12770274634E+02 -0.45395437966E+02  0.49494343260E+02  0.00000000000E+00 0.  1.
         -1    1    6    6    0  502 -0.10962676587E+02  0.44874414347E+02  0.29966538792E+02  0.55062571572E+02  0.00000000000E+00 0.  1.
<mgrwt>
<rscale>  0 0.17397054E+04</rscale>
<asrwt>0</asrwt>
<pdfrwt beam="1">  1        1 0.18213709E+00 0.17397054E+04</pdfrwt>
<pdfrwt beam="2">  1       -1 0.98325534E-01 0.17397054E+04</pdfrwt>
<totfact> 0.10317472E+01</totfact>
</mgrwt>
</event>
<event>
12    1  0.1494110E-007  0.1694669E+04  0.7818608E-02  0.8764411E-01
          1   -1    0    0  501    0  0.00000000000E+00  0.00000000000E+00  0.22468468792E+04  0.22468468792E+04  0.00000000000E+00 0. -1.
         -1   -1    0    0    0  501 -0.00000000000E+00 -0.00000000000E+00 -0.31954799113E+03  0.31954799113E+03  0.00000000000E+00 0.  1.
         23    2    1    2    0    0  0.49936159942E+03 -0.32968300902E+03  0.75436125107E+03  0.96706139559E+03  0.89966395439E+02 0.  0.
        254    2    1    2    0    0 -0.49936159942E+03  0.32968300902E+03  0.11729376370E+04  0.15993334747E+04  0.90776206671E+03 0.  0.
        -24    2    4    4    0    0  0.30386685868E+02 -0.19469390893E+03  0.60199102468E+01  0.21237301797E+03  0.78974619921E+02 0.  0.
         24    2    4    4    0    0 -0.52974828529E+03  0.52437691795E+03  0.11669177267E+04  0.13869604568E+04  0.79736627785E+02 0.  0.
         11    1    3    3    0    0  0.18520204400E+03 -0.11948398026E+03  0.21072467066E+03  0.30492803326E+03  0.00000000000E+00 0.  1.
        -11    1    3    3    0    0  0.31415955542E+03 -0.21019902876E+03  0.54363658041E+03  0.66213336233E+03  0.00000000000E+00 0. -1.
          4    1    6    6  502    0 -0.51373442308E+03  0.49931787984E+03  0.11422445837E+04  0.13483189873E+04  0.00000000000E+00 0. -1.
          3    1    5    5  503    0  0.29559131711E+02 -0.16214584925E+03 -0.25826143132E+02  0.16682927910E+03  0.00000000000E+00 0. -1.
         -4    1    5    5    0  503  0.82755415759E+00 -0.32548059684E+02  0.31846053379E+02  0.45543738876E+02  0.00000000000E+00 0.  1.
         -3    1    6    6    0  502 -0.16013862206E+02  0.25059038108E+02  0.24673143072E+02  0.38641469469E+02  0.00000000000E+00 0.  1.
<mgrwt>
<rscale>  0 0.16946686E+04</rscale>
<asrwt>0</asrwt>
<pdfrwt beam="1">  1        1 0.34566874E+00 0.16946686E+04</pdfrwt>
<pdfrwt beam="2">  1       -1 0.49161231E-01 0.16946686E+04</pdfrwt>
<totfact> 0.79930418E+00</totfact>
</mgrwt>
</event>
<event>
12    1  0.1494110E-007  0.1589772E+04  0.7818608E-02  0.8826856E-01
         -2   -1    0    0    0  501 -0.00000000000E+00  0.00000000000E+00  0.63842159213E+03  0.63842159213E+03  0.00000000000E+00 0.  1.
          2   -1    0    0  501    0  0.00000000000E+00 -0.00000000000E+00 -0.98969632062E+03  0.98969632062E+03  0.00000000000E+00 0. -1.
         23    2    1    2    0    0 -0.17181770751E+03  0.13242996961E+03  0.34479831782E+03  0.41746803441E+03  0.91294349862E+02 0.  0.
        254    2    1    2    0    0  0.17181770751E+03 -0.13242996961E+03 -0.69607304631E+03  0.12106498783E+04  0.96648663760E+03 0.  0.
        -24    2    4    4    0    0  0.29429201034E+03 -0.49703480547E+03 -0.31162887071E+03  0.66100181291E+03  0.78482217190E+02 0.  0.
         24    2    4    4    0    0 -0.12247430283E+03  0.36460483586E+03 -0.38444417561E+03  0.54964806543E+03  0.79868833030E+02 0.  0.
         11    1    3    3    0    0 -0.44422863631E+02  0.70051919929E+02  0.71331639266E+02  0.10940230829E+03  0.00000000000E+00 0. -1.
        -11    1    3    3    0    0 -0.12739484388E+03  0.62378049677E+02  0.27346667856E+03  0.30806572612E+03  0.00000000000E+00 0.  1.
          2    1    6    6  502    0 -0.79560390364E+01  0.82660874802E+02 -0.12323306547E+03  0.14860184119E+03  0.00000000000E+00 0. -1.
          3    1    5    5  503    0  0.93175345377E+01 -0.43037925537E+02 -0.73808688904E+01  0.44649263264E+02  0.00000000000E+00 0. -1.
         -4    1    5    5    0  503  0.28497447580E+03 -0.45399687993E+03 -0.30424800182E+03  0.61635254964E+03  0.00000000000E+00 0.  1.
         -1    1    6    6    0  502 -0.11451826379E+03  0.28194396106E+03 -0.26121111013E+03  0.40104622424E+03  0.00000000000E+00 0.  1.
<mgrwt>
<rscale>  0 0.15897717E+04</rscale>
<asrwt>0</asrwt>
<pdfrwt beam="1">  1        2 0.15226097E+00 0.15897717E+04</pdfrwt>
<pdfrwt beam="2">  1       -2 0.98218707E-01 0.15897717E+04</pdfrwt>
<totfact> 0.21159155E+01</totfact>
</mgrwt>
</event>
<event>
12    1  0.1494110E-007  0.1673232E+04  0.7818608E-02  0.8776780E-01
         -2   -1    0    0    0  501 -0.00000000000E+00  0.00000000000E+00  0.71905979713E+03  0.71905979713E+03  0.00000000000E+00 0.  1.
          2   -1    0    0  501    0  0.00000000000E+00 -0.00000000000E+00 -0.97339048840E+03  0.97339048840E+03  0.00000000000E+00 0. -1.
         23    2    1    2    0    0  0.18895512059E+03  0.15797676459E+03  0.45256046698E+03  0.52322006326E+03  0.91036051022E+02 0.  0.
        254    2    1    2    0    0 -0.18895512059E+03 -0.15797676459E+03 -0.70689115824E+03  0.11692302223E+04  0.89818901536E+03 0.  0.
        -24    2    4    4    0    0 -0.30068187743E+03  0.30638837273E+03 -0.41855590378E+03  0.60534316058E+03  0.83473774985E+02 0.  0.
         24    2    4    4    0    0  0.11172675684E+03 -0.46436513731E+03 -0.28833525446E+03  0.56388706169E+03  0.81936258322E+02 0.  0.
         13    1    3    3    0    0  0.48701070060E+02 -0.29483012141E+01  0.74440139372E+02  0.89004612548E+02  0.00000000000E+00 0. -1.
        -13    1    3    3    0    0  0.14025405053E+03  0.16092506580E+03  0.37812032760E+03  0.43421545071E+03  0.00000000000E+00 0.  1.
          2    1    6    6  502    0  0.13384800917E+02 -0.17096097347E+03 -0.13660450565E+03  0.21924324006E+03  0.00000000000E+00 0. -1.
          1    1    5    5  503    0 -0.26373982907E+03  0.26946564864E+03 -0.32318827113E+03  0.49660959700E+03  0.00000000000E+00 0. -1.
         -4    1    5    5    0  503 -0.36942048359E+02  0.36922724089E+02 -0.95367632652E+02  0.10873356358E+03  0.00000000000E+00 0.  1.
         -1    1    6    6    0  502  0.98341955926E+02 -0.29340416384E+03 -0.15173074881E+03  0.34464382163E+03  0.00000000000E+00 0.  1.
<mgrwt>
<rscale>  0 0.16732316E+04</rscale>
<asrwt>0</asrwt>
<pdfrwt beam="1">  1        2 0.14975238E+00 0.16732316E+04</pdfrwt>
<pdfrwt beam="2">  1       -2 0.11062459E+00 0.16732316E+04</pdfrwt>
<totfact> 0.16197209E+01</totfact>
</mgrwt>
</event>
<event>
12    1  0.1494110E-007  0.2254468E+04  0.7818608E-02  0.8496093E-01
         -2   -1    0    0    0  501 -0.00000000000E+00  0.00000000000E+00  0.13628617215E+04  0.13628617215E+04  0.00000000000E+00 0. -1.
          2   -1    0    0  501    0  0.00000000000E+00 -0.00000000000E+00 -0.93234418682E+03  0.93234418682E+03  0.00000000000E+00 0.  1.
         23    2    1    2    0    0  0.24650347401E+03  0.53022450334E+03  0.93559357960E+03  0.11070290832E+04  0.90972843893E+02 0.  0.
        254    2    1    2    0    0 -0.24650347401E+03 -0.53022450334E+03 -0.50507604487E+03  0.11881768251E+04  0.90264077573E+03 0.  0.
        -24    2    4    4    0    0  0.26838655890E+03  0.43215378311E+02 -0.46376523996E+02  0.28772201186E+03  0.82062538405E+02 0.  0.
         24    2    4    4    0    0 -0.51489003291E+03 -0.57343988165E+03 -0.45869952088E+03  0.90045481326E+03  0.80427460579E+02 0.  0.
         13    1    3    3    0    0  0.24362772714E+03  0.51734105628E+03  0.87694964460E+03  0.10469178177E+04  0.00000000000E+00 0. -1.
        -13    1    3    3    0    0  0.28757468692E+01  0.12883447058E+02  0.58643934996E+02  0.60111265500E+02  0.00000000000E+00 0.  1.
          2    1    6    6  502    0 -0.31899632722E+03 -0.31294912158E+03 -0.29746730140E+03  0.53682641969E+03  0.00000000000E+00 0. -1.
          3    1    5    5  503    0  0.22736413223E+03  0.65354509342E+02 -0.46547435701E+02  0.24110645841E+03  0.00000000000E+00 0. -1.
         -4    1    5    5    0  503  0.41022426670E+02 -0.22139131030E+02  0.17091170531E+00  0.46615553450E+02  0.00000000000E+00 0.  1.
         -1    1    6    6    0  502 -0.19589370569E+03 -0.26049076008E+03 -0.16123221948E+03  0.36362839357E+03  0.00000000000E+00 0.  1.
<mgrwt>
<rscale>  0 0.22544677E+04</rscale>
<asrwt>0</asrwt>
<pdfrwt beam="1">  1        2 0.14343757E+00 0.22544677E+04</pdfrwt>
<pdfrwt beam="2">  1       -2 0.20967104E+00 0.22544677E+04</pdfrwt>
<totfact> 0.29196393E+00</totfact>
</mgrwt>
</event>
<event>
12    1  0.1494110E-007  0.2030438E+04  0.7818608E-02  0.8592520E-01
         -2   -1    0    0    0  501 -0.00000000000E+00  0.00000000000E+00  0.79548496206E+03  0.79548496206E+03  0.00000000000E+00 0.  1.
          2   -1    0    0  501    0  0.00000000000E+00 -0.00000000000E+00 -0.12956499610E+04  0.12956499610E+04  0.00000000000E+00 0. -1.
         23    2    1    2    0    0  0.64680065195E+03  0.36952311677E+03 -0.53642987465E+03  0.92271048582E+03  0.93483758114E+02 0.  0.
        254    2    1    2    0    0 -0.64680065195E+03 -0.36952311677E+03  0.36264875761E+02  0.11684244372E+04  0.89944544417E+03 0.  0.
        -24    2    4    4    0    0 -0.14132714903E+03  0.96349914166E+02  0.35874589972E+03  0.40541193359E+03  0.80022161465E+02 0.  0.
         24    2    4    4    0    0 -0.50547350292E+03 -0.46587303094E+03 -0.32248102395E+03  0.76301250360E+03  0.75185947743E+02 0.  0.
         13    1    3    3    0    0  0.27669762321E+03  0.12965612940E+03 -0.17241822858E+03  0.35085656917E+03  0.00000000000E+00 0.  1.
        -13    1    3    3    0    0  0.37010302873E+03  0.23986698738E+03 -0.36401164608E+03  0.57185391665E+03  0.00000000000E+00 0. -1.
          2    1    6    6  502    0 -0.13606146132E+03 -0.11270393690E+03 -0.11850440013E+03  0.21273972713E+03  0.00000000000E+00 0. -1.
          1    1    5    5  503    0 -0.83358931051E+02  0.44222018891E+02  0.27618565531E+03  0.29186095069E+03  0.00000000000E+00 0. -1.
         -2    1    5    5    0  503 -0.57968217979E+02  0.52127895276E+02  0.82560244405E+02  0.11355098290E+03  0.00000000000E+00 0.  1.
         -1    1    6    6    0  502 -0.36941204160E+03 -0.35316909404E+03 -0.20397662382E+03  0.55027277647E+03  0.00000000000E+00 0.  1.
<mgrwt>
<rscale>  0 0.20304384E+04</rscale>
<asrwt>0</asrwt>
<pdfrwt beam="1">  1        2 0.19933076E+00 0.20304384E+04</pdfrwt>
<pdfrwt beam="2">  1       -2 0.12238230E+00 0.20304384E+04</pdfrwt>
<totfact> 0.77930389E+00</totfact>
</mgrwt>
</event>
<event>
12    1  0.1494110E-007  0.1864028E+04  0.7818608E-02  0.8672972E-01
         -2   -1    0    0    0  501 -0.00000000000E+00  0.00000000000E+00  0.37232790023E+03  0.37232790023E+03  0.00000000000E+00 0.  1.
          2   -1    0    0  501    0  0.00000000000E+00 -0.00000000000E+00 -0.23330252316E+04  0.23330252316E+04  0.00000000000E+00 0. -1.
         23    2    1    2    0    0 -0.22341093429E+03  0.63399497478E+03 -0.10949404171E+04  0.12884081664E+04  0.96119781655E+02 0.  0.
        254    2    1    2    0    0  0.22341093429E+03 -0.63399497478E+03 -0.86575691426E+03  0.14169449655E+04  0.89796209670E+03 0.  0.
        -24    2    4    4    0    0  0.58000323603E+01 -0.77941587202E+03 -0.82940008743E+03  0.11410796255E+04  0.81458361678E+02 0.  0.
         24    2    4    4    0    0  0.21761090193E+03  0.14542089724E+03 -0.36356826836E+02  0.27586534006E+03  0.79234619905E+02 0.  0.
         11    1    3    3    0    0 -0.37427193357E+02  0.37055796532E+02 -0.66596299684E+02  0.84905794801E+02  0.00000000000E+00 0.  1.
        -11    1    3    3    0    0 -0.18598374094E+03  0.59693917825E+03 -0.10283441175E+04  0.12035023716E+04  0.00000000000E+00 0. -1.
          2    1    6    6  502    0  0.18017615552E+03  0.15006940648E+03 -0.40345340699E+02  0.23793280626E+03  0.00000000000E+00 0. -1.
          1    1    5    5  503    0 -0.35956304999E+01 -0.73169816045E+03 -0.74882075032E+03  0.10469611467E+04  0.00000000000E+00 0. -1.
         -2    1    5    5    0  503  0.93956628602E+01 -0.47717711573E+02 -0.80579337109E+02  0.94118478777E+02  0.00000000000E+00 0.  1.
         -1    1    6    6    0  502  0.37434746418E+02 -0.46485092376E+01  0.39885138634E+01  0.37932533798E+02  0.00000000000E+00 0.  1.
<mgrwt>
<rscale>  0 0.18640283E+04</rscale>
<asrwt>0</asrwt>
<pdfrwt beam="1">  1        2 0.35892695E+00 0.18640283E+04</pdfrwt>
<pdfrwt beam="2">  1       -2 0.57281216E-01 0.18640283E+04</pdfrwt>
<totfact> 0.11651316E+01</totfact>
</mgrwt>
</event>
<event>
12    1  0.1786176E-007  0.1777950E+04  0.7818608E-02  0.8718114E-01
         -2   -1    0    0    0  501 -0.00000000000E+00  0.00000000000E+00  0.45757511169E+03  0.45757511169E+03  0.00000000000E+00 0.  1.
          2   -1    0    0  501    0  0.00000000000E+00 -0.00000000000E+00 -0.17270975945E+04  0.17270975945E+04  0.00000000000E+00 0. -1.
         23    2    1    2    0    0 -0.50910472060E+03 -0.41035737039E+03 -0.39180690822E+03  0.76739829913E+03  0.88355578285E+02 0.  0.
        254    2    1    2    0    0  0.50910472060E+03  0.41035737039E+03 -0.87771557464E+03  0.14172744071E+04  0.90038954186E+03 0.  0.
        -24    2    4    4    0    0 -0.17647542592E+03  0.30728597472E+03 -0.10993817817E+03  0.37968596029E+03  0.80664609404E+02 0.  0.
         24    2    4    4    0    0  0.68558014652E+03  0.10307139567E+03 -0.76777739646E+03  0.10375884468E+04  0.80397789198E+02 0.  0.
         11    1    3    3    0    0 -0.44337559229E+03 -0.36735779184E+03 -0.37481348720E+03  0.68703625323E+03  0.00000000000E+00 0.  1.
        -11    1    3    3    0    0 -0.65729128308E+02 -0.42999578549E+02 -0.16993421016E+02  0.80362045901E+02  0.00000000000E+00 0. -1.
          2    1    6    6  502    0  0.18306782126E+03  0.60580701840E+02 -0.19061774039E+03  0.27114382082E+03  0.00000000000E+00 0. -1.
          3    1    5    5  503    0 -0.16699977724E+02  0.86339582810E+01 -0.23557167768E+02  0.30139254218E+02  0.00000000000E+00 0. -1.
         -4    1    5    5    0  503 -0.15977544820E+03  0.29865201644E+03 -0.86381010407E+02  0.34954670608E+03  0.00000000000E+00 0.  1.
         -1    1    6    6    0  502  0.50251232527E+03  0.42490693827E+02 -0.57715965607E+03  0.76644462599E+03  0.00000000000E+00 0.  1.
<mgrwt>
<rscale>  0 0.17779504E+04</rscale>
<asrwt>0</asrwt>
<pdfrwt beam="1">  1        2 0.26570732E+00 0.17779504E+04</pdfrwt>
<pdfrwt beam="2">  1       -2 0.70396171E-01 0.17779504E+04</pdfrwt>
<totfact> 0.16446433E+01</totfact>
</mgrwt>
</event>
<event>
12    1  0.1494110E-007  0.1249333E+04  0.7818608E-02  0.9070739E-01
          1   -1    0    0  501    0  0.00000000000E+00  0.00000000000E+00  0.10399545765E+04  0.10399545765E+04  0.00000000000E+00 0. -1.
         -1   -1    0    0    0  501 -0.00000000000E+00 -0.00000000000E+00 -0.37521641847E+03  0.37521641847E+03  0.00000000000E+00 0.  1.
         23    2    1    2    0    0  0.22508923546E+02  0.26412096020E+03  0.30876580849E+02  0.28157473688E+03  0.89802204562E+02 0.  0.
        254    2    1    2    0    0 -0.22508923546E+02 -0.26412096020E+03  0.63386157719E+03  0.11335962581E+04  0.90166149084E+03 0.  0.
        -24    2    4    4    0    0 -0.17510210749E+03  0.27316882460E+03  0.40411483634E+03  0.52446226998E+03  0.80435793676E+02 0.  0.
         24    2    4    4    0    0  0.15259318394E+03 -0.53728978481E+03  0.22974674085E+03  0.60913398811E+03  0.79345181944E+02 0.  0.
         13    1    3    3    0    0  0.12943722276E+02 -0.82116219735E+00 -0.52849222303E+01  0.14005165358E+02  0.00000000000E+00 0.  1.
        -13    1    3    3    0    0  0.95652012694E+01  0.26494212240E+03  0.36161503080E+02  0.26756957152E+03  0.00000000000E+00 0. -1.
          2    1    6    6  502    0  0.14078457770E+03 -0.51686190691E+03  0.20151785943E+03  0.57234253363E+03  0.00000000000E+00 0. -1.
          1    1    5    5  503    0 -0.90843116944E+02  0.93230605411E+02  0.20740265545E+03  0.24486788105E+03  0.00000000000E+00 0. -1.
         -2    1    5    5    0  503 -0.84258990546E+02  0.17993821919E+03  0.19671218089E+03  0.27959438893E+03  0.00000000000E+00 0.  1.
         -1    1    6    6    0  502  0.11808606246E+02 -0.20427877898E+02  0.28228881416E+02  0.36791454482E+02  0.00000000000E+00 0.  1.
<mgrwt>
<rscale>  0 0.12493327E+04</rscale>
<asrwt>0</asrwt>
<pdfrwt beam="1">  1        1 0.15999301E+00 0.12493327E+04</pdfrwt>
<pdfrwt beam="2">  1       -1 0.57725603E-01 0.12493327E+04</pdfrwt>
<totfact> 0.42230159E+01</totfact>
</mgrwt>
</event>
<event>
12    1  0.1494110E-007  0.1721835E+04  0.7818608E-02  0.8749008E-01
         -2   -1    0    0    0  501 -0.00000000000E+00  0.00000000000E+00  0.28085613516E+04  0.28085613516E+04  0.00000000000E+00 0.  1.
          2   -1    0    0  501    0  0.00000000000E+00 -0.00000000000E+00 -0.26389994239E+03  0.26389994239E+03  0.00000000000E+00 0. -1.
         23    2    1    2    0    0  0.42789154377E+03  0.19577228154E+03  0.16526974166E+04  0.17208157951E+04  0.91543926176E+02 0.  0.
        254    2    1    2    0    0 -0.42789154377E+03 -0.19577228154E+03  0.89196399263E+03  0.13516454989E+04  0.89995990527E+03 0.  0.
        -24    2    4    4    0    0  0.13202002903E+03 -0.36317856766E+03  0.20034314877E+03  0.44260076704E+03  0.80187914644E+02 0.  0.
         24    2    4    4    0    0 -0.55991157280E+03  0.16740628612E+03  0.69162084386E+03  0.90904473186E+03  0.80604583405E+02 0.  0.
         11    1    3    3    0    0  0.34392373758E+03  0.19506245880E+03  0.13678682489E+04  0.14238667235E+04  0.00000000000E+00 0.  1.
        -11    1    3    3    0    0  0.83967806186E+02  0.70982274118E+00  0.28482916774E+03  0.29694907159E+03  0.00000000000E+00 0. -1.
          2    1    6    6  502    0 -0.35442345586E+02  0.23731187676E+02  0.79828551043E+02  0.90509263011E+02  0.00000000000E+00 0. -1.
          1    1    5    5  503    0  0.72020898523E+02 -0.12809170439E+03  0.41835312459E+02  0.15278968528E+03  0.00000000000E+00 0. -1.
         -2    1    5    5    0  503  0.59999130508E+02 -0.23508686326E+03  0.15850783631E+03  0.28981108176E+03  0.00000000000E+00 0.  1.
         -1    1    6    6    0  502 -0.52446922721E+03  0.14367509844E+03  0.61179229282E+03  0.81853546884E+03  0.00000000000E+00 0.  1.
<mgrwt>
<rscale>  0 0.17218353E+04</rscale>
<asrwt>0</asrwt>
<pdfrwt beam="1">  1        2 0.40599993E-01 0.17218353E+04</pdfrwt>
<pdfrwt beam="2">  1       -2 0.43208634E+00 0.17218353E+04</pdfrwt>
<totfact> 0.55186107E-01</totfact>
</mgrwt>
</event>
<event>
12    1  0.1494110E-007  0.1360209E+04  0.7818608E-02  0.8983136E-01
          2   -1    0    0  501    0  0.00000000000E+00  0.00000000000E+00  0.17745735841E+04  0.17745735841E+04  0.00000000000E+00 0. -1.
         -2   -1    0    0    0  501 -0.00000000000E+00 -0.00000000000E+00 -0.26064957976E+03  0.26064957976E+03  0.00000000000E+00 0.  1.
         23    2    1    2    0    0 -0.79120867095E+02 -0.27162025123E+03  0.60056283467E+02  0.30342473822E+03  0.91772229411E+02 0.  0.
        254    2    1    2    0    0  0.79120867095E+02  0.27162025123E+03  0.14538677209E+04  0.17317984257E+04  0.89741671748E+03 0.  0.
        -24    2    4    4    0    0  0.21804306786E+02  0.58029191990E+03  0.11323231682E+04  0.12753254546E+04  0.84173141172E+02 0.  0.
         24    2    4    4    0    0  0.57316560309E+02 -0.30867166867E+03  0.32154455267E+03  0.45647297110E+03  0.80082999861E+02 0.  0.
         13    1    3    3    0    0 -0.11456974518E+02 -0.37301514763E+02 -0.23577075259E+02  0.45591048973E+02  0.00000000000E+00 0.  1.
        -13    1    3    3    0    0 -0.67663892577E+02 -0.23431873647E+03  0.83633358726E+02  0.25783368925E+03  0.00000000000E+00 0. -1.
          2    1    6    6  502    0 -0.20558000401E+02 -0.66673980411E+02  0.70765935534E+02  0.99377405260E+02  0.00000000000E+00 0. -1.
          1    1    5    5  503    0  0.29339608673E+02  0.63857589924E+02  0.13744657201E+03  0.15437021923E+03  0.00000000000E+00 0. -1.
         -2    1    5    5    0  503 -0.75353018863E+01  0.51643432998E+03  0.99487659624E+03  0.11209552354E+04  0.00000000000E+00 0.  1.
         -1    1    6    6    0  502  0.77874560710E+02 -0.24199768826E+03  0.25077861714E+03  0.35709556584E+03  0.00000000000E+00 0.  1.
<mgrwt>
<rscale>  0 0.13602086E+04</rscale>
<asrwt>0</asrwt>
<pdfrwt beam="1">  1        2 0.27301131E+00 0.13602086E+04</pdfrwt>
<pdfrwt beam="2">  1       -2 0.40099936E-01 0.13602086E+04</pdfrwt>
<totfact> 0.51206828E+01</totfact>
</mgrwt>
</event>
<event>
12    1  0.1494110E-007  0.1925505E+04  0.7818608E-02  0.8642264E-01
         -1   -1    0    0    0  501 -0.00000000000E+00  0.00000000000E+00  0.33727903953E+03  0.33727903953E+03  0.00000000000E+00 0.  1.
          1   -1    0    0  501    0  0.00000000000E+00 -0.00000000000E+00 -0.27481474104E+04  0.27481474104E+04  0.00000000000E+00 0. -1.
         23    2    1    2    0    0  0.27171728593E+03  0.49764138553E+03 -0.15714149280E+03  0.59641275009E+03  0.97660061665E+02 0.  0.
        254    2    1    2    0    0 -0.27171728593E+03 -0.49764138553E+03 -0.22537268781E+04  0.24890136999E+04  0.89130641479E+03 0.  0.
        -24    2    4    4    0    0  0.10123867486E+03  0.56072037686E+02 -0.13774744818E+04  0.13846364757E+04  0.79930463226E+02 0.  0.
         24    2    4    4    0    0 -0.37295596079E+03 -0.55371342322E+03 -0.87625239626E+03  0.11043772242E+04  0.78333183547E+02 0.  0.
         11    1    3    3    0    0  0.13409279428E+03  0.30416588085E+03 -0.50861360501E+02  0.33628059496E+03  0.00000000000E+00 0.  1.
        -11    1    3    3    0    0  0.13762449165E+03  0.19347550468E+03 -0.10628013230E+03  0.26013215514E+03  0.00000000000E+00 0. -1.
          2    1    6    6  502    0 -0.81574028879E+02 -0.96346674105E+02 -0.21350516792E+03  0.24803520018E+03  0.00000000000E+00 0. -1.
          3    1    5    5  503    0  0.44933358233E+02 -0.17080259324E+02 -0.51296715935E+03  0.51521456551E+03  0.00000000000E+00 0. -1.
         -4    1    5    5    0  503  0.56305316628E+02  0.73152297010E+02 -0.86450732248E+03  0.86942191015E+03  0.00000000000E+00 0.  1.
         -1    1    6    6    0  502 -0.29138193192E+03 -0.45736674911E+03 -0.66274722835E+03  0.85634202403E+03  0.00000000000E+00 0.  1.
<mgrwt>
<rscale>  0 0.19255051E+04</rscale>
<asrwt>0</asrwt>
<pdfrwt beam="1">  1        1 0.42279190E+00 0.19255051E+04</pdfrwt>
<pdfrwt beam="2">  1       -1 0.51889084E-01 0.19255051E+04</pdfrwt>
<totfact> 0.31712892E+00</totfact>
</mgrwt>
</event>
<event>
12    1  0.1494110E-007  0.1345693E+04  0.7818608E-02  0.8994095E-01
          2   -1    0    0  501    0  0.00000000000E+00  0.00000000000E+00  0.13712270730E+04  0.13712270730E+04  0.00000000000E+00 0. -1.
         -2   -1    0    0    0  501 -0.00000000000E+00 -0.00000000000E+00 -0.33015882706E+03  0.33015882706E+03  0.00000000000E+00 0.  1.
         23    2    1    2    0    0  0.26324221417E+02  0.10261814578E+03 -0.15050867246E+03  0.20538916794E+03  0.91150432497E+02 0.  0.
        254    2    1    2    0    0 -0.26324221417E+02 -0.10261814578E+03  0.11915769184E+04  0.14959967322E+04  0.89829127881E+03 0.  0.
        -24    2    4    4    0    0  0.17630748426E+03  0.57087524192E+02  0.12094001229E+04  0.12260058851E+04  0.78092628381E+02 0.  0.
         24    2    4    4    0    0 -0.20263170568E+03 -0.15970566997E+03 -0.17823204484E+02  0.26999084703E+03  0.77536325010E+02 0.  0.
         13    1    3    3    0    0  0.54900780230E+02  0.94607647267E+02 -0.10955706325E+03  0.15481425225E+03  0.00000000000E+00 0.  1.
        -13    1    3    3    0    0 -0.28576558814E+02  0.80104985096E+01 -0.40951609210E+02  0.50574915688E+02  0.00000000000E+00 0. -1.
          2    1    6    6  502    0 -0.20218323408E+03 -0.15278645935E+03 -0.30792872574E+02  0.25528408353E+03  0.00000000000E+00 0. -1.
          3    1    5    5  503    0  0.16431876743E+03  0.44004993401E+02  0.11754775688E+04  0.11877224471E+04  0.00000000000E+00 0. -1.
         -4    1    5    5    0  503  0.11988716837E+02  0.13082530791E+02  0.33922554166E+02  0.38283437991E+02  0.00000000000E+00 0.  1.
         -1    1    6    6    0  502 -0.44847160420E+00 -0.69192106191E+01  0.12969668090E+02  0.14706763503E+02  0.00000000000E+00 0.  1.
<mgrwt>
<rscale>  0 0.13456935E+04</rscale>
<asrwt>0</asrwt>
<pdfrwt beam="1">  1        2 0.21095801E+00 0.13456935E+04</pdfrwt>
<pdfrwt beam="2">  1       -2 0.50793667E-01 0.13456935E+04</pdfrwt>
<totfact> 0.53804725E+01</totfact>
</mgrwt>
</event>
<event>
12    1  0.1494110E-007  0.3453227E+04  0.7818608E-02  0.8124965E-01
         -2   -1    0    0    0  501 -0.00000000000E+00  0.00000000000E+00  0.26597863839E+04  0.26597863839E+04  0.00000000000E+00 0. -1.
          2   -1    0    0  501    0  0.00000000000E+00 -0.00000000000E+00 -0.11208397345E+04  0.11208397345E+04  0.00000000000E+00 0.  1.
         23    2    1    2    0    0  0.14086930221E+03 -0.90678554102E+02  0.24700453881E+04  0.24782526256E+04  0.11200489447E+03 0.  0.
        254    2    1    2    0    0 -0.14086930221E+03  0.90678554102E+02 -0.93109873881E+03  0.13023734928E+04  0.89507826076E+03 0.  0.
        -24    2    4    4    0    0 -0.44216289398E+03 -0.16049211794E+03 -0.32947181912E+03  0.57996788487E+03  0.80903171478E+02 0.  0.
         24    2    4    4    0    0  0.30129359177E+03  0.25117067204E+03 -0.60162691970E+03  0.72240560795E+03  0.77784169048E+02 0.  0.
         11    1    3    3    0    0  0.64229176027E+02  0.61078098243E+01  0.47096434667E+03  0.47536313301E+03  0.00000000000E+00 0.  1.
        -11    1    3    3    0    0  0.76640126185E+02 -0.96786363926E+02  0.19990810415E+04  0.20028894926E+04  0.00000000000E+00 0. -1.
          2    1    6    6  502    0  0.25902437312E+03  0.21374158650E+03 -0.45678944005E+03  0.56695298236E+03  0.00000000000E+00 0. -1.
          3    1    5    5  503    0 -0.42183821070E+03 -0.14939167720E+03 -0.28712156417E+03  0.53169929644E+03  0.00000000000E+00 0. -1.
         -4    1    5    5    0  503 -0.20324683281E+02 -0.11100440739E+02 -0.42350254946E+02  0.48268588430E+02  0.00000000000E+00 0.  1.
         -1    1    6    6    0  502  0.42269218643E+02  0.37429085537E+02 -0.14483747965E+03  0.15545262558E+03  0.00000000000E+00 0.  1.
<mgrwt>
<rscale>  0 0.34532270E+04</rscale>
<asrwt>0</asrwt>
<pdfrwt beam="1">  1        2 0.17243688E+00 0.34532270E+04</pdfrwt>
<pdfrwt beam="2">  1       -2 0.40919790E+00 0.34532270E+04</pdfrwt>
<totfact> 0.11259769E-01</totfact>
</mgrwt>
</event>
<event>
12    1  0.1494110E-007  0.2277858E+04  0.7818608E-02  0.8486703E-01
         -2   -1    0    0    0  501 -0.00000000000E+00  0.00000000000E+00  0.14215383031E+04  0.14215383031E+04  0.00000000000E+00 0.  1.
          2   -1    0    0  501    0  0.00000000000E+00 -0.00000000000E+00 -0.91250369331E+03  0.91250369331E+03  0.00000000000E+00 0. -1.
         23    2    1    2    0    0 -0.52825449616E+02  0.30883867509E+03  0.10584782774E+04  0.11075285890E+04  0.89841283807E+02 0.  0.
        254    2    1    2    0    0  0.52825449616E+02 -0.30883867509E+03 -0.54944366770E+03  0.12265134074E+04  0.10508448692E+04 0.  0.
        -24    2    4    4    0    0 -0.24909700746E+03  0.29321322812E+03 -0.78214285797E+02  0.40081163088E+03  0.80679443957E+02 0.  0.
         24    2    4    4    0    0  0.30192245707E+03 -0.60205190321E+03 -0.47122938190E+03  0.82570177649E+03  0.78119325985E+02 0.  0.
         11    1    3    3    0    0  0.13482940027E+02  0.84387024710E+02  0.19518497864E+03  0.21307307549E+03  0.00000000000E+00 0. -1.
        -11    1    3    3    0    0 -0.66308389643E+02  0.22445165038E+03  0.86329329880E+03  0.89445551351E+03  0.00000000000E+00 0.  1.
          2    1    6    6  502    0  0.14620762024E+03 -0.26038576573E+03 -0.16497210191E+03  0.34116449057E+03  0.00000000000E+00 0. -1.
          3    1    5    5  503    0 -0.22541185386E+03  0.27130328032E+03 -0.93791225617E+02  0.36498324315E+03  0.00000000000E+00 0. -1.
         -4    1    5    5    0  503 -0.23685153597E+02  0.21909947792E+02  0.15576939821E+02  0.35828387730E+02  0.00000000000E+00 0.  1.
         -1    1    6    6    0  502  0.15571483683E+03 -0.34166613748E+03 -0.30625727999E+03  0.48453728593E+03  0.00000000000E+00 0.  1.
<mgrwt>
<rscale>  0 0.22778577E+04</rscale>
<asrwt>0</asrwt>
<pdfrwt beam="1">  1        2 0.14038518E+00 0.22778577E+04</pdfrwt>
<pdfrwt beam="2">  1       -2 0.21869820E+00 0.22778577E+04</pdfrwt>
<totfact> 0.26302418E+00</totfact>
</mgrwt>
</event>
<event>
12    1  0.1494110E-007  0.9947246E+03  0.7818608E-02  0.9314350E-01
         -1   -1    0    0    0  501 -0.00000000000E+00  0.00000000000E+00  0.16112987098E+03  0.16112987098E+03  0.00000000000E+00 0.  1.
          1   -1    0    0  501    0  0.00000000000E+00 -0.00000000000E+00 -0.15352165969E+04  0.15352165969E+04  0.00000000000E+00 0. -1.
         23    2    1    2    0    0 -0.16114762921E+03  0.42799185876E+02 -0.27766824823E+03  0.33638200756E+03  0.90845309320E+02 0.  0.
        254    2    1    2    0    0  0.16114762921E+03 -0.42799185876E+02 -0.10964184777E+04  0.13599644603E+04  0.78712738892E+03 0.  0.
        -24    2    4    4    0    0 -0.30517885091E+03 -0.81376851191E+02 -0.52303775307E+03  0.61600685833E+03  0.78355825639E+02 0.  0.
         24    2    4    4    0    0  0.46632648012E+03  0.38577665314E+02 -0.57338072460E+03  0.74395760197E+03  0.75886994063E+02 0.  0.
         11    1    3    3    0    0 -0.60672642219E+02  0.30979705923E+02 -0.42290232154E+02  0.80183386238E+02  0.00000000000E+00 0.  1.
        -11    1    3    3    0    0 -0.10047498699E+03  0.11819479954E+02 -0.23537801608E+03  0.25619862133E+03  0.00000000000E+00 0. -1.
          4    1    6    6  502    0  0.26778713936E+03 -0.84855182960E+01 -0.29074420404E+03  0.39536584098E+03  0.00000000000E+00 0. -1.
          3    1    5    5  503    0 -0.20287710603E+03 -0.16935589481E+02 -0.30529535989E+03  0.36694848564E+03  0.00000000000E+00 0. -1.
         -4    1    5    5    0  503 -0.10230174488E+03 -0.64441261710E+02 -0.21774239318E+03  0.24905837268E+03  0.00000000000E+00 0.  1.
         -3    1    6    6    0  502  0.19853934076E+03  0.47063183610E+02 -0.28263652055E+03  0.34859176099E+03  0.00000000000E+00 0.  1.
<mgrwt>
<rscale>  0 0.99472459E+03</rscale>
<asrwt>0</asrwt>
<pdfrwt beam="1">  1        1 0.23618717E+00 0.99472459E+03</pdfrwt>
<pdfrwt beam="2">  1       -1 0.24789211E-01 0.99472459E+03</pdfrwt>
<totfact> 0.88172784E+01</totfact>
</mgrwt>
</event>
<event>
12    1  0.1494110E-007  0.1447967E+04  0.7818608E-02  0.8919811E-01
          2   -1    0    0  501    0  0.00000000000E+00  0.00000000000E+00  0.21375519617E+04  0.21375519617E+04  0.00000000000E+00 0.  1.
         -2   -1    0    0    0  501 -0.00000000000E+00 -0.00000000000E+00 -0.24521128523E+03  0.24521128523E+03  0.00000000000E+00 0. -1.
         23    2    1    2    0    0  0.31594135274E+03 -0.18034886606E+03  0.17082871481E+03  0.41278838286E+03  0.94165531683E+02 0.  0.
        254    2    1    2    0    0 -0.31594135274E+03  0.18034886606E+03  0.17215119617E+04  0.19699748641E+04  0.88591922832E+03 0.  0.
        -24    2    4    4    0    0  0.64702751049E+02 -0.31186703224E+03  0.53060209745E+03  0.62396569514E+03  0.79668758591E+02 0.  0.
         24    2    4    4    0    0 -0.38064410379E+03  0.49221589831E+03  0.11909098642E+04  0.13460091690E+04  0.79422628423E+02 0.  0.
         11    1    3    3    0    0  0.11551172405E+03 -0.70386723489E+02  0.11478664607E+03  0.17740694280E+03  0.00000000000E+00 0. -1.
        -11    1    3    3    0    0  0.20042962869E+03 -0.10996214257E+03  0.56042068741E+02  0.23538144006E+03  0.00000000000E+00 0.  1.
          2    1    6    6  502    0 -0.35706857572E+03  0.42203600659E+03  0.10655459190E+04  0.12004167877E+04  0.00000000000E+00 0. -1.
          1    1    5    5  503    0  0.64680623421E+02 -0.27916218305E+03  0.41861215063E+03  0.50729797964E+03  0.00000000000E+00 0. -1.
         -2    1    5    5    0  503  0.22127628171E-01 -0.32704849190E+02  0.11198994682E+03  0.11666771549E+03  0.00000000000E+00 0.  1.
         -1    1    6    6    0  502 -0.23575528073E+02  0.70179891722E+02  0.12536394520E+03  0.14559238127E+03  0.00000000000E+00 0.  1.
<mgrwt>
<rscale>  0 0.14479667E+04</rscale>
<asrwt>0</asrwt>
<pdfrwt beam="1">  1        2 0.32885414E+00 0.14479667E+04</pdfrwt>
<pdfrwt beam="2">  1       -2 0.37724814E-01 0.14479667E+04</pdfrwt>
<totfact> 0.36035589E+01</totfact>
</mgrwt>
</event>
<event>
12    1  0.1494110E-007  0.1343230E+04  0.7818608E-02  0.8995969E-01
          2   -1    0    0  501    0  0.00000000000E+00  0.00000000000E+00  0.71655494779E+03  0.71655494779E+03  0.00000000000E+00 0. -1.
         -2   -1    0    0    0  501 -0.00000000000E+00 -0.00000000000E+00 -0.62949348040E+03  0.62949348040E+03  0.00000000000E+00 0.  1.
         23    2    1    2    0    0  0.42697987014E+02 -0.19043167901E+02 -0.33178153427E+03  0.34725620138E+03  0.91225668430E+02 0.  0.
        254    2    1    2    0    0 -0.42697987014E+02  0.19043167901E+02  0.41884300165E+03  0.99879222681E+03  0.90552233101E+03 0.  0.
        -24    2    4    4    0    0 -0.28134663980E+03  0.36336810335E+03  0.12699883954E+03  0.48260057186E+03  0.74714767291E+02 0.  0.
         24    2    4    4    0    0  0.23864865278E+03 -0.34432493545E+03  0.29184416211E+03  0.51619165495E+03  0.75947146326E+02 0.  0.
         11    1    3    3    0    0 -0.24515378300E+02 -0.14840285542E+02 -0.50886130549E+02  0.58400651798E+02  0.00000000000E+00 0. -1.
        -11    1    3    3    0    0  0.67213365314E+02 -0.42028823598E+01 -0.28089540372E+03  0.28885554958E+03  0.00000000000E+00 0.  1.
          4    1    6    6  502    0  0.21591872540E+03 -0.33978283063E+03  0.27668146866E+03  0.48849350361E+03  0.00000000000E+00 0. -1.
          3    1    5    5  503    0 -0.16397618722E+03  0.22836737980E+03  0.40999644074E+02  0.28411409846E+03  0.00000000000E+00 0. -1.
         -4    1    5    5    0  503 -0.11737045258E+03  0.13500072355E+03  0.85999195471E+02  0.19848647339E+03  0.00000000000E+00 0.  1.
         -3    1    6    6    0  502  0.22729927381E+02 -0.45421048194E+01  0.15162693448E+02  0.27698151338E+02  0.00000000000E+00 0.  1.
<mgrwt>
<rscale>  0 0.13432299E+04</rscale>
<asrwt>0</asrwt>
<pdfrwt beam="1">  1        2 0.11023922E+00 0.13432299E+04</pdfrwt>
<pdfrwt beam="2">  1       -2 0.96845151E-01 0.13432299E+04</pdfrwt>
<totfact> 0.34635873E+01</totfact>
</mgrwt>
</event>
<event>
12    1  0.1494110E-007  0.2247981E+04  0.7818608E-02  0.8498719E-01
         -2   -1    0    0    0  501 -0.00000000000E+00  0.00000000000E+00  0.55504624146E+03  0.55504624146E+03  0.00000000000E+00 0. -1.
          2   -1    0    0  501    0  0.00000000000E+00 -0.00000000000E+00 -0.22761251731E+04  0.22761251731E+04  0.00000000000E+00 0.  1.
         23    2    1    2    0    0  0.41670632772E+02 -0.80653177224E+03 -0.11581915433E+04  0.14149388324E+04  0.91729532335E+02 0.  0.
        254    2    1    2    0    0 -0.41670632772E+02  0.80653177224E+03 -0.56288738834E+03  0.14162325822E+04  0.10181564583E+04 0.  0.
        -24    2    4    4    0    0 -0.50183305466E+03  0.50729150037E+03 -0.17326724497E+03  0.73859028282E+03  0.79454305076E+02 0.  0.
         24    2    4    4    0    0  0.46016242189E+03  0.29924027187E+03 -0.38962014337E+03  0.67764229937E+03  0.78109122122E+02 0.  0.
         13    1    3    3    0    0  0.53580004482E+02 -0.79273292637E+03 -0.11303388679E+04  0.13816520060E+04  0.00000000000E+00 0.  1.
        -13    1    3    3    0    0 -0.11909371710E+02 -0.13798845875E+02 -0.27852675469E+02  0.33286826415E+02  0.00000000000E+00 0. -1.
          4    1    6    6  502    0  0.19492621636E+03  0.16965946052E+03 -0.16357428884E+03  0.30583837290E+03  0.00000000000E+00 0. -1.
          1    1    5    5  503    0 -0.19358269397E+02  0.12503471280E+02 -0.20453334277E+02  0.30812631682E+02  0.00000000000E+00 0. -1.
         -2    1    5    5    0  503 -0.48247478526E+03  0.49478802909E+03 -0.15281391069E+03  0.70777765114E+03  0.00000000000E+00 0.  1.
         -3    1    6    6    0  502  0.26523620553E+03  0.12958081135E+03 -0.22604585453E+03  0.37180392648E+03  0.00000000000E+00 0.  1.
<mgrwt>
<rscale>  0 0.22479811E+04</rscale>
<asrwt>0</asrwt>
<pdfrwt beam="1">  1        2 0.35017310E+00 0.22479811E+04</pdfrwt>
<pdfrwt beam="2">  1       -2 0.85391731E-01 0.22479811E+04</pdfrwt>
<totfact> 0.50768664E+00</totfact>
</mgrwt>
</event>
<event>
12    1  0.1494110E-007  0.1284860E+04  0.7818608E-02  0.9041658E-01
         -1   -1    0    0    0  501 -0.00000000000E+00  0.00000000000E+00  0.47030376849E+03  0.47030376849E+03  0.00000000000E+00 0.  1.
          1   -1    0    0  501    0  0.00000000000E+00 -0.00000000000E+00 -0.87755218070E+03  0.87755218070E+03  0.00000000000E+00 0. -1.
         23    2    1    2    0    0  0.36956342800E+01  0.28126227663E+03 -0.24792490668E+03  0.38581629244E+03  0.90913839388E+02 0.  0.
        254    2    1    2    0    0 -0.36956342800E+01 -0.28126227663E+03 -0.15932350553E+03  0.96203965674E+03  0.90609833670E+03 0.  0.
        -24    2    4    4    0    0 -0.10048487504E+03 -0.40912155029E+03  0.26303624101E+03  0.50264365786E+03  0.77362327258E+02 0.  0.
         24    2    4    4    0    0  0.96789240761E+02  0.12785927366E+03 -0.42235974654E+03  0.45939599889E+03  0.83311327631E+02 0.  0.
         13    1    3    3    0    0  0.37526268031E+02  0.19730518425E+03 -0.13930517981E+03  0.24442481389E+03  0.00000000000E+00 0. -1.
        -13    1    3    3    0    0 -0.33830633751E+02  0.83957092386E+02 -0.10861972687E+03  0.14139147855E+03  0.00000000000E+00 0.  1.
          2    1    6    6  502    0  0.17121992534E+02  0.91591541304E+02 -0.21776400256E+03  0.23686142336E+03  0.00000000000E+00 0. -1.
          3    1    5    5  503    0 -0.57997313192E+02 -0.35032110951E+03  0.20740582269E+03  0.41122468724E+03  0.00000000000E+00 0. -1.
         -4    1    5    5    0  503 -0.42487561849E+02 -0.58800440779E+02  0.55630418312E+02  0.91418970620E+02  0.00000000000E+00 0.  1.
         -1    1    6    6    0  502  0.79667248227E+02  0.36267732353E+02 -0.20459574398E+03  0.22253457553E+03  0.00000000000E+00 0.  1.
<mgrwt>
<rscale>  0 0.12848597E+04</rscale>
<asrwt>0</asrwt>
<pdfrwt beam="1">  1        1 0.13500803E+00 0.12848597E+04</pdfrwt>
<pdfrwt beam="2">  1       -1 0.72354427E-01 0.12848597E+04</pdfrwt>
<totfact> 0.36004605E+01</totfact>
</mgrwt>
</event>
<event>
12    1  0.1494110E-007  0.2107558E+04  0.7818608E-02  0.8557922E-01
         -1   -1    0    0    0  501 -0.00000000000E+00  0.00000000000E+00  0.40010274265E+03  0.40010274265E+03  0.00000000000E+00 0.  1.
          1   -1    0    0  501    0  0.00000000000E+00 -0.00000000000E+00 -0.27754113044E+04  0.27754113044E+04  0.00000000000E+00 0. -1.
         23    2    1    2    0    0 -0.51908216339E+03 -0.48660556081E+03 -0.23822389088E+03  0.75701032489E+03  0.10041287585E+03 0.  0.
        254    2    1    2    0    0  0.51908216339E+03  0.48660556081E+03 -0.21370846708E+04  0.24185037221E+04  0.88079401648E+03 0.  0.
        -24    2    4    4    0    0  0.63698197206E+03  0.41973294038E+03 -0.94820753990E+03  0.12193224577E+04  0.75683175724E+02 0.  0.
         24    2    4    4    0    0 -0.11789980867E+03  0.66872620430E+02 -0.11888771309E+04  0.11991812644E+04  0.78959231938E+02 0.  0.
         11    1    3    3    0    0 -0.15405391621E+03 -0.99151475639E+02 -0.91805439048E+02  0.20491916177E+03  0.00000000000E+00 0. -1.
        -11    1    3    3    0    0 -0.36502824718E+03 -0.38745408518E+03 -0.14641845183E+03  0.55209116312E+03  0.00000000000E+00 0.  1.
          4    1    6    6  502    0 -0.22152776998E+02  0.33569762227E+02 -0.62290271923E+03  0.62419986550E+03  0.00000000000E+00 0. -1.
          1    1    5    5  503    0  0.53439505472E+03  0.38349323630E+03 -0.81011786706E+03  0.10435210086E+04  0.00000000000E+00 0. -1.
         -2    1    5    5    0  503  0.10258691735E+03  0.36239704088E+02 -0.13808967284E+03  0.17580144911E+03  0.00000000000E+00 0.  1.
         -3    1    6    6    0  502 -0.95747031675E+02  0.33302858203E+02 -0.56597441169E+03  0.57498139894E+03  0.00000000000E+00 0.  1.
<mgrwt>
<rscale>  0 0.21075575E+04</rscale>
<asrwt>0</asrwt>
<pdfrwt beam="1">  1        1 0.42698637E+00 0.21075575E+04</pdfrwt>
<pdfrwt beam="2">  1       -1 0.61554266E-01 0.21075575E+04</pdfrwt>
<totfact> 0.21363492E+00</totfact>
</mgrwt>
</event>
<event>
12    1  0.1494110E-007  0.1985188E+04  0.7818608E-02  0.8613577E-01
          1   -1    0    0  501    0  0.00000000000E+00  0.00000000000E+00  0.29937433788E+04  0.29937433788E+04  0.00000000000E+00 0. -1.
         -1   -1    0    0    0  501 -0.00000000000E+00 -0.00000000000E+00 -0.32910048558E+03  0.32910048558E+03  0.00000000000E+00 0.  1.
         23    2    1    2    0    0  0.11498230348E+02  0.66354731068E+03  0.36673160463E+03  0.76350019799E+03  0.89516700556E+02 0.  0.
        254    2    1    2    0    0 -0.11498230348E+02 -0.66354731068E+03  0.22979112886E+04  0.25593436664E+04  0.91072304773E+03 0.  0.
        -24    2    4    4    0    0  0.19433559014E+03  0.16637027740E+03  0.55087319796E+03  0.61259163402E+03  0.79761137470E+02 0.  0.
         24    2    4    4    0    0 -0.20583382049E+03 -0.82991758807E+03  0.17470380906E+04  0.19467520323E+04  0.81059365684E+02 0.  0.
         13    1    3    3    0    0 -0.10959108168E+02  0.96285035658E+02  0.88678739495E+02  0.13135763770E+03  0.00000000000E+00 0. -1.
        -13    1    3    3    0    0  0.22457338516E+02  0.56726227502E+03  0.27805286514E+03  0.63214256029E+03  0.00000000000E+00 0.  1.
          2    1    6    6  502    0 -0.18056029991E+03 -0.78641546633E+03  0.16124015089E+04  0.18030224439E+04  0.00000000000E+00 0. -1.
          1    1    5    5  503    0  0.12371330399E+03  0.14306173720E+03  0.44175252459E+03  0.48053817249E+03  0.00000000000E+00 0. -1.
         -2    1    5    5    0  503  0.70622286153E+02  0.23308540193E+02  0.10912067337E+03  0.13205346153E+03  0.00000000000E+00 0.  1.
         -1    1    6    6    0  502 -0.25273520573E+02 -0.43502121745E+02  0.13463658174E+03  0.14372958840E+03  0.00000000000E+00 0.  1.
<mgrwt>
<rscale>  0 0.19851875E+04</rscale>
<asrwt>0</asrwt>
<pdfrwt beam="1">  1        1 0.46057589E+00 0.19851875E+04</pdfrwt>
<pdfrwt beam="2">  1       -1 0.50630846E-01 0.19851875E+04</pdfrwt>
<totfact> 0.22031075E+00</totfact>
</mgrwt>
</event>
<event>
12    1  0.1494110E-007  0.1983479E+04  0.7818608E-02  0.8614384E-01
         -2   -1    0    0    0  501 -0.00000000000E+00  0.00000000000E+00  0.45869598818E+03  0.45869598818E+03  0.00000000000E+00 0. -1.
          2   -1    0    0  501    0  0.00000000000E+00 -0.00000000000E+00 -0.21442250210E+04  0.21442250210E+04  0.00000000000E+00 0.  1.
         23    2    1    2    0    0  0.92568239972E+02 -0.64520673818E+03 -0.99957981256E+02  0.66589110153E+03  0.92513496458E+02 0.  0.
        254    2    1    2    0    0 -0.92568239972E+02  0.64520673818E+03 -0.15855710515E+04  0.19370299076E+04  0.90176975416E+03 0.  0.
        -24    2    4    4    0    0 -0.45877892373E+03  0.15372775500E+03 -0.77392360499E+03  0.91678522565E+03  0.86180508788E+02 0.  0.
         24    2    4    4    0    0  0.36621068376E+03  0.49147898319E+03 -0.81164744656E+03  0.10202446820E+04  0.80410060367E+02 0.  0.
         13    1    3    3    0    0  0.44087984134E+02 -0.54743799163E+03 -0.84516414483E+02  0.55567538126E+03  0.00000000000E+00 0. -1.
        -13    1    3    3    0    0  0.48480255838E+02 -0.97768746551E+02 -0.15441566773E+02  0.11021572026E+03  0.00000000000E+00 0.  1.
          4    1    6    6  502    0  0.64361236730E+02  0.64129207630E+02 -0.16582564435E+03  0.18908481797E+03  0.00000000000E+00 0. -1.
          1    1    5    5  503    0 -0.19349430104E+03  0.28362253603E+02 -0.26516633210E+03  0.32948087296E+03  0.00000000000E+00 0. -1.
         -2    1    5    5    0  503 -0.26528462269E+03  0.12536550139E+03 -0.50875727289E+03  0.58730435269E+03  0.00000000000E+00 0.  1.
         -3    1    6    6    0  502  0.30184944703E+03  0.42734977556E+03 -0.64582180221E+03  0.83115986401E+03  0.00000000000E+00 0.  1.
<mgrwt>
<rscale>  0 0.19834792E+04</rscale>
<asrwt>0</asrwt>
<pdfrwt beam="1">  1        2 0.32988077E+00 0.19834792E+04</pdfrwt>
<pdfrwt beam="2">  1       -2 0.70568614E-01 0.19834792E+04</pdfrwt>
<totfact> 0.94297146E+00</totfact>
</mgrwt>
</event>
<event>
12    1  0.1494110E-007  0.2760361E+04  0.7818608E-02  0.8315681E-01
         -2   -1    0    0    0  501 -0.00000000000E+00  0.00000000000E+00  0.40485117647E+03  0.40485117647E+03  0.00000000000E+00 0. -1.
          2   -1    0    0  501    0  0.00000000000E+00 -0.00000000000E+00 -0.47051805988E+04  0.47051805988E+04  0.00000000000E+00 0.  1.
         23    2    1    2    0    0 -0.20837126305E+03  0.20486542753E+03  0.29132472577E+03  0.42256168597E+03  0.91103545167E+02 0.  0.
        254    2    1    2    0    0  0.20837126305E+03 -0.20486542753E+03 -0.45916541481E+04  0.46874700893E+04  0.89649294235E+03 0.  0.
        -24    2    4    4    0    0 -0.69240762027E+02 -0.35328688482E+02 -0.40438740334E+04  0.40454124037E+04  0.80011988537E+02 0.  0.
         24    2    4    4    0    0  0.27761202508E+03 -0.16953673905E+03 -0.54778011469E+03  0.64205768563E+03  0.79773900966E+02 0.  0.
         11    1    3    3    0    0 -0.68597818602E+01  0.92692440932E+01 -0.64821107200E+01  0.13228501526E+02  0.00000000000E+00 0.  1.
        -11    1    3    3    0    0 -0.20151148119E+03  0.19559618343E+03  0.29780683649E+03  0.40933318444E+03  0.00000000000E+00 0. -1.
          2    1    6    6  502    0  0.53941929856E+02 -0.63257626514E+02 -0.18494857810E+03  0.20277385347E+03  0.00000000000E+00 0. -1.
          1    1    5    5  503    0 -0.15906658516E+01  0.21118284716E+02 -0.50878453377E+03  0.50922511129E+03  0.00000000000E+00 0. -1.
         -2    1    5    5    0  503 -0.67650096176E+02 -0.56446973198E+02 -0.35350894997E+04  0.35361872924E+04  0.00000000000E+00 0.  1.
         -1    1    6    6    0  502  0.22367009522E+03 -0.10627911253E+03 -0.36283153659E+03  0.43928383217E+03  0.00000000000E+00 0.  1.
<mgrwt>
<rscale>  0 0.27603608E+04</rscale>
<asrwt>0</asrwt>
<pdfrwt beam="1">  1        2 0.72387386E+00 0.27603608E+04</pdfrwt>
<pdfrwt beam="2">  1       -2 0.62284803E-01 0.27603608E+04</pdfrwt>
<totfact> 0.15862278E-01</totfact>
</mgrwt>
</event>
<event>
12    1  0.1494110E-007  0.2042051E+04  0.7818608E-02  0.8587209E-01
         -2   -1    0    0    0  501 -0.00000000000E+00  0.00000000000E+00  0.80182267384E+03  0.80182267384E+03  0.00000000000E+00 0.  1.
          2   -1    0    0  501    0  0.00000000000E+00 -0.00000000000E+00 -0.13001545633E+04  0.13001545633E+04  0.00000000000E+00 0. -1.
         23    2    1    2    0    0 -0.29363713334E+03 -0.54085646664E+03 -0.76001468488E+03  0.98227421247E+03  0.92151091534E+02 0.  0.
        254    2    1    2    0    0  0.29363713334E+03  0.54085646664E+03  0.26168279544E+03  0.11197030246E+04  0.89805817985E+03 0.  0.
        -24    2    4    4    0    0 -0.14312639708E+03 -0.15851821130E+03  0.17412615622E+03  0.28666175674E+03  0.79005415281E+02 0.  0.
         24    2    4    4    0    0  0.43676353043E+03  0.69937467793E+03  0.87556639219E+02  0.83304126791E+03  0.80026666291E+02 0.  0.
         11    1    3    3    0    0 -0.61506459300E+02 -0.52396508816E+02 -0.83992369664E+02  0.11654680104E+03  0.00000000000E+00 0.  1.
        -11    1    3    3    0    0 -0.23213067404E+03 -0.48845995782E+03 -0.67602231522E+03  0.86572741143E+03  0.00000000000E+00 0. -1.
          2    1    6    6  502    0  0.16332276423E+03  0.19326562091E+03  0.33821376481E+02  0.25528378532E+03  0.00000000000E+00 0. -1.
          1    1    5    5  503    0 -0.10545822249E+03 -0.67407278634E+02  0.12349625594E+03  0.17583089358E+03  0.00000000000E+00 0. -1.
         -2    1    5    5    0  503 -0.37668174590E+02 -0.91110932665E+02  0.50629900277E+02  0.11083086317E+03  0.00000000000E+00 0.  1.
         -1    1    6    6    0  502  0.27344076619E+03  0.50610905702E+03  0.53735262738E+02  0.57775748258E+03  0.00000000000E+00 0.  1.
<mgrwt>
<rscale>  0 0.20420513E+04</rscale>
<asrwt>0</asrwt>
<pdfrwt beam="1">  1        2 0.20002378E+00 0.20420513E+04</pdfrwt>
<pdfrwt beam="2">  1       -2 0.12335733E+00 0.20420513E+04</pdfrwt>
<totfact> 0.75865304E+00</totfact>
</mgrwt>
</event>
<event>
12    1  0.1494110E-007  0.2403642E+04  0.7818608E-02  0.8438141E-01
         -2   -1    0    0    0  501 -0.00000000000E+00  0.00000000000E+00  0.16363050152E+04  0.16363050152E+04  0.00000000000E+00 0.  1.
          2   -1    0    0  501    0  0.00000000000E+00 -0.00000000000E+00 -0.88270436374E+03  0.88270436374E+03  0.00000000000E+00 0. -1.
         23    2    1    2    0    0 -0.24058678410E+02 -0.80414523631E+03  0.99642764430E+03  0.12839385776E+04  0.91661549116E+02 0.  0.
        254    2    1    2    0    0  0.24058678410E+02  0.80414523631E+03 -0.24282699284E+03  0.12350708014E+04  0.90510030096E+03 0.  0.
        -24    2    4    4    0    0  0.37393073698E+03  0.86008871239E+02 -0.17493624199E+03  0.42921050189E+03  0.79982774313E+02 0.  0.
         24    2    4    4    0    0 -0.34987205857E+03  0.71813636507E+03 -0.67890750852E+02  0.80586029946E+03  0.81678467085E+02 0.  0.
         13    1    3    3    0    0 -0.79972471049E+01 -0.30030244000E+03  0.30337051628E+03  0.42694166063E+03  0.00000000000E+00 0. -1.
        -13    1    3    3    0    0 -0.16061431305E+02 -0.50384279632E+03  0.69305712801E+03  0.85699691695E+03  0.00000000000E+00 0.  1.
          2    1    6    6  502    0 -0.33404007870E+03  0.63130946552E+03 -0.51486669393E+02  0.71609028240E+03  0.00000000000E+00 0. -1.
          3    1    5    5  503    0  0.28998157805E+03  0.99005381531E+02 -0.12722098878E+03  0.33177787926E+03  0.00000000000E+00 0. -1.
         -4    1    5    5    0  503  0.83949158929E+02 -0.12996510292E+02 -0.47715253215E+02  0.97432622638E+02  0.00000000000E+00 0.  1.
         -1    1    6    6    0  502 -0.15831979863E+02  0.86826899558E+02 -0.16404081460E+02  0.89770017053E+02  0.00000000000E+00 0.  1.
<mgrwt>
<rscale>  0 0.24036419E+04</rscale>
<asrwt>0</asrwt>
<pdfrwt beam="1">  1        2 0.13580067E+00 0.24036419E+04</pdfrwt>
<pdfrwt beam="2">  1       -2 0.25173923E+00 0.24036419E+04</pdfrwt>
<totfact> 0.16978519E+00</totfact>
</mgrwt>
</event>
<event>
12    1  0.1494110E-007  0.2055284E+04  0.7818608E-02  0.8581201E-01
          1   -1    0    0  501    0  0.00000000000E+00  0.00000000000E+00  0.23671857629E+04  0.23671857629E+04  0.00000000000E+00 0. -1.
         -1   -1    0    0    0  501 -0.00000000000E+00 -0.00000000000E+00 -0.44611972497E+03  0.44611972497E+03  0.00000000000E+00 0.  1.
         23    2    1    2    0    0 -0.53240331586E+03 -0.61169427471E+03  0.99728386781E+03  0.12886778161E+04  0.92153265464E+02 0.  0.
        254    2    1    2    0    0  0.53240331586E+03  0.61169427471E+03  0.92378217016E+03  0.15246276718E+04  0.90193839214E+03 0.  0.
        -24    2    4    4    0    0  0.21239576577E+03 -0.16268817753E+03  0.52211135298E+03  0.59157586436E+03  0.76041659357E+02 0.  0.
         24    2    4    4    0    0  0.32000755009E+03  0.77438245224E+03  0.40167081717E+03  0.93305180742E+03  0.84694837561E+02 0.  0.
         11    1    3    3    0    0 -0.23701248724E+03 -0.32466393581E+03  0.54105281188E+03  0.67403244400E+03  0.00000000000E+00 0.  1.
        -11    1    3    3    0    0 -0.29539082862E+03 -0.28703033890E+03  0.45623105594E+03  0.61464537213E+03  0.00000000000E+00 0. -1.
          2    1    6    6  502    0  0.28747137767E+03  0.61231208388E+03  0.31085394907E+03  0.74444345567E+03  0.00000000000E+00 0. -1.
          3    1    5    5  503    0 -0.54755524666E+01 -0.11746552059E+02  0.20738101546E+02  0.24454693124E+02  0.00000000000E+00 0. -1.
         -4    1    5    5    0  503  0.21787131824E+03 -0.15094162547E+03  0.50137325144E+03  0.56712117124E+03  0.00000000000E+00 0.  1.
         -1    1    6    6    0  502  0.32536172421E+02  0.16207036836E+03  0.90816868103E+02  0.18860835174E+03  0.00000000000E+00 0.  1.
<mgrwt>
<rscale>  0 0.20552842E+04</rscale>
<asrwt>0</asrwt>
<pdfrwt beam="1">  1        1 0.36418242E+00 0.20552842E+04</pdfrwt>
<pdfrwt beam="2">  1       -1 0.68633805E-01 0.20552842E+04</pdfrwt>
<totfact> 0.33200339E+00</totfact>
</mgrwt>
</event>
<event>
12    1  0.1857244E-007  0.1925602E+04  0.7818608E-02  0.8642216E-01
         -1   -1    0    0    0  501 -0.00000000000E+00  0.00000000000E+00  0.80669174394E+03  0.80669174394E+03  0.00000000000E+00 0.  1.
          1   -1    0    0  501    0  0.00000000000E+00 -0.00000000000E+00 -0.11491207792E+04  0.11491207792E+04  0.00000000000E+00 0. -1.
         23    2    1    2    0    0 -0.61303531788E+03  0.13896692560E+03  0.29764801628E+03  0.70149608982E+03  0.91533136411E+02 0.  0.
        254    2    1    2    0    0  0.61303531788E+03 -0.13896692560E+03 -0.64007705153E+03  0.12543164333E+04  0.87663388916E+03 0.  0.
        -24    2    4    4    0    0  0.49526902339E+03  0.11856083639E+03  0.36120226962E+02  0.51691846844E+03  0.80944145926E+02 0.  0.
         24    2    4    4    0    0  0.11776629448E+03 -0.25752776199E+03 -0.67619727849E+03  0.73739796488E+03  0.79520757375E+02 0.  0.
         11    1    3    3    0    0 -0.20792843890E+02  0.24573672769E+01  0.31917543316E+02  0.38172117864E+02  0.00000000000E+00 0. -1.
        -11    1    3    3    0    0 -0.59224247399E+03  0.13650955833E+03  0.26573047296E+03  0.66332397195E+03  0.00000000000E+00 0.  1.
          4    1    6    6  502    0 -0.93084863244E+01 -0.51136796474E+01 -0.15381462637E+02  0.18691897444E+02  0.00000000000E+00 0. -1.
          1    1    5    5  503    0  0.22189625398E+03  0.25918305016E+02 -0.14477256616E+02  0.22387339508E+03  0.00000000000E+00 0. -1.
         -2    1    5    5    0  503  0.27337276941E+03  0.92642531374E+02  0.50597483578E+02  0.29304507335E+03  0.00000000000E+00 0.  1.
         -3    1    6    6    0  502  0.12707478081E+03 -0.25241408235E+03 -0.66081581586E+03  0.71870606744E+03  0.00000000000E+00 0.  1.
<mgrwt>
<rscale>  0 0.19256025E+04</rscale>
<asrwt>0</asrwt>
<pdfrwt beam="1">  1        1 0.17678781E+00 0.19256025E+04</pdfrwt>
<pdfrwt beam="2">  1       -1 0.12410642E+00 0.19256025E+04</pdfrwt>
<totfact> 0.61968966E+00</totfact>
</mgrwt>
</event>
<event>
12    1  0.1494110E-007  0.1195566E+04  0.7818608E-02  0.9116746E-01
         -2   -1    0    0    0  501 -0.00000000000E+00  0.00000000000E+00  0.28564960541E+03  0.28564960541E+03  0.00000000000E+00 0. -1.
          2   -1    0    0  501    0  0.00000000000E+00 -0.00000000000E+00 -0.12509895596E+04  0.12509895596E+04  0.00000000000E+00 0.  1.
         23    2    1    2    0    0  0.74404268986E+02 -0.21786317851E+03 -0.39292007691E+03  0.46408836075E+03  0.89394966028E+02 0.  0.
        254    2    1    2    0    0 -0.74404268986E+02  0.21786317851E+03 -0.57241987727E+03  0.10725508042E+04  0.87732568182E+03 0.  0.
        -24    2    4    4    0    0  0.12549885748E+03  0.49754988735E+03 -0.19228738969E+03  0.55383887432E+03  0.80356734902E+02 0.  0.
         24    2    4    4    0    0 -0.19990312647E+03 -0.27968670883E+03 -0.38013248758E+03  0.51871192992E+03  0.79846371575E+02 0.  0.
         13    1    3    3    0    0  0.66635848179E+02 -0.20610334776E+03 -0.39434878256E+03  0.44992209162E+03  0.00000000000E+00 0.  1.
        -13    1    3    3    0    0  0.77684208074E+01 -0.11759830757E+02  0.14287056529E+01  0.14166269132E+02  0.00000000000E+00 0. -1.
          2    1    6    6  502    0 -0.79970823675E+02 -0.93477051465E+02 -0.84207574131E+02  0.14907785661E+03  0.00000000000E+00 0. -1.
          3    1    5    5  503    0  0.85516574005E+02  0.18541665015E+03 -0.87773216970E+02  0.22225336038E+03  0.00000000000E+00 0. -1.
         -4    1    5    5    0  503  0.39982283480E+02  0.31213323720E+03 -0.10451417272E+03  0.33158551394E+03  0.00000000000E+00 0.  1.
         -1    1    6    6    0  502 -0.11993230280E+03 -0.18620965737E+03 -0.29592491345E+03  0.36963407331E+03  0.00000000000E+00 0.  1.
<mgrwt>
<rscale>  0 0.11955663E+04</rscale>
<asrwt>0</asrwt>
<pdfrwt beam="1">  1        2 0.19245993E+00 0.11955663E+04</pdfrwt>
<pdfrwt beam="2">  1       -2 0.43946094E-01 0.11955663E+04</pdfrwt>
<totfact> 0.85566178E+01</totfact>
</mgrwt>
</event>
<event>
12    1  0.1494110E-007  0.1438138E+04  0.7818608E-02  0.8926665E-01
         -2   -1    0    0    0  501 -0.00000000000E+00  0.00000000000E+00  0.71137330056E+03  0.71137330056E+03  0.00000000000E+00 0.  1.
          2   -1    0    0  501    0  0.00000000000E+00 -0.00000000000E+00 -0.72684845597E+03  0.72684845597E+03  0.00000000000E+00 0. -1.
         23    2    1    2    0    0  0.39581207997E+03 -0.22412582887E+02  0.16642991471E+03  0.44408588234E+03  0.11110278061E+03 0.  0.
        254    2    1    2    0    0 -0.39581207997E+03  0.22412582887E+02 -0.18190507012E+03  0.99413587420E+03  0.89333485061E+03 0.  0.
        -24    2    4    4    0    0 -0.25663287916E+02  0.14668254394E+03  0.31475058656E+03  0.35724982284E+03  0.79907015569E+02 0.  0.
         24    2    4    4    0    0 -0.37014879206E+03 -0.12426996105E+03 -0.49665565668E+03  0.63688605136E+03  0.80646448273E+02 0.  0.
         13    1    3    3    0    0  0.27860314738E+02 -0.25630845298E+02  0.39829633945E+02  0.54950314905E+02  0.00000000000E+00 0. -1.
        -13    1    3    3    0    0  0.36795176523E+03  0.32182624112E+01  0.12660028076E+03  0.38913556743E+03  0.00000000000E+00 0.  1.
          4    1    6    6  502    0 -0.31539317913E+03 -0.13308815532E+03 -0.41166311634E+03  0.53539876343E+03  0.00000000000E+00 0. -1.
          1    1    5    5  503    0  0.76842054139E+01  0.12673988173E+03  0.26726641917E+03  0.29589420989E+03  0.00000000000E+00 0. -1.
         -2    1    5    5    0  503 -0.33347493330E+02  0.19942662214E+02  0.47484167396E+02  0.61355612953E+02  0.00000000000E+00 0.  1.
         -3    1    6    6    0  502 -0.54755612926E+02  0.88181942669E+01 -0.84992540339E+02  0.10148728792E+03  0.00000000000E+00 0.  1.
<mgrwt>
<rscale>  0 0.14381385E+04</rscale>
<asrwt>0</asrwt>
<pdfrwt beam="1">  1        2 0.11182284E+00 0.14381385E+04</pdfrwt>
<pdfrwt beam="2">  1       -2 0.10944205E+00 0.14381385E+04</pdfrwt>
<totfact> 0.25213948E+01</totfact>
</mgrwt>
</event>
<event>
12    1  0.1494110E-007  0.2005200E+04  0.7818608E-02  0.8604193E-01
         -1   -1    0    0    0  501 -0.00000000000E+00  0.00000000000E+00  0.11169883456E+04  0.11169883456E+04  0.00000000000E+00 0.  1.
          1   -1    0    0  501    0  0.00000000000E+00 -0.00000000000E+00 -0.89992572740E+03  0.89992572740E+03  0.00000000000E+00 0. -1.
         23    2    1    2    0    0 -0.33310202090E+03  0.60113899602E+03 -0.30964155987E+03  0.75958705058E+03  0.93645837827E+02 0.  0.
        254    2    1    2    0    0  0.33310202090E+03 -0.60113899602E+03  0.52670417805E+03  0.12573270224E+04  0.91166271240E+03 0.  0.
        -24    2    4    4    0    0  0.22449676044E+03 -0.70814216261E+03  0.49908463552E+02  0.74966834312E+03  0.87450854849E+02 0.  0.
         24    2    4    4    0    0  0.10860526046E+03  0.10700316659E+03  0.47679571450E+03  0.50765867927E+03  0.84489058578E+02 0.  0.
         11    1    3    3    0    0 -0.27252454374E+03  0.47890604348E+03 -0.20601283067E+03  0.58827027107E+03  0.00000000000E+00 0. -1.
        -11    1    3    3    0    0 -0.60577477157E+02  0.12223295254E+03 -0.10362872920E+03  0.17131677951E+03  0.00000000000E+00 0.  1.
          2    1    6    6  502    0  0.22684512136E+02  0.20001153398E+02  0.23900448511E+02  0.38546915145E+02  0.00000000000E+00 0. -1.
          1    1    5    5  503    0  0.24299444319E+02 -0.69605637944E+02  0.31658440302E+02  0.80235058860E+02  0.00000000000E+00 0. -1.
         -2    1    5    5    0  503  0.20019731613E+03 -0.63853652467E+03  0.18250023250E+02  0.66943328426E+03  0.00000000000E+00 0.  1.
         -1    1    6    6    0  502  0.85920748320E+02  0.87002013191E+02  0.45289526599E+03  0.46911176413E+03  0.00000000000E+00 0.  1.
<mgrwt>
<rscale>  0 0.20051998E+04</rscale>
<asrwt>0</asrwt>
<pdfrwt beam="1">  1        1 0.13845011E+00 0.20051998E+04</pdfrwt>
<pdfrwt beam="2">  1       -1 0.17184436E+00 0.20051998E+04</pdfrwt>
<totfact> 0.40248414E+00</totfact>
</mgrwt>
</event>
<event>
12    1  0.1494110E-007  0.1836212E+04  0.7818608E-02  0.8687276E-01
         -2   -1    0    0    0  501 -0.00000000000E+00  0.00000000000E+00  0.30506707997E+03  0.30506707997E+03  0.00000000000E+00 0.  1.
          2   -1    0    0  501    0  0.00000000000E+00 -0.00000000000E+00 -0.27630597795E+04  0.27630597795E+04  0.00000000000E+00 0. -1.
         23    2    1    2    0    0 -0.10026921468E+03 -0.19279243082E+03 -0.20435626425E+04  0.20573018820E+04  0.95498289654E+02 0.  0.
        254    2    1    2    0    0  0.10026921468E+03  0.19279243082E+03 -0.41443005710E+03  0.10108249775E+04  0.89598662160E+03 0.  0.
        -24    2    4    4    0    0  0.27847161949E+01 -0.29243188844E+03  0.72661770651E+02  0.31188411390E+03  0.80422655801E+02 0.  0.
         24    2    4    4    0    0  0.97484498481E+02  0.48522431927E+03 -0.48709182775E+03  0.69894086358E+03  0.79460774445E+02 0.  0.
         13    1    3    3    0    0 -0.11151053880E+03 -0.14833947845E+03 -0.14234092951E+04  0.14354557542E+04  0.00000000000E+00 0. -1.
        -13    1    3    3    0    0  0.11241324124E+02 -0.44452952369E+02 -0.62015334740E+03  0.62184612778E+03  0.00000000000E+00 0.  1.
          4    1    6    6  502    0  0.28898991077E+02  0.29133184997E+03 -0.32215093071E+03  0.43530520402E+03  0.00000000000E+00 0. -1.
          3    1    5    5  503    0  0.32731621439E+02 -0.18375462637E+03  0.69328806131E+02  0.19910701925E+03  0.00000000000E+00 0. -1.
         -4    1    5    5    0  503 -0.29946905244E+02 -0.10867726208E+03  0.33329645199E+01  0.11277709465E+03  0.00000000000E+00 0.  1.
         -3    1    6    6    0  502  0.68585507404E+02  0.19389246930E+03 -0.16494089704E+03  0.26363565956E+03  0.00000000000E+00 0.  1.
<mgrwt>
<rscale>  0 0.18362119E+04</rscale>
<asrwt>0</asrwt>
<pdfrwt beam="1">  1        2 0.42508611E+00 0.18362119E+04</pdfrwt>
<pdfrwt beam="2">  1       -2 0.46933398E-01 0.18362119E+04</pdfrwt>
<totfact> 0.98823468E+00</totfact>
</mgrwt>
</event>
<event>
12    1  0.1494110E-007  0.1496537E+04  0.7818608E-02  0.8886759E-01
         -1   -1    0    0    0  501 -0.00000000000E+00  0.00000000000E+00  0.35550087433E+03  0.35550087433E+03  0.00000000000E+00 0.  1.
          1   -1    0    0  501    0  0.00000000000E+00 -0.00000000000E+00 -0.15749775566E+04  0.15749775566E+04  0.00000000000E+00 0. -1.
         23    2    1    2    0    0  0.81774549256E+02 -0.44014291285E+03 -0.29139782476E+03  0.53969063359E+03  0.77074166038E+02 0.  0.
        254    2    1    2    0    0 -0.81774549256E+02  0.44014291285E+03 -0.92807885750E+03  0.13907877973E+04  0.93410249482E+03 0.  0.
        -24    2    4    4    0    0  0.36057299344E+03  0.32774359542E+02 -0.13938427386E+03  0.39592829125E+03  0.79020211164E+02 0.  0.
         24    2    4    4    0    0 -0.44234754270E+03  0.40736855331E+03 -0.78869458364E+03  0.99485950608E+03  0.78011562144E+02 0.  0.
         11    1    3    3    0    0  0.10229185141E+01 -0.17920844904E+01 -0.15172631105E+02  0.15312304326E+02  0.00000000000E+00 0. -1.
        -11    1    3    3    0    0  0.80751630742E+02 -0.43835082836E+03 -0.27622519366E+03  0.52437832927E+03  0.00000000000E+00 0.  1.
          2    1    6    6  502    0 -0.17498320203E+02  0.15588330581E+02 -0.10852892322E+02  0.25825811352E+02  0.00000000000E+00 0. -1.
          3    1    5    5  503    0  0.31247749375E+02 -0.17117677879E+02 -0.21881916715E+01  0.35696287199E+02  0.00000000000E+00 0. -1.
         -4    1    5    5    0  503  0.32932524406E+03  0.49892037421E+02 -0.13719608219E+03  0.36023200405E+03  0.00000000000E+00 0.  1.
         -1    1    6    6    0  502 -0.42484922249E+03  0.39178022273E+03 -0.77784169131E+03  0.96903369473E+03  0.00000000000E+00 0.  1.
<mgrwt>
<rscale>  0 0.14965372E+04</rscale>
<asrwt>0</asrwt>
<pdfrwt beam="1">  1        1 0.24230424E+00 0.14965372E+04</pdfrwt>
<pdfrwt beam="2">  1       -1 0.54692442E-01 0.14965372E+04</pdfrwt>
<totfact> 0.18974415E+01</totfact>
</mgrwt>
</event>
<event>
12    1  0.2117006E-007  0.2562254E+04  0.7818608E-02  0.8381137E-01
         -2   -1    0    0    0  501 -0.00000000000E+00  0.00000000000E+00  0.90414054871E+03  0.90414054871E+03  0.00000000000E+00 0.  1.
          2   -1    0    0  501    0  0.00000000000E+00 -0.00000000000E+00 -0.18152998196E+04  0.18152998196E+04  0.00000000000E+00 0. -1.
         23    2    1    2    0    0  0.73020098858E+03  0.85030305451E+03 -0.37916752927E+03  0.11899235020E+04  0.12625829542E+03 0.  0.
        254    2    1    2    0    0 -0.73020098858E+03 -0.85030305451E+03 -0.53199174160E+03  0.15295168663E+04  0.89453779286E+03 0.  0.
        -24    2    4    4    0    0  0.10409215810E+03 -0.27179621254E+03 -0.40233854844E+03  0.50289830304E+03  0.79511238927E+02 0.  0.
         24    2    4    4    0    0 -0.83429314668E+03 -0.57850684197E+03 -0.12965319316E+03  0.10266185632E+04  0.80128041703E+02 0.  0.
         11    1    3    3    0    0  0.42847338556E+01  0.37380437163E+02 -0.18556022396E+02  0.41952139324E+02  0.00000000000E+00 0. -1.
        -11    1    3    3    0    0  0.72591625472E+03  0.81292261734E+03 -0.36061150688E+03  0.11479713627E+04  0.00000000000E+00 0.  1.
          2    1    6    6  502    0 -0.77411420724E+02 -0.83698095612E+02 -0.95682408876E+01  0.11440913644E+03  0.00000000000E+00 0. -1.
          1    1    5    5  503    0  0.12065265029E+02 -0.20678985560E+02 -0.82865559655E+02  0.86254808799E+02  0.00000000000E+00 0. -1.
         -2    1    5    5    0  503  0.92026893070E+02 -0.25111722698E+03 -0.31947298879E+03  0.41664349424E+03  0.00000000000E+00 0.  1.
         -1    1    6    6    0  502 -0.75688172595E+03 -0.49480874636E+03 -0.12008495227E+03  0.91220942679E+03  0.00000000000E+00 0.  1.
<mgrwt>
<rscale>  0 0.25622538E+04</rscale>
<asrwt>0</asrwt>
<pdfrwt beam="1">  1        2 0.27927690E+00 0.25622538E+04</pdfrwt>
<pdfrwt beam="2">  1       -2 0.13909855E+00 0.25622538E+04</pdfrwt>
<totfact> 0.27426337E+00</totfact>
</mgrwt>
</event>
<event>
12    1  0.1494110E-007  0.1586222E+04  0.7818608E-02  0.8829058E-01
          1   -1    0    0  501    0  0.00000000000E+00  0.00000000000E+00  0.71773891705E+03  0.71773891705E+03  0.00000000000E+00 0. -1.
         -1   -1    0    0    0  501 -0.00000000000E+00 -0.00000000000E+00 -0.87639780504E+03  0.87639780504E+03  0.00000000000E+00 0.  1.
         23    2    1    2    0    0  0.17661946942E+02 -0.45262661631E+03 -0.34037635494E+03  0.57371065608E+03  0.90028083020E+02 0.  0.
        254    2    1    2    0    0 -0.17661946942E+02  0.45262661631E+03  0.18171746695E+03  0.10204260660E+04  0.89613911879E+03 0.  0.
        -24    2    4    4    0    0 -0.43142729420E+03  0.33591596833E+03  0.18653657044E+03  0.58322519085E+03  0.79916726494E+02 0.  0.
         24    2    4    4    0    0  0.41376534726E+03  0.11671064798E+03 -0.48191034898E+01  0.43720087515E+03  0.79361473863E+02 0.  0.
         13    1    3    3    0    0  0.14562108669E+02 -0.42983226241E+03 -0.34360158999E+03  0.55048149966E+03  0.00000000000E+00 0.  1.
        -13    1    3    3    0    0  0.30998382728E+01 -0.22794353898E+02  0.32252350501E+01  0.23229156422E+02  0.00000000000E+00 0. -1.
          4    1    6    6  502    0  0.19177904802E+03  0.17538207306E+02  0.15618147609E+02  0.19321158999E+03  0.00000000000E+00 0. -1.
          1    1    5    5  503    0 -0.94653365253E+02  0.86514030434E+02  0.10428696866E+02  0.12865727626E+03  0.00000000000E+00 0. -1.
         -2    1    5    5    0  503 -0.33677392895E+03  0.24940193790E+03  0.17610787357E+03  0.45456791460E+03  0.00000000000E+00 0.  1.
         -3    1    6    6    0  502  0.22198629924E+03  0.99172440672E+02 -0.20437251099E+02  0.24398928516E+03  0.00000000000E+00 0.  1.
<mgrwt>
<rscale>  0 0.15862217E+04</rscale>
<asrwt>0</asrwt>
<pdfrwt beam="1">  1        1 0.11042137E+00 0.15862217E+04</pdfrwt>
<pdfrwt beam="2">  1       -1 0.13483043E+00 0.15862217E+04</pdfrwt>
<totfact> 0.11642193E+01</totfact>
</mgrwt>
</event>
<event>
12    1  0.1494110E-007  0.1809188E+04  0.7818608E-02  0.8701429E-01
         -1   -1    0    0    0  501 -0.00000000000E+00  0.00000000000E+00  0.95784603335E+03  0.95784603335E+03  0.00000000000E+00 0.  1.
          1   -1    0    0  501    0  0.00000000000E+00 -0.00000000000E+00 -0.85430255195E+03  0.85430255195E+03  0.00000000000E+00 0. -1.
         23    2    1    2    0    0 -0.59571840331E+03  0.18049943202E+03  0.30790278751E+03  0.70019267156E+03  0.89471725971E+02 0.  0.
        254    2    1    2    0    0  0.59571840331E+03 -0.18049943202E+03 -0.20435930611E+03  0.11119559137E+04  0.89845576802E+03 0.  0.
        -24    2    4    4    0    0  0.40433327967E+03 -0.32417068124E+03 -0.49926010762E+03  0.72393477969E+03  0.79049848588E+02 0.  0.
         24    2    4    4    0    0  0.19138512365E+03  0.14367124922E+03  0.29490080151E+03  0.38802113404E+03  0.79524991819E+02 0.  0.
         11    1    3    3    0    0 -0.26055959313E+03  0.90201059633E+02  0.88631100534E+02  0.28962562855E+03  0.00000000000E+00 0. -1.
        -11    1    3    3    0    0 -0.33515881018E+03  0.90298372391E+02  0.21927168697E+03  0.41056704301E+03  0.00000000000E+00 0.  1.
          4    1    6    6  502    0  0.12686506129E+03  0.13756103815E+03  0.21151688573E+03  0.28241312991E+03  0.00000000000E+00 0. -1.
          3    1    5    5  503    0  0.37184674505E+03 -0.28605982663E+03 -0.41729179429E+03  0.62787950102E+03  0.00000000000E+00 0. -1.
         -4    1    5    5    0  503  0.32486534614E+02 -0.38110854615E+02 -0.81968313333E+02  0.96055278675E+02  0.00000000000E+00 0.  1.
         -3    1    6    6    0  502  0.64520062360E+02  0.61102110615E+01  0.83383915781E+02  0.10560800413E+03  0.00000000000E+00 0.  1.
<mgrwt>
<rscale>  0 0.18091880E+04</rscale>
<asrwt>0</asrwt>
<pdfrwt beam="1">  1        1 0.13143116E+00 0.18091880E+04</pdfrwt>
<pdfrwt beam="2">  1       -1 0.14736093E+00 0.18091880E+04</pdfrwt>
<totfact> 0.68537551E+00</totfact>
</mgrwt>
</event>
<event>
12    1  0.1494110E-007  0.1516262E+04  0.7818608E-02  0.8873711E-01
         -1   -1    0    0    0  501 -0.00000000000E+00  0.00000000000E+00  0.30155516574E+03  0.30155516574E+03  0.00000000000E+00 0.  1.
          1   -1    0    0  501    0  0.00000000000E+00 -0.00000000000E+00 -0.19059941958E+04  0.19059941958E+04  0.00000000000E+00 0. -1.
         23    2    1    2    0    0 -0.37255191971E+03 -0.30695459320E+03 -0.55439430933E+03  0.74076864327E+03  0.91482662095E+02 0.  0.
        254    2    1    2    0    0  0.37255191971E+03  0.30695459320E+03 -0.10500447207E+04  0.14667807183E+04  0.90323623975E+03 0.  0.
        -24    2    4    4    0    0 -0.45307101728E+02 -0.25924974856E+03 -0.49845253242E+03  0.56919767720E+03  0.79170089370E+02 0.  0.
         24    2    4    4    0    0  0.41785902144E+03  0.56620434177E+03 -0.55159218830E+03  0.89758304107E+03  0.78789942165E+02 0.  0.
         13    1    3    3    0    0 -0.31291996474E+03 -0.26774414301E+03 -0.41780087747E+03  0.58665441587E+03  0.00000000000E+00 0.  1.
        -13    1    3    3    0    0 -0.59631954968E+02 -0.39210450190E+02 -0.13659343186E+03  0.15411422739E+03  0.00000000000E+00 0. -1.
          4    1    6    6  502    0  0.72098862874E+02  0.15300689160E+03 -0.12333943489E+03  0.20933697978E+03  0.00000000000E+00 0. -1.
          1    1    5    5  503    0 -0.46007731267E+00 -0.17638204899E+03 -0.27516613250E+03  0.32684436564E+03  0.00000000000E+00 0. -1.
         -2    1    5    5    0  503 -0.44847024415E+02 -0.82867699576E+02 -0.22328639992E+03  0.24235331156E+03  0.00000000000E+00 0.  1.
         -3    1    6    6    0  502  0.34576015856E+03  0.41319745017E+03 -0.42825275341E+03  0.68824606129E+03  0.00000000000E+00 0.  1.
<mgrwt>
<rscale>  0 0.15162617E+04</rscale>
<asrwt>0</asrwt>
<pdfrwt beam="1">  1        1 0.29322988E+00 0.15162617E+04</pdfrwt>
<pdfrwt beam="2">  1       -1 0.46393102E-01 0.15162617E+04</pdfrwt>
<totfact> 0.15428770E+01</totfact>
</mgrwt>
</event>
<event>
12    1  0.1494110E-007  0.1983475E+04  0.7818608E-02  0.8614386E-01
          1   -1    0    0  501    0  0.00000000000E+00  0.00000000000E+00  0.21064698314E+04  0.21064698314E+04  0.00000000000E+00 0. -1.
         -1   -1    0    0    0  501 -0.00000000000E+00 -0.00000000000E+00 -0.46691547309E+03  0.46691547309E+03  0.00000000000E+00 0.  1.
         23    2    1    2    0    0 -0.72282338914E+03  0.25046123535E+03  0.84303420721E+03  0.11419598598E+04  0.90339164511E+02 0.  0.
        254    2    1    2    0    0  0.72282338914E+03 -0.25046123535E+03  0.79652015115E+03  0.14314254447E+04  0.91067555708E+03 0.  0.
        -24    2    4    4    0    0  0.57620129677E+03 -0.12543935486E+02 -0.16675699755E+01  0.58178297134E+03  0.79393704019E+02 0.  0.
         24    2    4    4    0    0  0.14662209237E+03 -0.23791729987E+03  0.79818772112E+03  0.84964247336E+03  0.81768055135E+02 0.  0.
         11    1    3    3    0    0 -0.20937417654E+03  0.30116859650E+02  0.22628041366E+03  0.30975376776E+03  0.00000000000E+00 0.  1.
        -11    1    3    3    0    0 -0.51344921260E+03  0.22034437570E+03  0.61675379355E+03  0.83220609207E+03  0.00000000000E+00 0. -1.
          4    1    6    6  502    0  0.14943719653E+03 -0.21377312438E+03  0.76677965449E+03  0.80992682567E+03  0.00000000000E+00 0. -1.
          1    1    5    5  503    0  0.49251508096E+03  0.43951715272E+01  0.22490182090E+02  0.49304789909E+03  0.00000000000E+00 0. -1.
         -2    1    5    5    0  503  0.83686215810E+02 -0.16939107013E+02 -0.24157752066E+02  0.88735072253E+02  0.00000000000E+00 0.  1.
         -3    1    6    6    0  502 -0.28151041579E+01 -0.24144175484E+02  0.31408066636E+02  0.39715647685E+02  0.00000000000E+00 0.  1.
<mgrwt>
<rscale>  0 0.19834751E+04</rscale>
<asrwt>0</asrwt>
<pdfrwt beam="1">  1        1 0.32407228E+00 0.19834751E+04</pdfrwt>
<pdfrwt beam="2">  1       -1 0.71833151E-01 0.19834751E+04</pdfrwt>
<totfact> 0.45840742E+00</totfact>
</mgrwt>
</event>
<event>
12    1  0.1494110E-007  0.1839607E+04  0.7818608E-02  0.8685516E-01
         -2   -1    0    0    0  501 -0.00000000000E+00  0.00000000000E+00  0.24186060856E+03  0.24186060856E+03  0.00000000000E+00 0.  1.
          2   -1    0    0  501    0  0.00000000000E+00 -0.00000000000E+00 -0.34980408054E+04  0.34980408054E+04  0.00000000000E+00 0. -1.
         23    2    1    2    0    0  0.19255808526E+03  0.47700449077E+03 -0.28969939388E+03  0.59745185802E+03  0.91711958998E+02 0.  0.
        254    2    1    2    0    0 -0.19255808526E+03 -0.47700449077E+03 -0.29664808030E+04  0.31424495560E+04  0.90020495269E+03 0.  0.
        -24    2    4    4    0    0 -0.12798481998E+03 -0.20870805184E+03 -0.27970951471E+04  0.28089857679E+04  0.81979373532E+02 0.  0.
         24    2    4    4    0    0 -0.64573265281E+02 -0.26829643893E+03 -0.16938565592E+03  0.33346378802E+03  0.79711428026E+02 0.  0.
         11    1    3    3    0    0  0.11881271353E+03  0.23266156346E+03 -0.10119580518E+03  0.28015791081E+03  0.00000000000E+00 0. -1.
        -11    1    3    3    0    0  0.73745371731E+02  0.24434292731E+03 -0.18850358870E+03  0.31729394721E+03  0.00000000000E+00 0.  1.
          2    1    6    6  502    0 -0.58565879886E+02 -0.89544257198E+02 -0.47743057590E+02  0.11716456731E+03  0.00000000000E+00 0. -1.
          3    1    5    5  503    0 -0.53695266047E+01 -0.49603707181E+02 -0.33302336671E+03  0.33674014070E+03  0.00000000000E+00 0. -1.
         -4    1    5    5    0  503 -0.12261529337E+03 -0.15910434466E+03 -0.24640717804E+04  0.24722456272E+04  0.00000000000E+00 0.  1.
         -1    1    6    6    0  502 -0.60073853955E+01 -0.17875218173E+03 -0.12164259833E+03  0.21629922071E+03  0.00000000000E+00 0.  1.
<mgrwt>
<rscale>  0 0.18396068E+04</rscale>
<asrwt>0</asrwt>
<pdfrwt beam="1">  1        2 0.53816008E+00 0.18396068E+04</pdfrwt>
<pdfrwt beam="2">  1       -2 0.37209327E-01 0.18396068E+04</pdfrwt>
<totfact> 0.52658476E+00</totfact>
</mgrwt>
</event>
<event>
12    1  0.1494110E-007  0.2362265E+04  0.7818608E-02  0.8453768E-01
          1   -1    0    0  501    0  0.00000000000E+00  0.00000000000E+00  0.33821642472E+04  0.33821642472E+04  0.00000000000E+00 0. -1.
         -1   -1    0    0    0  501 -0.00000000000E+00 -0.00000000000E+00 -0.41247962566E+03  0.41247962566E+03  0.00000000000E+00 0.  1.
         23    2    1    2    0    0  0.56188664882E+03  0.62560386247E+03  0.21582614418E+04  0.23180376492E+04  0.90051614574E+02 0.  0.
        254    2    1    2    0    0 -0.56188664882E+03 -0.62560386247E+03  0.81142317972E+03  0.14766062236E+04  0.90269682847E+03 0.  0.
        -24    2    4    4    0    0 -0.37016029695E+03 -0.58442383738E+03  0.98281439746E+03  0.12043936284E+04  0.77910238553E+02 0.  0.
         24    2    4    4    0    0 -0.19172635187E+03 -0.41180025095E+02 -0.17139121773E+03  0.27221259515E+03  0.79183072530E+02 0.  0.
         11    1    3    3    0    0  0.36260524362E+03  0.45926788485E+03  0.14430750982E+04  0.15572011084E+04  0.00000000000E+00 0.  1.
        -11    1    3    3    0    0  0.19928140521E+03  0.16633597762E+03  0.71518634356E+03  0.76083654087E+03  0.00000000000E+00 0. -1.
          4    1    6    6  502    0 -0.17766152713E+03 -0.51104348214E+02 -0.12614649773E+03  0.22380395778E+03  0.00000000000E+00 0. -1.
          3    1    5    5  503    0 -0.25176770828E+03 -0.36632651421E+03  0.68715816822E+03  0.81839381846E+03  0.00000000000E+00 0. -1.
         -4    1    5    5    0  503 -0.11839258868E+03 -0.21809732317E+03  0.29565622924E+03  0.38599980999E+03  0.00000000000E+00 0.  1.
         -3    1    6    6    0  502 -0.14064824747E+02  0.99243231190E+01 -0.45244720003E+02  0.48408637377E+02  0.00000000000E+00 0.  1.
<mgrwt>
<rscale>  0 0.23622649E+04</rscale>
<asrwt>0</asrwt>
<pdfrwt beam="1">  1        1 0.52033294E+00 0.23622649E+04</pdfrwt>
<pdfrwt beam="2">  1       -1 0.63458406E-01 0.23622649E+04</pdfrwt>
<totfact> 0.70025178E-01</totfact>
</mgrwt>
</event>
<event>
12    1  0.1494110E-007  0.1413286E+04  0.7818608E-02  0.8944257E-01
          1   -1    0    0  501    0  0.00000000000E+00  0.00000000000E+00  0.15038588178E+04  0.15038588178E+04  0.00000000000E+00 0. -1.
         -1   -1    0    0    0  501 -0.00000000000E+00 -0.00000000000E+00 -0.33204197768E+03  0.33204197768E+03  0.00000000000E+00 0.  1.
         23    2    1    2    0    0  0.86142162800E+02  0.40254357320E+03  0.36506819927E+03  0.55819474950E+03  0.94046731581E+02 0.  0.
        254    2    1    2    0    0 -0.86142162800E+02 -0.40254357320E+03  0.80674864087E+03  0.12777060460E+04  0.90123668916E+03 0.  0.
        -24    2    4    4    0    0  0.28504137266E+02  0.28096709974E+03  0.25318170954E+03  0.38698906434E+03  0.76841140666E+02 0.  0.
         24    2    4    4    0    0 -0.11464630007E+03 -0.68351067294E+03  0.55356693132E+03  0.89071698165E+03  0.81300552331E+02 0.  0.
         13    1    3    3    0    0  0.34200953081E+02  0.30912642146E+03  0.23482254909E+03  0.38970563147E+03  0.00000000000E+00 0.  1.
        -13    1    3    3    0    0  0.51941209719E+02  0.93417151736E+02  0.13024565018E+03  0.16848911803E+03  0.00000000000E+00 0. -1.
          2    1    6    6  502    0 -0.84124205551E+02 -0.31288413653E+03  0.22478597356E+03  0.39433754419E+03  0.00000000000E+00 0. -1.
          3    1    5    5  503    0  0.18202490865E+02  0.27427504593E+03  0.25453782265E+03  0.37462999700E+03  0.00000000000E+00 0. -1.
         -4    1    5    5    0  503  0.10301646402E+02  0.66920538067E+01 -0.13561131116E+01  0.12359067340E+02  0.00000000000E+00 0.  1.
         -1    1    6    6    0  502 -0.30522094515E+02 -0.37062653641E+03  0.32878095776E+03  0.49637943746E+03  0.00000000000E+00 0.  1.
<mgrwt>
<rscale>  0 0.14132859E+04</rscale>
<asrwt>0</asrwt>
<pdfrwt beam="1">  1        1 0.23136289E+00 0.14132859E+04</pdfrwt>
<pdfrwt beam="2">  1       -1 0.51083382E-01 0.14132859E+04</pdfrwt>
<totfact> 0.24396937E+01</totfact>
</mgrwt>
</event>
<event>
12    1  0.1494110E-007  0.3046620E+04  0.7818608E-02  0.8230542E-01
          1   -1    0    0  501    0  0.00000000000E+00  0.00000000000E+00  0.12439929512E+04  0.12439929512E+04  0.00000000000E+00 0. -1.
         -1   -1    0    0    0  501 -0.00000000000E+00 -0.00000000000E+00 -0.18653430976E+04  0.18653430976E+04  0.00000000000E+00 0.  1.
         23    2    1    2    0    0 -0.84077249092E+03 -0.97527684962E+03 -0.82148605399E+03  0.15302637857E+04  0.93832840365E+02 0.  0.
        254    2    1    2    0    0  0.84077249092E+03  0.97527684962E+03  0.20013590764E+03  0.15790722632E+04  0.89182482354E+03 0.  0.
        -24    2    4    4    0    0  0.60287146646E+03  0.87215079893E+03 -0.21328348999E+03  0.10844630996E+04  0.80432245746E+02 0.  0.
         24    2    4    4    0    0  0.23790102447E+03  0.10312605069E+03  0.41341939763E+03  0.49460916356E+03  0.80565169705E+02 0.  0.
         11    1    3    3    0    0 -0.49705584354E+03 -0.53737794204E+03 -0.51240843549E+03  0.89353341792E+03  0.00000000000E+00 0.  1.
        -11    1    3    3    0    0 -0.34371664739E+03 -0.43789890759E+03 -0.30907761850E+03  0.63673036775E+03  0.00000000000E+00 0. -1.
          4    1    6    6  502    0  0.47141644044E+02 -0.94865626620E+01  0.53055510662E+02  0.71604585648E+02  0.00000000000E+00 0. -1.
          3    1    5    5  503    0  0.11987533856E+03  0.14302189830E+03 -0.63582731084E+02  0.19715000350E+03  0.00000000000E+00 0. -1.
         -4    1    5    5    0  503  0.48299612789E+03  0.72912890063E+03 -0.14970075891E+03  0.88731309610E+03  0.00000000000E+00 0.  1.
         -3    1    6    6    0  502  0.19075938042E+03  0.11261261335E+03  0.36036388697E+03  0.42300457791E+03  0.00000000000E+00 0.  1.
<mgrwt>
<rscale>  0 0.30466202E+04</rscale>
<asrwt>0</asrwt>
<pdfrwt beam="1">  1        1 0.19138353E+00 0.30466202E+04</pdfrwt>
<pdfrwt beam="2">  1       -1 0.28697586E+00 0.30466202E+04</pdfrwt>
<totfact> 0.33744406E-01</totfact>
</mgrwt>
</event>
<event>
12    1  0.1494110E-007  0.1493090E+04  0.7818608E-02  0.8889061E-01
         -2   -1    0    0    0  501 -0.00000000000E+00  0.00000000000E+00  0.21908789723E+03  0.21908789723E+03  0.00000000000E+00 0.  1.
          2   -1    0    0  501    0  0.00000000000E+00 -0.00000000000E+00 -0.25438632910E+04  0.25438632910E+04  0.00000000000E+00 0. -1.
         23    2    1    2    0    0 -0.56101084405E+02  0.45172289810E+03 -0.50240899346E+03  0.68380512986E+03  0.89295859822E+02 0.  0.
        254    2    1    2    0    0  0.56101084405E+02 -0.45172289810E+03 -0.18223664003E+04  0.20791460583E+04  0.89141916441E+03 0.  0.
        -24    2    4    4    0    0  0.43639623886E+03 -0.33020699541E+03 -0.74653899143E+03  0.92890917977E+03  0.77932415769E+02 0.  0.
         24    2    4    4    0    0 -0.38029515445E+03 -0.12151590269E+03 -0.10758274088E+04  0.11502368785E+04  0.79055322878E+02 0.  0.
         11    1    3    3    0    0 -0.37381718353E+02  0.62422208038E+02 -0.99139593302E+02  0.12297391546E+03  0.00000000000E+00 0. -1.
        -11    1    3    3    0    0 -0.18719366053E+02  0.38930069006E+03 -0.40326940016E+03  0.56083121440E+03  0.00000000000E+00 0.  1.
          4    1    6    6  502    0 -0.15706168866E+03 -0.10575980272E+02 -0.39539339976E+03  0.42557745003E+03  0.00000000000E+00 0. -1.
          3    1    5    5  503    0  0.41023621528E+03 -0.29087036562E+03 -0.70513696763E+03  0.86609321960E+03  0.00000000000E+00 0. -1.
         -4    1    5    5    0  503  0.26160023576E+02 -0.39336629793E+02 -0.41402023800E+02  0.62815960167E+02  0.00000000000E+00 0.  1.
         -3    1    6    6    0  502 -0.22323346579E+03 -0.11093992242E+03 -0.68043400908E+03  0.72465942852E+03  0.00000000000E+00 0.  1.
<mgrwt>
<rscale>  0 0.14930903E+04</rscale>
<asrwt>0</asrwt>
<pdfrwt beam="1">  1        2 0.39136355E+00 0.14930903E+04</pdfrwt>
<pdfrwt beam="2">  1       -2 0.33705833E-01 0.14930903E+04</pdfrwt>
<totfact> 0.26205326E+01</totfact>
</mgrwt>
</event>
<event>
12    1  0.1494110E-007  0.2646697E+04  0.7818608E-02  0.8352510E-01
         -2   -1    0    0    0  501 -0.00000000000E+00  0.00000000000E+00  0.51590359354E+03  0.51590359354E+03  0.00000000000E+00 0.  1.
          2   -1    0    0  501    0  0.00000000000E+00 -0.00000000000E+00 -0.33945321903E+04  0.33945321903E+04  0.00000000000E+00 0. -1.
         23    2    1    2    0    0 -0.92913460721E+03  0.21148469038E+03 -0.27910453569E+03  0.99767285354E+03  0.97133352981E+02 0.  0.
        254    2    1    2    0    0  0.92913460721E+03 -0.21148469038E+03 -0.25995240610E+04  0.29127629303E+04  0.90479039089E+03 0.  0.
        -24    2    4    4    0    0 -0.16904726099E+03 -0.16953484366E+01 -0.27508512182E+03  0.33219472612E+03  0.78113130529E+02 0.  0.
         24    2    4    4    0    0  0.10981818682E+04 -0.20978934194E+03 -0.23244389392E+04  0.25805682041E+04  0.79378148689E+02 0.  0.
         13    1    3    3    0    0 -0.35505903674E+03  0.79106219181E+02 -0.57749587916E+02  0.36832014388E+03  0.00000000000E+00 0. -1.
        -13    1    3    3    0    0 -0.57407557047E+03  0.13237847120E+03 -0.22135494777E+03  0.62935270965E+03  0.00000000000E+00 0.  1.
          4    1    6    6  502    0  0.25139903916E+03 -0.44920121737E+02 -0.45759286343E+03  0.52403294065E+03  0.00000000000E+00 0. -1.
          3    1    5    5  503    0 -0.12410964142E+03  0.21474930612E+02 -0.14190406755E+03  0.18973966408E+03  0.00000000000E+00 0. -1.
         -4    1    5    5    0  503 -0.44937619565E+02 -0.23170279049E+02 -0.13318105427E+03  0.14245506204E+03  0.00000000000E+00 0.  1.
         -3    1    6    6    0  502  0.84678282904E+03 -0.16486922021E+03 -0.18668460758E+04  0.20565352635E+04  0.00000000000E+00 0.  1.
<mgrwt>
<rscale>  0 0.26466971E+04</rscale>
<asrwt>0</asrwt>
<pdfrwt beam="1">  1        2 0.52223573E+00 0.26466971E+04</pdfrwt>
<pdfrwt beam="2">  1       -2 0.79369782E-01 0.26466971E+04</pdfrwt>
<totfact> 0.11926310E+00</totfact>
</mgrwt>
</event>
<event>
12    1  0.1494110E-007  0.2908424E+04  0.7818608E-02  0.8270376E-01
         -2   -1    0    0    0  501 -0.00000000000E+00  0.00000000000E+00  0.15495485592E+04  0.15495485592E+04  0.00000000000E+00 0.  1.
          2   -1    0    0  501    0  0.00000000000E+00 -0.00000000000E+00 -0.13647406919E+04  0.13647406919E+04  0.00000000000E+00 0. -1.
         23    2    1    2    0    0  0.53175226940E+03 -0.10432782553E+04  0.68036914998E+03  0.13572634561E+04  0.89843836569E+02 0.  0.
        254    2    1    2    0    0 -0.53175226940E+03  0.10432782553E+04 -0.49556128272E+03  0.15570257951E+04  0.89864250262E+03 0.  0.
        -24    2    4    4    0    0 -0.55367075470E+02  0.69960938742E+03  0.10375200094E+03  0.71387465751E+03  0.79584803328E+02 0.  0.
         24    2    4    4    0    0 -0.47638519393E+03  0.34366886789E+03 -0.59931328367E+03  0.84315113754E+03  0.81708536961E+02 0.  0.
         13    1    3    3    0    0  0.38805826482E+03 -0.67009961881E+03  0.43740946907E+03  0.88935356279E+03  0.00000000000E+00 0. -1.
        -13    1    3    3    0    0  0.14369400458E+03 -0.37317863650E+03  0.24295968091E+03  0.46790989329E+03  0.00000000000E+00 0.  1.
          4    1    6    6  502    0 -0.27796260087E+03  0.23806395076E+03 -0.33457186212E+03  0.49585883380E+03  0.00000000000E+00 0. -1.
          1    1    5    5  503    0 -0.65770008326E+02  0.67373765998E+03  0.90372501582E+02  0.68294605754E+03  0.00000000000E+00 0. -1.
         -2    1    5    5    0  503  0.10402932856E+02  0.25871727442E+02  0.13379499361E+02  0.30928599968E+02  0.00000000000E+00 0.  1.
         -3    1    6    6    0  502 -0.19842259306E+03  0.10560491713E+03 -0.26474142155E+03  0.34729230374E+03  0.00000000000E+00 0.  1.
<mgrwt>
<rscale>  0 0.29084236E+04</rscale>
<asrwt>0</asrwt>
<pdfrwt beam="1">  1        2 0.20996011E+00 0.29084236E+04</pdfrwt>
<pdfrwt beam="2">  1       -2 0.23839209E+00 0.29084236E+04</pdfrwt>
<totfact> 0.99117737E-01</totfact>
</mgrwt>
</event>
<event>
12    1  0.1494110E-007  0.1253082E+04  0.7818608E-02  0.9067622E-01
         -2   -1    0    0    0  501 -0.00000000000E+00  0.00000000000E+00  0.13114696990E+04  0.13114696990E+04  0.00000000000E+00 0.  1.
          2   -1    0    0  501    0  0.00000000000E+00 -0.00000000000E+00 -0.29932359864E+03  0.29932359864E+03  0.00000000000E+00 0. -1.
         23    2    1    2    0    0 -0.13768690235E+03  0.22809387948E+03  0.41061173893E+03  0.49814940576E+03  0.92554467065E+02 0.  0.
        254    2    1    2    0    0  0.13768690235E+03 -0.22809387948E+03  0.60153436144E+03  0.11126438919E+04  0.89730058577E+03 0.  0.
        -24    2    4    4    0    0  0.26611568384E+03  0.12836660950E+03  0.65340085481E+03  0.72247300528E+03  0.87971715137E+02 0.  0.
         24    2    4    4    0    0 -0.12842878149E+03 -0.35646048898E+03 -0.51866493367E+02  0.39017088662E+03  0.77363786806E+02 0.  0.
         11    1    3    3    0    0 -0.15032306599E+03  0.19815400099E+03  0.34997754739E+03  0.42935569864E+03  0.00000000000E+00 0.  1.
        -11    1    3    3    0    0  0.12636163636E+02  0.29939878490E+02  0.60634191535E+02  0.68793707114E+02  0.00000000000E+00 0. -1.
          2    1    6    6  502    0 -0.10651870622E+03 -0.25468623862E+03 -0.52741639016E+01  0.27611434537E+03  0.00000000000E+00 0. -1.
          1    1    5    5  503    0  0.20925995303E+03  0.94208850240E+02  0.40636487988E+03  0.46668774465E+03  0.00000000000E+00 0. -1.
         -2    1    5    5    0  503  0.56855730812E+02  0.34157759257E+02  0.24703597493E+03  0.25578526063E+03  0.00000000000E+00 0.  1.
         -1    1    6    6    0  502 -0.21910075272E+02 -0.10177425036E+03 -0.46592329465E+02  0.11405654124E+03  0.00000000000E+00 0.  1.
<mgrwt>
<rscale>  0 0.12530823E+04</rscale>
<asrwt>0</asrwt>
<pdfrwt beam="1">  1        2 0.46049785E-01 0.12530823E+04</pdfrwt>
<pdfrwt beam="2">  1       -2 0.20176457E+00 0.12530823E+04</pdfrwt>
<totfact> 0.14006533E+01</totfact>
</mgrwt>
</event>
<event>
12    1  0.1494110E-007  0.2771796E+04  0.7818608E-02  0.8312078E-01
         -3   -1    0    0    0  501 -0.00000000000E+00  0.00000000000E+00  0.10151083723E+04  0.10151083723E+04  0.00000000000E+00 0.  1.
          3   -1    0    0  501    0  0.00000000000E+00 -0.00000000000E+00 -0.18921266271E+04  0.18921266271E+04  0.00000000000E+00 0. -1.
         23    2    1    2    0    0  0.10919861249E+04 -0.57855564390E+03 -0.48524651826E+03  0.13307899616E+04  0.91528182459E+02 0.  0.
        254    2    1    2    0    0 -0.10919861249E+04  0.57855564390E+03 -0.39177173655E+03  0.15764450379E+04  0.89695793318E+03 0.  0.
        -24    2    4    4    0    0 -0.20401681430E+03  0.29932694685E+03  0.24604211738E+03  0.44528330457E+03  0.80752809073E+02 0.  0.
         24    2    4    4    0    0 -0.88796931062E+03  0.27922869706E+03 -0.63781385392E+03  0.11311617334E+04  0.79134018469E+02 0.  0.
         13    1    3    3    0    0  0.10920144590E+04 -0.57988796327E+03 -0.48673901167E+03  0.13287891082E+04  0.00000000000E+00 0. -1.
        -13    1    3    3    0    0 -0.28334027066E-01  0.13323193694E+01  0.14924934080E+01  0.20008533910E+01  0.00000000000E+00 0.  1.
          4    1    6    6  502    0 -0.77998461205E+02  0.28618461126E+01 -0.45264738264E+02  0.90226640432E+02  0.00000000000E+00 0. -1.
          3    1    5    5  503    0 -0.91500333814E+02  0.17519324116E+03  0.93275744459E+02  0.21855284793E+03  0.00000000000E+00 0. -1.
         -4    1    5    5    0  503 -0.11251648049E+03  0.12413370569E+03  0.15276637292E+03  0.22673045663E+03  0.00000000000E+00 0.  1.
         -3    1    6    6    0  502 -0.80997084942E+03  0.27636685094E+03 -0.59254911566E+03  0.10409350929E+04  0.00000000000E+00 0.  1.
<mgrwt>
<rscale>  0 0.27717962E+04</rscale>
<asrwt>0</asrwt>
<pdfrwt beam="1">  1        3 0.29109640E+00 0.27717962E+04</pdfrwt>
<pdfrwt beam="2">  1       -3 0.15617052E+00 0.27717962E+04</pdfrwt>
<totfact> 0.28510926E-02</totfact>
</mgrwt>
</event>
<event>
12    1  0.1494110E-007  0.1397249E+04  0.7818608E-02  0.8955812E-01
         -1   -1    0    0    0  501 -0.00000000000E+00  0.00000000000E+00  0.28251974106E+03  0.28251974106E+03  0.00000000000E+00 0.  1.
          1   -1    0    0  501    0  0.00000000000E+00 -0.00000000000E+00 -0.17275820232E+04  0.17275820232E+04  0.00000000000E+00 0. -1.
         23    2    1    2    0    0 -0.37179500748E+03 -0.15617651029E+03 -0.37828022941E+03  0.56045884881E+03  0.91627284634E+02 0.  0.
        254    2    1    2    0    0  0.37179500748E+03  0.15617651029E+03 -0.10667820528E+04  0.14496429155E+04  0.89488435250E+03 0.  0.
        -24    2    4    4    0    0  0.68675273865E+02  0.67881874007E+02 -0.11135768977E+04  0.11205289773E+04  0.78787306907E+02 0.  0.
         24    2    4    4    0    0  0.30311973361E+03  0.88294636287E+02  0.46794844966E+02  0.32911393819E+03  0.80303867236E+02 0.  0.
         11    1    3    3    0    0 -0.10726718188E+03 -0.99475066051E+01 -0.13332051748E+03  0.17140467198E+03  0.00000000000E+00 0.  1.
        -11    1    3    3    0    0 -0.26452782560E+03 -0.14622900369E+03 -0.24495971193E+03  0.38905417683E+03  0.00000000000E+00 0. -1.
          4    1    6    6  502    0  0.33677823053E+02  0.30506350939E+02 -0.12728267815E+02  0.47189426938E+02  0.00000000000E+00 0. -1.
          1    1    5    5  503    0  0.11443325011E+02 -0.24897377453E+01 -0.19849389015E+02  0.23046620698E+02  0.00000000000E+00 0. -1.
         -2    1    5    5    0  503  0.57231948854E+02  0.70371611753E+02 -0.10937275087E+04  0.10974823566E+04  0.00000000000E+00 0.  1.
         -3    1    6    6    0  502  0.26944191056E+03  0.57788285348E+02  0.59523112780E+02  0.28192451125E+03  0.00000000000E+00 0.  1.
<mgrwt>
<rscale>  0 0.13972488E+04</rscale>
<asrwt>0</asrwt>
<pdfrwt beam="1">  1        1 0.26578185E+00 0.13972488E+04</pdfrwt>
<pdfrwt beam="2">  1       -1 0.43464575E-01 0.13972488E+04</pdfrwt>
<totfact> 0.23260582E+01</totfact>
</mgrwt>
</event>
<event>
12    1  0.1494110E-007  0.1254433E+04  0.7818608E-02  0.9066501E-01
         -2   -1    0    0    0  501 -0.00000000000E+00  0.00000000000E+00  0.97731674817E+03  0.97731674817E+03  0.00000000000E+00 0.  1.
          2   -1    0    0  501    0  0.00000000000E+00 -0.00000000000E+00 -0.40253155762E+03  0.40253155762E+03  0.00000000000E+00 0. -1.
         23    2    1    2    0    0  0.12412175555E+03 -0.77763104053E+02 -0.21736069267E+03  0.28803916822E+03  0.11944698053E+03 0.  0.
        254    2    1    2    0    0 -0.12412175555E+03  0.77763104053E+02  0.79214588322E+03  0.10918091376E+04  0.73695236075E+03 0.  0.
        -24    2    4    4    0    0  0.18736130536E+03 -0.22103889926E+03  0.41898541972E+03  0.51572550007E+03  0.80383802831E+02 0.  0.
         24    2    4    4    0    0 -0.31148306091E+03  0.29880200331E+03  0.37316046350E+03  0.57608363749E+03  0.79493971133E+02 0.  0.
         13    1    3    3    0    0  0.57252569057E+01 -0.52998170194E+02 -0.20755826006E+02  0.57204798083E+02  0.00000000000E+00 0.  1.
        -13    1    3    3    0    0  0.11839649865E+03 -0.24764933860E+02 -0.19660486666E+03  0.23083437013E+03  0.00000000000E+00 0. -1.
          4    1    6    6  502    0 -0.43619803157E+02  0.12560539737E+02  0.54161796369E+02  0.70667917557E+02  0.00000000000E+00 0. -1.
          3    1    5    5  503    0  0.22828994870E+02 -0.71938288522E+02  0.14118722722E+03  0.16009407701E+03  0.00000000000E+00 0. -1.
         -4    1    5    5    0  503  0.16453231049E+03 -0.14910061074E+03  0.27779819249E+03  0.35563142306E+03  0.00000000000E+00 0.  1.
         -3    1    6    6    0  502 -0.26786325776E+03  0.28624146357E+03  0.31899866713E+03  0.50541571994E+03  0.00000000000E+00 0.  1.
<mgrwt>
<rscale>  0 0.12544335E+04</rscale>
<asrwt>0</asrwt>
<pdfrwt beam="1">  1        2 0.61927932E-01 0.12544335E+04</pdfrwt>
<pdfrwt beam="2">  1       -2 0.15035642E+00 0.12544335E+04</pdfrwt>
<totfact> 0.23088672E+01</totfact>
</mgrwt>
</event>
<event>
12    1  0.1494110E-007  0.1188837E+04  0.7818608E-02  0.9122684E-01
         -2   -1    0    0    0  501 -0.00000000000E+00  0.00000000000E+00  0.29953795962E+03  0.29953795962E+03  0.00000000000E+00 0. -1.
          2   -1    0    0  501    0  0.00000000000E+00 -0.00000000000E+00 -0.11795949680E+04  0.11795949680E+04  0.00000000000E+00 0.  1.
         23    2    1    2    0    0 -0.85251351667E+01 -0.13061941137E+03 -0.44168988693E+03  0.46969039321E+03  0.91569649439E+02 0.  0.
        254    2    1    2    0    0  0.85251351667E+01  0.13061941137E+03 -0.43836712141E+03  0.10094425344E+04  0.89981908655E+03 0.  0.
        -24    2    4    4    0    0  0.30462520681E+03  0.20926661641E+03  0.92842330481E+02  0.39086886607E+03  0.87004245654E+02 0.  0.
         24    2    4    4    0    0 -0.29610007164E+03 -0.78647205040E+02 -0.53120945189E+03  0.61857366831E+03  0.81174294326E+02 0.  0.
         11    1    3    3    0    0 -0.30156961573E+02 -0.28947477510E+02 -0.23101963689E+03  0.23477110430E+03  0.00000000000E+00 0. -1.
        -11    1    3    3    0    0  0.21631826406E+02 -0.10167193386E+03 -0.21067025004E+03  0.23491928891E+03  0.00000000000E+00 0.  1.
          4    1    6    6  502    0 -0.42874848727E+02  0.61760268015E+01 -0.12635195182E+03  0.13357099868E+03  0.00000000000E+00 0. -1.
          1    1    5    5  503    0  0.26422216422E+02  0.32193386003E+02  0.38362590597E+02  0.56623634468E+02  0.00000000000E+00 0. -1.
         -2    1    5    5    0  503  0.27820299039E+03  0.17707323041E+03  0.54479739883E+02  0.33424523160E+03  0.00000000000E+00 0.  1.
         -3    1    6    6    0  502 -0.25322522292E+03 -0.84823231841E+02 -0.40485750007E+03  0.48500266963E+03  0.00000000000E+00 0.  1.
<mgrwt>
<rscale>  0 0.11888372E+04</rscale>
<asrwt>0</asrwt>
<pdfrwt beam="1">  1        2 0.18147615E+00 0.11888372E+04</pdfrwt>
<pdfrwt beam="2">  1       -2 0.46082764E-01 0.11888372E+04</pdfrwt>
<totfact> 0.85860399E+01</totfact>
</mgrwt>
</event>
<event>
12    1  0.1494110E-007  0.1951897E+04  0.7818608E-02  0.8629446E-01
         -1   -1    0    0    0  501 -0.00000000000E+00  0.00000000000E+00  0.10819855343E+04  0.10819855343E+04  0.00000000000E+00 0.  1.
          1   -1    0    0  501    0  0.00000000000E+00 -0.00000000000E+00 -0.88030349081E+03  0.88030349081E+03  0.00000000000E+00 0. -1.
         23    2    1    2    0    0 -0.22031505289E+03 -0.73824297329E+03  0.92808565314E+02  0.78208070939E+03  0.97444322918E+02 0.  0.
        254    2    1    2    0    0  0.22031505289E+03  0.73824297329E+03  0.10887347818E+03  0.11802083157E+04  0.88741017804E+03 0.  0.
        -24    2    4    4    0    0 -0.40569455721E+01 -0.14295434698E+03 -0.16055732067E+03  0.22908840447E+03  0.79059722466E+02 0.  0.
         24    2    4    4    0    0  0.22437199846E+03  0.88119732027E+03  0.26943079885E+03  0.95111991124E+03  0.72004300205E+02 0.  0.
         13    1    3    3    0    0 -0.28834961060E+02 -0.39321519711E+02 -0.11056690579E+02  0.49998872971E+02  0.00000000000E+00 0. -1.
        -13    1    3    3    0    0 -0.19148009183E+03 -0.69892145358E+03  0.10386525589E+03  0.73208183642E+03  0.00000000000E+00 0.  1.
          4    1    6    6  502    0  0.16422443173E+03  0.51610855774E+03  0.14392394420E+03  0.56040325575E+03  0.00000000000E+00 0. -1.
          1    1    5    5  503    0 -0.40807450308E+02 -0.58796569887E+02 -0.71437655010E+02  0.10112182348E+03  0.00000000000E+00 0. -1.
         -2    1    5    5    0  503  0.36750504736E+02 -0.84157777089E+02 -0.89119665663E+02  0.12796658099E+03  0.00000000000E+00 0.  1.
         -3    1    6    6    0  502  0.60147566735E+02  0.36508876253E+03  0.12550685465E+03  0.39071665549E+03  0.00000000000E+00 0.  1.
<mgrwt>
<rscale>  0 0.19518972E+04</rscale>
<asrwt>0</asrwt>
<pdfrwt beam="1">  1        1 0.13543131E+00 0.19518972E+04</pdfrwt>
<pdfrwt beam="2">  1       -1 0.16645931E+00 0.19518972E+04</pdfrwt>
<totfact> 0.45991095E+00</totfact>
</mgrwt>
</event>
<event>
12    1  0.1494110E-007  0.1901983E+04  0.7818608E-02  0.8653870E-01
          2   -1    0    0  501    0  0.00000000000E+00  0.00000000000E+00  0.12937351657E+04  0.12937351657E+04  0.00000000000E+00 0. -1.
         -2   -1    0    0    0  501 -0.00000000000E+00 -0.00000000000E+00 -0.69904916377E+03  0.69904916377E+03  0.00000000000E+00 0.  1.
         23    2    1    2    0    0  0.50214838441E+03  0.43534971799E+03 -0.10109223802E+03  0.67851876526E+03  0.92117844654E+02 0.  0.
        254    2    1    2    0    0 -0.50214838441E+03 -0.43534971799E+03  0.69577823996E+03  0.13142655642E+04  0.89526769022E+03 0.  0.
        -24    2    4    4    0    0  0.18107835331E+03 -0.50121005837E+02  0.44027989218E+03  0.48484693310E+03  0.76997920855E+02 0.  0.
         24    2    4    4    0    0 -0.68322673772E+03 -0.38522871216E+03  0.25549834778E+03  0.82941863111E+03  0.86347693124E+02 0.  0.
         11    1    3    3    0    0  0.19972963267E+03  0.14348988070E+03 -0.76341272070E+02  0.25750584819E+03  0.00000000000E+00 0. -1.
        -11    1    3    3    0    0  0.30241875174E+03  0.29185983729E+03 -0.24750965952E+02  0.42101291707E+03  0.00000000000E+00 0.  1.
          2    1    6    6  502    0 -0.50004278698E+03 -0.32440732158E+03  0.19498376030E+03  0.62713759725E+03  0.00000000000E+00 0. -1.
          3    1    5    5  503    0  0.77195511106E+02  0.15693370652E+02  0.19926956717E+03  0.21427503171E+03  0.00000000000E+00 0. -1.
         -4    1    5    5    0  503  0.10388284221E+03 -0.65814376490E+02  0.24101032502E+03  0.27057190139E+03  0.00000000000E+00 0.  1.
         -1    1    6    6    0  502 -0.18318395074E+03 -0.60821390573E+02  0.60514587476E+02  0.20228103386E+03  0.00000000000E+00 0.  1.
<mgrwt>
<rscale>  0 0.19019826E+04</rscale>
<asrwt>0</asrwt>
<pdfrwt beam="1">  1        2 0.19903618E+00 0.19019826E+04</pdfrwt>
<pdfrwt beam="2">  1       -2 0.10754603E+00 0.19019826E+04</pdfrwt>
<totfact> 0.10834114E+01</totfact>
</mgrwt>
</event>
<event>
12    1  0.1494110E-007  0.1705333E+04  0.7818608E-02  0.8758329E-01
         -2   -1    0    0    0  501 -0.00000000000E+00  0.00000000000E+00  0.43006293061E+03  0.43006293061E+03  0.00000000000E+00 0.  1.
          2   -1    0    0  501    0  0.00000000000E+00 -0.00000000000E+00 -0.16905432275E+04  0.16905432275E+04  0.00000000000E+00 0. -1.
         23    2    1    2    0    0 -0.35216612515E+02  0.59436853982E+03 -0.58857955178E+03  0.84211544180E+03  0.90655157724E+02 0.  0.
        254    2    1    2    0    0  0.35216612515E+02 -0.59436853982E+03 -0.67190074512E+03  0.12784907163E+04  0.91026025371E+03 0.  0.
        -24    2    4    4    0    0  0.21224931361E+03 -0.12967239813E+03  0.16008770669E+03  0.30610191310E+03  0.78775665067E+02 0.  0.
         24    2    4    4    0    0 -0.17703270109E+03 -0.46469614168E+03 -0.83198845181E+03  0.97238880321E+03  0.77795368202E+02 0.  0.
         11    1    3    3    0    0 -0.24871587975E+01  0.63321442621E+01 -0.28761466547E+02  0.29555100537E+02  0.00000000000E+00 0.  1.
        -11    1    3    3    0    0 -0.32729453718E+02  0.58803639555E+03 -0.55981808524E+03  0.81256034127E+03  0.00000000000E+00 0. -1.
          4    1    6    6  502    0 -0.85518553885E+02 -0.32474752033E+03 -0.57085037776E+03  0.66230244512E+03  0.00000000000E+00 0. -1.
          3    1    5    5  503    0  0.13751497500E+03 -0.76846340547E+02  0.14349972984E+03  0.21309129703E+03  0.00000000000E+00 0. -1.
         -4    1    5    5    0  503  0.74734338602E+02 -0.52826057586E+02  0.16587976857E+02  0.93010616075E+02  0.00000000000E+00 0.  1.
         -3    1    6    6    0  502 -0.91514147205E+02 -0.13994862135E+03 -0.26113807405E+03  0.31008635809E+03  0.00000000000E+00 0.  1.
<mgrwt>
<rscale>  0 0.17053328E+04</rscale>
<asrwt>0</asrwt>
<pdfrwt beam="1">  1        2 0.26008357E+00 0.17053328E+04</pdfrwt>
<pdfrwt beam="2">  1       -2 0.66163528E-01 0.17053328E+04</pdfrwt>
<totfact> 0.19836631E+01</totfact>
</mgrwt>
</event>
<event>
12    1  0.1494110E-007  0.1403249E+04  0.7818608E-02  0.8951470E-01
         -2   -1    0    0    0  501 -0.00000000000E+00  0.00000000000E+00  0.40115181879E+03  0.40115181879E+03  0.00000000000E+00 0.  1.
          2   -1    0    0  501    0  0.00000000000E+00 -0.00000000000E+00 -0.12271585490E+04  0.12271585490E+04  0.00000000000E+00 0. -1.
         23    2    1    2    0    0  0.75758028604E+01  0.31055549606E+03  0.65536858747E+02  0.33029532699E+03  0.91092339191E+02 0.  0.
        254    2    1    2    0    0 -0.75758028604E+01 -0.31055549606E+03 -0.89154358900E+03  0.12980150408E+04  0.89078109894E+03 0.  0.
        -24    2    4    4    0    0 -0.30788523179E+03 -0.46974764059E+03 -0.39532261931E+03  0.69158732651E+03  0.80974656916E+02 0.  0.
         24    2    4    4    0    0  0.30030942893E+03  0.15919214453E+03 -0.49622096969E+03  0.60642771432E+03  0.77404327736E+02 0.  0.
         13    1    3    3    0    0 -0.38424357006E+01  0.20531730820E+03  0.85731244593E+02  0.22253046456E+03  0.00000000000E+00 0.  1.
        -13    1    3    3    0    0  0.11418238561E+02  0.10523818786E+03 -0.20194385846E+02  0.10776486243E+03  0.00000000000E+00 0. -1.
          2    1    6    6  502    0  0.28959070687E+03  0.14069545865E+03 -0.43224673306E+03  0.53897609207E+03  0.00000000000E+00 0. -1.
          3    1    5    5  503    0 -0.26641069048E+03 -0.43794750032E+03 -0.33800299039E+03  0.61401847737E+03  0.00000000000E+00 0. -1.
         -4    1    5    5    0  503 -0.41474541306E+02 -0.31800140269E+02 -0.57319628923E+02  0.77568849144E+02  0.00000000000E+00 0.  1.
         -1    1    6    6    0  502  0.10718722064E+02  0.18496685878E+02 -0.63974236627E+02  0.67451622243E+02  0.00000000000E+00 0.  1.
<mgrwt>
<rscale>  0 0.14032489E+04</rscale>
<asrwt>0</asrwt>
<pdfrwt beam="1">  1        2 0.18879362E+00 0.14032489E+04</pdfrwt>
<pdfrwt beam="2">  1       -2 0.61715665E-01 0.14032489E+04</pdfrwt>
<totfact> 0.43315345E+01</totfact>
</mgrwt>
</event>
<event>
12    1  0.1494110E-007  0.1358810E+04  0.7818608E-02  0.8984186E-01
          2   -1    0    0  501    0  0.00000000000E+00  0.00000000000E+00  0.16874617360E+04  0.16874617360E+04  0.00000000000E+00 0. -1.
         -2   -1    0    0    0  501 -0.00000000000E+00 -0.00000000000E+00 -0.27354175457E+03  0.27354175457E+03  0.00000000000E+00 0.  1.
         23    2    1    2    0    0 -0.99508025983E+02 -0.72422830350E+02  0.90053991131E+03  0.91335023234E+03  0.89942211779E+02 0.  0.
        254    2    1    2    0    0  0.99508025983E+02  0.72422830350E+02  0.51338007009E+03  0.10476532582E+04  0.90491510070E+03 0.  0.
        -24    2    4    4    0    0 -0.27180628566E+03 -0.13247592664E+03  0.53040026774E+03  0.61514759619E+03  0.75190378424E+02 0.  0.
         24    2    4    4    0    0  0.37131431165E+03  0.20489875699E+03 -0.17020197653E+02  0.43250566202E+03  0.83148312678E+02 0.  0.
         13    1    3    3    0    0 -0.90740784305E+02 -0.57121544564E+02  0.87898430049E+03  0.88549994991E+03  0.00000000000E+00 0. -1.
        -13    1    3    3    0    0 -0.87672416774E+01 -0.15301285786E+02  0.21555610823E+02  0.27850282428E+02  0.00000000000E+00 0.  1.
          4    1    6    6  502    0  0.12178230169E+03  0.10993871021E+03  0.85908927049E+01  0.16429014713E+03  0.00000000000E+00 0. -1.
          1    1    5    5  503    0 -0.18853865280E+02 -0.27111738454E+02  0.29913457557E+02  0.44557036942E+02  0.00000000000E+00 0. -1.
         -2    1    5    5    0  503 -0.25295242038E+03 -0.10536418819E+03  0.50048681019E+03  0.57059055925E+03  0.00000000000E+00 0.  1.
         -3    1    6    6    0  502  0.24953200995E+03  0.94960046784E+02 -0.25611090358E+02  0.26821551489E+03  0.00000000000E+00 0.  1.
<mgrwt>
<rscale>  0 0.13588101E+04</rscale>
<asrwt>0</asrwt>
<pdfrwt beam="1">  1        2 0.25960949E+00 0.13588101E+04</pdfrwt>
<pdfrwt beam="2">  1       -2 0.42083348E-01 0.13588101E+04</pdfrwt>
<totfact> 0.52052945E+01</totfact>
</mgrwt>
</event>
<event>
12    1  0.1494110E-007  0.1717111E+04  0.7818608E-02  0.8751665E-01
         -2   -1    0    0    0  501 -0.00000000000E+00  0.00000000000E+00  0.48485147147E+03  0.48485147147E+03  0.00000000000E+00 0.  1.
          2   -1    0    0  501    0  0.00000000000E+00 -0.00000000000E+00 -0.15202947022E+04  0.15202947022E+04  0.00000000000E+00 0. -1.
         23    2    1    2    0    0  0.11517833384E+03  0.60551051564E+03 -0.31366678527E+03  0.69696870845E+03  0.86426241613E+02 0.  0.
        254    2    1    2    0    0 -0.11517833384E+03 -0.60551051564E+03 -0.72177644547E+03  0.13081774652E+04  0.90025441414E+03 0.  0.
        -24    2    4    4    0    0 -0.31414596501E+03 -0.16206006766E+03  0.76346582910E+02  0.37035615929E+03  0.79898254899E+02 0.  0.
         24    2    4    4    0    0  0.19896763117E+03 -0.44345044798E+03 -0.79812302838E+03  0.93782130595E+03  0.79196056650E+02 0.  0.
         11    1    3    3    0    0  0.12483526546E+03  0.58933693055E+03 -0.29626254828E+03  0.67132209760E+03  0.00000000000E+00 0. -1.
        -11    1    3    3    0    0 -0.96569316167E+01  0.16173585094E+02 -0.17404236993E+02  0.25646610855E+02  0.00000000000E+00 0.  1.
          2    1    6    6  502    0  0.31911149392E+02 -0.15844753525E+03 -0.24327668557E+03  0.29207445733E+03  0.00000000000E+00 0. -1.
          3    1    5    5  503    0 -0.87668774279E+02 -0.26055579534E+02  0.51631367785E+02  0.10502621267E+03  0.00000000000E+00 0. -1.
         -4    1    5    5    0  503 -0.22647719073E+03 -0.13600448813E+03  0.24715215125E+02  0.26532994662E+03  0.00000000000E+00 0.  1.
         -1    1    6    6    0  502  0.16705648178E+03 -0.28500291273E+03 -0.55484634281E+03  0.64574684862E+03  0.00000000000E+00 0.  1.
<mgrwt>
<rscale>  0 0.17171105E+04</rscale>
<asrwt>0</asrwt>
<pdfrwt beam="1">  1        2 0.23389149E+00 0.17171105E+04</pdfrwt>
<pdfrwt beam="2">  1       -2 0.74592535E-01 0.17171105E+04</pdfrwt>
<totfact> 0.18987303E+01</totfact>
</mgrwt>
</event>
<event>
12    1  0.1494110E-007  0.4539857E+04  0.7818608E-02  0.7903696E-01
         -2   -1    0    0    0  501 -0.00000000000E+00  0.00000000000E+00  0.25309187034E+04  0.25309187034E+04  0.00000000000E+00 0.  1.
          2   -1    0    0  501    0  0.00000000000E+00 -0.00000000000E+00 -0.20358519606E+04  0.20358519606E+04  0.00000000000E+00 0. -1.
         23    2    1    2    0    0 -0.21594541847E+03  0.93901095770E+03 -0.17385500882E+04  0.19898279664E+04  0.92113649122E+02 0.  0.
        254    2    1    2    0    0  0.21594541847E+03 -0.93901095770E+03  0.22336168310E+04  0.25769426976E+04  0.85042078796E+03 0.  0.
        -24    2    4    4    0    0 -0.37287297990E+02 -0.51579826151E+03  0.19129893390E+04  0.19832747820E+04  0.80077842335E+02 0.  0.
         24    2    4    4    0    0  0.25323271646E+03 -0.42321269619E+03  0.32062749199E+03  0.59366791555E+03  0.80023811640E+02 0.  0.
         11    1    3    3    0    0 -0.19796973255E+03  0.85032811679E+03 -0.16244426190E+04  0.18441973169E+04  0.00000000000E+00 0. -1.
        -11    1    3    3    0    0 -0.17975685928E+02  0.88682840914E+02 -0.11410746919E+03  0.14563064953E+03  0.00000000000E+00 0.  1.
          2    1    6    6  502    0  0.72785895071E+01 -0.10927775369E+02  0.29314094139E+02  0.32120246806E+02  0.00000000000E+00 0. -1.
          3    1    5    5  503    0  0.23468699389E+02 -0.10491384032E+03  0.36110163265E+03  0.37676528880E+03  0.00000000000E+00 0. -1.
         -4    1    5    5    0  503 -0.60755997379E+02 -0.41088442118E+03  0.15518877063E+04  0.16065094932E+04  0.00000000000E+00 0.  1.
         -1    1    6    6    0  502  0.24595412696E+03 -0.41228492082E+03  0.29131339785E+03  0.56154766875E+03  0.00000000000E+00 0.  1.
<mgrwt>
<rscale>  0 0.45398572E+04</rscale>
<asrwt>0</asrwt>
<pdfrwt beam="1">  1        2 0.31320799E+00 0.45398572E+04</pdfrwt>
<pdfrwt beam="2">  1       -2 0.38937211E+00 0.45398572E+04</pdfrwt>
<totfact> 0.41962841E-02</totfact>
</mgrwt>
</event>
<event>
12    1  0.1494110E-007  0.1760308E+04  0.7818608E-02  0.8727697E-01
          4   -1    0    0  501    0  0.00000000000E+00  0.00000000000E+00  0.14065677051E+04  0.14065677051E+04  0.00000000000E+00 0. -1.
         -4   -1    0    0    0  501 -0.00000000000E+00 -0.00000000000E+00 -0.55075267459E+03  0.55075267459E+03  0.00000000000E+00 0.  1.
         23    2    1    2    0    0  0.24212718196E+03 -0.44872957120E+03  0.76004630435E+03  0.92057995278E+03  0.99061922021E+02 0.  0.
        254    2    1    2    0    0 -0.24212718196E+03  0.44872957120E+03  0.95768726114E+02  0.10367404269E+04  0.89759415299E+03 0.  0.
        -24    2    4    4    0    0 -0.23154640241E+02 -0.13153647603E+03  0.33309429045E+03  0.36760405068E+03  0.79642638420E+02 0.  0.
         24    2    4    4    0    0 -0.21897254172E+03  0.58026604723E+03 -0.23732556434E+03  0.66913637619E+03  0.82233854667E+02 0.  0.
         13    1    3    3    0    0  0.20995890501E+03 -0.30701243851E+03  0.58284685590E+03  0.69141148141E+03  0.00000000000E+00 0. -1.
        -13    1    3    3    0    0  0.32168276947E+02 -0.14171713269E+03  0.17719944845E+03  0.22916847137E+03  0.00000000000E+00 0.  1.
          4    1    6    6  502    0 -0.20998076692E+03  0.47205527655E+03 -0.18692988853E+03  0.54942778399E+03  0.00000000000E+00 0. -1.
          1    1    5    5  503    0 -0.64710027833E+01 -0.12538210265E+03  0.22154531548E+03  0.25464656360E+03  0.00000000000E+00 0. -1.
         -2    1    5    5    0  503 -0.16683637458E+02 -0.61543733788E+01  0.11154897497E+03  0.11295748708E+03  0.00000000000E+00 0.  1.
         -3    1    6    6    0  502 -0.89917747951E+01  0.10821077068E+03 -0.50395675808E+02  0.11970859220E+03  0.00000000000E+00 0.  1.
<mgrwt>
<rscale>  0 0.17603078E+04</rscale>
<asrwt>0</asrwt>
<pdfrwt beam="1">  1        4 0.21639503E+00 0.17603078E+04</pdfrwt>
<pdfrwt beam="2">  1       -4 0.84731181E-01 0.17603078E+04</pdfrwt>
<totfact> 0.23726017E-01</totfact>
</mgrwt>
</event>
<event>
12    1  0.1494110E-007  0.1481251E+04  0.7818608E-02  0.8897017E-01
          1   -1    0    0  501    0  0.00000000000E+00  0.00000000000E+00  0.78683819831E+03  0.78683819831E+03  0.00000000000E+00 0. -1.
         -1   -1    0    0    0  501 -0.00000000000E+00 -0.00000000000E+00 -0.69712737206E+03  0.69712737206E+03  0.00000000000E+00 0.  1.
         23    2    1    2    0    0 -0.27832399347E+02 -0.45182966180E+03  0.89025365917E+02  0.47013740825E+03  0.90437719603E+02 0.  0.
        254    2    1    2    0    0  0.27832399347E+02  0.45182966180E+03  0.68546033668E+00  0.10138281621E+04  0.90715069680E+03 0.  0.
        -24    2    4    4    0    0 -0.16681404179E+03 -0.15109404784E+02  0.34806199435E+03  0.39487002460E+03  0.81975397308E+02 0.  0.
         24    2    4    4    0    0  0.19464644114E+03  0.46693906658E+03 -0.34737653401E+03  0.61895813751E+03  0.80742743730E+02 0.  0.
         13    1    3    3    0    0 -0.53898957346E+02 -0.33494983164E+03  0.43551204771E+02  0.34204267972E+03  0.00000000000E+00 0.  1.
        -13    1    3    3    0    0  0.26066557999E+02 -0.11687983016E+03  0.45474161146E+02  0.12809472853E+03  0.00000000000E+00 0. -1.
          4    1    6    6  502    0  0.86478581931E+02  0.28598495990E+03 -0.23458178344E+03  0.37986123196E+03  0.00000000000E+00 0. -1.
          1    1    5    5  503    0 -0.43932817643E+02 -0.37527982083E+02  0.14961516453E+03  0.16038434887E+03  0.00000000000E+00 0. -1.
         -2    1    5    5    0  503 -0.12288122415E+03  0.22418577299E+02  0.19844682982E+03  0.23448567573E+03  0.00000000000E+00 0.  1.
         -3    1    6    6    0  502  0.10816785920E+03  0.18095410669E+03 -0.11279475057E+03  0.23909690556E+03  0.00000000000E+00 0.  1.
<mgrwt>
<rscale>  0 0.14812514E+04</rscale>
<asrwt>0</asrwt>
<pdfrwt beam="1">  1        1 0.12105203E+00 0.14812514E+04</pdfrwt>
<pdfrwt beam="2">  1       -1 0.10725036E+00 0.14812514E+04</pdfrwt>
<totfact> 0.17827189E+01</totfact>
</mgrwt>
</event>
<event>
12    1  0.1494110E-007  0.2627855E+04  0.7818608E-02  0.8358801E-01
         -1   -1    0    0    0  501 -0.00000000000E+00  0.00000000000E+00  0.65365768286E+03  0.65365768286E+03  0.00000000000E+00 0.  1.
          1   -1    0    0  501    0  0.00000000000E+00 -0.00000000000E+00 -0.26411460820E+04  0.26411460820E+04  0.00000000000E+00 0. -1.
         23    2    1    2    0    0 -0.34731920441E+03  0.99212840282E+03 -0.13077388630E+04  0.16802433686E+04  0.89930231676E+02 0.  0.
        254    2    1    2    0    0  0.34731920441E+03 -0.99212840282E+03 -0.67974953613E+03  0.16145603962E+04  0.10197040962E+04 0.  0.
        -24    2    4    4    0    0  0.64274389438E+03 -0.87297028007E+03 -0.68809621577E+03  0.12864932803E+04  0.79948324103E+02 0.  0.
         24    2    4    4    0    0 -0.29542468996E+03 -0.11915812275E+03  0.83466796363E+01  0.32806711589E+03  0.77999742369E+02 0.  0.
         11    1    3    3    0    0 -0.31058534955E+03  0.94793528970E+03 -0.12341445263E+04  0.15868702797E+04  0.00000000000E+00 0. -1.
        -11    1    3    3    0    0 -0.36733854860E+02  0.44193113121E+02 -0.73594336643E+02  0.93373088875E+02  0.00000000000E+00 0.  1.
          4    1    6    6  502    0 -0.13694405505E+03 -0.79218338227E+02 -0.27932113090E+02  0.16065311160E+03  0.00000000000E+00 0. -1.
          3    1    5    5  503    0  0.21085553835E+03 -0.22703469687E+03 -0.18680170848E+03  0.36180062179E+03  0.00000000000E+00 0. -1.
         -4    1    5    5    0  503  0.43188835602E+03 -0.64593558320E+03 -0.50129450729E+03  0.92469265854E+03  0.00000000000E+00 0.  1.
         -3    1    6    6    0  502 -0.15848063492E+03 -0.39939784520E+02  0.36278792727E+02  0.16741400429E+03  0.00000000000E+00 0.  1.
<mgrwt>
<rscale>  0 0.26278550E+04</rscale>
<asrwt>0</asrwt>
<pdfrwt beam="1">  1        1 0.40633017E+00 0.26278550E+04</pdfrwt>
<pdfrwt beam="2">  1       -1 0.10056272E+00 0.26278550E+04</pdfrwt>
<totfact> 0.89219992E-01</totfact>
</mgrwt>
</event>
<event>
12    1  0.1494110E-007  0.2184035E+04  0.7818608E-02  0.8525103E-01
          1   -1    0    0  501    0  0.00000000000E+00  0.00000000000E+00  0.41018578199E+04  0.41018578199E+04  0.00000000000E+00 0. -1.
         -1   -1    0    0    0  501 -0.00000000000E+00 -0.00000000000E+00 -0.29072252328E+03  0.29072252328E+03  0.00000000000E+00 0.  1.
         23    2    1    2    0    0  0.10249523051E+03 -0.29587954391E+03 -0.14298016130E+03  0.35634012468E+03  0.92113957386E+02 0.  0.
        254    2    1    2    0    0 -0.10249523051E+03  0.29587954391E+03  0.39541154579E+04  0.40362402185E+04  0.74709843402E+03 0.  0.
        -24    2    4    4    0    0  0.12278014573E+03  0.48062161899E+03  0.26712767137E+04  0.27183507345E+04  0.87403261900E+02 0.  0.
         24    2    4    4    0    0 -0.22527537624E+03 -0.18474207508E+03  0.12828387442E+04  0.13178894839E+04  0.79238997546E+02 0.  0.
         11    1    3    3    0    0  0.10248146164E+03 -0.23682731608E+03 -0.80371570255E+02  0.27027618638E+03  0.00000000000E+00 0.  1.
        -11    1    3    3    0    0  0.13768872566E-01 -0.59052227837E+02 -0.62608591048E+02  0.86063938297E+02  0.00000000000E+00 0. -1.
          2    1    6    6  502    0  0.59112117282E+01 -0.11424039360E+02  0.62662192918E+02  0.63968754253E+02  0.00000000000E+00 0. -1.
          3    1    5    5  503    0  0.14692820151E+02  0.11626169319E+02  0.18289070411E+03  0.18384791657E+03  0.00000000000E+00 0. -1.
         -4    1    5    5    0  503  0.10808732557E+03  0.46899544967E+03  0.24883860096E+04  0.25345028180E+04  0.00000000000E+00 0.  1.
         -1    1    6    6    0  502 -0.23118658797E+03 -0.17331803572E+03  0.12201765513E+04  0.12539207297E+04  0.00000000000E+00 0.  1.
<mgrwt>
<rscale>  0 0.21840352E+04</rscale>
<asrwt>0</asrwt>
<pdfrwt beam="1">  1        1 0.63105500E+00 0.21840352E+04</pdfrwt>
<pdfrwt beam="2">  1       -1 0.44726545E-01 0.21840352E+04</pdfrwt>
<totfact> 0.35426712E-01</totfact>
</mgrwt>
</event>
<event>
12    1  0.1494110E-007  0.1770130E+04  0.7818608E-02  0.8722347E-01
          2   -1    0    0  501    0  0.00000000000E+00  0.00000000000E+00  0.24625584852E+04  0.24625584852E+04  0.00000000000E+00 0. -1.
         -2   -1    0    0    0  501 -0.00000000000E+00 -0.00000000000E+00 -0.31809995222E+03  0.31809995222E+03  0.00000000000E+00 0.  1.
         23    2    1    2    0    0  0.48762053577E+03 -0.10158426134E+02  0.14840835834E+04  0.15638510611E+04  0.72450522838E+02 0.  0.
        254    2    1    2    0    0 -0.48762053577E+03  0.10158426134E+02  0.66037494960E+03  0.12168073763E+04  0.89813592319E+03 0.  0.
        -24    2    4    4    0    0 -0.41751140396E+03  0.28257026865E+03  0.75382288505E+03  0.90995339516E+03  0.74863276493E+02 0.  0.
         24    2    4    4    0    0 -0.70109131809E+02 -0.27241184252E+03 -0.93447935450E+02  0.30685398118E+03  0.79393619529E+02 0.  0.
         13    1    3    3    0    0  0.24995564104E+03  0.29952917606E+01  0.87170786693E+03  0.90684144123E+03  0.00000000000E+00 0. -1.
        -13    1    3    3    0    0  0.23766489473E+03 -0.13153717894E+02  0.61237571643E+03  0.65700961984E+03  0.00000000000E+00 0.  1.
          4    1    6    6  502    0 -0.67451038120E+02 -0.16106902382E+03 -0.87506898268E+02  0.19532109518E+03  0.00000000000E+00 0. -1.
          1    1    5    5  503    0 -0.92224057557E+02  0.57988882870E+02  0.22231252569E+03  0.24756988187E+03  0.00000000000E+00 0. -1.
         -2    1    5    5    0  503 -0.32528734641E+03  0.22458138578E+03  0.53151035936E+03  0.66238351329E+03  0.00000000000E+00 0.  1.
         -1    1    6    6    0  502 -0.26580936895E+01 -0.11134281870E+03 -0.59410371818E+01  0.11153288601E+03  0.00000000000E+00 0.  1.
<mgrwt>
<rscale>  0 0.17701296E+04</rscale>
<asrwt>0</asrwt>
<pdfrwt beam="1">  1        2 0.37885514E+00 0.17701296E+04</pdfrwt>
<pdfrwt beam="2">  1       -2 0.48938456E-01 0.17701296E+04</pdfrwt>
<totfact> 0.13706036E+01</totfact>
</mgrwt>
</event>
<event>
12    1  0.1494110E-007  0.1300812E+04  0.7818608E-02  0.9028921E-01
          1   -1    0    0  501    0  0.00000000000E+00  0.00000000000E+00  0.10047082014E+04  0.10047082014E+04  0.00000000000E+00 0. -1.
         -1   -1    0    0    0  501 -0.00000000000E+00 -0.00000000000E+00 -0.42104579383E+03  0.42104579383E+03  0.00000000000E+00 0.  1.
         23    2    1    2    0    0 -0.23597337189E+03  0.13772912564E+03  0.35237450881E+03  0.45504848651E+03  0.90821728246E+02 0.  0.
        254    2    1    2    0    0  0.23597337189E+03 -0.13772912564E+03  0.23128789879E+03  0.97070550876E+03  0.90228728703E+03 0.  0.
        -24    2    4    4    0    0 -0.31876819587E+01 -0.43059633266E+03 -0.11403063114E+03  0.45258682275E+03  0.80053009119E+02 0.  0.
         24    2    4    4    0    0  0.23916105385E+03  0.29286720702E+03  0.34531852994E+03  0.51811868601E+03  0.78948559551E+02 0.  0.
         11    1    3    3    0    0 -0.13470286992E+03  0.10574548186E+03  0.15530825825E+03  0.23118742436E+03  0.00000000000E+00 0.  1.
        -11    1    3    3    0    0 -0.10127050196E+03  0.31983643785E+02  0.19706625056E+03  0.22386106215E+03  0.00000000000E+00 0. -1.
          4    1    6    6  502    0  0.43684433093E+01  0.29747942772E+01 -0.43258414140E+01  0.68297585519E+01  0.00000000000E+00 0. -1.
          1    1    5    5  503    0 -0.45116280560E+01 -0.47433493686E+00  0.45410275987E+01  0.64187781547E+01  0.00000000000E+00 0. -1.
         -2    1    5    5    0  503  0.13239460973E+01 -0.43012199773E+03 -0.11857165874E+03  0.44616804460E+03  0.00000000000E+00 0.  1.
         -3    1    6    6    0  502  0.23479261054E+03  0.28989241274E+03  0.34964437135E+03  0.51128892746E+03  0.00000000000E+00 0.  1.
<mgrwt>
<rscale>  0 0.13008123E+04</rscale>
<asrwt>0</asrwt>
<pdfrwt beam="1">  1        1 0.15457049E+00 0.13008123E+04</pdfrwt>
<pdfrwt beam="2">  1       -1 0.64776276E-01 0.13008123E+04</pdfrwt>
<totfact> 0.35622416E+01</totfact>
</mgrwt>
</event>
<event>
12    1  0.1494110E-007  0.1596382E+04  0.7818608E-02  0.8822774E-01
         -2   -1    0    0    0  501 -0.00000000000E+00  0.00000000000E+00  0.30575430355E+03  0.30575430355E+03  0.00000000000E+00 0.  1.
          2   -1    0    0  501    0  0.00000000000E+00 -0.00000000000E+00 -0.20837269820E+04  0.20837269820E+04  0.00000000000E+00 0. -1.
         23    2    1    2    0    0 -0.21251951904E+03 -0.23008000414E+03  0.45354154622E+02  0.32997225375E+03  0.93398793483E+02 0.  0.
        254    2    1    2    0    0  0.21251951904E+03  0.23008000414E+03 -0.18233268331E+04  0.20595090318E+04  0.90496152273E+03 0.  0.
        -24    2    4    4    0    0  0.41096639095E+03  0.42694484513E+03 -0.15439277364E+04  0.16557460958E+04  0.81283473219E+02 0.  0.
         24    2    4    4    0    0 -0.19844687190E+03 -0.19686484099E+03 -0.27939909662E+03  0.40376293603E+03  0.82605851710E+02 0.  0.
         11    1    3    3    0    0 -0.17108708136E+03 -0.21316760895E+03  0.65224480648E+02  0.28100792122E+03  0.00000000000E+00 0.  1.
        -11    1    3    3    0    0 -0.41432437682E+02 -0.16912395187E+02 -0.19870326026E+02  0.48964332525E+02  0.00000000000E+00 0. -1.
          4    1    6    6  502    0 -0.25122818977E+01  0.38395457552E+01  0.32035050361E+01  0.55960804547E+01  0.00000000000E+00 0. -1.
          1    1    5    5  503    0  0.11898280566E+03  0.80877760461E+02 -0.42432443766E+03  0.44805060939E+03  0.00000000000E+00 0. -1.
         -2    1    5    5    0  503  0.29198358529E+03  0.34606708467E+03 -0.11196032988E+04  0.12076954864E+04  0.00000000000E+00 0.  1.
         -3    1    6    6    0  502 -0.19593459001E+03 -0.20070438674E+03 -0.28260260165E+03  0.39816685558E+03  0.00000000000E+00 0.  1.
<mgrwt>
<rscale>  0 0.15963815E+04</rscale>
<asrwt>0</asrwt>
<pdfrwt beam="1">  1        2 0.32057339E+00 0.15963815E+04</pdfrwt>
<pdfrwt beam="2">  1       -2 0.47039123E-01 0.15963815E+04</pdfrwt>
<totfact> 0.24665646E+01</totfact>
</mgrwt>
</event>
<event>
12    1  0.1494110E-007  0.1862574E+04  0.7818608E-02  0.8673713E-01
         -1   -1    0    0    0  501 -0.00000000000E+00  0.00000000000E+00  0.14613241457E+04  0.14613241457E+04  0.00000000000E+00 0.  1.
          1   -1    0    0  501    0  0.00000000000E+00 -0.00000000000E+00 -0.59349974410E+03  0.59349974410E+03  0.00000000000E+00 0. -1.
         23    2    1    2    0    0  0.39163498168E+03  0.34243862473E+03 -0.20264187251E+03  0.56540382327E+03  0.89306126857E+02 0.  0.
        254    2    1    2    0    0 -0.39163498168E+03 -0.34243862473E+03  0.10704662741E+04  0.14894200665E+04  0.89545067980E+03 0.  0.
        -24    2    4    4    0    0  0.12445833101E+03 -0.10650604673E+03 -0.84101361086E+02  0.20058929408E+03  0.79558857559E+02 0.  0.
         24    2    4    4    0    0 -0.51609331269E+03 -0.23593257800E+03  0.11545676352E+04  0.12888307724E+04  0.77729318695E+02 0.  0.
         13    1    3    3    0    0  0.36171838032E+03  0.34215550002E+03 -0.19224182363E+03  0.53372979270E+03  0.00000000000E+00 0. -1.
        -13    1    3    3    0    0  0.29916601352E+02  0.28312470885E+00 -0.10400048877E+02  0.31674030572E+02  0.00000000000E+00 0.  1.
          4    1    6    6  502    0 -0.99613063457E+02 -0.30250145374E+02  0.15643978138E+03  0.18791284923E+03  0.00000000000E+00 0. -1.
          1    1    5    5  503    0  0.12313810900E+02  0.10132564221E+02  0.38784904518E+01  0.16411626511E+02  0.00000000000E+00 0. -1.
         -2    1    5    5    0  503  0.11214452011E+03 -0.11663861095E+03 -0.87979851538E+02  0.18417766757E+03  0.00000000000E+00 0.  1.
         -3    1    6    6    0  502 -0.41648024923E+03 -0.20568243263E+03  0.99812785377E+03  0.11009179232E+04  0.00000000000E+00 0.  1.
<mgrwt>
<rscale>  0 0.18625740E+04</rscale>
<asrwt>0</asrwt>
<pdfrwt beam="1">  1        1 0.91307653E-01 0.18625740E+04</pdfrwt>
<pdfrwt beam="2">  1       -1 0.22481910E+00 0.18625740E+04</pdfrwt>
<totfact> 0.33364043E+00</totfact>
</mgrwt>
</event>
<event>
12    1  0.1494110E-007  0.1806013E+04  0.7818608E-02  0.8703108E-01
         -1   -1    0    0    0  501 -0.00000000000E+00  0.00000000000E+00  0.79507191855E+03  0.79507191855E+03  0.00000000000E+00 0.  1.
          1   -1    0    0  501    0  0.00000000000E+00 -0.00000000000E+00 -0.10255935915E+04  0.10255935915E+04  0.00000000000E+00 0. -1.
         23    2    1    2    0    0  0.44131512614E+03 -0.50225053922E+03 -0.17502775285E+03  0.69865064660E+03  0.10229060089E+03 0.  0.
        254    2    1    2    0    0 -0.44131512614E+03  0.50225053922E+03 -0.55493920117E+02  0.11220148635E+04  0.89934594787E+03 0.  0.
        -24    2    4    4    0    0 -0.70541870164E+03  0.28636688692E+03 -0.87129133848E+02  0.77047726667E+03  0.80138592077E+02 0.  0.
         24    2    4    4    0    0  0.26410357550E+03  0.21588365230E+03  0.31635213731E+02  0.35153759680E+03  0.78876138940E+02 0.  0.
         11    1    3    3    0    0  0.16947647869E+03 -0.12714900114E+03 -0.74788303383E+02  0.22468296696E+03  0.00000000000E+00 0. -1.
        -11    1    3    3    0    0  0.27183864744E+03 -0.37510153808E+03 -0.10023944947E+03  0.47396767964E+03  0.00000000000E+00 0.  1.
          2    1    6    6  502    0  0.20346447086E+02  0.51931468178E+02  0.12444346610E+02  0.57146452721E+02  0.00000000000E+00 0. -1.
          3    1    5    5  503    0 -0.65736018933E+03  0.24494255368E+03 -0.88097903125E+02  0.70702228654E+03  0.00000000000E+00 0. -1.
         -4    1    5    5    0  503 -0.48058512302E+02  0.41424333243E+02  0.96876927690E+00  0.63454980129E+02  0.00000000000E+00 0.  1.
         -1    1    6    6    0  502  0.24375712841E+03  0.16395218412E+03  0.19190867122E+02  0.29439114407E+03  0.00000000000E+00 0.  1.
<mgrwt>
<rscale>  0 0.18060129E+04</rscale>
<asrwt>0</asrwt>
<pdfrwt beam="1">  1        1 0.15778363E+00 0.18060129E+04</pdfrwt>
<pdfrwt beam="2">  1       -1 0.12231876E+00 0.18060129E+04</pdfrwt>
<totfact> 0.80509852E+00</totfact>
</mgrwt>
</event>
<event>
12    1  0.1494110E-007  0.1284174E+04  0.7818608E-02  0.9042210E-01
          2   -1    0    0  501    0  0.00000000000E+00  0.00000000000E+00  0.35190845804E+03  0.35190845804E+03  0.00000000000E+00 0. -1.
         -2   -1    0    0    0  501 -0.00000000000E+00 -0.00000000000E+00 -0.11715433848E+04  0.11715433848E+04  0.00000000000E+00 0.  1.
         23    2    1    2    0    0 -0.80816381803E+00  0.68111981281E+02 -0.58328131631E+03  0.59420145946E+03  0.90655310634E+02 0.  0.
        254    2    1    2    0    0  0.80816381803E+00 -0.68111981281E+02 -0.23635361047E+03  0.92925038340E+03  0.89610454230E+03 0.  0.
        -24    2    4    4    0    0  0.30224907153E+03  0.28854984355E+03 -0.10524454020E+03  0.43781691060E+03  0.77406204592E+02 0.  0.
         24    2    4    4    0    0 -0.30144090771E+03 -0.35666182483E+03 -0.13110907027E+03  0.49143347280E+03  0.79012604989E+02 0.  0.
         13    1    3    3    0    0  0.34809120768E+02  0.90725142958E+01 -0.32096315647E+03  0.32297265087E+03  0.00000000000E+00 0.  1.
        -13    1    3    3    0    0 -0.35617284586E+02  0.59039466985E+02 -0.26231815985E+03  0.27122880859E+03  0.00000000000E+00 0. -1.
          4    1    6    6  502    0 -0.19486889014E+03 -0.28298213700E+03 -0.10492635758E+03  0.35925243871E+03  0.00000000000E+00 0. -1.
          3    1    5    5  503    0  0.25991243660E+03  0.20576650280E+03 -0.73381007152E+02  0.33952776114E+03  0.00000000000E+00 0. -1.
         -4    1    5    5    0  503  0.42336634932E+02  0.82783340750E+02 -0.31863533045E+02  0.98289149458E+02  0.00000000000E+00 0.  1.
         -3    1    6    6    0  502 -0.10657201758E+03 -0.73679687830E+02 -0.26182712684E+02  0.13218103409E+03  0.00000000000E+00 0.  1.
<mgrwt>
<rscale>  0 0.12841745E+04</rscale>
<asrwt>0</asrwt>
<pdfrwt beam="1">  1        2 0.54139762E-01 0.12841745E+04</pdfrwt>
<pdfrwt beam="2">  1       -2 0.18023745E+00 0.12841745E+04</pdfrwt>
<totfact> 0.16261324E+01</totfact>
</mgrwt>
</event>
<event>
12    1  0.1494110E-007  0.1991528E+04  0.7818608E-02  0.8610592E-01
          1   -1    0    0  501    0  0.00000000000E+00  0.00000000000E+00  0.13796711722E+04  0.13796711722E+04  0.00000000000E+00 0. -1.
         -1   -1    0    0    0  501 -0.00000000000E+00 -0.00000000000E+00 -0.71868256503E+03  0.71868256503E+03  0.00000000000E+00 0.  1.
         23    2    1    2    0    0 -0.65197461913E+02  0.12894873431E+03 -0.55360985915E+03  0.57918043149E+03  0.89931145627E+02 0.  0.
        254    2    1    2    0    0  0.65197461913E+02 -0.12894873431E+03  0.12145984663E+04  0.15191733057E+04  0.90097703267E+03 0.  0.
        -24    2    4    4    0    0 -0.22535346037E+03  0.39715903060E+02  0.11411096164E+04  0.11664617790E+04  0.78360641659E+02 0.  0.
         24    2    4    4    0    0  0.29055092228E+03 -0.16866463737E+03  0.73488849936E+02  0.35271152678E+03  0.78340358167E+02 0.  0.
         11    1    3    3    0    0 -0.65640563127E+02  0.98119474723E+02 -0.28041229544E+03  0.30424853373E+03  0.00000000000E+00 0. -1.
        -11    1    3    3    0    0  0.44310121372E+00  0.30829259591E+02 -0.27319756371E+03  0.27493189775E+03  0.00000000000E+00 0.  1.
          2    1    6    6  502    0  0.10177870596E+03 -0.21175729954E+02  0.74855458603E+01  0.10422739526E+03  0.00000000000E+00 0. -1.
          1    1    5    5  503    0 -0.56517095959E+02 -0.23794585433E+02  0.27122487951E+03  0.27807067393E+03  0.00000000000E+00 0. -1.
         -2    1    5    5    0  503 -0.16883636441E+03  0.63510488493E+02  0.86988473686E+03  0.88839110504E+03  0.00000000000E+00 0.  1.
         -1    1    6    6    0  502  0.18877221632E+03 -0.14748890742E+03  0.66003304075E+02  0.24848413152E+03  0.00000000000E+00 0.  1.
<mgrwt>
<rscale>  0 0.19915277E+04</rscale>
<asrwt>0</asrwt>
<pdfrwt beam="1">  1        1 0.21225710E+00 0.19915277E+04</pdfrwt>
<pdfrwt beam="2">  1       -1 0.11056655E+00 0.19915277E+04</pdfrwt>
<totfact> 0.55576350E+00</totfact>
</mgrwt>
</event>
<event>
12    1  0.1494110E-007  0.2658702E+04  0.7818608E-02  0.8348530E-01
          1   -1    0    0  501    0  0.00000000000E+00  0.00000000000E+00  0.18708294681E+04  0.18708294681E+04  0.00000000000E+00 0. -1.
         -1   -1    0    0    0  501 -0.00000000000E+00 -0.00000000000E+00 -0.94459401277E+03  0.94459401277E+03  0.00000000000E+00 0.  1.
         23    2    1    2    0    0  0.22140587573E+02  0.11611452562E+04  0.59040609442E+03  0.13059125794E+04  0.89887692246E+02 0.  0.
        254    2    1    2    0    0 -0.22140587573E+02 -0.11611452562E+04  0.33582936087E+03  0.15095109014E+04  0.90393212707E+03 0.  0.
        -24    2    4    4    0    0 -0.32696190233E+03 -0.48202416797E+03 -0.16279631819E+03  0.61029103866E+03  0.81860409032E+02 0.  0.
         24    2    4    4    0    0  0.30482131476E+03 -0.67912108819E+03  0.49862567907E+03  0.89921986276E+03  0.76467688557E+02 0.  0.
         13    1    3    3    0    0 -0.53647533138E+01  0.79843560242E+03  0.36447489508E+03  0.87770732077E+03  0.00000000000E+00 0. -1.
        -13    1    3    3    0    0  0.27505340887E+02  0.36270965374E+03  0.22593119934E+03  0.42820525864E+03  0.00000000000E+00 0.  1.
          4    1    6    6  502    0  0.21564941851E+03 -0.39143494419E+03  0.28729457419E+03  0.53128538433E+03  0.00000000000E+00 0. -1.
          3    1    5    5  503    0 -0.23231950069E+03 -0.33820883068E+03 -0.75285230150E+02  0.41716355237E+03  0.00000000000E+00 0. -1.
         -4    1    5    5    0  503 -0.94642401647E+02 -0.14381533729E+03 -0.87511088044E+02  0.19312748629E+03  0.00000000000E+00 0.  1.
         -3    1    6    6    0  502  0.89171896246E+02 -0.28768614400E+03  0.21133110487E+03  0.36793447843E+03  0.00000000000E+00 0.  1.
<mgrwt>
<rscale>  0 0.26587022E+04</rscale>
<asrwt>0</asrwt>
<pdfrwt beam="1">  1        1 0.28781992E+00 0.26587022E+04</pdfrwt>
<pdfrwt beam="2">  1       -1 0.14532216E+00 0.26587022E+04</pdfrwt>
<totfact> 0.12136484E+00</totfact>
</mgrwt>
</event>
<event>
12    1  0.1494110E-007  0.1057311E+04  0.7818608E-02  0.9247829E-01
          2   -1    0    0  501    0  0.00000000000E+00  0.00000000000E+00  0.21527517616E+04  0.21527517616E+04  0.00000000000E+00 0. -1.
         -2   -1    0    0    0  501 -0.00000000000E+00 -0.00000000000E+00 -0.12982291386E+03  0.12982291386E+03  0.00000000000E+00 0.  1.
         23    2    1    2    0    0 -0.11736387268E+03 -0.68686905448E+01  0.38331238544E+03  0.41020063792E+03  0.86687490422E+02 0.  0.
        254    2    1    2    0    0  0.11736387268E+03  0.68686905448E+01  0.16396164624E+04  0.18723740376E+04  0.89644907021E+03 0.  0.
        -24    2    4    4    0    0  0.13982772133E+03 -0.30755236983E+03  0.20950953601E+03  0.40567899757E+03  0.80876149469E+02 0.  0.
         24    2    4    4    0    0 -0.22463848642E+02  0.31442106037E+03  0.14301069263E+04  0.14666950400E+04  0.81383609665E+02 0.  0.
         11    1    3    3    0    0 -0.56005618817E+02  0.12599762974E+02  0.29716483345E+03  0.30265875439E+03  0.00000000000E+00 0. -1.
        -11    1    3    3    0    0 -0.61358253867E+02 -0.19468453518E+02  0.86147551985E+02  0.10754188353E+03  0.00000000000E+00 0.  1.
          4    1    6    6  502    0 -0.21984523668E+02  0.21219275896E+02  0.95840378880E+02  0.10059301752E+03  0.00000000000E+00 0. -1.
          3    1    5    5  503    0  0.14087412997E+03 -0.27755786378E+03  0.21031663460E+03  0.37565539398E+03  0.00000000000E+00 0. -1.
         -4    1    5    5    0  503 -0.10464086436E+01 -0.29994506055E+02 -0.80709858734E+00  0.30023603592E+02  0.00000000000E+00 0.  1.
         -3    1    6    6    0  502 -0.47932497452E+00  0.29320178448E+03  0.13342665475E+04  0.13661020225E+04  0.00000000000E+00 0.  1.
<mgrwt>
<rscale>  0 0.10573108E+04</rscale>
<asrwt>0</asrwt>
<pdfrwt beam="1">  1        2 0.33119255E+00 0.10573108E+04</pdfrwt>
<pdfrwt beam="2">  1       -2 0.19972757E-01 0.10573108E+04</pdfrwt>
<totfact> 0.11760103E+02</totfact>
</mgrwt>
</event>
<event>
12    1  0.1494110E-007  0.1454960E+04  0.7818608E-02  0.8914969E-01
         -3   -1    0    0    0  501 -0.00000000000E+00  0.00000000000E+00  0.10772885517E+04  0.10772885517E+04  0.00000000000E+00 0.  1.
          3   -1    0    0  501    0  0.00000000000E+00 -0.00000000000E+00 -0.49125859845E+03  0.49125859845E+03  0.00000000000E+00 0. -1.
         23    2    1    2    0    0  0.73540014340E+01  0.33100764796E+03  0.32871293717E+03  0.47529901819E+03  0.90756913144E+02 0.  0.
        254    2    1    2    0    0 -0.73540014340E+01 -0.33100764796E+03  0.25731701605E+03  0.10932481319E+04  0.10096332437E+04 0.  0.
        -24    2    4    4    0    0 -0.30092172101E+02 -0.49792519606E+03 -0.24226051568E+03  0.56010882491E+03  0.78719111938E+02 0.  0.
         24    2    4    4    0    0  0.22738170667E+02  0.16691754811E+03  0.49957753173E+03  0.53313930702E+03  0.79254767748E+02 0.  0.
         11    1    3    3    0    0  0.11709732264E+02  0.20890918068E+02  0.82135596956E+00  0.23962948755E+02  0.00000000000E+00 0. -1.
        -11    1    3    3    0    0 -0.43557308298E+01  0.31011672989E+03  0.32789158120E+03  0.45133606943E+03  0.00000000000E+00 0.  1.
          2    1    6    6  502    0 -0.10168720304E+02  0.83456278241E+02  0.33827818382E+03  0.34856919385E+03  0.00000000000E+00 0. -1.
          1    1    5    5  503    0 -0.98129272452E+00 -0.42970849088E+03 -0.19293024267E+03  0.47103336252E+03  0.00000000000E+00 0. -1.
         -2    1    5    5    0  503 -0.29110879377E+02 -0.68216705181E+02 -0.49330273011E+02  0.89075462386E+02  0.00000000000E+00 0.  1.
         -1    1    6    6    0  502  0.32906890972E+02  0.83461269866E+02  0.16129934791E+03  0.18457011317E+03  0.00000000000E+00 0.  1.
<mgrwt>
<rscale>  0 0.14549602E+04</rscale>
<asrwt>0</asrwt>
<pdfrwt beam="1">  1        3 0.75578246E-01 0.14549602E+04</pdfrwt>
<pdfrwt beam="2">  1       -3 0.16573670E+00 0.14549602E+04</pdfrwt>
<totfact> 0.10382570E+00</totfact>
</mgrwt>
</event>
<event>
12    1  0.1494110E-007  0.1720069E+04  0.7818608E-02  0.8750000E-01
         -2   -1    0    0    0  501 -0.00000000000E+00  0.00000000000E+00  0.10705603669E+04  0.10705603669E+04  0.00000000000E+00 0. -1.
          2   -1    0    0  501    0  0.00000000000E+00 -0.00000000000E+00 -0.69090873515E+03  0.69090873515E+03  0.00000000000E+00 0.  1.
         23    2    1    2    0    0 -0.17181922865E+03  0.53154505195E+03 -0.14397018672E+03  0.58213611961E+03  0.78058039369E+02 0.  0.
        254    2    1    2    0    0  0.17181922865E+03 -0.53154505195E+03  0.52362181846E+03  0.11793329824E+04  0.89698633496E+03 0.  0.
        -24    2    4    4    0    0 -0.29695989269E+03 -0.24956879968E+03 -0.29943260845E+02  0.39694133757E+03  0.78715074595E+02 0.  0.
         24    2    4    4    0    0  0.46877912133E+03 -0.28197625227E+03  0.55356507931E+03  0.78239164486E+03  0.80236634245E+02 0.  0.
         13    1    3    3    0    0 -0.11765809043E+03  0.24631150163E+03 -0.54755890943E+02  0.27840795547E+03  0.00000000000E+00 0. -1.
        -13    1    3    3    0    0 -0.54161138221E+02  0.28523355032E+03 -0.89214295777E+02  0.30372816414E+03  0.00000000000E+00 0.  1.
          4    1    6    6  502    0  0.12835870384E+03 -0.11143108839E+03  0.20371821099E+03  0.26531858925E+03  0.00000000000E+00 0. -1.
          1    1    5    5  503    0 -0.13640785355E+03 -0.11311122197E+03 -0.53040492899E+02  0.18497174091E+03  0.00000000000E+00 0. -1.
         -2    1    5    5    0  503 -0.16055203913E+03 -0.13645757770E+03  0.23097232054E+02  0.21196959667E+03  0.00000000000E+00 0.  1.
         -3    1    6    6    0  502  0.34042041749E+03 -0.17054516388E+03  0.34984686832E+03  0.51707305561E+03  0.00000000000E+00 0.  1.
<mgrwt>
<rscale>  0 0.17200692E+04</rscale>
<asrwt>0</asrwt>
<pdfrwt beam="1">  1        2 0.10629365E+00 0.17200692E+04</pdfrwt>
<pdfrwt beam="2">  1       -2 0.16470159E+00 0.17200692E+04</pdfrwt>
<totfact> 0.92020673E+00</totfact>
</mgrwt>
</event>
<event>
12    1  0.1494110E-007  0.1458488E+04  0.7818608E-02  0.8912537E-01
         -2   -1    0    0    0  501 -0.00000000000E+00  0.00000000000E+00  0.19843042137E+04  0.19843042137E+04  0.00000000000E+00 0.  1.
          2   -1    0    0  501    0  0.00000000000E+00 -0.00000000000E+00 -0.26800165360E+03  0.26800165360E+03  0.00000000000E+00 0. -1.
         23    2    1    2    0    0 -0.37825656948E+03 -0.18981783350E+03  0.38735986229E+03  0.58086453494E+03  0.90813560476E+02 0.  0.
        254    2    1    2    0    0  0.37825656948E+03  0.18981783350E+03  0.13289426978E+04  0.16714413323E+04  0.92115068864E+03 0.  0.
        -24    2    4    4    0    0  0.43004572910E+03  0.26572552837E+03  0.22278274471E+03  0.55826063842E+03  0.80457464043E+02 0.  0.
         24    2    4    4    0    0 -0.51789159630E+02 -0.75907694867E+02  0.11061599531E+04  0.11131806939E+04  0.84482662936E+02 0.  0.
         13    1    3    3    0    0 -0.23190335078E+03 -0.15896103599E+03  0.27962819325E+03  0.39653461579E+03  0.00000000000E+00 0.  1.
        -13    1    3    3    0    0 -0.14635321870E+03 -0.30856797510E+02  0.10773166905E+03  0.18432991914E+03  0.00000000000E+00 0. -1.
          4    1    6    6  502    0  0.12654996248E+02 -0.36323264654E+02  0.61809111784E+03  0.61928681436E+03  0.00000000000E+00 0. -1.
          3    1    5    5  503    0  0.25438678049E+03  0.19883022871E+03  0.12349671975E+03  0.34568415313E+03  0.00000000000E+00 0. -1.
         -4    1    5    5    0  503  0.17565894861E+03  0.66895299655E+02  0.99286024962E+02  0.21257648529E+03  0.00000000000E+00 0.  1.
         -3    1    6    6    0  502 -0.64444155877E+02 -0.39584430213E+02  0.48806883522E+03  0.49389387955E+03  0.00000000000E+00 0.  1.
<mgrwt>
<rscale>  0 0.14584880E+04</rscale>
<asrwt>0</asrwt>
<pdfrwt beam="1">  1        2 0.41231025E-01 0.14584880E+04</pdfrwt>
<pdfrwt beam="2">  1       -2 0.30527756E+00 0.14584880E+04</pdfrwt>
<totfact> 0.35766403E+00</totfact>
</mgrwt>
</event>
<event>
12    1  0.1494110E-007  0.1215187E+04  0.7818608E-02  0.9099666E-01
         -2   -1    0    0    0  501 -0.00000000000E+00  0.00000000000E+00  0.89011927544E+03  0.89011927544E+03  0.00000000000E+00 0.  1.
          2   -1    0    0  501    0  0.00000000000E+00 -0.00000000000E+00 -0.41474193575E+03  0.41474193575E+03  0.00000000000E+00 0. -1.
         23    2    1    2    0    0 -0.76834746377E+02  0.29715130173E+03  0.60042581380E+02  0.32603404190E+03  0.92144508938E+02 0.  0.
        254    2    1    2    0    0  0.76834746377E+02 -0.29715130173E+03  0.41533475831E+03  0.97882716929E+03  0.83150297144E+03 0.  0.
        -24    2    4    4    0    0  0.29509133751E+03 -0.14047652613E+03  0.56645264316E+03  0.65864605728E+03  0.78316536928E+02 0.  0.
         24    2    4    4    0    0 -0.21825659113E+03 -0.15667477560E+03 -0.15111788485E+03  0.32018111201E+03  0.86581779186E+02 0.  0.
         13    1    3    3    0    0 -0.58376639794E+02  0.26387265400E+03  0.20306464160E+02  0.27101468980E+03  0.00000000000E+00 0. -1.
        -13    1    3    3    0    0 -0.18458106583E+02  0.33278647732E+02  0.39736117220E+02  0.55019352097E+02  0.00000000000E+00 0.  1.
          4    1    6    6  502    0 -0.92694801505E+02 -0.46836181459E+02 -0.15126707351E+02  0.10495128106E+03  0.00000000000E+00 0. -1.
          3    1    5    5  503    0  0.15584816137E+03 -0.51778267976E+02  0.34820890840E+03  0.38499231463E+03  0.00000000000E+00 0. -1.
         -4    1    5    5    0  503  0.13924317614E+03 -0.88698258153E+02  0.21824373476E+03  0.27365374264E+03  0.00000000000E+00 0.  1.
         -3    1    6    6    0  502 -0.12556178963E+03 -0.10983859414E+03 -0.13599117750E+03  0.21522983096E+03  0.00000000000E+00 0.  1.
<mgrwt>
<rscale>  0 0.12151869E+04</rscale>
<asrwt>0</asrwt>
<pdfrwt beam="1">  1        2 0.63806452E-01 0.12151869E+04</pdfrwt>
<pdfrwt beam="2">  1       -2 0.13694143E+00 0.12151869E+04</pdfrwt>
<totfact> 0.28593070E+01</totfact>
</mgrwt>
</event>
<event>
12    1  0.1625663E-007  0.1628789E+04  0.7818608E-02  0.8803055E-01
         -1   -1    0    0    0  501 -0.00000000000E+00  0.00000000000E+00  0.58220921826E+03  0.58220921826E+03  0.00000000000E+00 0.  1.
          1   -1    0    0  501    0  0.00000000000E+00 -0.00000000000E+00 -0.11391749602E+04  0.11391749602E+04  0.00000000000E+00 0. -1.
         23    2    1    2    0    0 -0.51054819883E+03  0.14719792793E+03 -0.37781358374E+03  0.65822731244E+03  0.90517387662E+02 0.  0.
        254    2    1    2    0    0  0.51054819883E+03 -0.14719792793E+03 -0.17915215820E+03  0.10631568660E+04  0.90326094385E+03 0.  0.
        -24    2    4    4    0    0  0.68172144632E+02 -0.23320470401E+03  0.30406891596E+03  0.39727405363E+03  0.79604602644E+02 0.  0.
         24    2    4    4    0    0  0.44237605420E+03  0.86006776076E+02 -0.48322107416E+03  0.66588281239E+03  0.82483783074E+02 0.  0.
         13    1    3    3    0    0  0.11759874682E+01  0.83372799654E+01 -0.31749934964E+01  0.89985425180E+01  0.00000000000E+00 0.  1.
        -13    1    3    3    0    0 -0.51172418630E+03  0.13886064797E+03 -0.37463859025E+03  0.64922876993E+03  0.00000000000E+00 0. -1.
          2    1    6    6  502    0  0.42265867350E+03  0.63142724521E+02 -0.44225770730E+03  0.61499531511E+03  0.00000000000E+00 0. -1.
          3    1    5    5  503    0  0.69185462846E+02 -0.16088376242E+03  0.25693557184E+03  0.31094388780E+03  0.00000000000E+00 0. -1.
         -4    1    5    5    0  503 -0.10133182147E+01 -0.72320941584E+02  0.47133344117E+02  0.86330165835E+02  0.00000000000E+00 0.  1.
         -1    1    6    6    0  502  0.19717380701E+02  0.22864051555E+02 -0.40963366855E+02  0.50887497279E+02  0.00000000000E+00 0.  1.
<mgrwt>
<rscale>  0 0.16287887E+04</rscale>
<asrwt>0</asrwt>
<pdfrwt beam="1">  1        1 0.17525769E+00 0.16287887E+04</pdfrwt>
<pdfrwt beam="2">  1       -1 0.89570649E-01 0.16287887E+04</pdfrwt>
<totfact> 0.13849819E+01</totfact>
</mgrwt>
</event>
<event>
12    1  0.1494110E-007  0.1287382E+04  0.7818608E-02  0.9039632E-01
          1   -1    0    0  501    0  0.00000000000E+00  0.00000000000E+00  0.41693014020E+03  0.41693014020E+03  0.00000000000E+00 0.  1.
         -1   -1    0    0    0  501 -0.00000000000E+00 -0.00000000000E+00 -0.99378253301E+03  0.99378253301E+03  0.00000000000E+00 0. -1.
         23    2    1    2    0    0  0.30625745672E+03 -0.67287501274E+02 -0.92629355244E+02  0.33953544947E+03  0.91558103761E+02 0.  0.
        254    2    1    2    0    0 -0.30625745672E+03  0.67287501274E+02 -0.48422303757E+03  0.10711772237E+04  0.90256714815E+03 0.  0.
        -24    2    4    4    0    0 -0.45575029271E+03  0.32734656336E+03 -0.50648918745E+03  0.76009706781E+03  0.79700399248E+02 0.  0.
         24    2    4    4    0    0  0.14949283599E+03 -0.26005906209E+03  0.22266149880E+02  0.31108015593E+03  0.79348964690E+02 0.  0.
         11    1    3    3    0    0  0.52179019920E+02 -0.13450238608E+02  0.18593695192E+02  0.57002495904E+02  0.00000000000E+00 0.  1.
        -11    1    3    3    0    0  0.25407843680E+03 -0.53837262667E+02 -0.11122305044E+03  0.28253295356E+03  0.00000000000E+00 0. -1.
          2    1    6    6  502    0  0.10730559287E+03 -0.10714826376E+03  0.12498432373E+02  0.15215601040E+03  0.00000000000E+00 0. -1.
          1    1    5    5  503    0 -0.36540474405E+03  0.24750954265E+03 -0.35443724440E+03  0.56604537000E+03  0.00000000000E+00 0. -1.
         -2    1    5    5    0  503 -0.90345548658E+02  0.79837020714E+02 -0.15205194305E+03  0.19405169781E+03  0.00000000000E+00 0.  1.
         -1    1    6    6    0  502  0.42187243110E+02 -0.15291079833E+03  0.97677175070E+01  0.15892414553E+03  0.00000000000E+00 0.  1.
<mgrwt>
<rscale>  0 0.12873817E+04</rscale>
<asrwt>0</asrwt>
<pdfrwt beam="1">  1        1 0.64143100E-01 0.12873817E+04</pdfrwt>
<pdfrwt beam="2">  1       -1 0.15288962E+00 0.12873817E+04</pdfrwt>
<totfact> 0.18494026E+01</totfact>
</mgrwt>
</event>
<event>
12    1  0.1494110E-007  0.1151259E+04  0.7818608E-02  0.9156623E-01
          2   -1    0    0  501    0  0.00000000000E+00  0.00000000000E+00  0.10579135236E+04  0.10579135236E+04  0.00000000000E+00 0. -1.
         -2   -1    0    0    0  501 -0.00000000000E+00 -0.00000000000E+00 -0.31321027342E+03  0.31321027342E+03  0.00000000000E+00 0.  1.
         23    2    1    2    0    0 -0.16420790346E+03  0.14521839132E+03  0.12271505240E+03  0.26898655764E+03  0.96136191778E+02 0.  0.
        254    2    1    2    0    0  0.16420790346E+03 -0.14521839132E+03  0.62198819782E+03  0.11021372394E+04  0.88305410909E+03 0.  0.
        -24    2    4    4    0    0 -0.50650370963E+02  0.31993436507E+03  0.62225778049E+02  0.33911401754E+03  0.78757929180E+02 0.  0.
         24    2    4    4    0    0  0.21485827442E+03 -0.46515275639E+03  0.55976241977E+03  0.76302322189E+03  0.79619756864E+02 0.  0.
         13    1    3    3    0    0 -0.16112138218E+03  0.14222425115E+03  0.13646549857E+03  0.25457939766E+03  0.00000000000E+00 0. -1.
        -13    1    3    3    0    0 -0.30865212771E+01  0.29941401747E+01 -0.13750446170E+02  0.14407159986E+02  0.00000000000E+00 0.  1.
          2    1    6    6  502    0  0.39014328150E+02 -0.41393678758E+02  0.89376101895E+02  0.10594169166E+03  0.00000000000E+00 0. -1.
          1    1    5    5  503    0 -0.48423812075E+02  0.10316895964E+03  0.14440220996E+01  0.11397712493E+03  0.00000000000E+00 0. -1.
         -2    1    5    5    0  503 -0.22265588878E+01  0.21676540544E+03  0.60781755949E+02  0.22513689261E+03  0.00000000000E+00 0.  1.
         -1    1    6    6    0  502  0.17584394627E+03 -0.42375907763E+03  0.47038631788E+03  0.65708153023E+03  0.00000000000E+00 0.  1.
<mgrwt>
<rscale>  0 0.11512591E+04</rscale>
<asrwt>0</asrwt>
<pdfrwt beam="1">  1        2 0.16275593E+00 0.11512591E+04</pdfrwt>
<pdfrwt beam="2">  1       -2 0.48186196E-01 0.11512591E+04</pdfrwt>
<totfact> 0.93423833E+01</totfact>
</mgrwt>
</event>
<event>
12    1  0.1494110E-007  0.2111376E+04  0.7818608E-02  0.8556249E-01
         -2   -1    0    0    0  501 -0.00000000000E+00  0.00000000000E+00  0.10570433496E+04  0.10570433496E+04  0.00000000000E+00 0.  1.
          2   -1    0    0  501    0  0.00000000000E+00 -0.00000000000E+00 -0.10543339241E+04  0.10543339241E+04  0.00000000000E+00 0. -1.
         23    2    1    2    0    0  0.49408036086E+03 -0.32813813857E+03  0.63171765667E+03  0.87126628589E+03  0.90816860793E+02 0.  0.
        254    2    1    2    0    0 -0.49408036086E+03  0.32813813857E+03 -0.62900823121E+03  0.12401109878E+04  0.88906347695E+03 0.  0.
        -24    2    4    4    0    0 -0.20032039890E+02 -0.14286226549E+03 -0.53463799533E+03  0.55979385814E+03  0.81978460877E+02 0.  0.
         24    2    4    4    0    0 -0.47404832097E+03  0.47100040406E+03 -0.94370235882E+02  0.68031712961E+03  0.85804802786E+02 0.  0.
         13    1    3    3    0    0  0.22037105841E+03 -0.18450789722E+03  0.25747333137E+03  0.38587444058E+03  0.00000000000E+00 0.  1.
        -13    1    3    3    0    0  0.27370930245E+03 -0.14363024135E+03  0.37424432530E+03  0.48539184531E+03  0.00000000000E+00 0. -1.
          2    1    6    6  502    0 -0.29084469868E+03  0.25829584428E+03 -0.91397617272E+02  0.39957590814E+03  0.00000000000E+00 0. -1.
          3    1    5    5  503    0 -0.16053094343E+02 -0.13707532547E+03 -0.53523836038E+03  0.55274537458E+03  0.00000000000E+00 0. -1.
         -4    1    5    5    0  503 -0.39789455467E+01 -0.57869400153E+01  0.60036505628E+00  0.70484835678E+01  0.00000000000E+00 0.  1.
         -1    1    6    6    0  502 -0.18320362229E+03  0.21270455978E+03 -0.29726186104E+01  0.28074122147E+03  0.00000000000E+00 0.  1.
<mgrwt>
<rscale>  0 0.21113755E+04</rscale>
<asrwt>0</asrwt>
<pdfrwt beam="1">  1        2 0.16220522E+00 0.21113755E+04</pdfrwt>
<pdfrwt beam="2">  1       -2 0.16262205E+00 0.21113755E+04</pdfrwt>
<totfact> 0.51598156E+00</totfact>
</mgrwt>
</event>
<event>
12    1  0.1494110E-007  0.1110378E+04  0.7818608E-02  0.9195135E-01
          1   -1    0    0  501    0  0.00000000000E+00  0.00000000000E+00  0.83315487246E+03  0.83315487246E+03  0.00000000000E+00 0. -1.
         -1   -1    0    0    0  501 -0.00000000000E+00 -0.00000000000E+00 -0.36996117268E+03  0.36996117268E+03  0.00000000000E+00 0.  1.
         23    2    1    2    0    0  0.19407523540E+03  0.15988348688E+03  0.15145138032E+03  0.30728679804E+03  0.90883052763E+02 0.  0.
        254    2    1    2    0    0 -0.19407523540E+03 -0.15988348688E+03  0.31174231947E+03  0.89582924710E+03  0.80131070118E+03 0.  0.
        -24    2    4    4    0    0  0.20305158736E+03 -0.74454676525E+02 -0.15044570342E+03  0.27526239049E+03  0.79762321652E+02 0.  0.
         24    2    4    4    0    0 -0.39712682276E+03 -0.85428810352E+02  0.46218802288E+03  0.62056685660E+03  0.80483911583E+02 0.  0.
         13    1    3    3    0    0  0.90676539802E+01 -0.79230075088E+01  0.24054138041E+02  0.26899776088E+02  0.00000000000E+00 0. -1.
        -13    1    3    3    0    0  0.18500758142E+03  0.16780649439E+03  0.12739724228E+03  0.28038702195E+03  0.00000000000E+00 0.  1.
          2    1    6    6  502    0 -0.39370900239E+03 -0.79824521906E+02  0.46401834380E+03  0.61375219449E+03  0.00000000000E+00 0. -1.
          3    1    5    5  503    0  0.18540745447E+03 -0.88152345189E+02 -0.12099567683E+03  0.23829963061E+03  0.00000000000E+00 0. -1.
         -4    1    5    5    0  503  0.17644132889E+02  0.13697668664E+02 -0.29450026583E+02  0.36962759881E+02  0.00000000000E+00 0.  1.
         -1    1    6    6    0  502 -0.34178203693E+01 -0.56042884461E+01 -0.18303209141E+01  0.68146621129E+01  0.00000000000E+00 0.  1.
<mgrwt>
<rscale>  0 0.11103782E+04</rscale>
<asrwt>0</asrwt>
<pdfrwt beam="1">  1        1 0.12817767E+00 0.11103782E+04</pdfrwt>
<pdfrwt beam="2">  1       -1 0.56917104E-01 0.11103782E+04</pdfrwt>
<totfact> 0.64411654E+01</totfact>
</mgrwt>
</event>
<event>
12    1  0.1494110E-007  0.3468013E+04  0.7818608E-02  0.8121413E-01
         -2   -1    0    0    0  501 -0.00000000000E+00  0.00000000000E+00  0.12237794536E+04  0.12237794536E+04  0.00000000000E+00 0.  1.
          2   -1    0    0  501    0  0.00000000000E+00 -0.00000000000E+00 -0.24569610637E+04  0.24569610637E+04  0.00000000000E+00 0. -1.
         23    2    1    2    0    0  0.14507769014E+04 -0.37854873019E+03 -0.12107958901E+04  0.19293181922E+04  0.90494423091E+02 0.  0.
        254    2    1    2    0    0 -0.14507769014E+04  0.37854873019E+03 -0.22385720028E+02  0.17514223251E+04  0.90494545771E+03 0.  0.
        -24    2    4    4    0    0 -0.12588520664E+04  0.63443961715E+03 -0.88420325690E+02  0.14147507972E+04  0.80495411385E+02 0.  0.
         24    2    4    4    0    0 -0.19192483498E+03 -0.25589088696E+03  0.66034605661E+02  0.33667152784E+03  0.81681455690E+02 0.  0.
         11    1    3    3    0    0  0.23587413121E+03 -0.89917189940E+02 -0.17870929645E+03  0.30928743825E+03  0.00000000000E+00 0. -1.
        -11    1    3    3    0    0  0.12149027702E+04 -0.28863154025E+03 -0.10320865937E+04  0.16200307540E+04  0.00000000000E+00 0.  1.
          2    1    6    6  502    0 -0.43755544191E+02 -0.19192755775E+02  0.26502898721E+02  0.54638019385E+02  0.00000000000E+00 0. -1.
          3    1    5    5  503    0 -0.58289599057E+03  0.25042236462E+03 -0.49991390534E+02  0.63637900315E+03  0.00000000000E+00 0. -1.
         -4    1    5    5    0  503 -0.67595607586E+03  0.38401725253E+03 -0.38428935155E+02  0.77837179406E+03  0.00000000000E+00 0.  1.
         -1    1    6    6    0  502 -0.14816929079E+03 -0.23669813118E+03  0.39531706940E+02  0.28203350845E+03  0.00000000000E+00 0.  1.
<mgrwt>
<rscale>  0 0.34680130E+04</rscale>
<asrwt>0</asrwt>
<pdfrwt beam="1">  1        2 0.37799400E+00 0.34680130E+04</pdfrwt>
<pdfrwt beam="2">  1       -2 0.18827377E+00 0.34680130E+04</pdfrwt>
<totfact> 0.48349142E-01</totfact>
</mgrwt>
</event>
<event>
12    1  0.1494110E-007  0.1687104E+04  0.7818608E-02  0.8768754E-01
          2   -1    0    0  501    0  0.00000000000E+00  0.00000000000E+00  0.27078334310E+04  0.27078334310E+04  0.00000000000E+00 0. -1.
         -2   -1    0    0    0  501 -0.00000000000E+00 -0.00000000000E+00 -0.26278579153E+03  0.26278579153E+03  0.00000000000E+00 0.  1.
         23    2    1    2    0    0  0.23140862220E+03 -0.13595014371E+03 -0.64560079752E+02  0.29245018556E+03  0.96574919780E+02 0.  0.
        254    2    1    2    0    0 -0.23140862220E+03  0.13595014371E+03  0.25096077193E+04  0.26781690370E+04  0.89578239222E+03 0.  0.
        -24    2    4    4    0    0 -0.95798407782E+02 -0.37724829327E+03  0.10274424758E+04  0.11017997001E+04  0.82649430410E+02 0.  0.
         24    2    4    4    0    0 -0.13561021442E+03  0.51319843698E+03  0.14821652435E+04  0.15763693369E+04  0.79772874227E+02 0.  0.
         13    1    3    3    0    0  0.17370273108E+03 -0.70147719613E+02 -0.79784982966E+02  0.20361479528E+03  0.00000000000E+00 0.  1.
        -13    1    3    3    0    0  0.57705891127E+02 -0.65802424097E+02  0.15224903214E+02  0.88835390277E+02  0.00000000000E+00 0. -1.
          2    1    6    6  502    0 -0.70141787483E+02  0.20474462280E+03  0.50008429836E+03  0.54490782375E+03  0.00000000000E+00 0. -1.
          3    1    5    5  503    0 -0.66906797606E+02 -0.20665626183E+03  0.67660451557E+03  0.71061733768E+03  0.00000000000E+00 0. -1.
         -4    1    5    5    0  503 -0.28891610176E+02 -0.17059203144E+03  0.35083796024E+03  0.39118236243E+03  0.00000000000E+00 0.  1.
         -1    1    6    6    0  502 -0.65468426939E+02  0.30845381418E+03  0.98208094510E+03  0.10314615132E+04  0.00000000000E+00 0.  1.
<mgrwt>
<rscale>  0 0.16871042E+04</rscale>
<asrwt>0</asrwt>
<pdfrwt beam="1">  1        2 0.41658974E+00 0.16871042E+04</pdfrwt>
<pdfrwt beam="2">  1       -2 0.40428585E-01 0.16871042E+04</pdfrwt>
<totfact> 0.14534444E+01</totfact>
</mgrwt>
</event>
<event>
12    1  0.1494110E-007  0.1302551E+04  0.7818608E-02  0.9027544E-01
         -2   -1    0    0    0  501 -0.00000000000E+00  0.00000000000E+00  0.47821689641E+03  0.47821689641E+03  0.00000000000E+00 0.  1.
          2   -1    0    0  501    0  0.00000000000E+00 -0.00000000000E+00 -0.88696156629E+03  0.88696156629E+03  0.00000000000E+00 0. -1.
         23    2    1    2    0    0  0.24173312708E+03  0.60601492929E+02  0.99285436225E+02  0.29488545205E+03  0.12244340044E+03 0.  0.
        254    2    1    2    0    0 -0.24173312708E+03 -0.60601492929E+02 -0.50803010611E+03  0.10702930107E+04  0.90847404711E+03 0.  0.
        -24    2    4    4    0    0  0.25739144918E+03 -0.28236394709E+03 -0.20784096092E+03  0.44186520517E+03  0.77892475719E+02 0.  0.
         24    2    4    4    0    0 -0.49912457626E+03  0.22176245416E+03 -0.30018914519E+03  0.62842780548E+03  0.80647722304E+02 0.  0.
         11    1    3    3    0    0  0.24458051008E+03  0.55154421972E+02  0.11660246867E+03  0.27650998513E+03  0.00000000000E+00 0.  1.
        -11    1    3    3    0    0 -0.28473830087E+01  0.54470709570E+01 -0.17317032440E+02  0.18375466920E+02  0.00000000000E+00 0. -1.
          4    1    6    6  502    0 -0.11322187260E+03  0.54093747143E+02 -0.10925292405E+03  0.16637766475E+03  0.00000000000E+00 0. -1.
          3    1    5    5  503    0  0.74372492233E+02 -0.52579372414E+02 -0.80996723143E+02  0.12188653397E+03  0.00000000000E+00 0. -1.
         -4    1    5    5    0  503  0.18301895695E+03 -0.22978457467E+03 -0.12684423778E+03  0.31997867120E+03  0.00000000000E+00 0.  1.
         -3    1    6    6    0  502 -0.38590270366E+03  0.16766870702E+03 -0.19093622114E+03  0.46205014073E+03  0.00000000000E+00 0.  1.
<mgrwt>
<rscale>  0 0.13025514E+04</rscale>
<asrwt>0</asrwt>
<pdfrwt beam="1">  1        2 0.13645563E+00 0.13025514E+04</pdfrwt>
<pdfrwt beam="2">  1       -2 0.73571830E-01 0.13025514E+04</pdfrwt>
<totfact> 0.48886162E+01</totfact>
</mgrwt>
</event>
<event>
12    1  0.1494110E-007  0.1705570E+04  0.7818608E-02  0.8758194E-01
          2   -1    0    0  501    0  0.00000000000E+00  0.00000000000E+00  0.12380116197E+04  0.12380116197E+04  0.00000000000E+00 0. -1.
         -2   -1    0    0    0  501 -0.00000000000E+00 -0.00000000000E+00 -0.58742761363E+03  0.58742761363E+03  0.00000000000E+00 0.  1.
         23    2    1    2    0    0  0.41186970222E+03 -0.70999549335E+02 -0.24130891822E+03  0.49115856102E+03  0.91264179350E+02 0.  0.
        254    2    1    2    0    0 -0.41186970222E+03  0.70999549335E+02  0.89189292427E+03  0.13342806723E+04  0.90008573840E+03 0.  0.
        -24    2    4    4    0    0 -0.10190914925E+03  0.21935036433E+02  0.98767701654E+03  0.99630978086E+03  0.79124395226E+02 0.  0.
         24    2    4    4    0    0 -0.30996055297E+03  0.49064512902E+02 -0.95784092261E+02  0.33797089143E+03  0.81036166609E+02 0.  0.
         11    1    3    3    0    0  0.12199732610E+03 -0.17435133468E+02 -0.12119851171E+03  0.17284794096E+03  0.00000000000E+00 0. -1.
        -11    1    3    3    0    0  0.28987237612E+03 -0.53564415867E+02 -0.12011040651E+03  0.31831062005E+03  0.00000000000E+00 0.  1.
          4    1    6    6  502    0 -0.25653973283E+03  0.80301621181E+01 -0.72685003195E+02  0.26675874440E+03  0.00000000000E+00 0. -1.
          3    1    5    5  503    0 -0.69147190863E+02  0.27554917887E+02  0.35298219850E+03  0.36074511772E+03  0.00000000000E+00 0. -1.
         -4    1    5    5    0  503 -0.32761958384E+02 -0.56198814537E+01  0.63469481804E+03  0.63556466314E+03  0.00000000000E+00 0.  1.
         -3    1    6    6    0  502 -0.53420820139E+02  0.41034350784E+02 -0.23099089066E+02  0.71212147027E+02  0.00000000000E+00 0.  1.
<mgrwt>
<rscale>  0 0.17055699E+04</rscale>
<asrwt>0</asrwt>
<pdfrwt beam="1">  1        2 0.19046333E+00 0.17055699E+04</pdfrwt>
<pdfrwt beam="2">  1       -2 0.90373479E-01 0.17055699E+04</pdfrwt>
<totfact> 0.17902387E+01</totfact>
</mgrwt>
</event>
<event>
12    1  0.1494110E-007  0.1725249E+04  0.7818608E-02  0.8747094E-01
          2   -1    0    0  501    0  0.00000000000E+00  0.00000000000E+00  0.18566214492E+04  0.18566214492E+04  0.00000000000E+00 0. -1.
         -2   -1    0    0    0  501 -0.00000000000E+00 -0.00000000000E+00 -0.40079297022E+03  0.40079297022E+03  0.00000000000E+00 0.  1.
         23    2    1    2    0    0  0.28354878610E+03 -0.35738656601E+03  0.10746126634E+04  0.11711875518E+04  0.93610007457E+02 0.  0.
        254    2    1    2    0    0 -0.28354878610E+03  0.35738656601E+03  0.38121581567E+03  0.10862268677E+04  0.90908648562E+03 0.  0.
        -24    2    4    4    0    0 -0.26221866540E+03  0.13693508009E+03 -0.26093749501E+03  0.40243778930E+03  0.79736775179E+02 0.  0.
         24    2    4    4    0    0 -0.21330120707E+02  0.22045148592E+03  0.64215331068E+03  0.68378907840E+03  0.78439770714E+02 0.  0.
         13    1    3    3    0    0  0.80028358838E+01 -0.56630910114E+02  0.15314064283E+03  0.16347220513E+03  0.00000000000E+00 0.  1.
        -13    1    3    3    0    0  0.27554595022E+03 -0.30075565590E+03  0.92147202052E+03  0.10077153466E+04  0.00000000000E+00 0. -1.
          2    1    6    6  502    0  0.19738340811E+02  0.26039600285E+02  0.55568109403E+02  0.64462994529E+02  0.00000000000E+00 0. -1.
          1    1    5    5  503    0 -0.11100640817E+03  0.87543182486E+02 -0.16241266042E+03  0.21532325402E+03  0.00000000000E+00 0. -1.
         -2    1    5    5    0  503 -0.15121225723E+03  0.49391897600E+02 -0.98524834585E+02  0.18711453529E+03  0.00000000000E+00 0.  1.
         -1    1    6    6    0  502 -0.41068461518E+02  0.19441188564E+03  0.58658520127E+03  0.61932608387E+03  0.00000000000E+00 0.  1.
<mgrwt>
<rscale>  0 0.17252488E+04</rscale>
<asrwt>0</asrwt>
<pdfrwt beam="1">  1        2 0.28563406E+00 0.17252488E+04</pdfrwt>
<pdfrwt beam="2">  1       -2 0.61660458E-01 0.17252488E+04</pdfrwt>
<totfact> 0.18628735E+01</totfact>
</mgrwt>
</event>
<event>
12    1  0.1494110E-007  0.1752893E+04  0.7818608E-02  0.8731759E-01
          1   -1    0    0  501    0  0.00000000000E+00  0.00000000000E+00  0.19378585897E+04  0.19378585897E+04  0.00000000000E+00 0. -1.
         -1   -1    0    0    0  501 -0.00000000000E+00 -0.00000000000E+00 -0.39639553960E+03  0.39639553960E+03  0.00000000000E+00 0.  1.
         23    2    1    2    0    0 -0.41608196910E+03  0.26857151297E+03  0.27495361569E+02  0.50553958590E+03  0.97772263017E+02 0.  0.
        254    2    1    2    0    0  0.41608196910E+03 -0.26857151297E+03  0.15139676885E+04  0.18287145434E+04  0.89824487571E+03 0.  0.
        -24    2    4    4    0    0  0.30052527887E+03 -0.43907828364E+03  0.34582844203E+03  0.63962454178E+03  0.80106558615E+02 0.  0.
         24    2    4    4    0    0  0.11555669023E+03  0.17050677067E+03  0.11681392465E+04  0.11890900016E+04  0.83425566929E+02 0.  0.
         11    1    3    3    0    0 -0.38201398276E+03  0.26249495863E+03  0.46885571832E+02  0.46587180981E+03  0.00000000000E+00 0.  1.
        -11    1    3    3    0    0 -0.34067986339E+02  0.60765543412E+01 -0.19390210263E+02  0.39667776090E+02  0.00000000000E+00 0. -1.
          4    1    6    6  502    0  0.89578875081E+02  0.17418589452E+03  0.10169432523E+04  0.10356344331E+04  0.00000000000E+00 0. -1.
          1    1    5    5  503    0  0.26124086291E+03 -0.36703543246E+03  0.25686385904E+03  0.51859506286E+03  0.00000000000E+00 0. -1.
         -2    1    5    5    0  503  0.39284415950E+02 -0.72042851176E+02  0.88964582989E+02  0.12102947892E+03  0.00000000000E+00 0.  1.
         -3    1    6    6    0  502  0.25977815150E+02 -0.36791238490E+01  0.15119599420E+03  0.15345556847E+03  0.00000000000E+00 0.  1.
<mgrwt>
<rscale>  0 0.17528930E+04</rscale>
<asrwt>0</asrwt>
<pdfrwt beam="1">  1        1 0.29813209E+00 0.17528930E+04</pdfrwt>
<pdfrwt beam="2">  1       -1 0.60983930E-01 0.17528930E+04</pdfrwt>
<totfact> 0.84850234E+00</totfact>
</mgrwt>
</event>
<event>
12    1  0.1494110E-007  0.1243070E+04  0.7818608E-02  0.9075971E-01
          1   -1    0    0  501    0  0.00000000000E+00  0.00000000000E+00  0.93096026889E+03  0.93096026889E+03  0.00000000000E+00 0. -1.
         -1   -1    0    0    0  501 -0.00000000000E+00 -0.00000000000E+00 -0.41495427364E+03  0.41495427364E+03  0.00000000000E+00 0.  1.
         23    2    1    2    0    0 -0.43416667379E+01 -0.68728123165E+02 -0.18815859131E+03  0.21986826828E+03  0.90531734365E+02 0.  0.
        254    2    1    2    0    0  0.43416667379E+01  0.68728123165E+02  0.70416458657E+03  0.11260462743E+04  0.87600801469E+03 0.  0.
        -24    2    4    4    0    0 -0.46877316737E+02 -0.32513590096E+03  0.29800543233E+02  0.33936847101E+03  0.79825120241E+02 0.  0.
         24    2    4    4    0    0  0.51218983475E+02  0.39386402412E+03  0.67436404334E+03  0.78667780325E+03  0.79642007814E+02 0.  0.
         13    1    3    3    0    0  0.39731427939E+02 -0.26137384790E+02 -0.51526721464E+02  0.70119557005E+02  0.00000000000E+00 0. -1.
        -13    1    3    3    0    0 -0.44073094677E+02 -0.42590738375E+02 -0.13663186985E+03  0.14974871127E+03  0.00000000000E+00 0.  1.
          4    1    6    6  502    0  0.25406348282E+02  0.26839913242E+03  0.52291857855E+03  0.58832594420E+03  0.00000000000E+00 0. -1.
          1    1    5    5  503    0  0.98121235463E+01 -0.17163273925E+03 -0.53623685209E+01  0.17199659865E+03  0.00000000000E+00 0. -1.
         -2    1    5    5    0  503 -0.56689440283E+02 -0.15350316171E+03  0.35162911754E+02  0.16737187236E+03  0.00000000000E+00 0.  1.
         -3    1    6    6    0  502  0.25812635193E+02  0.12546489170E+03  0.15144546478E+03  0.19835185905E+03  0.00000000000E+00 0.  1.
<mgrwt>
<rscale>  0 0.12430703E+04</rscale>
<asrwt>0</asrwt>
<pdfrwt beam="1">  1        1 0.14322466E+00 0.12430703E+04</pdfrwt>
<pdfrwt beam="2">  1       -1 0.63839119E-01 0.12430703E+04</pdfrwt>
<totfact> 0.42161055E+01</totfact>
</mgrwt>
</event>
<event>
12    1  0.1494110E-007  0.2731254E+04  0.7818608E-02  0.8324935E-01
         -2   -1    0    0    0  501 -0.00000000000E+00  0.00000000000E+00  0.13799389123E+04  0.13799389123E+04  0.00000000000E+00 0.  1.
          2   -1    0    0  501    0  0.00000000000E+00 -0.00000000000E+00 -0.13514630999E+04  0.13514630999E+04  0.00000000000E+00 0. -1.
         23    2    1    2    0    0  0.33688978191E+03 -0.84985115074E+03  0.81593520718E+03  0.12286139304E+04  0.89443971335E+02 0.  0.
        254    2    1    2    0    0 -0.33688978191E+03  0.84985115074E+03 -0.78745939478E+03  0.15027880818E+04  0.89584486201E+03 0.  0.
        -24    2    4    4    0    0 -0.59048968767E+03  0.47221655795E+03 -0.69831476721E+03  0.10322990915E+04  0.79569788962E+02 0.  0.
         24    2    4    4    0    0  0.25359990577E+03  0.37763459279E+03 -0.89144627574E+02  0.47048899031E+03  0.80574980638E+02 0.  0.
         13    1    3    3    0    0  0.17200086902E+02 -0.16958634686E+02  0.37504949060E+02  0.44610082760E+02  0.00000000000E+00 0. -1.
        -13    1    3    3    0    0  0.31968969500E+03 -0.83289251605E+03  0.77843025811E+03  0.11840038476E+04  0.00000000000E+00 0.  1.
          2    1    6    6  502    0  0.99253999850E+02  0.14448857956E+03 -0.74588639060E+02  0.19050399257E+03  0.00000000000E+00 0. -1.
          3    1    5    5  503    0 -0.21675790238E+03  0.14533862188E+03 -0.19948305578E+03  0.32848256087E+03  0.00000000000E+00 0. -1.
         -2    1    5    5    0  503 -0.37373178530E+03  0.32687793606E+03 -0.49883171143E+03  0.70381653061E+03  0.00000000000E+00 0.  1.
         -1    1    6    6    0  502  0.15434590592E+03  0.23314601323E+03 -0.14555988514E+02  0.27998499774E+03  0.00000000000E+00 0.  1.
<mgrwt>
<rscale>  0 0.27312536E+04</rscale>
<asrwt>0</asrwt>
<pdfrwt beam="1">  1        2 0.20791740E+00 0.27312536E+04</pdfrwt>
<pdfrwt beam="2">  1       -2 0.21229829E+00 0.27312536E+04</pdfrwt>
<totfact> 0.14946160E+00</totfact>
</mgrwt>
</event>
<event>
12    1  0.1494110E-007  0.1401282E+04  0.7818608E-02  0.8952891E-01
         -1   -1    0    0    0  501 -0.00000000000E+00  0.00000000000E+00  0.16697701349E+03  0.16697701349E+03  0.00000000000E+00 0.  1.
          1   -1    0    0  501    0  0.00000000000E+00 -0.00000000000E+00 -0.29399141788E+04  0.29399141788E+04  0.00000000000E+00 0. -1.
         23    2    1    2    0    0 -0.10983231793E+03  0.29429279969E+03 -0.25234360572E+03  0.41272745836E+03  0.89416271057E+02 0.  0.
        254    2    1    2    0    0  0.10983231793E+03 -0.29429279969E+03 -0.25205935596E+04  0.26941637339E+04  0.89802836399E+03 0.  0.
        -24    2    4    4    0    0 -0.38336765990E+03 -0.95110744653E+02 -0.12772293436E+04  0.13394512311E+04  0.82449912445E+02 0.  0.
         24    2    4    4    0    0  0.49319997783E+03 -0.19918205503E+03 -0.12433642160E+04  0.13547125028E+04  0.79822818795E+02 0.  0.
         13    1    3    3    0    0 -0.13259035870E+02  0.59791297121E+02 -0.98853492878E+02  0.11628763605E+03  0.00000000000E+00 0. -1.
        -13    1    3    3    0    0 -0.96573282061E+02  0.23450150257E+03 -0.15349011284E+03  0.29643982231E+03  0.00000000000E+00 0.  1.
          4    1    6    6  502    0  0.46327274782E+03 -0.19208869281E+03 -0.12072478968E+04  0.13072747183E+04  0.00000000000E+00 0. -1.
          1    1    5    5  503    0 -0.38647730215E+03 -0.88955960222E+02 -0.12534031285E+04  0.13146472039E+04  0.00000000000E+00 0. -1.
         -2    1    5    5    0  503  0.31096422565E+01 -0.61547844308E+01 -0.23826215052E+02  0.24804027295E+02  0.00000000000E+00 0.  1.
         -3    1    6    6    0  502  0.29927230002E+02 -0.70933622206E+01 -0.36116319132E+02  0.47437784422E+02  0.00000000000E+00 0.  1.
<mgrwt>
<rscale>  0 0.14012824E+04</rscale>
<asrwt>0</asrwt>
<pdfrwt beam="1">  1        1 0.45229447E+00 0.14012824E+04</pdfrwt>
<pdfrwt beam="2">  1       -1 0.25688772E-01 0.14012824E+04</pdfrwt>
<totfact> 0.86780378E+00</totfact>
</mgrwt>
</event>
<event>
12    1  0.1494110E-007  0.1812793E+04  0.7818608E-02  0.8699526E-01
         -2   -1    0    0    0  501 -0.00000000000E+00  0.00000000000E+00  0.32484620467E+03  0.32484620467E+03  0.00000000000E+00 0.  1.
          2   -1    0    0  501    0  0.00000000000E+00 -0.00000000000E+00 -0.25290566751E+04  0.25290566751E+04  0.00000000000E+00 0. -1.
         23    2    1    2    0    0 -0.35172486029E+03  0.32782021952E+03 -0.77838641058E+02  0.49558238516E+03  0.91468971617E+02 0.  0.
        254    2    1    2    0    0  0.35172486029E+03 -0.32782021952E+03 -0.21263718294E+04  0.23583204946E+04  0.89946757854E+03 0.  0.
        -24    2    4    4    0    0  0.50438003348E+02 -0.52825049703E+03 -0.68556945458E+03  0.87057172552E+03  0.79354095204E+02 0.  0.
         24    2    4    4    0    0  0.30128685694E+03  0.20043027751E+03 -0.14408023748E+04  0.14877487691E+04  0.80863158491E+02 0.  0.
         13    1    3    3    0    0 -0.72395909755E+02  0.88414104716E+02 -0.55451390193E+02  0.12701605543E+03  0.00000000000E+00 0. -1.
        -13    1    3    3    0    0 -0.27932895054E+03  0.23940611480E+03 -0.22387250865E+02  0.36856632973E+03  0.00000000000E+00 0.  1.
          2    1    6    6  502    0  0.23309795835E+03  0.18165361152E+03 -0.12441084043E+04  0.12787253085E+04  0.00000000000E+00 0. -1.
          3    1    5    5  503    0  0.66626163241E+02 -0.39035993485E+03 -0.47607096158E+03  0.61924428526E+03  0.00000000000E+00 0. -1.
         -4    1    5    5    0  503 -0.16188159894E+02 -0.13789056218E+03 -0.20949849300E+03  0.25132744026E+03  0.00000000000E+00 0.  1.
         -1    1    6    6    0  502  0.68188898590E+02  0.18776665994E+02 -0.19669397044E+03  0.20902346061E+03  0.00000000000E+00 0.  1.
<mgrwt>
<rscale>  0 0.18127928E+04</rscale>
<asrwt>0</asrwt>
<pdfrwt beam="1">  1        2 0.38908567E+00 0.18127928E+04</pdfrwt>
<pdfrwt beam="2">  1       -2 0.49976336E-01 0.18127928E+04</pdfrwt>
<totfact> 0.11976496E+01</totfact>
</mgrwt>
</event>
<event>
12    1  0.1494110E-007  0.1297405E+04  0.7818608E-02  0.9031626E-01
         -2   -1    0    0    0  501 -0.00000000000E+00  0.00000000000E+00  0.20331206578E+03  0.20331206578E+03  0.00000000000E+00 0.  1.
          2   -1    0    0  501    0  0.00000000000E+00 -0.00000000000E+00 -0.20697970673E+04  0.20697970673E+04  0.00000000000E+00 0. -1.
         23    2    1    2    0    0 -0.26683835540E+03 -0.23451460620E+01 -0.79937193182E+03  0.84777732280E+03  0.92318449137E+02 0.  0.
        254    2    1    2    0    0  0.26683835540E+03  0.23451460620E+01 -0.10671130696E+04  0.14253318102E+04  0.90643932959E+03 0.  0.
        -24    2    4    4    0    0  0.53298833247E+03 -0.88547306345E+02 -0.97701803816E+03  0.11192897241E+04  0.79549051281E+02 0.  0.
         24    2    4    4    0    0 -0.26614997707E+03  0.90892452407E+02 -0.90095031487E+02  0.30604208614E+03  0.80295676059E+02 0.  0.
         11    1    3    3    0    0 -0.16397530468E+03 -0.46477339898E+02 -0.48131281502E+03  0.51059775712E+03  0.00000000000E+00 0. -1.
        -11    1    3    3    0    0 -0.10286305072E+03  0.44132193836E+02 -0.31805911680E+03  0.33717956569E+03  0.00000000000E+00 0.  1.
          4    1    6    6  502    0 -0.11615540065E+03  0.61558094627E+02 -0.59958870011E+01  0.13159569436E+03  0.00000000000E+00 0. -1.
          1    1    5    5  503    0  0.53441562370E+01 -0.10823792330E+02 -0.14332437349E+02  0.18738549747E+02  0.00000000000E+00 0. -1.
         -2    1    5    5    0  503  0.52764417623E+03 -0.77723514015E+02 -0.96268560081E+03  0.11005511743E+04  0.00000000000E+00 0.  1.
         -3    1    6    6    0  502 -0.14999457642E+03  0.29334357781E+02 -0.84099144486E+02  0.17444639178E+03  0.00000000000E+00 0.  1.
<mgrwt>
<rscale>  0 0.12974047E+04</rscale>
<asrwt>0</asrwt>
<pdfrwt beam="1">  1        2 0.31843032E+00 0.12974047E+04</pdfrwt>
<pdfrwt beam="2">  1       -2 0.31278779E-01 0.12974047E+04</pdfrwt>
<totfact> 0.56861445E+01</totfact>
</mgrwt>
</event>
<event>
12    1  0.1494110E-007  0.1410848E+04  0.7818608E-02  0.8946004E-01
         -1   -1    0    0    0  501 -0.00000000000E+00  0.00000000000E+00  0.75096055355E+03  0.75096055355E+03  0.00000000000E+00 0. -1.
          1   -1    0    0  501    0  0.00000000000E+00 -0.00000000000E+00 -0.66264847691E+03  0.66264847691E+03  0.00000000000E+00 0.  1.
         23    2    1    2    0    0 -0.26671770461E+03  0.15245501264E+03  0.30757722513E+03  0.44446121840E+03  0.92526538940E+02 0.  0.
        254    2    1    2    0    0  0.26671770461E+03 -0.15245501264E+03 -0.21926514850E+03  0.96914781206E+03  0.89263061310E+03 0.  0.
        -24    2    4    4    0    0  0.48490808098E+03 -0.36814633654E+03 -0.64974801367E+02  0.61634624652E+03  0.70663984307E+02 0.  0.
         24    2    4    4    0    0 -0.21819037637E+03  0.21569132389E+03 -0.15429034713E+03  0.35280156554E+03  0.80830971084E+02 0.  0.
         11    1    3    3    0    0 -0.21891452527E+03  0.98192623788E+02  0.18838931751E+03  0.30505064447E+03  0.00000000000E+00 0. -1.
        -11    1    3    3    0    0 -0.47803179343E+02  0.54262388856E+02  0.11918790763E+03  0.13941057393E+03  0.00000000000E+00 0.  1.
          4    1    6    6  502    0 -0.16392360104E+03  0.16047295138E+03 -0.15230955362E+03  0.27535561593E+03  0.00000000000E+00 0. -1.
          1    1    5    5  503    0  0.44570583128E+03 -0.31510564896E+03 -0.46331297759E+02  0.54780639572E+03  0.00000000000E+00 0. -1.
         -2    1    5    5    0  503  0.39202249704E+02 -0.53040687577E+02 -0.18643503609E+02  0.68539850797E+02  0.00000000000E+00 0.  1.
         -3    1    6    6    0  502 -0.54266775325E+02  0.55218372517E+02 -0.19807935152E+01  0.77445949607E+02  0.00000000000E+00 0.  1.
<mgrwt>
<rscale>  0 0.14108478E+04</rscale>
<asrwt>0</asrwt>
<pdfrwt beam="1">  1        1 0.10194592E+00 0.14108478E+04</pdfrwt>
<pdfrwt beam="2">  1       -1 0.11553239E+00 0.14108478E+04</pdfrwt>
<totfact> 0.19579186E+01</totfact>
</mgrwt>
</event>
<event>
12    1  0.1494110E-007  0.1930037E+04  0.7818608E-02  0.8640048E-01
          2   -1    0    0  501    0  0.00000000000E+00  0.00000000000E+00  0.10229420709E+04  0.10229420709E+04  0.00000000000E+00 0. -1.
         -2   -1    0    0    0  501 -0.00000000000E+00 -0.00000000000E+00 -0.91037486494E+03  0.91037486494E+03  0.00000000000E+00 0.  1.
         23    2    1    2    0    0  0.69740162887E+03  0.21187621716E+02 -0.23327035004E+03  0.74089108948E+03  0.87673274157E+02 0.  0.
        254    2    1    2    0    0 -0.69740162887E+03 -0.21187621716E+02  0.34583755600E+03  0.11924258463E+04  0.90302704092E+03 0.  0.
        -24    2    4    4    0    0 -0.87747822892E+03 -0.13606475330E+03  0.18043625400E+03  0.91038599434E+03  0.88112187612E+02 0.  0.
         24    2    4    4    0    0  0.18007660005E+03  0.11487713158E+03  0.16540130200E+03  0.28203985201E+03  0.81021911688E+02 0.  0.
         11    1    3    3    0    0  0.10044603764E+02 -0.10241411291E+02 -0.10044404789E+02  0.17512014092E+02  0.00000000000E+00 0. -1.
        -11    1    3    3    0    0  0.68735702511E+03  0.31429033006E+02 -0.22322594525E+03  0.72337907539E+03  0.00000000000E+00 0.  1.
          4    1    6    6  502    0  0.12285980731E+02 -0.57641063274E+00 -0.78966381004E+01  0.14616239770E+02  0.00000000000E+00 0. -1.
          1    1    5    5  503    0 -0.51366529012E+03 -0.78669335687E+02  0.14973026517E+03  0.54079575345E+03  0.00000000000E+00 0. -1.
         -2    1    5    5    0  503 -0.36381293881E+03 -0.57395417610E+02  0.30705988831E+02  0.36959024088E+03  0.00000000000E+00 0.  1.
         -3    1    6    6    0  502  0.16779061932E+03  0.11545354221E+03  0.17329794010E+03  0.26742361224E+03  0.00000000000E+00 0.  1.
<mgrwt>
<rscale>  0 0.19300370E+04</rscale>
<asrwt>0</asrwt>
<pdfrwt beam="1">  1        2 0.15737570E+00 0.19300370E+04</pdfrwt>
<pdfrwt beam="2">  1       -2 0.14005767E+00 0.19300370E+04</pdfrwt>
<totfact> 0.81623081E+00</totfact>
</mgrwt>
</event>
<event>
12    1  0.1494110E-007  0.1707492E+04  0.7818608E-02  0.8757103E-01
         -1   -1    0    0    0  501 -0.00000000000E+00  0.00000000000E+00  0.40761031045E+03  0.40761031045E+03  0.00000000000E+00 0.  1.
          1   -1    0    0  501    0  0.00000000000E+00 -0.00000000000E+00 -0.17881838047E+04  0.17881838047E+04  0.00000000000E+00 0. -1.
         23    2    1    2    0    0 -0.15230513802E+03 -0.57171232824E+03 -0.29464542580E+03  0.66773219818E+03  0.94860530292E+02 0.  0.
        254    2    1    2    0    0  0.15230513802E+03  0.57171232824E+03 -0.10859280685E+04  0.15280619170E+04  0.89759768880E+03 0.  0.
        -24    2    4    4    0    0  0.18267362473E+03 -0.65257478317E+02 -0.79566658982E+03  0.82316843036E+03  0.83022592874E+02 0.  0.
         24    2    4    4    0    0 -0.30368486709E+02  0.63696980655E+03 -0.29026147866E+03  0.70489348664E+03  0.77267859214E+02 0.  0.
         11    1    3    3    0    0 -0.13080019401E+03 -0.51354924525E+03 -0.22863076889E+03  0.57715989685E+03  0.00000000000E+00 0.  1.
        -11    1    3    3    0    0 -0.21504944017E+02 -0.58163082986E+02 -0.66014656917E+02  0.90572301326E+02  0.00000000000E+00 0. -1.
          2    1    6    6  502    0 -0.23403501558E+01  0.56966355751E+01 -0.13907846343E+02  0.15210426872E+02  0.00000000000E+00 0. -1.
          1    1    5    5  503    0  0.20158773220E+02 -0.13104520583E+02 -0.28701372433E+02  0.37441599552E+02  0.00000000000E+00 0. -1.
         -2    1    5    5    0  503  0.16251485151E+03 -0.52152957735E+02 -0.76696521739E+03  0.78572683080E+03  0.00000000000E+00 0.  1.
         -1    1    6    6    0  502 -0.28028136553E+02  0.63127317098E+03 -0.27635363231E+03  0.68968305977E+03  0.00000000000E+00 0.  1.
<mgrwt>
<rscale>  0 0.17074919E+04</rscale>
<asrwt>0</asrwt>
<pdfrwt beam="1">  1        1 0.27510520E+00 0.17074919E+04</pdfrwt>
<pdfrwt beam="2">  1       -1 0.62709278E-01 0.17074919E+04</pdfrwt>
<totfact> 0.10180099E+01</totfact>
</mgrwt>
</event>
<event>
12    1  0.1494110E-007  0.2315154E+04  0.7818608E-02  0.8471970E-01
          1   -1    0    0  501    0  0.00000000000E+00  0.00000000000E+00  0.12042017122E+04  0.12042017122E+04  0.00000000000E+00 0. -1.
         -1   -1    0    0    0  501 -0.00000000000E+00 -0.00000000000E+00 -0.11127570718E+04  0.11127570718E+04  0.00000000000E+00 0.  1.
         23    2    1    2    0    0 -0.55050077021E+03 -0.61926888100E+03  0.56659466674E+03  0.10079792754E+04  0.91911143157E+02 0.  0.
        254    2    1    2    0    0  0.55050077021E+03  0.61926888100E+03 -0.47515002631E+03  0.13089795087E+04  0.89505014475E+03 0.  0.
        -24    2    4    4    0    0  0.66042741539E+03  0.11200420767E+03 -0.14986769390E+03  0.69123299207E+03  0.81445749493E+02 0.  0.
         24    2    4    4    0    0 -0.10992664518E+03  0.50726467333E+03 -0.32528233241E+03  0.61774651660E+03  0.80005292713E+02 0.  0.
         11    1    3    3    0    0 -0.27699446387E+03 -0.37661464005E+03  0.33558342656E+03  0.57548306343E+03  0.00000000000E+00 0. -1.
        -11    1    3    3    0    0 -0.27350630634E+03 -0.24265424095E+03  0.23101124018E+03  0.43249621195E+03  0.00000000000E+00 0.  1.
          4    1    6    6  502    0 -0.64698332876E+00  0.14596018105E+03 -0.68646003461E+02  0.16129806828E+03  0.00000000000E+00 0. -1.
          3    1    5    5  503    0  0.41955965972E+02  0.27548380563E+02 -0.50679939753E+01  0.50447010964E+02  0.00000000000E+00 0. -1.
         -4    1    5    5    0  503  0.61847144942E+03  0.84455827108E+02 -0.14479969993E+03  0.64078598110E+03  0.00000000000E+00 0.  1.
         -3    1    6    6    0  502 -0.10927966185E+03  0.36130449228E+03 -0.25663632895E+03  0.45644844832E+03  0.00000000000E+00 0.  1.
<mgrwt>
<rscale>  0 0.23151535E+04</rscale>
<asrwt>0</asrwt>
<pdfrwt beam="1">  1        1 0.18526180E+00 0.23151535E+04</pdfrwt>
<pdfrwt beam="2">  1       -1 0.17119340E+00 0.23151535E+04</pdfrwt>
<totfact> 0.23098234E+00</totfact>
</mgrwt>
</event>
<event>
12    1  0.1494110E-007  0.1428151E+04  0.7818608E-02  0.8933689E-01
          1   -1    0    0  501    0  0.00000000000E+00  0.00000000000E+00  0.90218671443E+03  0.90218671443E+03  0.00000000000E+00 0. -1.
         -1   -1    0    0    0  501 -0.00000000000E+00 -0.00000000000E+00 -0.56518687918E+03  0.56518687918E+03  0.00000000000E+00 0.  1.
         23    2    1    2    0    0  0.30178069776E+03 -0.12580645854E+03 -0.18850132645E+03  0.38712543573E+03  0.86223537156E+02 0.  0.
        254    2    1    2    0    0 -0.30178069776E+03  0.12580645854E+03  0.52550116170E+03  0.10802481579E+04  0.88537323039E+03 0.  0.
        -24    2    4    4    0    0 -0.16081639737E+03 -0.29959278525E+03  0.51787595622E+03  0.62467889174E+03  0.80065355307E+02 0.  0.
         24    2    4    4    0    0 -0.14096430040E+03  0.42539924379E+03  0.76252054819E+01  0.45556926614E+03  0.81546072172E+02 0.  0.
         11    1    3    3    0    0  0.39208588254E+02  0.12063040507E+02 -0.15956426923E+02  0.44016336732E+02  0.00000000000E+00 0. -1.
        -11    1    3    3    0    0  0.26257210951E+03 -0.13786949905E+03 -0.17254489953E+03  0.34310909900E+03  0.00000000000E+00 0.  1.
          2    1    6    6  502    0  0.17807338613E+01  0.68475226402E+02  0.18682562482E+02  0.71000463271E+02  0.00000000000E+00 0. -1.
          3    1    5    5  503    0 -0.21634428033E+02 -0.11708833871E+02  0.71311406066E+02  0.75435150308E+02  0.00000000000E+00 0. -1.
         -4    1    5    5    0  503 -0.13918196934E+03 -0.28788395138E+03  0.44656455015E+03  0.54924374143E+03  0.00000000000E+00 0.  1.
         -1    1    6    6    0  502 -0.14274503426E+03  0.35692401739E+03 -0.11057357000E+02  0.38456880287E+03  0.00000000000E+00 0.  1.
<mgrwt>
<rscale>  0 0.14281514E+04</rscale>
<asrwt>0</asrwt>
<pdfrwt beam="1">  1        1 0.13879796E+00 0.14281514E+04</pdfrwt>
<pdfrwt beam="2">  1       -1 0.86951828E-01 0.14281514E+04</pdfrwt>
<totfact> 0.22980352E+01</totfact>
</mgrwt>
</event>
<event>
12    1  0.1494110E-007  0.1218154E+04  0.7818608E-02  0.9097114E-01
         -2   -1    0    0    0  501 -0.00000000000E+00  0.00000000000E+00  0.18870396435E+03  0.18870396435E+03  0.00000000000E+00 0.  1.
          2   -1    0    0  501    0  0.00000000000E+00 -0.00000000000E+00 -0.19659073200E+04  0.19659073200E+04  0.00000000000E+00 0. -1.
         23    2    1    2    0    0 -0.21330270938E+03 -0.14190019624E+03 -0.48578890808E+03  0.55663396843E+03  0.90646566813E+02 0.  0.
        254    2    1    2    0    0  0.21330270938E+03  0.14190019624E+03 -0.12914144476E+04  0.15979773159E+04  0.90561940974E+03 0.  0.
        -24    2    4    4    0    0  0.51159094124E+03 -0.74845785967E+02 -0.97388211196E+03  0.11049155568E+04  0.71167666803E+02 0.  0.
         24    2    4    4    0    0 -0.29828823186E+03  0.21674598221E+03 -0.31753233562E+03  0.49306175915E+03  0.79551392789E+02 0.  0.
         11    1    3    3    0    0 -0.12328376789E+02 -0.12703093133E+02 -0.10937107843E+03  0.11079436018E+03  0.00000000000E+00 0. -1.
        -11    1    3    3    0    0 -0.20097433259E+03 -0.12919710311E+03 -0.37641782965E+03  0.44583960825E+03  0.00000000000E+00 0.  1.
          2    1    6    6  502    0 -0.87319165685E+02  0.63424625078E+02 -0.14339928975E+03  0.17947332967E+03  0.00000000000E+00 0. -1.
          3    1    5    5  503    0  0.20606296872E+03 -0.16305822211E+02 -0.32245201466E+03  0.38301844430E+03  0.00000000000E+00 0. -1.
         -4    1    5    5    0  503  0.30552797252E+03 -0.58539963756E+02 -0.65143009730E+03  0.72189711249E+03  0.00000000000E+00 0.  1.
         -1    1    6    6    0  502 -0.21096906618E+03  0.15332135713E+03 -0.17413304587E+03  0.31358842948E+03  0.00000000000E+00 0.  1.
<mgrwt>
<rscale>  0 0.12181535E+04</rscale>
<asrwt>0</asrwt>
<pdfrwt beam="1">  1        2 0.30244729E+00 0.12181535E+04</pdfrwt>
<pdfrwt beam="2">  1       -2 0.29031378E-01 0.12181535E+04</pdfrwt>
<totfact> 0.75064940E+01</totfact>
</mgrwt>
</event>
<event>
12    1  0.1494110E-007  0.1478258E+04  0.7818608E-02  0.8899041E-01
          2   -1    0    0  501    0  0.00000000000E+00  0.00000000000E+00  0.15738937189E+04  0.15738937189E+04  0.00000000000E+00 0. -1.
         -2   -1    0    0    0  501 -0.00000000000E+00 -0.00000000000E+00 -0.34710841621E+03  0.34710841621E+03  0.00000000000E+00 0.  1.
         23    2    1    2    0    0 -0.97256312241E+02 -0.45898364316E+03  0.28819683593E+03  0.55859494583E+03  0.94053826641E+02 0.  0.
        254    2    1    2    0    0  0.97256312241E+02  0.45898364316E+03  0.93858846679E+03  0.13624071893E+04  0.86895354567E+03 0.  0.
        -24    2    4    4    0    0 -0.12012558892E+03  0.61574077834E+03  0.86746587558E+03  0.10735629191E+04  0.80457645611E+02 0.  0.
         24    2    4    4    0    0  0.21738190116E+03 -0.15675713519E+03  0.71122591209E+02  0.28884427021E+03  0.80900550479E+02 0.  0.
         11    1    3    3    0    0 -0.96908488765E+02 -0.40331509276E+03  0.21672324338E+03  0.46799923447E+03  0.00000000000E+00 0. -1.
        -11    1    3    3    0    0 -0.34782347674E+00 -0.55668550400E+02  0.71473592548E+02  0.90595711359E+02  0.00000000000E+00 0.  1.
          4    1    6    6  502    0  0.21319992405E+03 -0.16534809682E+03  0.65089889093E+02  0.27754440078E+03  0.00000000000E+00 0. -1.
          3    1    5    5  503    0 -0.74634778348E+02  0.52792091579E+03  0.71722009884E+03  0.89368647391E+03  0.00000000000E+00 0. -1.
         -4    1    5    5    0  503 -0.45490810572E+02  0.87819862550E+02  0.15024577674E+03  0.17987644518E+03  0.00000000000E+00 0.  1.
         -3    1    6    6    0  502  0.41819771076E+01  0.85909616374E+01  0.60327021166E+01  0.11299869433E+02  0.00000000000E+00 0.  1.
<mgrwt>
<rscale>  0 0.14782581E+04</rscale>
<asrwt>0</asrwt>
<pdfrwt beam="1">  1        2 0.24213749E+00 0.14782581E+04</pdfrwt>
<pdfrwt beam="2">  1       -2 0.53401296E-01 0.14782581E+04</pdfrwt>
<totfact> 0.36887746E+01</totfact>
</mgrwt>
</event>
<event>
12    1  0.1494110E-007  0.1317285E+04  0.7818608E-02  0.9015969E-01
         -2   -1    0    0    0  501 -0.00000000000E+00  0.00000000000E+00  0.24358743323E+03  0.24358743323E+03  0.00000000000E+00 0.  1.
          2   -1    0    0  501    0  0.00000000000E+00 -0.00000000000E+00 -0.17809208488E+04  0.17809208488E+04  0.00000000000E+00 0. -1.
         23    2    1    2    0    0  0.26710253962E+03  0.74856143252E+02 -0.69041232055E+03  0.74955382291E+03  0.90634166958E+02 0.  0.
        254    2    1    2    0    0 -0.26710253962E+03 -0.74856143252E+02 -0.84692109505E+03  0.12749544591E+04  0.91174904595E+03 0.  0.
        -24    2    4    4    0    0  0.17799230342E+03 -0.30818795337E+03 -0.11272214448E+03  0.38175536345E+03  0.79811032976E+02 0.  0.
         24    2    4    4    0    0 -0.44509484304E+03  0.23333181012E+03 -0.73419895057E+03  0.89319909569E+03  0.78761491933E+02 0.  0.
         11    1    3    3    0    0  0.24884648807E+03  0.58429004475E+02 -0.54357034294E+03  0.60067232408E+03  0.00000000000E+00 0. -1.
        -11    1    3    3    0    0  0.18256051547E+02  0.16427138777E+02 -0.14684197761E+03  0.14888149883E+03  0.00000000000E+00 0.  1.
          4    1    6    6  502    0 -0.14660788621E+03  0.43408647027E+02 -0.25899479884E+03  0.30075985231E+03  0.00000000000E+00 0. -1.
          1    1    5    5  503    0  0.12548175640E+01 -0.13044698047E+02 -0.22612651314E+02  0.26135621548E+02  0.00000000000E+00 0. -1.
         -2    1    5    5    0  503  0.17673748586E+03 -0.29514325532E+03 -0.90109493166E+02  0.35561974190E+03  0.00000000000E+00 0.  1.
         -3    1    6    6    0  502 -0.29848695683E+03  0.18992316309E+03 -0.47520415173E+03  0.59243924338E+03  0.00000000000E+00 0.  1.
<mgrwt>
<rscale>  0 0.13172850E+04</rscale>
<asrwt>0</asrwt>
<pdfrwt beam="1">  1        2 0.27398783E+00 0.13172850E+04</pdfrwt>
<pdfrwt beam="2">  1       -2 0.37474989E-01 0.13172850E+04</pdfrwt>
<totfact> 0.58135699E+01</totfact>
</mgrwt>
</event>
<event>
12    1  0.1494110E-007  0.2161031E+04  0.7818608E-02  0.8534825E-01
          1   -1    0    0  501    0  0.00000000000E+00  0.00000000000E+00  0.16700749656E+04  0.16700749656E+04  0.00000000000E+00 0. -1.
         -1   -1    0    0    0  501 -0.00000000000E+00 -0.00000000000E+00 -0.69907879553E+03  0.69907879553E+03  0.00000000000E+00 0.  1.
         23    2    1    2    0    0  0.26525091817E+02  0.81069665448E+03  0.11206922228E+02  0.81770614596E+03  0.10288391497E+03 0.  0.
        254    2    1    2    0    0 -0.26525091817E+02 -0.81069665448E+03  0.95978924780E+03  0.15514476151E+04  0.90986903245E+03 0.  0.
        -24    2    4    4    0    0  0.18795619141E+03 -0.46463999229E+03  0.10135217943E+04  0.11334211825E+04  0.78735615357E+02 0.  0.
         24    2    4    4    0    0 -0.21448128322E+03 -0.34605666219E+03 -0.53732546495E+02  0.41802643262E+03  0.78111955020E+02 0.  0.
         13    1    3    3    0    0  0.53360033206E+02  0.71884247893E+03  0.23641630429E+02  0.72120782674E+03  0.00000000000E+00 0.  1.
        -13    1    3    3    0    0 -0.26834941390E+02  0.91854175547E+02 -0.12434708201E+02  0.96498319223E+02  0.00000000000E+00 0. -1.
          2    1    6    6  502    0 -0.13805038548E+03 -0.27100162943E+03 -0.62689658501E+02  0.31053145633E+03  0.00000000000E+00 0. -1.
          1    1    5    5  503    0  0.79751692774E+02 -0.27774983967E+03  0.63423301833E+03  0.69696257251E+03  0.00000000000E+00 0. -1.
         -2    1    5    5    0  503  0.10820449863E+03 -0.18689015262E+03  0.37928877596E+03  0.43645861000E+03  0.00000000000E+00 0.  1.
         -1    1    6    6    0  502 -0.76430897749E+02 -0.75055032754E+02  0.89571120066E+01  0.10749497629E+03  0.00000000000E+00 0.  1.
<mgrwt>
<rscale>  0 0.21610312E+04</rscale>
<asrwt>0</asrwt>
<pdfrwt beam="1">  1        1 0.25693461E+00 0.21610312E+04</pdfrwt>
<pdfrwt beam="2">  1       -1 0.10755058E+00 0.21610312E+04</pdfrwt>
<totfact> 0.36779329E+00</totfact>
</mgrwt>
</event>
<event>
12    1  0.1494110E-007  0.1452907E+04  0.7818608E-02  0.8916388E-01
          2   -1    0    0  501    0  0.00000000000E+00  0.00000000000E+00  0.37028362007E+04  0.37028362007E+04  0.00000000000E+00 0. -1.
         -2   -1    0    0    0  501 -0.00000000000E+00 -0.00000000000E+00 -0.14252174812E+03  0.14252174812E+03  0.00000000000E+00 0.  1.
         23    2    1    2    0    0  0.12834091061E+03 -0.97215728604E+02  0.20835201663E+02  0.18570627963E+03  0.90168893991E+02 0.  0.
        254    2    1    2    0    0 -0.12834091061E+03  0.97215728604E+02  0.35394792510E+04  0.36596516692E+04  0.91608661432E+03 0.  0.
        -24    2    4    4    0    0 -0.19441964446E+03  0.42488051505E+03  0.28499867164E+04  0.28890882749E+04  0.78002091790E+02 0.  0.
         24    2    4    4    0    0  0.66078733849E+02 -0.32766478644E+03  0.68949253458E+03  0.77056339435E+03  0.81470105729E+02 0.  0.
         13    1    3    3    0    0  0.13872035342E+03 -0.93286151140E+02  0.61285026625E+01  0.16728180114E+03  0.00000000000E+00 0.  1.
        -13    1    3    3    0    0 -0.10379442816E+02 -0.39295774641E+01  0.14706699001E+02  0.18424478492E+02  0.00000000000E+00 0. -1.
          4    1    6    6  502    0  0.20227706307E+02 -0.90974807146E+01  0.42594367095E+02  0.48022956657E+02  0.00000000000E+00 0. -1.
          1    1    5    5  503    0 -0.12195312605E+03  0.19282637862E+03  0.15270601188E+04  0.15440100983E+04  0.00000000000E+00 0. -1.
         -2    1    5    5    0  503 -0.72466518407E+02  0.23205413643E+03  0.13229265975E+04  0.13450781765E+04  0.00000000000E+00 0.  1.
         -3    1    6    6    0  502  0.45851027542E+02 -0.31856730573E+03  0.64689816749E+03  0.72254043770E+03  0.00000000000E+00 0.  1.
<mgrwt>
<rscale>  0 0.14529070E+04</rscale>
<asrwt>0</asrwt>
<pdfrwt beam="1">  1        2 0.56966703E+00 0.14529070E+04</pdfrwt>
<pdfrwt beam="2">  1       -2 0.21926426E-01 0.14529070E+04</pdfrwt>
<totfact> 0.10429830E+01</totfact>
</mgrwt>
</event>
<event>
12    1  0.1494110E-007  0.1320233E+04  0.7818608E-02  0.9013672E-01
         -1   -1    0    0    0  501 -0.00000000000E+00  0.00000000000E+00  0.12816546213E+04  0.12816546213E+04  0.00000000000E+00 0.  1.
          1   -1    0    0  501    0  0.00000000000E+00 -0.00000000000E+00 -0.33999337424E+03  0.33999337424E+03  0.00000000000E+00 0. -1.
         23    2    1    2    0    0  0.29657362436E+03 -0.76467037173E+02  0.10130287630E+03  0.33506480258E+03  0.90570562227E+02 0.  0.
        254    2    1    2    0    0 -0.29657362436E+03  0.76467037173E+02  0.84035837072E+03  0.12865831929E+04  0.92481944111E+03 0.  0.
        -24    2    4    4    0    0 -0.20967985404E+03  0.31776940057E+03  0.92793342076E+03  0.10062850565E+04  0.81278215701E+02 0.  0.
         24    2    4    4    0    0 -0.86893770319E+02 -0.24130236339E+03 -0.87575050042E+02  0.28029813648E+03  0.71556257749E+02 0.  0.
         13    1    3    3    0    0  0.28286937551E+03 -0.73377866542E+02  0.69624618960E+02  0.30041135542E+03  0.00000000000E+00 0. -1.
        -13    1    3    3    0    0  0.13704248846E+02 -0.30891706311E+01  0.31678257345E+02  0.34653447159E+02  0.00000000000E+00 0.  1.
          2    1    6    6  502    0 -0.76310114004E+01 -0.52426686199E+02  0.91707153494E+01  0.53767013873E+02  0.00000000000E+00 0. -1.
          1    1    5    5  503    0 -0.32291364365E+02  0.10276707361E+03  0.31611605490E+03  0.33396581232E+03  0.00000000000E+00 0. -1.
         -2    1    5    5    0  503 -0.17738848968E+03  0.21500232695E+03  0.61181736586E+03  0.67231924414E+03  0.00000000000E+00 0.  1.
         -1    1    6    6    0  502 -0.79262758918E+02 -0.18887567719E+03 -0.96745765391E+02  0.22653112260E+03  0.00000000000E+00 0.  1.
<mgrwt>
<rscale>  0 0.13202334E+04</rscale>
<asrwt>0</asrwt>
<pdfrwt beam="1">  1        1 0.52306673E-01 0.13202334E+04</pdfrwt>
<pdfrwt beam="2">  1       -1 0.19717763E+00 0.13202334E+04</pdfrwt>
<totfact> 0.11491950E+01</totfact>
</mgrwt>
</event>
<event>
12    1  0.1494110E-007  0.2304292E+04  0.7818608E-02  0.8476231E-01
          3   -1    0    0  501    0  0.00000000000E+00  0.00000000000E+00  0.21890913121E+04  0.21890913121E+04  0.00000000000E+00 0. -1.
         -3   -1    0    0    0  501 -0.00000000000E+00 -0.00000000000E+00 -0.60638876005E+03  0.60638876005E+03  0.00000000000E+00 0.  1.
         23    2    1    2    0    0 -0.30881862517E+03 -0.90286686942E+03  0.43887262742E+03  0.10542003918E+04  0.90508318839E+02 0.  0.
        254    2    1    2    0    0  0.30881862517E+03  0.90286686942E+03  0.11438299247E+04  0.17412796804E+04  0.90175966959E+03 0.  0.
        -24    2    4    4    0    0  0.36232730537E+03  0.64875795187E+02  0.68287360013E+03  0.78008719094E+03  0.82034911398E+02 0.  0.
         24    2    4    4    0    0 -0.53508680199E+02  0.83799107423E+03  0.46095632455E+03  0.96119248948E+03  0.79486158229E+02 0.  0.
         13    1    3    3    0    0 -0.97550398651E+02 -0.42266932555E+03  0.19086258349E+03  0.47391345709E+03  0.00000000000E+00 0. -1.
        -13    1    3    3    0    0 -0.21126822652E+03 -0.48019754386E+03  0.24801004393E+03  0.58028693468E+03  0.00000000000E+00 0.  1.
          4    1    6    6  502    0 -0.15265447896E+02  0.49775067288E+02  0.12568439898E+02  0.53558910598E+02  0.00000000000E+00 0. -1.
          1    1    5    5  503    0  0.10999141417E+03  0.57074512496E+02  0.20223752118E+03  0.23718268516E+03  0.00000000000E+00 0. -1.
         -2    1    5    5    0  503  0.25233589120E+03  0.78012826913E+01  0.48063607896E+03  0.54290450578E+03  0.00000000000E+00 0.  1.
         -3    1    6    6    0  502 -0.38243232302E+02  0.78821600694E+03  0.44838788465E+03  0.90763357888E+03  0.00000000000E+00 0.  1.
<mgrwt>
<rscale>  0 0.23042920E+04</rscale>
<asrwt>0</asrwt>
<pdfrwt beam="1">  1        3 0.33678327E+00 0.23042920E+04</pdfrwt>
<pdfrwt beam="2">  1       -3 0.93290580E-01 0.23042920E+04</pdfrwt>
<totfact> 0.59089856E-02</totfact>
</mgrwt>
</event>
<event>
12    1  0.1494110E-007  0.1510673E+04  0.7818608E-02  0.8877387E-01
         -1   -1    0    0    0  501 -0.00000000000E+00  0.00000000000E+00  0.61435586301E+03  0.61435586301E+03  0.00000000000E+00 0.  1.
          1   -1    0    0  501    0  0.00000000000E+00 -0.00000000000E+00 -0.92866863845E+03  0.92866863845E+03  0.00000000000E+00 0. -1.
         23    2    1    2    0    0 -0.21338773311E+03 -0.41319320780E+03  0.29373061241E+02  0.47442208090E+03  0.89166038962E+02 0.  0.
        254    2    1    2    0    0  0.21338773311E+03  0.41319320780E+03 -0.34368583668E+03  0.10686024206E+04  0.89862574372E+03 0.  0.
        -24    2    4    4    0    0 -0.25449213829E+03  0.22223409641E+03 -0.42713645798E+03  0.55017348171E+03  0.78045270073E+02 0.  0.
         24    2    4    4    0    0  0.46787987140E+03  0.19095911139E+03  0.83450621305E+02  0.51842893884E+03  0.80172327850E+02 0.  0.
         13    1    3    3    0    0 -0.12077068464E+03 -0.18808373061E+03 -0.25278807881E+02  0.22494458455E+03  0.00000000000E+00 0. -1.
        -13    1    3    3    0    0 -0.92617048465E+02 -0.22510947719E+03  0.54651869122E+02  0.24947749635E+03  0.00000000000E+00 0.  1.
          4    1    6    6  502    0  0.88903490103E+02  0.72101256692E+02  0.20794498709E+02  0.11633930095E+03  0.00000000000E+00 0. -1.
          3    1    5    5  503    0 -0.62054694577E+02  0.67228898203E+02 -0.17304627421E+03  0.19574351302E+03  0.00000000000E+00 0. -1.
         -4    1    5    5    0  503 -0.19243744371E+03  0.15500519821E+03 -0.25409018377E+03  0.35442996869E+03  0.00000000000E+00 0.  1.
         -3    1    6    6    0  502  0.37897638130E+03  0.11885785470E+03  0.62656122596E+02  0.40208963789E+03  0.00000000000E+00 0.  1.
<mgrwt>
<rscale>  0 0.15106727E+04</rscale>
<asrwt>0</asrwt>
<pdfrwt beam="1">  1        1 0.14287210E+00 0.15106727E+04</pdfrwt>
<pdfrwt beam="2">  1       -1 0.94516286E-01 0.15106727E+04</pdfrwt>
<totfact> 0.18056429E+01</totfact>
</mgrwt>
</event>
<event>
12    1  0.1494110E-007  0.1236966E+04  0.7818608E-02  0.9081102E-01
          2   -1    0    0  501    0  0.00000000000E+00  0.00000000000E+00  0.17924869955E+04  0.17924869955E+04  0.00000000000E+00 0. -1.
         -2   -1    0    0    0  501 -0.00000000000E+00 -0.00000000000E+00 -0.21340249564E+03  0.21340249564E+03  0.00000000000E+00 0.  1.
         23    2    1    2    0    0  0.58793119997E+02  0.16456017076E+03  0.33189603615E+02  0.20981288268E+03  0.11127989571E+03 0.  0.
        254    2    1    2    0    0 -0.58793119997E+02 -0.16456017076E+03  0.15458948962E+04  0.17960766084E+04  0.89753187824E+03 0.  0.
        -24    2    4    4    0    0  0.21088227860E+03 -0.49403138396E+02  0.10717791084E+02  0.23101370536E+03  0.79626977266E+02 0.  0.
         24    2    4    4    0    0 -0.26967539859E+03 -0.11515703237E+03  0.15351771051E+04  0.15650629031E+04  0.81652824409E+02 0.  0.
         13    1    3    3    0    0  0.55820353920E+02  0.27237370163E+02 -0.15616975288E+02  0.64044329666E+02  0.00000000000E+00 0. -1.
        -13    1    3    3    0    0  0.29727660765E+01  0.13732280060E+03  0.48806578903E+02  0.14576855301E+03  0.00000000000E+00 0.  1.
          2    1    6    6  502    0 -0.34847426218E+01 -0.99200473442E+01  0.16353047833E+03  0.16386814246E+03  0.00000000000E+00 0. -1.
          3    1    5    5  503    0  0.81396235099E+02  0.53314834692E+00 -0.29408843288E+02  0.86547740577E+02  0.00000000000E+00 0. -1.
         -4    1    5    5    0  503  0.12948604350E+03 -0.49936286743E+02  0.40126634372E+02  0.14446596478E+03  0.00000000000E+00 0.  1.
         -1    1    6    6    0  502 -0.26619065597E+03 -0.10523698502E+03  0.13716466268E+04  0.14011947606E+04  0.00000000000E+00 0.  1.
<mgrwt>
<rscale>  0 0.12369660E+04</rscale>
<asrwt>0</asrwt>
<pdfrwt beam="1">  1        2 0.27576722E+00 0.12369660E+04</pdfrwt>
<pdfrwt beam="2">  1       -2 0.32831154E-01 0.12369660E+04</pdfrwt>
<totfact> 0.74224212E+01</totfact>
</mgrwt>
</event>
<event>
12    1  0.1494110E-007  0.2698949E+04  0.7818608E-02  0.8335346E-01
         -2   -1    0    0    0  501 -0.00000000000E+00  0.00000000000E+00  0.84340428908E+03  0.84340428908E+03  0.00000000000E+00 0.  1.
          2   -1    0    0  501    0  0.00000000000E+00 -0.00000000000E+00 -0.21592035427E+04  0.21592035427E+04  0.00000000000E+00 0. -1.
         23    2    1    2    0    0  0.28900149223E+03 -0.94605949674E+03 -0.13588990800E+04  0.16824884280E+04  0.74901047876E+02 0.  0.
        254    2    1    2    0    0 -0.28900149223E+03  0.94605949674E+03  0.43099826303E+02  0.13201194038E+04  0.87310206243E+03 0.  0.
        -24    2    4    4    0    0  0.27732596462E+03  0.55194019838E+03 -0.13836207203E+02  0.62300399891E+03  0.79967923481E+02 0.  0.
         24    2    4    4    0    0 -0.56632745684E+03  0.39411929836E+03  0.56936033506E+02  0.69711540491E+03  0.81678431270E+02 0.  0.
         13    1    3    3    0    0  0.23737287354E+02 -0.37563686970E+02 -0.79515915766E+02  0.91089353108E+02  0.00000000000E+00 0.  1.
        -13    1    3    3    0    0  0.26526420487E+03 -0.90849580977E+03 -0.12793831642E+04  0.15913990749E+04  0.00000000000E+00 0. -1.
          4    1    6    6  502    0 -0.31223741124E+01 -0.30625278955E+01  0.39829772136E+01  0.59154378276E+01  0.00000000000E+00 0. -1.
          3    1    5    5  503    0  0.81990635384E+02  0.18333480155E+03  0.31858810827E+02  0.20334477514E+03  0.00000000000E+00 0. -1.
         -4    1    5    5    0  503  0.19533532923E+03  0.36860539684E+03 -0.45695018030E+02  0.41965922377E+03  0.00000000000E+00 0.  1.
         -3    1    6    6    0  502 -0.56320508273E+03  0.39718182625E+03  0.52953056292E+02  0.69119996708E+03  0.00000000000E+00 0.  1.
<mgrwt>
<rscale>  0 0.26989491E+04</rscale>
<asrwt>0</asrwt>
<pdfrwt beam="1">  1        2 0.33218516E+00 0.26989491E+04</pdfrwt>
<pdfrwt beam="2">  1       -2 0.12975451E+00 0.26989491E+04</pdfrwt>
<totfact> 0.20841946E+00</totfact>
</mgrwt>
</event>
<event>
12    1  0.1494110E-007  0.1915469E+04  0.7818608E-02  0.8647195E-01
          2   -1    0    0  501    0  0.00000000000E+00  0.00000000000E+00  0.10528199074E+04  0.10528199074E+04  0.00000000000E+00 0. -1.
         -2   -1    0    0    0  501 -0.00000000000E+00 -0.00000000000E+00 -0.87123673624E+03  0.87123673624E+03  0.00000000000E+00 0.  1.
         23    2    1    2    0    0  0.58608220652E+03  0.34279429465E+03 -0.29399786691E+03  0.74535776461E+03  0.90128631814E+02 0.  0.
        254    2    1    2    0    0 -0.58608220652E+03 -0.34279429465E+03  0.47558103808E+03  0.11786988790E+04  0.83794596630E+03 0.  0.
        -24    2    4    4    0    0 -0.74378762647E+03 -0.15564781842E+03  0.17741997925E+03  0.78493893625E+03  0.84882318104E+02 0.  0.
         24    2    4    4    0    0  0.15770541995E+03 -0.18714647622E+03  0.29816105883E+03  0.39375994280E+03  0.79070048088E+02 0.  0.
         11    1    3    3    0    0  0.48454976709E+03  0.29099071802E+03 -0.27922179657E+03  0.63041961141E+03  0.00000000000E+00 0.  1.
        -11    1    3    3    0    0  0.10153243942E+03  0.51803576626E+02 -0.14776070340E+02  0.11493815320E+03  0.00000000000E+00 0. -1.
          4    1    6    6  502    0  0.14065228157E+03 -0.11497127007E+03  0.19266081805E+03  0.26480114816E+03  0.00000000000E+00 0. -1.
          3    1    5    5  503    0 -0.34538743333E+03 -0.94988151386E+02  0.46511692247E+02  0.36121816887E+03  0.00000000000E+00 0. -1.
         -4    1    5    5    0  503 -0.39840019314E+03 -0.60659667037E+02  0.13090828700E+03  0.42372076738E+03  0.00000000000E+00 0.  1.
         -3    1    6    6    0  502  0.17053138389E+02 -0.72175206152E+02  0.10550024078E+03  0.12895879464E+03  0.00000000000E+00 0.  1.
<mgrwt>
<rscale>  0 0.19154690E+04</rscale>
<asrwt>0</asrwt>
<pdfrwt beam="1">  1        2 0.16197229E+00 0.19154690E+04</pdfrwt>
<pdfrwt beam="2">  1       -2 0.13403642E+00 0.19154690E+04</pdfrwt>
<totfact> 0.87623323E+00</totfact>
</mgrwt>
</event>
<event>
12    1  0.1494110E-007  0.1188589E+04  0.7818608E-02  0.9122903E-01
          1   -1    0    0  501    0  0.00000000000E+00  0.00000000000E+00  0.25464727935E+04  0.25464727935E+04  0.00000000000E+00 0. -1.
         -1   -1    0    0    0  501 -0.00000000000E+00 -0.00000000000E+00 -0.13869623460E+03  0.13869623460E+03  0.00000000000E+00 0.  1.
         23    2    1    2    0    0 -0.17335299435E+02 -0.12452745843E+03  0.59259375710E+02  0.16727452402E+03  0.93067138486E+02 0.  0.
        254    2    1    2    0    0  0.17335299435E+02  0.12452745843E+03  0.23485171832E+04  0.25178945041E+04  0.89913968518E+03 0.  0.
        -24    2    4    4    0    0 -0.23702547066E+03  0.34070040436E+03  0.19347383467E+04  0.19804468784E+04  0.81850650237E+02 0.  0.
         24    2    4    4    0    0  0.25436077009E+03 -0.21617294593E+03  0.41377883656E+03  0.53744762569E+03  0.78783760146E+02 0.  0.
         13    1    3    3    0    0 -0.44435779819E+02 -0.43418529023E+02 -0.18722305576E+01  0.62154745900E+02  0.00000000000E+00 0. -1.
        -13    1    3    3    0    0  0.27100480384E+02 -0.81108929410E+02  0.61131606267E+02  0.10511977812E+03  0.00000000000E+00 0.  1.
          4    1    6    6  502    0  0.16847310044E+03 -0.11836277121E+03  0.30402910048E+03  0.36718745229E+03  0.00000000000E+00 0. -1.
          1    1    5    5  503    0 -0.20919895275E+03  0.33416938605E+03  0.17878354346E+04  0.18307891527E+04  0.00000000000E+00 0. -1.
         -2    1    5    5    0  503 -0.27826517909E+02  0.65310183128E+01  0.14690291204E+03  0.14965772571E+03  0.00000000000E+00 0.  1.
         -3    1    6    6    0  502  0.85887669653E+02 -0.97810174725E+02  0.10974973608E+03  0.17026017341E+03  0.00000000000E+00 0.  1.
<mgrwt>
<rscale>  0 0.11885894E+04</rscale>
<asrwt>0</asrwt>
<pdfrwt beam="1">  1        1 0.39176501E+00 0.11885894E+04</pdfrwt>
<pdfrwt beam="2">  1       -1 0.21337884E-01 0.11885894E+04</pdfrwt>
<totfact> 0.23013543E+01</totfact>
</mgrwt>
</event>
<event>
12    1  0.1494110E-007  0.1592866E+04  0.7818608E-02  0.8824942E-01
         -2   -1    0    0    0  501 -0.00000000000E+00  0.00000000000E+00  0.10653929506E+04  0.10653929506E+04  0.00000000000E+00 0.  1.
          2   -1    0    0  501    0  0.00000000000E+00 -0.00000000000E+00 -0.59537270572E+03  0.59537270572E+03  0.00000000000E+00 0. -1.
         23    2    1    2    0    0 -0.45081881219E+03  0.29544412566E+03  0.92139347037E+02  0.55447839293E+03  0.91824812251E+02 0.  0.
        254    2    1    2    0    0  0.45081881219E+03 -0.29544412566E+03  0.37788089788E+03  0.11062872634E+04  0.88913030734E+03 0.  0.
        -24    2    4    4    0    0  0.11495163380E+03 -0.21943104356E+02  0.59699043893E+03  0.61348232006E+03  0.79168143255E+02 0.  0.
         24    2    4    4    0    0  0.33586717839E+03 -0.27350102130E+03 -0.21910954105E+03  0.49280494337E+03  0.85077324005E+02 0.  0.
         13    1    3    3    0    0 -0.17495252623E+03  0.15033134922E+03  0.73994204969E+02  0.24224583250E+03  0.00000000000E+00 0.  1.
        -13    1    3    3    0    0 -0.27586628596E+03  0.14511277644E+03  0.18145142068E+02  0.31223256044E+03  0.00000000000E+00 0. -1.
          2    1    6    6  502    0  0.26529832942E+03 -0.23082705195E+03 -0.13992349893E+03  0.37847446024E+03  0.00000000000E+00 0. -1.
          1    1    5    5  503    0  0.48366776828E+02  0.29873713467E+02  0.23089271366E+03  0.23778820215E+03  0.00000000000E+00 0. -1.
         -2    1    5    5    0  503  0.66584856974E+02 -0.51816817823E+02  0.36609772527E+03  0.37569411791E+03  0.00000000000E+00 0.  1.
         -1    1    6    6    0  502  0.70568848967E+02 -0.42673969356E+02 -0.79186042125E+02  0.11433048313E+03  0.00000000000E+00 0.  1.
<mgrwt>
<rscale>  0 0.15928665E+04</rscale>
<asrwt>0</asrwt>
<pdfrwt beam="1">  1        2 0.91595801E-01 0.15928665E+04</pdfrwt>
<pdfrwt beam="2">  1       -2 0.16390661E+00 0.15928665E+04</pdfrwt>
<totfact> 0.11316239E+01</totfact>
</mgrwt>
</event>
<event>
12    1  0.1494110E-007  0.2179118E+04  0.7818608E-02  0.8527170E-01
          3   -1    0    0  501    0  0.00000000000E+00  0.00000000000E+00  0.29728529769E+04  0.29728529769E+04  0.00000000000E+00 0. -1.
         -3   -1    0    0    0  501 -0.00000000000E+00 -0.00000000000E+00 -0.39932642642E+03  0.39932642642E+03  0.00000000000E+00 0.  1.
         23    2    1    2    0    0  0.80361556184E+03  0.70883696593E+02  0.45035208764E+03  0.92866200108E+03  0.93667709145E+02 0.  0.
        254    2    1    2    0    0 -0.80361556184E+03 -0.70883696593E+02  0.21231744629E+04  0.24435174023E+04  0.90115760319E+03 0.  0.
        -24    2    4    4    0    0 -0.44619196740E+03 -0.75813947816E+01  0.20029402138E+04  0.20535661281E+04  0.78864396297E+02 0.  0.
         24    2    4    4    0    0 -0.35742359444E+03 -0.63302301812E+02  0.12023424908E+03  0.38995127422E+03  0.76465118397E+02 0.  0.
         13    1    3    3    0    0  0.48394614295E+03 -0.34440188508E+01  0.26827007114E+03  0.55333946327E+03  0.00000000000E+00 0. -1.
        -13    1    3    3    0    0  0.31966941888E+03  0.74327715444E+02  0.18208201650E+03  0.37532253781E+03  0.00000000000E+00 0.  1.
          2    1    6    6  502    0 -0.30266354283E+02 -0.14895515960E+02  0.34605485283E+02  0.48326682164E+02  0.00000000000E+00 0. -1.
          3    1    5    5  503    0 -0.43821577725E+02  0.23242776938E+02  0.21358261604E+03  0.21926716860E+03  0.00000000000E+00 0. -1.
         -4    1    5    5    0  503 -0.40237038967E+03 -0.30824171719E+02  0.17893575978E+04  0.18342989595E+04  0.00000000000E+00 0.  1.
         -1    1    6    6    0  502 -0.32715724016E+03 -0.48406785852E+02  0.85628763800E+02  0.34162459205E+03  0.00000000000E+00 0.  1.
<mgrwt>
<rscale>  0 0.21791179E+04</rscale>
<asrwt>0</asrwt>
<pdfrwt beam="1">  1        3 0.45736198E+00 0.21791179E+04</pdfrwt>
<pdfrwt beam="2">  1       -3 0.61434837E-01 0.21791179E+04</pdfrwt>
<totfact> 0.34629810E-02</totfact>
</mgrwt>
</event>
<event>
12    1  0.1494110E-007  0.2286115E+04  0.7818608E-02  0.8483416E-01
          1   -1    0    0  501    0  0.00000000000E+00  0.00000000000E+00  0.16708644030E+04  0.16708644030E+04  0.00000000000E+00 0. -1.
         -1   -1    0    0    0  501 -0.00000000000E+00 -0.00000000000E+00 -0.78197848017E+03  0.78197848017E+03  0.00000000000E+00 0.  1.
         23    2    1    2    0    0  0.69264144105E+02  0.23842589731E+03 -0.62469323010E+03  0.67807167182E+03  0.88854545362E+02 0.  0.
        254    2    1    2    0    0 -0.69264144105E+02 -0.23842589731E+03  0.15135791530E+04  0.17747712114E+04  0.89288665032E+03 0.  0.
        -24    2    4    4    0    0 -0.93473870869E+02  0.26127422852E+03  0.10467104050E+04  0.10854579905E+04  0.74931904493E+02 0.  0.
         24    2    4    4    0    0  0.24209726765E+02 -0.49970012583E+03  0.46686874800E+03  0.68931322086E+03  0.83066009687E+02 0.  0.
         13    1    3    3    0    0 -0.12348062067E+02  0.34834992010E+02 -0.44766299261E+02  0.58051467292E+02  0.00000000000E+00 0. -1.
        -13    1    3    3    0    0  0.81612206172E+02  0.20359090530E+03 -0.57992693084E+03  0.62002020453E+03  0.00000000000E+00 0.  1.
          2    1    6    6  502    0 -0.83015259776E+01 -0.36649906713E+03  0.37404162721E+03  0.52373430327E+03  0.00000000000E+00 0. -1.
          3    1    5    5  503    0 -0.65637371771E+02  0.17961212404E+03  0.57623131952E+03  0.60713368649E+03  0.00000000000E+00 0. -1.
         -4    1    5    5    0  503 -0.27836499098E+02  0.81662104479E+02  0.47047908545E+03  0.47832430404E+03  0.00000000000E+00 0.  1.
         -1    1    6    6    0  502  0.32511252742E+02 -0.13320105871E+03  0.92827120793E+02  0.16557891759E+03  0.00000000000E+00 0.  1.
<mgrwt>
<rscale>  0 0.22861146E+04</rscale>
<asrwt>0</asrwt>
<pdfrwt beam="1">  1        1 0.25705606E+00 0.22861146E+04</pdfrwt>
<pdfrwt beam="2">  1       -1 0.12030438E+00 0.22861146E+04</pdfrwt>
<totfact> 0.27779101E+00</totfact>
</mgrwt>
</event>
<event>
12    1  0.1494110E-007  0.1593086E+04  0.7818608E-02  0.8824807E-01
         -2   -1    0    0    0  501 -0.00000000000E+00  0.00000000000E+00  0.43804550827E+03  0.43804550827E+03  0.00000000000E+00 0.  1.
          2   -1    0    0  501    0  0.00000000000E+00 -0.00000000000E+00 -0.14484362821E+04  0.14484362821E+04  0.00000000000E+00 0. -1.
         23    2    1    2    0    0  0.47208081362E+03  0.24240575598E+03 -0.49265182662E+03  0.72993262138E+03  0.92059569620E+02 0.  0.
        254    2    1    2    0    0 -0.47208081362E+03 -0.24240575598E+03 -0.51773894717E+03  0.11565491689E+04  0.88765506682E+03 0.  0.
        -24    2    4    4    0    0 -0.25768944331E+03  0.95277554267E+02  0.18656182740E+03  0.34171020050E+03  0.80491515981E+02 0.  0.
         24    2    4    4    0    0 -0.21439137032E+03 -0.33768331025E+03 -0.70430077457E+03  0.81483896845E+03  0.89046536987E+02 0.  0.
         13    1    3    3    0    0  0.33873588469E+03  0.19259859466E+03 -0.30744685518E+03  0.49634643850E+03  0.00000000000E+00 0. -1.
        -13    1    3    3    0    0  0.13334492893E+03  0.49807161322E+02 -0.18520497144E+03  0.23358618288E+03  0.00000000000E+00 0.  1.
          2    1    6    6  502    0 -0.46469377912E+02 -0.14586888838E+03 -0.30154159015E+03  0.33817815759E+03  0.00000000000E+00 0. -1.
          1    1    5    5  503    0 -0.17127918699E+03  0.28760185612E+02  0.87898082805E+02  0.19465297617E+03  0.00000000000E+00 0. -1.
         -2    1    5    5    0  503 -0.86410256317E+02  0.66517368654E+02  0.98663744596E+02  0.14705722433E+03  0.00000000000E+00 0.  1.
         -1    1    6    6    0  502 -0.16792199240E+03 -0.19181442187E+03 -0.40275918442E+03  0.47666081085E+03  0.00000000000E+00 0.  1.
<mgrwt>
<rscale>  0 0.15930863E+04</rscale>
<asrwt>0</asrwt>
<pdfrwt beam="1">  1        2 0.22283635E+00 0.15930863E+04</pdfrwt>
<pdfrwt beam="2">  1       -2 0.67391618E-01 0.15930863E+04</pdfrwt>
<totfact> 0.26302523E+01</totfact>
</mgrwt>
</event>
<event>
12    1  0.1494110E-007  0.1671399E+04  0.7818608E-02  0.8777847E-01
         -1   -1    0    0    0  501 -0.00000000000E+00  0.00000000000E+00  0.16390511145E+04  0.16390511145E+04  0.00000000000E+00 0.  1.
          1   -1    0    0  501    0  0.00000000000E+00 -0.00000000000E+00 -0.42609628575E+03  0.42609628575E+03  0.00000000000E+00 0. -1.
         23    2    1    2    0    0  0.38674784766E+03  0.15320355316E+03 -0.82870782602E+02  0.43375480174E+03  0.90721745218E+02 0.  0.
        254    2    1    2    0    0 -0.38674784766E+03 -0.15320355316E+03  0.12958256114E+04  0.16313925985E+04  0.89957354844E+03 0.  0.
        -24    2    4    4    0    0 -0.32685646398E+02  0.26781693547E+03  0.91595298325E+03  0.95821393937E+03  0.80061374425E+02 0.  0.
         24    2    4    4    0    0 -0.35406220126E+03 -0.42102048864E+03  0.37987262811E+03  0.67317865914E+03  0.79044287108E+02 0.  0.
         13    1    3    3    0    0  0.27912967918E+03  0.88151753310E+02 -0.20633401175E+02  0.29344479320E+03  0.00000000000E+00 0.  1.
        -13    1    3    3    0    0  0.10761816847E+03  0.65051799854E+02 -0.62237381427E+02  0.14031000854E+03  0.00000000000E+00 0. -1.
          2    1    6    6  502    0 -0.25289404014E+03 -0.32577755439E+03  0.31943736781E+03  0.52165759118E+03  0.00000000000E+00 0. -1.
          1    1    5    5  503    0 -0.21787581275E+02  0.21509006044E+03  0.82172428644E+03  0.84968772836E+03  0.00000000000E+00 0. -1.
         -2    1    5    5    0  503 -0.10898065123E+02  0.52726875034E+02  0.94228696806E+02  0.10852621101E+03  0.00000000000E+00 0.  1.
         -1    1    6    6    0  502 -0.10116816112E+03 -0.95242934246E+02  0.60435260296E+02  0.15152106796E+03  0.00000000000E+00 0.  1.
<mgrwt>
<rscale>  0 0.16713989E+04</rscale>
<asrwt>0</asrwt>
<pdfrwt beam="1">  1        1 0.65553275E-01 0.16713989E+04</pdfrwt>
<pdfrwt beam="2">  1       -1 0.25216171E+00 0.16713989E+04</pdfrwt>
<totfact> 0.35497802E+00</totfact>
</mgrwt>
</event>
<event>
12    1  0.1494110E-007  0.1899354E+04  0.7818608E-02  0.8655178E-01
          2   -1    0    0  501    0  0.00000000000E+00  0.00000000000E+00  0.42602020172E+03  0.42602020172E+03  0.00000000000E+00 0. -1.
         -2   -1    0    0    0  501 -0.00000000000E+00 -0.00000000000E+00 -0.21170038549E+04  0.21170038549E+04  0.00000000000E+00 0.  1.
         23    2    1    2    0    0  0.35033451325E+03  0.19361301386E+03 -0.14831740549E+04  0.15386948392E+04  0.86926755228E+02 0.  0.
        254    2    1    2    0    0 -0.35033451325E+03 -0.19361301386E+03 -0.20780959830E+03  0.10043292174E+04  0.89736953231E+03 0.  0.
        -24    2    4    4    0    0 -0.43292589506E+03  0.16809343504E+03  0.13794601776E+03  0.49087539400E+03  0.79052609694E+02 0.  0.
         24    2    4    4    0    0  0.82591381813E+02 -0.36170644890E+03 -0.34575561606E+03  0.51345382343E+03  0.80218397077E+02 0.  0.
         11    1    3    3    0    0  0.18651794948E+03  0.15190158736E+03 -0.86467642594E+03  0.89751231707E+03  0.00000000000E+00 0.  1.
        -11    1    3    3    0    0  0.16381656376E+03  0.41711426498E+02 -0.61849762895E+03  0.64118252212E+03  0.00000000000E+00 0. -1.
          4    1    6    6  502    0  0.55953607441E+00 -0.85886745650E+02 -0.44063978942E+02  0.96532276464E+02  0.00000000000E+00 0. -1.
          3    1    5    5  503    0 -0.77571719269E+02  0.63028159849E+02  0.19404709737E+02  0.10181583042E+03  0.00000000000E+00 0. -1.
         -4    1    5    5    0  503 -0.35535417579E+03  0.10506527519E+03  0.11854130802E+03  0.38905956358E+03  0.00000000000E+00 0.  1.
         -3    1    6    6    0  502  0.82031845739E+02 -0.27581970325E+03 -0.30169163712E+03  0.41692154696E+03  0.00000000000E+00 0.  1.
<mgrwt>
<rscale>  0 0.18993540E+04</rscale>
<asrwt>0</asrwt>
<pdfrwt beam="1">  1        2 0.65541570E-01 0.18993540E+04</pdfrwt>
<pdfrwt beam="2">  1       -2 0.32569290E+00 0.18993540E+04</pdfrwt>
<totfact> 0.15342959E+00</totfact>
</mgrwt>
</event>
<event>
12    1  0.1494110E-007  0.1227219E+04  0.7818608E-02  0.9089360E-01
          2   -1    0    0  501    0  0.00000000000E+00  0.00000000000E+00  0.22456784594E+04  0.22456784594E+04  0.00000000000E+00 0.  1.
         -2   -1    0    0    0  501 -0.00000000000E+00 -0.00000000000E+00 -0.16766267730E+03  0.16766267730E+03  0.00000000000E+00 0. -1.
         23    2    1    2    0    0 -0.31729562853E+02  0.19035751041E+03  0.84984013108E+03  0.87623812930E+03  0.91226443027E+02 0.  0.
        254    2    1    2    0    0  0.31729562853E+02 -0.19035751041E+03  0.12281756510E+04  0.15371030074E+04  0.90389572334E+03 0.  0.
        -24    2    4    4    0    0 -0.32569416051E+03 -0.38450858085E+03  0.66462819987E+03  0.83756171437E+03  0.76520888495E+02 0.  0.
         24    2    4    4    0    0  0.35742372336E+03  0.19415107044E+03  0.56354745114E+03  0.69954129303E+03  0.79535745351E+02 0.  0.
         13    1    3    3    0    0  0.26733963622E+02  0.25350869101E+02  0.11151013890E+03  0.11743884559E+03  0.00000000000E+00 0. -1.
        -13    1    3    3    0    0 -0.58463526475E+02  0.16500664131E+03  0.73832999218E+03  0.75879928371E+03  0.00000000000E+00 0.  1.
          2    1    6    6  502    0  0.93784938169E+02  0.89374198149E+02  0.15251661808E+03  0.20011167060E+03  0.00000000000E+00 0. -1.
          1    1    5    5  503    0 -0.16694113191E+03 -0.22314746680E+03  0.42219740282E+03  0.50588020361E+03  0.00000000000E+00 0. -1.
         -2    1    5    5    0  503 -0.15875302860E+03 -0.16136111405E+03  0.24243079705E+03  0.33168151076E+03  0.00000000000E+00 0.  1.
         -1    1    6    6    0  502  0.26363878519E+03  0.10477687229E+03  0.41103083306E+03  0.49942962242E+03  0.00000000000E+00 0.  1.
<mgrwt>
<rscale>  0 0.12272187E+04</rscale>
<asrwt>0</asrwt>
<pdfrwt beam="1">  1        2 0.34548897E+00 0.12272187E+04</pdfrwt>
<pdfrwt beam="2">  1       -2 0.25794260E-01 0.12272187E+04</pdfrwt>
<totfact> 0.65164230E+01</totfact>
</mgrwt>
</event>
<event>
12    1  0.1494110E-007  0.2738914E+04  0.7818608E-02  0.8322488E-01
          2   -1    0    0  501    0  0.00000000000E+00  0.00000000000E+00  0.22344198720E+04  0.22344198720E+04  0.00000000000E+00 0. -1.
         -2   -1    0    0    0  501 -0.00000000000E+00 -0.00000000000E+00 -0.83932851871E+03  0.83932851871E+03  0.00000000000E+00 0.  1.
         23    2    1    2    0    0  0.87076731540E+03  0.86099897380E+03  0.54010812939E+03  0.13418363623E+04  0.96192937214E+02 0.  0.
        254    2    1    2    0    0 -0.87076731540E+03 -0.86099897380E+03  0.85498322391E+03  0.17319120285E+04  0.87690821112E+03 0.  0.
        -24    2    4    4    0    0 -0.80474886770E+03 -0.87687213777E+03  0.38966227227E+03  0.12549228083E+04  0.80430604989E+02 0.  0.
         24    2    4    4    0    0 -0.66018447701E+02  0.15873163972E+02  0.46532095164E+03  0.47698922020E+03  0.79904539149E+02 0.  0.
         11    1    3    3    0    0  0.34295681067E+03  0.30430365297E+03  0.15927964195E+03  0.48537623709E+03  0.00000000000E+00 0. -1.
        -11    1    3    3    0    0  0.52781050473E+03  0.55669532083E+03  0.38082848744E+03  0.85646012516E+03  0.00000000000E+00 0.  1.
          4    1    6    6  502    0 -0.82328619135E+02  0.99923219660E+01  0.31740657928E+03  0.32806216575E+03  0.00000000000E+00 0. -1.
          1    1    5    5  503    0 -0.71233428645E+03 -0.80694784877E+03  0.33952734360E+03  0.11286557417E+04  0.00000000000E+00 0. -1.
         -2    1    5    5    0  503 -0.92414581251E+02 -0.69924289009E+02  0.50134928672E+02  0.12626706655E+03  0.00000000000E+00 0.  1.
         -3    1    6    6    0  502  0.16310171435E+02  0.58808420059E+01  0.14791437236E+03  0.14892705445E+03  0.00000000000E+00 0.  1.
<mgrwt>
<rscale>  0 0.27389139E+04</rscale>
<asrwt>0</asrwt>
<pdfrwt beam="1">  1        2 0.34375690E+00 0.27389139E+04</pdfrwt>
<pdfrwt beam="2">  1       -2 0.12912747E+00 0.27389139E+04</pdfrwt>
<totfact> 0.19076325E+00</totfact>
</mgrwt>
</event>
<event>
12    1  0.1494110E-007  0.3679845E+04  0.7818608E-02  0.8072443E-01
          1   -1    0    0  501    0  0.00000000000E+00  0.00000000000E+00  0.47303185116E+04  0.47303185116E+04  0.00000000000E+00 0. -1.
         -1   -1    0    0    0  501 -0.00000000000E+00 -0.00000000000E+00 -0.71566320223E+03  0.71566320223E+03  0.00000000000E+00 0.  1.
         23    2    1    2    0    0  0.16160327723E+04 -0.36823660420E+03  0.26163387583E+04  0.30984505281E+04  0.89482171396E+02 0.  0.
        254    2    1    2    0    0 -0.16160327723E+04  0.36823660420E+03  0.13983165511E+04  0.23475311857E+04  0.89914035219E+03 0.  0.
        -24    2    4    4    0    0 -0.77550471338E+03  0.36406999270E+03  0.20283524209E+03  0.88391087200E+03  0.78751343744E+02 0.  0.
         24    2    4    4    0    0 -0.84052805896E+03  0.41666115033E+01  0.11954813090E+04  0.14636203137E+04  0.80647901716E+02 0.  0.
         11    1    3    3    0    0  0.42096594448E+03 -0.11816113647E+03  0.62964907041E+03  0.76657180515E+03  0.00000000000E+00 0. -1.
        -11    1    3    3    0    0  0.11950668279E+04 -0.25007546774E+03  0.19866896879E+04  0.23318787229E+04  0.00000000000E+00 0.  1.
          2    1    6    6  502    0 -0.27319623975E+03  0.25099474189E+02  0.33965546147E+03  0.43661424796E+03  0.00000000000E+00 0. -1.
          3    1    5    5  503    0 -0.23547209015E+03  0.90489553366E+02  0.91739377548E+02  0.26842424984E+03  0.00000000000E+00 0. -1.
         -4    1    5    5    0  503 -0.54003262323E+03  0.27358043933E+03  0.11109586454E+03  0.61548662216E+03  0.00000000000E+00 0.  1.
         -1    1    6    6    0  502 -0.56733181922E+03 -0.20932862685E+02  0.85582584749E+03  0.10270060657E+04  0.00000000000E+00 0.  1.
<mgrwt>
<rscale>  0 0.36798450E+04</rscale>
<asrwt>0</asrwt>
<pdfrwt beam="1">  1        1 0.72774129E+00 0.36798450E+04</pdfrwt>
<pdfrwt beam="2">  1       -1 0.11010203E+00 0.36798450E+04</pdfrwt>
<totfact> 0.11081639E-02</totfact>
</mgrwt>
</event>
<event>
12    1  0.1494110E-007  0.1447635E+04  0.7818608E-02  0.8920041E-01
         -2   -1    0    0    0  501 -0.00000000000E+00  0.00000000000E+00  0.25441278281E+03  0.25441278281E+03  0.00000000000E+00 0.  1.
          2   -1    0    0  501    0  0.00000000000E+00 -0.00000000000E+00 -0.20592991131E+04  0.20592991131E+04  0.00000000000E+00 0. -1.
         23    2    1    2    0    0 -0.83178791622E+02 -0.30194061670E+03 -0.67164829632E+02  0.33325531212E+03  0.91984462451E+02 0.  0.
        254    2    1    2    0    0  0.83178791622E+02  0.30194061670E+03 -0.17377215007E+04  0.19804565838E+04  0.89690881311E+03 0.  0.
        -24    2    4    4    0    0  0.12978101328E+03  0.60884402459E+03 -0.10911343250E+04  0.12588869422E+04  0.81780561803E+02 0.  0.
         24    2    4    4    0    0 -0.46602221661E+02 -0.30690340790E+03 -0.64658717565E+03  0.72156964161E+03  0.78906927040E+02 0.  0.
         11    1    3    3    0    0 -0.66202071636E+02 -0.27656751490E+03 -0.31210030337E+02  0.28608804690E+03  0.00000000000E+00 0.  1.
        -11    1    3    3    0    0 -0.16976719986E+02 -0.25373101799E+02 -0.35954799295E+02  0.47167265224E+02  0.00000000000E+00 0. -1.
          2    1    6    6  502    0 -0.63441135261E+02 -0.16156753170E+03 -0.33263250781E+03  0.37519758821E+03  0.00000000000E+00 0. -1.
          3    1    5    5  503    0  0.13242904335E+03  0.58679155410E+03 -0.10733898215E+04  0.12304582432E+04  0.00000000000E+00 0. -1.
         -4    1    5    5    0  503 -0.26480300687E+01  0.22052470495E+02 -0.17744503517E+02  0.28428698937E+02  0.00000000000E+00 0.  1.
         -1    1    6    6    0  502  0.16838913600E+02 -0.14533587619E+03 -0.31395466783E+03  0.34637205340E+03  0.00000000000E+00 0.  1.
<mgrwt>
<rscale>  0 0.14476353E+04</rscale>
<asrwt>0</asrwt>
<pdfrwt beam="1">  1        2 0.31681525E+00 0.14476353E+04</pdfrwt>
<pdfrwt beam="2">  1       -2 0.39140428E-01 0.14476353E+04</pdfrwt>
<totfact> 0.37087028E+01</totfact>
</mgrwt>
</event>
<event>
12    1  0.1494110E-007  0.1603765E+04  0.7818608E-02  0.8818238E-01
          2   -1    0    0  501    0  0.00000000000E+00  0.00000000000E+00  0.52770868547E+03  0.52770868547E+03  0.00000000000E+00 0. -1.
         -2   -1    0    0    0  501 -0.00000000000E+00 -0.00000000000E+00 -0.12185051775E+04  0.12185051775E+04  0.00000000000E+00 0.  1.
         23    2    1    2    0    0 -0.32898736600E+03  0.39314031814E+03 -0.44175601772E+03  0.68276411865E+03  0.90699866509E+02 0.  0.
        254    2    1    2    0    0  0.32898736600E+03 -0.39314031814E+03 -0.24904047430E+03  0.10634497443E+04  0.89783751544E+03 0.  0.
        -24    2    4    4    0    0  0.12661162464E+03 -0.13555306854E+03  0.33401076752E+03  0.39031283558E+03  0.79848474695E+02 0.  0.
         24    2    4    4    0    0  0.20237574136E+03 -0.25758724960E+03 -0.58305124183E+03  0.67313690875E+03  0.76533753825E+02 0.  0.
         13    1    3    3    0    0 -0.44131806527E+02  0.41083196186E+02 -0.18939785246E+02  0.63199373584E+02  0.00000000000E+00 0. -1.
        -13    1    3    3    0    0 -0.28485555947E+03  0.35205712195E+03 -0.42281623248E+03  0.61956474506E+03  0.00000000000E+00 0.  1.
          4    1    6    6  502    0  0.19808336177E+03 -0.23312849640E+03 -0.49728311003E+03  0.58384621740E+03  0.00000000000E+00 0. -1.
          1    1    5    5  503    0  0.10102066660E+03 -0.79307280273E+02  0.28075608943E+03  0.30873743138E+03  0.00000000000E+00 0. -1.
         -2    1    5    5    0  503  0.25590958043E+02 -0.56245788264E+02  0.53254678097E+02  0.81575404199E+02  0.00000000000E+00 0.  1.
         -3    1    6    6    0  502  0.42923795928E+01 -0.24458753199E+02 -0.85768131795E+02  0.89290691353E+02  0.00000000000E+00 0.  1.
<mgrwt>
<rscale>  0 0.16037653E+04</rscale>
<asrwt>0</asrwt>
<pdfrwt beam="1">  1        2 0.81185952E-01 0.16037653E+04</pdfrwt>
<pdfrwt beam="2">  1       -2 0.18746233E+00 0.16037653E+04</pdfrwt>
<totfact> 0.89261385E+00</totfact>
</mgrwt>
</event>
<event>
12    1  0.1494110E-007  0.1494809E+04  0.7818608E-02  0.8887912E-01
          1   -1    0    0  501    0  0.00000000000E+00  0.00000000000E+00  0.80527916806E+03  0.80527916806E+03  0.00000000000E+00 0. -1.
         -1   -1    0    0    0  501 -0.00000000000E+00 -0.00000000000E+00 -0.69368909279E+03  0.69368909279E+03  0.00000000000E+00 0.  1.
         23    2    1    2    0    0  0.88401062921E+01  0.48626638677E+03 -0.24791870042E+03  0.55372729112E+03  0.92828252842E+02 0.  0.
        254    2    1    2    0    0 -0.88401062921E+01 -0.48626638677E+03  0.35950877569E+03  0.94524096973E+03  0.72643016503E+03 0.  0.
        -24    2    4    4    0    0  0.29995650952E+02 -0.43421459659E+03  0.56362727573E+03  0.71656986733E+03  0.79715831818E+02 0.  0.
         24    2    4    4    0    0 -0.38835757244E+02 -0.52051790184E+02 -0.20411850004E+03  0.22867110240E+03  0.80053145552E+02 0.  0.
         11    1    3    3    0    0  0.72933249053E+01  0.19397771159E+03 -0.49110574325E+02  0.20023085101E+03  0.00000000000E+00 0. -1.
        -11    1    3    3    0    0  0.15467813868E+01  0.29228867518E+03 -0.19880812610E+03  0.35349644011E+03  0.00000000000E+00 0.  1.
          2    1    6    6  502    0 -0.22407169557E+02 -0.38864789353E+01 -0.15912879005E+03  0.16074563070E+03  0.00000000000E+00 0. -1.
          1    1    5    5  503    0  0.47797478684E+02 -0.33003994310E+03  0.46336913915E+03  0.57089571914E+03  0.00000000000E+00 0. -1.
         -2    1    5    5    0  503 -0.17801827732E+02 -0.10417465349E+03  0.10025813658E+03  0.14567414819E+03  0.00000000000E+00 0.  1.
         -1    1    6    6    0  502 -0.16428587687E+02 -0.48165311248E+02 -0.44989709991E+02  0.67925471704E+02  0.00000000000E+00 0.  1.
<mgrwt>
<rscale>  0 0.14948089E+04</rscale>
<asrwt>0</asrwt>
<pdfrwt beam="1">  1        1 0.12388910E+00 0.14948089E+04</pdfrwt>
<pdfrwt beam="2">  1       -1 0.10672140E+00 0.14948089E+04</pdfrwt>
<totfact> 0.17357716E+01</totfact>
</mgrwt>
</event>
<event>
12    1  0.1494110E-007  0.2380482E+04  0.7818608E-02  0.8446847E-01
          2   -1    0    0  501    0  0.00000000000E+00  0.00000000000E+00  0.72597459576E+03  0.72597459576E+03  0.00000000000E+00 0. -1.
         -2   -1    0    0    0  501 -0.00000000000E+00 -0.00000000000E+00 -0.19514098253E+04  0.19514098253E+04  0.00000000000E+00 0.  1.
         23    2    1    2    0    0  0.95537074212E+03 -0.33333074984E+03 -0.64917631926E+03  0.12058592077E+04  0.93935571757E+02 0.  0.
        254    2    1    2    0    0 -0.95537074212E+03  0.33333074984E+03 -0.57625891027E+03  0.14715252133E+04  0.89970521735E+03 0.  0.
        -24    2    4    4    0    0 -0.13913952876E+03  0.42685426574E+03 -0.44252891946E+03  0.63564844165E+03  0.81564233413E+02 0.  0.
         24    2    4    4    0    0 -0.81623121335E+03 -0.93523515896E+02 -0.13372999080E+03  0.83587677168E+03  0.76329714488E+02 0.  0.
         13    1    3    3    0    0  0.40937208967E+03 -0.10598778268E+03 -0.23456320870E+03  0.48356883352E+03  0.00000000000E+00 0. -1.
        -13    1    3    3    0    0  0.54599865245E+03 -0.22734296716E+03 -0.41461311056E+03  0.72229037419E+03  0.00000000000E+00 0.  1.
          2    1    6    6  502    0 -0.38747116378E+02  0.60761762823E+00 -0.22625403530E+02  0.44873345225E+02  0.00000000000E+00 0. -1.
          1    1    5    5  503    0  0.57997872478E+01  0.27833006325E+02 -0.11526247968E+02  0.30678464196E+02  0.00000000000E+00 0. -1.
         -2    1    5    5    0  503 -0.14493931601E+03  0.39902125941E+03 -0.43100267149E+03  0.60496997746E+03  0.00000000000E+00 0.  1.
         -1    1    6    6    0  502 -0.77748409698E+03 -0.94131133524E+02 -0.11110458727E+03  0.79100342646E+03  0.00000000000E+00 0.  1.
<mgrwt>
<rscale>  0 0.23804823E+04</rscale>
<asrwt>0</asrwt>
<pdfrwt beam="1">  1        2 0.11168840E+00 0.23804823E+04</pdfrwt>
<pdfrwt beam="2">  1       -2 0.30021690E+00 0.23804823E+04</pdfrwt>
<totfact> 0.11165346E+00</totfact>
</mgrwt>
</event>
<event>
12    1  0.1494110E-007  0.3376751E+04  0.7818608E-02  0.8143636E-01
          2   -1    0    0  501    0  0.00000000000E+00  0.00000000000E+00  0.38066618684E+04  0.38066618684E+04  0.00000000000E+00 0. -1.
         -2   -1    0    0    0  501 -0.00000000000E+00 -0.00000000000E+00 -0.74884805117E+03  0.74884805117E+03  0.00000000000E+00 0.  1.
         23    2    1    2    0    0  0.21740332315E+03  0.25185182393E+03 -0.64377606322E+03  0.73057873880E+03  0.92758438330E+02 0.  0.
        254    2    1    2    0    0 -0.21740332315E+03 -0.25185182393E+03  0.37015898804E+04  0.38249311807E+04  0.90423301661E+03 0.  0.
        -24    2    4    4    0    0 -0.28420823731E+03  0.18873963972E+03  0.63008858457E+03  0.72023489675E+03  0.73004851439E+02 0.  0.
         24    2    4    4    0    0  0.66804914159E+02 -0.44059146365E+03  0.30715012959E+04  0.31046962840E+04  0.80218893893E+02 0.  0.
         11    1    3    3    0    0  0.19837974775E+03  0.19356535684E+03 -0.46225069055E+03  0.53897845282E+03  0.00000000000E+00 0. -1.
        -11    1    3    3    0    0  0.19023575399E+02  0.58286467088E+02 -0.18152537267E+03  0.19160028599E+03  0.00000000000E+00 0.  1.
          2    1    6    6  502    0  0.62940236010E+02 -0.37194554335E+03  0.27625440011E+04  0.27881811847E+04  0.00000000000E+00 0. -1.
          3    1    5    5  503    0 -0.28061867816E+03  0.18015339506E+03  0.57779815684E+03  0.66712277606E+03  0.00000000000E+00 0. -1.
         -4    1    5    5    0  503 -0.35895591437E+01  0.85862446575E+01  0.52290427725E+02  0.53112120686E+02  0.00000000000E+00 0.  1.
         -1    1    6    6    0  502  0.38646781486E+01 -0.68645920299E+02  0.30895729474E+03  0.31651509930E+03  0.00000000000E+00 0.  1.
<mgrwt>
<rscale>  0 0.33767507E+04</rscale>
<asrwt>0</asrwt>
<pdfrwt beam="1">  1        2 0.58564028E+00 0.33767507E+04</pdfrwt>
<pdfrwt beam="2">  1       -2 0.11520739E+00 0.33767507E+04</pdfrwt>
<totfact> 0.23605313E-01</totfact>
</mgrwt>
</event>
<event>
12    1  0.1494110E-007  0.1056941E+04  0.7818608E-02  0.9248207E-01
         -2   -1    0    0    0  501 -0.00000000000E+00  0.00000000000E+00  0.47401380379E+03  0.47401380379E+03  0.00000000000E+00 0.  1.
          2   -1    0    0  501    0  0.00000000000E+00 -0.00000000000E+00 -0.58918340618E+03  0.58918340618E+03  0.00000000000E+00 0. -1.
         23    2    1    2    0    0 -0.17358706457E+03 -0.11823362543E+02 -0.10274769466E+02  0.19673151966E+03  0.91243953504E+02 0.  0.
        254    2    1    2    0    0  0.17358706457E+03  0.11823362543E+02 -0.10489483292E+03  0.86646569031E+03  0.84231087231E+03 0.  0.
        -24    2    4    4    0    0  0.29206440742E+03  0.31181966607E+03 -0.25254035655E+03  0.50262920310E+03  0.79538430324E+02 0.  0.
         24    2    4    4    0    0 -0.11847734284E+03 -0.29999630353E+03  0.14764552363E+03  0.36383648720E+03  0.80889590646E+02 0.  0.
         11    1    3    3    0    0  0.60894718123E+01  0.98666336038E+01 -0.10659952589E+02  0.15750133803E+02  0.00000000000E+00 0. -1.
        -11    1    3    3    0    0 -0.17967653638E+03 -0.21689996147E+02  0.38518312348E+00  0.18098138586E+03  0.00000000000E+00 0.  1.
          2    1    6    6  502    0  0.33433137508E+00 -0.92011071877E+02  0.53754475475E+02  0.10656309286E+03  0.00000000000E+00 0. -1.
          1    1    5    5  503    0  0.29998692818E+02  0.53320454428E+01 -0.10057736297E+02  0.32085983525E+02  0.00000000000E+00 0. -1.
         -2    1    5    5    0  503  0.26206571460E+03  0.30648762063E+03 -0.24248262026E+03  0.47054321958E+03  0.00000000000E+00 0.  1.
         -1    1    6    6    0  502 -0.11881167422E+03 -0.20798523165E+03  0.93891048157E+02  0.25727339435E+03  0.00000000000E+00 0.  1.
<mgrwt>
<rscale>  0 0.10569410E+04</rscale>
<asrwt>0</asrwt>
<pdfrwt beam="1">  1        2 0.90643600E-01 0.10569410E+04</pdfrwt>
<pdfrwt beam="2">  1       -2 0.72925201E-01 0.10569410E+04</pdfrwt>
<totfact> 0.85800451E+01</totfact>
</mgrwt>
</event>
<event>
12    1  0.1494110E-007  0.1483914E+04  0.7818608E-02  0.8895221E-01
         -1   -1    0    0    0  501 -0.00000000000E+00  0.00000000000E+00  0.56077039464E+03  0.56077039464E+03  0.00000000000E+00 0.  1.
          1   -1    0    0  501    0  0.00000000000E+00 -0.00000000000E+00 -0.98168519824E+03  0.98168519824E+03  0.00000000000E+00 0. -1.
         23    2    1    2    0    0 -0.43936871490E+02 -0.23286997588E+03 -0.54550297004E+03  0.60130102486E+03  0.88490439254E+02 0.  0.
        254    2    1    2    0    0  0.43936871490E+02  0.23286997588E+03  0.12458816644E+03  0.94115456801E+03  0.90226982402E+03 0.  0.
        -24    2    4    4    0    0  0.45378040839E+03  0.57468757325E+02 -0.22122027461E+02  0.46494569517E+03  0.80410187447E+02 0.  0.
         24    2    4    4    0    0 -0.40984353690E+03  0.17540121855E+03  0.14671019390E+03  0.47620887285E+03  0.80707480290E+02 0.  0.
         11    1    3    3    0    0  0.17808992541E+02 -0.13101580015E+02 -0.77507122377E+02  0.80598794243E+02  0.00000000000E+00 0.  1.
        -11    1    3    3    0    0 -0.61745864032E+02 -0.21976839586E+03 -0.46799584766E+03  0.52070223062E+03  0.00000000000E+00 0. -1.
          2    1    6    6  502    0 -0.37892221947E+03  0.14977570268E+03  0.11057854606E+03  0.42218766487E+03  0.00000000000E+00 0. -1.
          1    1    5    5  503    0  0.45195974410E+03  0.53270154747E+02 -0.13622077490E+02  0.45529208280E+03  0.00000000000E+00 0. -1.
         -2    1    5    5    0  503  0.18206642960E+01  0.41986025780E+01 -0.84999499716E+01  0.96536123604E+01  0.00000000000E+00 0.  1.
         -1    1    6    6    0  502 -0.30921317429E+02  0.25625515872E+02  0.36131647839E+02  0.54021207972E+02  0.00000000000E+00 0.  1.
<mgrwt>
<rscale>  0 0.14839137E+04</rscale>
<asrwt>0</asrwt>
<pdfrwt beam="1">  1        1 0.15102849E+00 0.14839137E+04</pdfrwt>
<pdfrwt beam="2">  1       -1 0.86272369E-01 0.14839137E+04</pdfrwt>
<totfact> 0.20086708E+01</totfact>
</mgrwt>
</event>
<event>
12    1  0.1494110E-007  0.2691927E+04  0.7818608E-02  0.8337629E-01
          1   -1    0    0  501    0  0.00000000000E+00  0.00000000000E+00  0.11232633189E+04  0.11232633189E+04  0.00000000000E+00 0. -1.
         -1   -1    0    0    0  501 -0.00000000000E+00 -0.00000000000E+00 -0.16128171005E+04  0.16128171005E+04  0.00000000000E+00 0.  1.
         23    2    1    2    0    0  0.11299136249E+04 -0.29729231677E+03  0.25773852176E+02  0.11720220782E+04  0.88791548190E+02 0.  0.
        254    2    1    2    0    0 -0.11299136249E+04  0.29729231677E+03 -0.51532763381E+03  0.15640583412E+04  0.90312147744E+03 0.  0.
        -24    2    4    4    0    0  0.62453565943E+02  0.26375769749E+03 -0.94621697683E+02  0.29665993650E+03  0.74734740004E+02 0.  0.
         24    2    4    4    0    0 -0.11923671909E+04  0.33534619273E+02 -0.42070593612E+03  0.12673984047E+04  0.80256731368E+02 0.  0.
         11    1    3    3    0    0  0.73481114070E+03 -0.17353972783E+03  0.54549842826E+02  0.75699348411E+03  0.00000000000E+00 0. -1.
        -11    1    3    3    0    0  0.39510248422E+03 -0.12375258894E+03 -0.28775990650E+02  0.41502859413E+03  0.00000000000E+00 0.  1.
          4    1    6    6  502    0 -0.37529830015E+03 -0.20731168591E+02 -0.11098300643E+03  0.39191303010E+03  0.00000000000E+00 0. -1.
          3    1    5    5  503    0  0.57792986669E+02  0.24920488765E+03 -0.10670333194E+03  0.27717991700E+03  0.00000000000E+00 0. -1.
         -4    1    5    5    0  503  0.46605792734E+01  0.14552809842E+02  0.12081634258E+02  0.19480019502E+02  0.00000000000E+00 0.  1.
         -3    1    6    6    0  502 -0.81706889071E+03  0.54265787863E+02 -0.30972292970E+03  0.87548537457E+03  0.00000000000E+00 0.  1.
<mgrwt>
<rscale>  0 0.26919274E+04</rscale>
<asrwt>0</asrwt>
<pdfrwt beam="1">  1        1 0.17280974E+00 0.26919274E+04</pdfrwt>
<pdfrwt beam="2">  1       -1 0.24812571E+00 0.26919274E+04</pdfrwt>
<totfact> 0.76310139E-01</totfact>
</mgrwt>
</event>
<event>
12    1  0.1572877E-007  0.2088759E+04  0.7818608E-02  0.8566211E-01
         -1   -1    0    0    0  501 -0.00000000000E+00  0.00000000000E+00  0.68886077424E+03  0.68886077424E+03  0.00000000000E+00 0.  1.
          1   -1    0    0  501    0  0.00000000000E+00 -0.00000000000E+00 -0.15833809741E+04  0.15833809741E+04  0.00000000000E+00 0. -1.
         23    2    1    2    0    0  0.16212487150E+03  0.38634186900E+03 -0.11647351524E+04  0.12411204640E+04  0.90705663041E+02 0.  0.
        254    2    1    2    0    0 -0.16212487150E+03 -0.38634186900E+03  0.27021495255E+03  0.10311212843E+04  0.90257989598E+03 0.  0.
        -24    2    4    4    0    0 -0.20643315425E+03 -0.57341064483E+03  0.44545851174E+03  0.75899345520E+03  0.78888304348E+02 0.  0.
         24    2    4    4    0    0  0.44308282746E+02  0.18706877584E+03 -0.17524355919E+03  0.27212782909E+03  0.79908069146E+02 0.  0.
         11    1    3    3    0    0  0.29420687440E+01  0.23219102306E+02 -0.14756751031E+03  0.14941202287E+03  0.00000000000E+00 0.  1.
        -11    1    3    3    0    0  0.15918280276E+03  0.36312276669E+03 -0.10171676421E+04  0.10917084411E+04  0.00000000000E+00 0. -1.
          4    1    6    6  502    0  0.46370548611E+02  0.19136315007E+03 -0.17896710542E+03  0.26608139320E+03  0.00000000000E+00 0. -1.
          1    1    5    5  503    0 -0.21129041090E+03 -0.53786330719E+03  0.40998327287E+03  0.70853853741E+03  0.00000000000E+00 0. -1.
         -2    1    5    5    0  503  0.48572566509E+01 -0.35547337641E+02  0.35475238876E+02  0.50454917786E+02  0.00000000000E+00 0.  1.
         -3    1    6    6    0  502 -0.20622658651E+01 -0.42943742374E+01  0.37235462207E+01  0.60464358962E+01  0.00000000000E+00 0.  1.
<mgrwt>
<rscale>  0 0.20887595E+04</rscale>
<asrwt>0</asrwt>
<pdfrwt beam="1">  1        1 0.24359707E+00 0.20887595E+04</pdfrwt>
<pdfrwt beam="2">  1       -1 0.10597858E+00 0.20887595E+04</pdfrwt>
<totfact> 0.43934704E+00</totfact>
</mgrwt>
</event>
<event>
12    1  0.1494110E-007  0.1492489E+04  0.7818608E-02  0.8889463E-01
         -1   -1    0    0    0  501 -0.00000000000E+00  0.00000000000E+00  0.67399871973E+03  0.67399871973E+03  0.00000000000E+00 0.  1.
          1   -1    0    0  501    0  0.00000000000E+00 -0.00000000000E+00 -0.82623475465E+03  0.82623475465E+03  0.00000000000E+00 0. -1.
         23    2    1    2    0    0  0.11399020675E+03  0.15847816265E+03  0.37913429324E+03  0.43595292009E+03  0.90570640676E+02 0.  0.
        254    2    1    2    0    0 -0.11399020675E+03 -0.15847816265E+03 -0.53137032816E+03  0.10642805543E+04  0.90123780287E+03 0.  0.
        -24    2    4    4    0    0 -0.19809001665E+03  0.81540803708E+02 -0.70823095412E+03  0.74414095254E+03  0.79158799270E+02 0.  0.
         24    2    4    4    0    0  0.84099809896E+02 -0.24001896636E+03  0.17686062596E+03  0.32013960176E+03  0.80794810248E+02 0.  0.
         11    1    3    3    0    0 -0.18091480376E+01  0.66277590584E+02  0.13607826182E+03  0.15137134924E+03  0.00000000000E+00 0. -1.
        -11    1    3    3    0    0  0.11579935479E+03  0.92200572064E+02  0.24305603142E+03  0.28458157085E+03  0.00000000000E+00 0.  1.
          2    1    6    6  502    0  0.65639215314E+02 -0.71227242100E+02  0.70137745798E+02  0.11958733206E+03  0.00000000000E+00 0. -1.
          1    1    5    5  503    0 -0.18748517854E+03  0.84108305876E+02 -0.57775160110E+03  0.61320617402E+03  0.00000000000E+00 0. -1.
         -2    1    5    5    0  503 -0.10604838105E+02 -0.25675021675E+01 -0.13047935303E+03  0.13093477851E+03  0.00000000000E+00 0.  1.
         -1    1    6    6    0  502  0.18460594583E+02 -0.16879172426E+03  0.10672288016E+03  0.20055226969E+03  0.00000000000E+00 0.  1.
<mgrwt>
<rscale>  0 0.14924894E+04</rscale>
<asrwt>0</asrwt>
<pdfrwt beam="1">  1        1 0.12711304E+00 0.14924894E+04</pdfrwt>
<pdfrwt beam="2">  1       -1 0.10369211E+00 0.14924894E+04</pdfrwt>
<totfact> 0.17809756E+01</totfact>
</mgrwt>
</event>
<event>
12    1  0.1494110E-007  0.1258246E+04  0.7818608E-02  0.9063348E-01
          1   -1    0    0  501    0  0.00000000000E+00  0.00000000000E+00  0.91101997352E+03  0.91101997352E+03  0.00000000000E+00 0. -1.
         -1   -1    0    0    0  501 -0.00000000000E+00 -0.00000000000E+00 -0.43445343146E+03  0.43445343146E+03  0.00000000000E+00 0.  1.
         23    2    1    2    0    0 -0.15475748723E+03  0.17098630830E+03 -0.71775471397E+02  0.25921826648E+03  0.94107353080E+02 0.  0.
        254    2    1    2    0    0  0.15475748723E+03 -0.17098630830E+03  0.54834201346E+03  0.10862551385E+04  0.90889221842E+03 0.  0.
        -24    2    4    4    0    0  0.10223447846E+03  0.11925402217E+03  0.71576742473E+03  0.73717132188E+03  0.80156977927E+02 0.  0.
         24    2    4    4    0    0  0.52523008769E+02 -0.29024033046E+03 -0.16742541127E+03  0.34908381662E+03  0.82644581257E+02 0.  0.
         11    1    3    3    0    0 -0.38593687986E+02  0.66156001355E+02  0.18198070461E+02  0.78722671678E+02  0.00000000000E+00 0. -1.
        -11    1    3    3    0    0 -0.11616379925E+03  0.10483030694E+03 -0.89973541858E+02  0.18049559480E+03  0.00000000000E+00 0.  1.
          2    1    6    6  502    0  0.62447600340E+02 -0.25215810375E+03 -0.16863428300E+03  0.30971104837E+03  0.00000000000E+00 0. -1.
          3    1    5    5  503    0  0.11103840429E+03  0.83047987529E+02  0.58414141082E+03  0.60037295350E+03  0.00000000000E+00 0. -1.
         -4    1    5    5    0  503 -0.88039258235E+01  0.36206034639E+02  0.13162601391E+03  0.13679836838E+03  0.00000000000E+00 0.  1.
         -1    1    6    6    0  502 -0.99245915709E+01 -0.38082226712E+02  0.12088717369E+01  0.39372768255E+02  0.00000000000E+00 0.  1.
<mgrwt>
<rscale>  0 0.12582460E+04</rscale>
<asrwt>0</asrwt>
<pdfrwt beam="1">  1        1 0.14015692E+00 0.12582460E+04</pdfrwt>
<pdfrwt beam="2">  1       -1 0.66838989E-01 0.12582460E+04</pdfrwt>
<totfact> 0.39840459E+01</totfact>
</mgrwt>
</event>
<event>
12    1  0.1494110E-007  0.1400267E+04  0.7818608E-02  0.8953625E-01
         -1   -1    0    0    0  501 -0.00000000000E+00  0.00000000000E+00  0.65766386014E+03  0.65766386014E+03  0.00000000000E+00 0.  1.
          1   -1    0    0  501    0  0.00000000000E+00 -0.00000000000E+00 -0.74534594724E+03  0.74534594724E+03  0.00000000000E+00 0. -1.
         23    2    1    2    0    0  0.20711023688E+03 -0.34621073704E+03 -0.31518762285E+02  0.41469163232E+03  0.90659764396E+02 0.  0.
        254    2    1    2    0    0 -0.20711023688E+03  0.34621073704E+03 -0.56163324811E+02  0.98831817505E+03  0.90047874568E+03 0.  0.
        -24    2    4    4    0    0 -0.52386962182E+03  0.35418436058E+03 -0.13560403004E+03  0.65177192620E+03  0.80822329049E+02 0.  0.
         24    2    4    4    0    0  0.31675938494E+03 -0.79736235433E+01  0.79440705232E+02  0.33654624885E+03  0.80947299830E+02 0.  0.
         13    1    3    3    0    0  0.45358968520E+02 -0.53963813932E+02 -0.39040424972E+02  0.80583397926E+02  0.00000000000E+00 0.  1.
        -13    1    3    3    0    0  0.16175126836E+03 -0.29224692311E+03  0.75216626867E+01  0.33410823439E+03  0.00000000000E+00 0. -1.
          2    1    6    6  502    0  0.21642815625E+02 -0.10538407868E+02  0.28074661329E+02  0.36981834964E+02  0.00000000000E+00 0. -1.
          1    1    5    5  503    0 -0.20020577871E+03  0.90928328801E+02 -0.35651504108E+02  0.22275848929E+03  0.00000000000E+00 0. -1.
         -2    1    5    5    0  503 -0.32366384311E+03  0.26325603178E+03 -0.99952525935E+02  0.42901343691E+03  0.00000000000E+00 0.  1.
         -1    1    6    6    0  502  0.29511656932E+03  0.25647843247E+01  0.51366043903E+02  0.29956441389E+03  0.00000000000E+00 0.  1.
<mgrwt>
<rscale>  0 0.14002672E+04</rscale>
<asrwt>0</asrwt>
<pdfrwt beam="1">  1        1 0.11466861E+00 0.14002672E+04</pdfrwt>
<pdfrwt beam="2">  1       -1 0.10117906E+00 0.14002672E+04</pdfrwt>
<totfact> 0.22382522E+01</totfact>
</mgrwt>
</event>
<event>
12    1  0.1494110E-007  0.1321102E+04  0.7818608E-02  0.9012997E-01
          2   -1    0    0  501    0  0.00000000000E+00  0.00000000000E+00  0.14596124273E+04  0.14596124273E+04  0.00000000000E+00 0. -1.
         -2   -1    0    0    0  501 -0.00000000000E+00 -0.00000000000E+00 -0.29893380491E+03  0.29893380491E+03  0.00000000000E+00 0.  1.
         23    2    1    2    0    0  0.34385866387E+03  0.24330575834E+02  0.37516419262E+03  0.51754928932E+03  0.90985371395E+02 0.  0.
        254    2    1    2    0    0 -0.34385866387E+03 -0.24330575834E+02  0.78551442977E+03  0.12409969429E+04  0.89677741678E+03 0.  0.
        -24    2    4    4    0    0 -0.38908651053E+03 -0.18464248226E+03  0.91566808357E+03  0.10151041626E+04  0.80667606209E+02 0.  0.
         24    2    4    4    0    0  0.45227846661E+02  0.16031190643E+03 -0.13015365380E+03  0.22589278031E+03  0.79637360210E+02 0.  0.
         11    1    3    3    0    0  0.79178237686E+02  0.12384720323E+02  0.14905568769E+03  0.16923407651E+03  0.00000000000E+00 0.  1.
        -11    1    3    3    0    0  0.26468042618E+03  0.11945855512E+02  0.22610850494E+03  0.34831521281E+03  0.00000000000E+00 0. -1.
          4    1    6    6  502    0 -0.16196217638E+02  0.40163188703E+01 -0.11121573123E+02  0.20053370583E+02  0.00000000000E+00 0. -1.
          1    1    5    5  503    0 -0.13413516270E+03 -0.94068910521E+02  0.41170998363E+03  0.44310981982E+03  0.00000000000E+00 0. -1.
         -2    1    5    5    0  503 -0.25495134783E+03 -0.90573571742E+02  0.50395809994E+03  0.57199434276E+03  0.00000000000E+00 0.  1.
         -3    1    6    6    0  502  0.61424064299E+02  0.15629558756E+03 -0.11903208068E+03  0.20583940972E+03  0.00000000000E+00 0.  1.
<mgrwt>
<rscale>  0 0.13211018E+04</rscale>
<asrwt>0</asrwt>
<pdfrwt beam="1">  1        2 0.22455575E+00 0.13211018E+04</pdfrwt>
<pdfrwt beam="2">  1       -2 0.45989817E-01 0.13211018E+04</pdfrwt>
<totfact> 0.58692323E+01</totfact>
</mgrwt>
</event>
<event>
12    1  0.1494110E-007  0.1449703E+04  0.7818608E-02  0.8918606E-01
          2   -1    0    0  501    0  0.00000000000E+00  0.00000000000E+00  0.23643581717E+04  0.23643581717E+04  0.00000000000E+00 0.  1.
         -2   -1    0    0    0  501 -0.00000000000E+00 -0.00000000000E+00 -0.22222088245E+03  0.22222088245E+03  0.00000000000E+00 0. -1.
         23    2    1    2    0    0  0.23125578874E+03  0.35346658952E+03  0.42042189017E+03  0.60318949672E+03  0.93086698792E+02 0.  0.
        254    2    1    2    0    0 -0.23125578874E+03 -0.35346658952E+03  0.17217153991E+04  0.19833895574E+04  0.88944496814E+03 0.  0.
        -24    2    4    4    0    0 -0.25276090288E+03 -0.63425812998E+03  0.12868741559E+04  0.14590356407E+04  0.81046023948E+02 0.  0.
         24    2    4    4    0    0  0.21505114146E+02  0.28079154047E+03  0.43484124316E+03  0.52435391679E+03  0.80955322052E+02 0.  0.
         11    1    3    3    0    0  0.19778721336E+03  0.34216813624E+03  0.40033303543E+03  0.56255253487E+03  0.00000000000E+00 0. -1.
        -11    1    3    3    0    0  0.33468575374E+02  0.11298453274E+02  0.20088854742E+02  0.40636961855E+02  0.00000000000E+00 0.  1.
          4    1    6    6  502    0 -0.18180158492E+02  0.10115165068E+03  0.21031643319E+03  0.23408369586E+03  0.00000000000E+00 0. -1.
          3    1    5    5  503    0  0.57459711259E+01 -0.26252541685E+02  0.51672186844E+02  0.58242828077E+02  0.00000000000E+00 0. -1.
         -4    1    5    5    0  503 -0.25850687401E+03 -0.60800558830E+03  0.12352019691E+04  0.14007928126E+04  0.00000000000E+00 0.  1.
         -3    1    6    6    0  502  0.39685272638E+02  0.17963988978E+03  0.22452480997E+03  0.29027022093E+03  0.00000000000E+00 0.  1.
<mgrwt>
<rscale>  0 0.14497031E+04</rscale>
<asrwt>0</asrwt>
<pdfrwt beam="1">  1        2 0.36374739E+00 0.14497031E+04</pdfrwt>
<pdfrwt beam="2">  1       -2 0.34187830E-01 0.14497031E+04</pdfrwt>
<totfact> 0.32450490E+01</totfact>
</mgrwt>
</event>
<event>
12    1  0.1494110E-007  0.1825733E+04  0.7818608E-02  0.8692734E-01
         -1   -1    0    0    0  501 -0.00000000000E+00  0.00000000000E+00  0.41531528640E+03  0.41531528640E+03  0.00000000000E+00 0. -1.
          1   -1    0    0  501    0  0.00000000000E+00 -0.00000000000E+00 -0.20064875219E+04  0.20064875219E+04  0.00000000000E+00 0.  1.
         23    2    1    2    0    0  0.31160273821E+03 -0.39472224555E+03  0.36739347652E+02  0.51358103524E+03  0.97538620578E+02 0.  0.
        254    2    1    2    0    0 -0.31160273821E+03  0.39472224555E+03 -0.16279115832E+04  0.19082217731E+04  0.85925100814E+03 0.  0.
        -24    2    4    4    0    0 -0.42399760714E+03  0.57614292278E+03 -0.14527377074E+04  0.16211381790E+04  0.76990326993E+02 0.  0.
         24    2    4    4    0    0  0.11239486894E+03 -0.18142067723E+03 -0.17517387574E+03  0.28708359407E+03  0.78644990654E+02 0.  0.
         11    1    3    3    0    0  0.26973725162E+03 -0.35462437898E+03  0.62920248096E+02  0.44997287996E+03  0.00000000000E+00 0. -1.
        -11    1    3    3    0    0  0.41865486582E+02 -0.40097866579E+02 -0.26180900443E+02  0.63608155287E+02  0.00000000000E+00 0.  1.
          2    1    6    6  502    0  0.63811303926E+02 -0.59550052976E+02 -0.11049523746E+03  0.14080940601E+03  0.00000000000E+00 0. -1.
          3    1    5    5  503    0 -0.21652789639E+03  0.27882327049E+03 -0.63254853424E+03  0.72439243111E+03  0.00000000000E+00 0. -1.
         -2    1    5    5    0  503 -0.20746971075E+03  0.29731965230E+03 -0.82018917318E+03  0.89674574787E+03  0.00000000000E+00 0.  1.
         -1    1    6    6    0  502  0.48583565010E+02 -0.12187062426E+03 -0.64678638275E+02  0.14627418807E+03  0.00000000000E+00 0.  1.
<mgrwt>
<rscale>  0 0.18257327E+04</rscale>
<asrwt>0</asrwt>
<pdfrwt beam="1">  1        1 0.30869039E+00 0.18257327E+04</pdfrwt>
<pdfrwt beam="2">  1       -1 0.63894660E-01 0.18257327E+04</pdfrwt>
<totfact> 0.69001118E+00</totfact>
</mgrwt>
</event>
<event>
12    1  0.1494110E-007  0.1875328E+04  0.7818608E-02  0.8667236E-01
          2   -1    0    0  501    0  0.00000000000E+00  0.00000000000E+00  0.19828749379E+04  0.19828749379E+04  0.00000000000E+00 0. -1.
         -2   -1    0    0    0  501 -0.00000000000E+00 -0.00000000000E+00 -0.44340351654E+03  0.44340351654E+03  0.00000000000E+00 0.  1.
         23    2    1    2    0    0  0.20511594184E+03  0.50015398831E+03 -0.65901955028E+01  0.54849682835E+03  0.92621695140E+02 0.  0.
        254    2    1    2    0    0 -0.20511594184E+03 -0.50015398831E+03  0.15460616169E+04  0.18777816261E+04  0.91843930151E+03 0.  0.
        -24    2    4    4    0    0 -0.33963749059E+03  0.11926079512E+03  0.29118624864E+03  0.46978809876E+03  0.79590602915E+02 0.  0.
         24    2    4    4    0    0  0.13452154875E+03 -0.61941478343E+03  0.12548753683E+04  0.14079935274E+04  0.77219571593E+02 0.  0.
         11    1    3    3    0    0  0.18092297720E+03  0.45280712791E+03  0.22034139551E+02  0.48811158772E+03  0.00000000000E+00 0.  1.
        -11    1    3    3    0    0  0.24192964648E+02  0.47346860402E+02 -0.28624335054E+02  0.60385240627E+02  0.00000000000E+00 0. -1.
          2    1    6    6  502    0  0.59205172751E+02 -0.41991971254E+03  0.87540590510E+03  0.97271440626E+03  0.00000000000E+00 0. -1.
          3    1    5    5  503    0 -0.28101783033E+03  0.12801889285E+03  0.23422550347E+03  0.38758411263E+03  0.00000000000E+00 0. -1.
         -4    1    5    5    0  503 -0.58619660261E+02 -0.87580977296E+01  0.56960745166E+02  0.82203986125E+02  0.00000000000E+00 0.  1.
         -1    1    6    6    0  502  0.75316375997E+02 -0.19949507089E+03  0.37946946316E+03  0.43527912111E+03  0.00000000000E+00 0.  1.
<mgrwt>
<rscale>  0 0.18753279E+04</rscale>
<asrwt>0</asrwt>
<pdfrwt beam="1">  1        2 0.30505768E+00 0.18753279E+04</pdfrwt>
<pdfrwt beam="2">  1       -2 0.68215927E-01 0.18753279E+04</pdfrwt>
<totfact> 0.12602615E+01</totfact>
</mgrwt>
</event>
<event>
12    1  0.1494110E-007  0.1760811E+04  0.7818608E-02  0.8727422E-01
         -1   -1    0    0    0  501 -0.00000000000E+00  0.00000000000E+00  0.56747618090E+03  0.56747618090E+03  0.00000000000E+00 0.  1.
          1   -1    0    0  501    0  0.00000000000E+00 -0.00000000000E+00 -0.13658963697E+04  0.13658963697E+04  0.00000000000E+00 0. -1.
         23    2    1    2    0    0 -0.33583746738E+03  0.25935812380E+03  0.23611784658E+03  0.49257933038E+03  0.82639690004E+02 0.  0.
        254    2    1    2    0    0  0.33583746738E+03 -0.25935812380E+03 -0.10345380354E+04  0.14407932202E+04  0.90860481835E+03 0.  0.
        -24    2    4    4    0    0 -0.72920788857E+02 -0.16526032059E+02 -0.94243985985E+03  0.94957476071E+03  0.88931353067E+02 0.  0.
         24    2    4    4    0    0  0.40875825623E+03 -0.24283209174E+03 -0.92098175532E+02  0.49121845952E+03  0.82236027476E+02 0.  0.
         11    1    3    3    0    0 -0.24244455896E+03  0.22998953663E+03  0.17596925953E+03  0.37767675522E+03  0.00000000000E+00 0.  1.
        -11    1    3    3    0    0 -0.93392908413E+02  0.29368587169E+02  0.60148587048E+02  0.11490257516E+03  0.00000000000E+00 0. -1.
          4    1    6    6  502    0  0.38868744956E+03 -0.24386327420E+03 -0.75230031172E+02  0.46498041629E+03  0.00000000000E+00 0. -1.
          3    1    5    5  503    0 -0.76882363360E+02  0.13078646739E+02 -0.81307598946E+03  0.81680751309E+03  0.00000000000E+00 0. -1.
         -4    1    5    5    0  503  0.39615745032E+01 -0.29604678798E+02 -0.12936387039E+03  0.13276724762E+03  0.00000000000E+00 0.  1.
         -3    1    6    6    0  502  0.20070806679E+02  0.10311824625E+01 -0.16868144360E+02  0.26238043223E+02  0.00000000000E+00 0.  1.
<mgrwt>
<rscale>  0 0.17608108E+04</rscale>
<asrwt>0</asrwt>
<pdfrwt beam="1">  1        1 0.21013790E+00 0.17608108E+04</pdfrwt>
<pdfrwt beam="2">  1       -1 0.87304028E-01 0.17608108E+04</pdfrwt>
<totfact> 0.99292318E+00</totfact>
</mgrwt>
</event>
<event>
12    1  0.1494110E-007  0.1841415E+04  0.7818608E-02  0.8684580E-01
          2   -1    0    0  501    0  0.00000000000E+00  0.00000000000E+00  0.10301363952E+04  0.10301363952E+04  0.00000000000E+00 0. -1.
         -2   -1    0    0    0  501 -0.00000000000E+00 -0.00000000000E+00 -0.82290325396E+03  0.82290325396E+03  0.00000000000E+00 0.  1.
         23    2    1    2    0    0  0.20815787463E+03  0.66197882657E+03  0.14846892915E+03  0.71620509561E+03  0.96752511362E+02 0.  0.
        254    2    1    2    0    0 -0.20815787463E+03 -0.66197882657E+03  0.58764212084E+02  0.11368345535E+04  0.89855100128E+03 0.  0.
        -24    2    4    4    0    0 -0.25605930992E+03 -0.43069873273E+03 -0.37865124057E+03  0.63327999785E+03  0.81234383834E+02 0.  0.
         24    2    4    4    0    0  0.47901435291E+02 -0.23128009384E+03  0.43741545265E+03  0.50355455569E+03  0.80311163781E+02 0.  0.
         13    1    3    3    0    0  0.15065988980E+03  0.48689974281E+03  0.64652729044E+02  0.51376038901E+03  0.00000000000E+00 0.  1.
        -13    1    3    3    0    0  0.57497984832E+02  0.17507908376E+03  0.83816200102E+02  0.20244470660E+03  0.00000000000E+00 0. -1.
          2    1    6    6  502    0  0.34482184893E+02 -0.93464324508E+02  0.11194780102E+03  0.14985630178E+03  0.00000000000E+00 0. -1.
          3    1    5    5  503    0 -0.32544162994E+01 -0.52469559318E+02 -0.35421392081E+02  0.63390227144E+02  0.00000000000E+00 0. -1.
         -4    1    5    5    0  503 -0.25280489362E+03 -0.37822917342E+03 -0.34322984849E+03  0.56988977071E+03  0.00000000000E+00 0.  1.
         -1    1    6    6    0  502  0.13419250398E+02 -0.13781576933E+03  0.32546765164E+03  0.35369825391E+03  0.00000000000E+00 0.  1.
<mgrwt>
<rscale>  0 0.18414153E+04</rscale>
<asrwt>0</asrwt>
<pdfrwt beam="1">  1        2 0.15848252E+00 0.18414153E+04</pdfrwt>
<pdfrwt beam="2">  1       -2 0.12660050E+00 0.18414153E+04</pdfrwt>
<totfact> 0.10529181E+01</totfact>
</mgrwt>
</event>
<event>
12    1  0.1494110E-007  0.1673894E+04  0.7818608E-02  0.8776395E-01
         -2   -1    0    0    0  501 -0.00000000000E+00  0.00000000000E+00  0.14714886269E+04  0.14714886269E+04  0.00000000000E+00 0.  1.
          2   -1    0    0  501    0  0.00000000000E+00 -0.00000000000E+00 -0.47603515117E+03  0.47603515117E+03  0.00000000000E+00 0. -1.
         23    2    1    2    0    0  0.50544495278E+03 -0.26136061881E+03  0.14666163017E+03  0.59164133149E+03  0.68890188061E+02 0.  0.
        254    2    1    2    0    0 -0.50544495278E+03  0.26136061881E+03  0.84879184558E+03  0.13558824466E+04  0.89117093677E+03 0.  0.
        -24    2    4    4    0    0 -0.94470502261E+02 -0.21662943509E+03  0.64081424116E+03  0.68764556087E+03  0.79752979658E+02 0.  0.
         24    2    4    4    0    0 -0.41097445052E+03  0.47799005391E+03  0.20797760441E+03  0.66823688573E+03  0.76885375077E+02 0.  0.
         13    1    3    3    0    0  0.46141403313E+03 -0.23424356367E+03  0.11217942428E+03  0.52948765833E+03  0.00000000000E+00 0.  1.
        -13    1    3    3    0    0  0.44030919643E+02 -0.27117055144E+02  0.34482205891E+02  0.62153673161E+02  0.00000000000E+00 0. -1.
          2    1    6    6  502    0 -0.22371725463E+03  0.25046756625E+03  0.15049150296E+03  0.36800965235E+03  0.00000000000E+00 0. -1.
          3    1    5    5  503    0 -0.65831570736E+02 -0.16198236443E+03  0.36105980320E+03  0.40116862238E+03  0.00000000000E+00 0. -1.
         -4    1    5    5    0  503 -0.28638931525E+02 -0.54647070665E+02  0.27975443796E+03  0.28647693849E+03  0.00000000000E+00 0.  1.
         -1    1    6    6    0  502 -0.18725719589E+03  0.22752248765E+03  0.57486101458E+02  0.30022723338E+03  0.00000000000E+00 0.  1.
<mgrwt>
<rscale>  0 0.16738940E+04</rscale>
<asrwt>0</asrwt>
<pdfrwt beam="1">  1        2 0.73236178E-01 0.16738940E+04</pdfrwt>
<pdfrwt beam="2">  1       -2 0.22638286E+00 0.16738940E+04</pdfrwt>
<totfact> 0.55961869E+00</totfact>
</mgrwt>
</event>
<event>
12    1  0.1494110E-007  0.1812416E+04  0.7818608E-02  0.8699724E-01
         -2   -1    0    0    0  501 -0.00000000000E+00  0.00000000000E+00  0.25693285511E+03  0.25693285511E+03  0.00000000000E+00 0.  1.
          2   -1    0    0  501    0  0.00000000000E+00 -0.00000000000E+00 -0.31962174355E+04  0.31962174355E+04  0.00000000000E+00 0. -1.
         23    2    1    2    0    0 -0.14640836069E+03  0.56695708815E+03 -0.45307283161E+03  0.74608268550E+03  0.92133788505E+02 0.  0.
        254    2    1    2    0    0  0.14640836069E+03 -0.56695708815E+03 -0.24862117488E+04  0.27070676051E+04  0.89671088481E+03 0.  0.
        -24    2    4    4    0    0  0.25143926462E+03  0.17382727001E+03 -0.82428841830E+03  0.88274246027E+03  0.79656958387E+02 0.  0.
         24    2    4    4    0    0 -0.10503090394E+03 -0.74078435816E+03 -0.16619233305E+04  0.18243251448E+04  0.79875663412E+02 0.  0.
         13    1    3    3    0    0  0.58002521269E+01  0.72718642163E+02 -0.80937984454E+02  0.10896146645E+03  0.00000000000E+00 0. -1.
        -13    1    3    3    0    0 -0.15220861281E+03  0.49423844598E+03 -0.37213484716E+03  0.63712121906E+03  0.00000000000E+00 0.  1.
          2    1    6    6  502    0 -0.62274754161E+01 -0.22619610631E+02 -0.94682464131E+02  0.97545872537E+02  0.00000000000E+00 0. -1.
          3    1    5    5  503    0 -0.22451340192E+00  0.12181326483E+01  0.17453386150E+01  0.21402009946E+01  0.00000000000E+00 0. -1.
         -2    1    5    5    0  503  0.25166377802E+03  0.17260913737E+03 -0.82603375692E+03  0.88060225928E+03  0.00000000000E+00 0.  1.
         -1    1    6    6    0  502 -0.98803428520E+02 -0.71816474753E+03 -0.15672408663E+04  0.17267792723E+04  0.00000000000E+00 0.  1.
<mgrwt>
<rscale>  0 0.18124164E+04</rscale>
<asrwt>0</asrwt>
<pdfrwt beam="1">  1        2 0.49172578E+00 0.18124164E+04</pdfrwt>
<pdfrwt beam="2">  1       -2 0.39528130E-01 0.18124164E+04</pdfrwt>
<totfact> 0.74845696E+00</totfact>
</mgrwt>
</event>
<event>
12    1  0.1494110E-007  0.2812137E+04  0.7818608E-02  0.8299510E-01
          2   -1    0    0  501    0  0.00000000000E+00  0.00000000000E+00  0.19479961132E+04  0.19479961132E+04  0.00000000000E+00 0. -1.
         -2   -1    0    0    0  501 -0.00000000000E+00 -0.00000000000E+00 -0.10149037057E+04  0.10149037057E+04  0.00000000000E+00 0.  1.
         23    2    1    2    0    0 -0.90739816842E+03 -0.87175922126E+03  0.49506239401E+03  0.13552612942E+04  0.91163729342E+02 0.  0.
        254    2    1    2    0    0  0.90739816842E+03  0.87175922126E+03  0.43803001349E+03  0.16076385247E+04  0.89960866898E+03 0.  0.
        -24    2    4    4    0    0  0.95558252673E+03  0.59838356646E+03  0.59242958806E+02  0.11314987878E+04  0.74692172386E+02 0.  0.
         24    2    4    4    0    0 -0.48184358307E+02  0.27337565480E+03  0.37878705469E+03  0.47613973685E+03  0.78571210938E+02 0.  0.
         13    1    3    3    0    0 -0.68942723317E+03 -0.60849117349E+03  0.37318095865E+03  0.99238875747E+03  0.00000000000E+00 0. -1.
        -13    1    3    3    0    0 -0.21797093526E+03 -0.26326804777E+03  0.12188143536E+03  0.36287253668E+03  0.00000000000E+00 0.  1.
          2    1    6    6  502    0 -0.24046948948E+02  0.29529559197E+02  0.24192817587E+02  0.45116992839E+02  0.00000000000E+00 0. -1.
          3    1    5    5  503    0  0.46182083195E+02  0.14773420413E+02  0.11774304686E+02  0.49896623230E+02  0.00000000000E+00 0. -1.
         -4    1    5    5    0  503  0.90940044353E+03  0.58361014605E+03  0.47468654120E+02  0.10816021646E+04  0.00000000000E+00 0.  1.
         -1    1    6    6    0  502 -0.24137409359E+02  0.24384609561E+03  0.35459423710E+03  0.43102274401E+03  0.00000000000E+00 0.  1.
<mgrwt>
<rscale>  0 0.28121369E+04</rscale>
<asrwt>0</asrwt>
<pdfrwt beam="1">  1        2 0.29969171E+00 0.28121369E+04</pdfrwt>
<pdfrwt beam="2">  1       -2 0.15613903E+00 0.28121369E+04</pdfrwt>
<totfact> 0.16710564E+00</totfact>
</mgrwt>
</event>
<event>
12    1  0.1494110E-007  0.1519511E+04  0.7818608E-02  0.8871581E-01
          2   -1    0    0  501    0  0.00000000000E+00  0.00000000000E+00  0.26007050535E+04  0.26007050535E+04  0.00000000000E+00 0. -1.
         -2   -1    0    0    0  501 -0.00000000000E+00 -0.00000000000E+00 -0.22195075896E+03  0.22195075896E+03  0.00000000000E+00 0.  1.
         23    2    1    2    0    0  0.88376450118E+02  0.18414559879E+03 -0.47806853264E+02  0.22944380097E+03  0.92946027854E+02 0.  0.
        254    2    1    2    0    0 -0.88376450118E+02 -0.18414559879E+03  0.24265611478E+04  0.25932120115E+04  0.89153212733E+03 0.  0.
        -24    2    4    4    0    0  0.15821099630E+03  0.26423705222E+03  0.45559587719E+03  0.55571370810E+03  0.79988642580E+02 0.  0.
         24    2    4    4    0    0 -0.24658744641E+03 -0.44838265102E+03  0.19709652706E+04  0.20374983034E+04  0.69590717249E+02 0.  0.
         11    1    3    3    0    0  0.91788211365E+02  0.16862213850E+03 -0.68065505399E+02  0.20369441417E+03  0.00000000000E+00 0.  1.
        -11    1    3    3    0    0 -0.34117612475E+01  0.15523460291E+02  0.20258652135E+02  0.25749386800E+02  0.00000000000E+00 0. -1.
          4    1    6    6  502    0 -0.81342202503E+02 -0.88491164795E+02  0.43458331431E+03  0.45089898783E+03  0.00000000000E+00 0. -1.
          1    1    5    5  503    0  0.12448823631E+02 -0.27978796494E+01  0.29649085825E+02  0.32278005369E+02  0.00000000000E+00 0. -1.
         -2    1    5    5    0  503  0.14576217267E+03  0.26703493187E+03  0.42594679137E+03  0.52343570274E+03  0.00000000000E+00 0.  1.
         -3    1    6    6    0  502 -0.16524524391E+03 -0.35989148622E+03  0.15363819563E+04  0.15865993156E+04  0.00000000000E+00 0.  1.
<mgrwt>
<rscale>  0 0.15195111E+04</rscale>
<asrwt>0</asrwt>
<pdfrwt beam="1">  1        2 0.40010845E+00 0.15195111E+04</pdfrwt>
<pdfrwt beam="2">  1       -2 0.34146272E-01 0.15195111E+04</pdfrwt>
<totfact> 0.23636600E+01</totfact>
</mgrwt>
</event>
<event>
12    1  0.1494110E-007  0.1742072E+04  0.7818608E-02  0.8737726E-01
          2   -1    0    0  501    0  0.00000000000E+00  0.00000000000E+00  0.96882924654E+03  0.96882924654E+03  0.00000000000E+00 0. -1.
         -2   -1    0    0    0  501 -0.00000000000E+00 -0.00000000000E+00 -0.78311372829E+03  0.78311372829E+03  0.00000000000E+00 0.  1.
         23    2    1    2    0    0  0.50846209613E+03  0.40861868038E+03 -0.53017518506E+02  0.66074340223E+03  0.90928857766E+02 0.  0.
        254    2    1    2    0    0 -0.50846209613E+03 -0.40861868038E+03  0.23873303675E+03  0.10911995726E+04  0.84155814727E+03 0.  0.
        -24    2    4    4    0    0 -0.63923289910E+03 -0.35956851866E+03 -0.72307129818E+02  0.74137178077E+03  0.80595145001E+02 0.  0.
         24    2    4    4    0    0  0.13077080298E+03 -0.49050161720E+02  0.31104016657E+03  0.34982779182E+03  0.78272456423E+02 0.  0.
         11    1    3    3    0    0  0.48836773053E+03  0.36217336296E+03 -0.48894344980E+02  0.60996986977E+03  0.00000000000E+00 0.  1.
        -11    1    3    3    0    0  0.20094365602E+02  0.46445317415E+02 -0.41231735262E+01  0.50773532461E+02  0.00000000000E+00 0. -1.
          2    1    6    6  502    0  0.81494086981E+02 -0.25733068974E+02  0.26510794084E+03  0.27854209260E+03  0.00000000000E+00 0. -1.
          3    1    5    5  503    0 -0.51043742602E+03 -0.32176549093E+03 -0.52171243532E+02  0.60564117734E+03  0.00000000000E+00 0. -1.
         -4    1    5    5    0  503 -0.12879547308E+03 -0.37803027726E+02 -0.20135886285E+02  0.13573060343E+03  0.00000000000E+00 0.  1.
         -1    1    6    6    0  502  0.49276715996E+02 -0.23317092746E+02  0.45932225732E+02  0.71285699226E+02  0.00000000000E+00 0.  1.
<mgrwt>
<rscale>  0 0.17420717E+04</rscale>
<asrwt>0</asrwt>
<pdfrwt beam="1">  1        2 0.14905065E+00 0.17420717E+04</pdfrwt>
<pdfrwt beam="2">  1       -2 0.12047903E+00 0.17420717E+04</pdfrwt>
<totfact> 0.13158789E+01</totfact>
</mgrwt>
</event>
<event>
12    1  0.1494110E-007  0.1421502E+04  0.7818608E-02  0.8938400E-01
         -1   -1    0    0    0  501 -0.00000000000E+00  0.00000000000E+00  0.55366891278E+03  0.55366891278E+03  0.00000000000E+00 0.  1.
          1   -1    0    0  501    0  0.00000000000E+00 -0.00000000000E+00 -0.91239912945E+03  0.91239912945E+03  0.00000000000E+00 0. -1.
         23    2    1    2    0    0 -0.16283767074E+03 -0.35849792284E+03  0.20882452268E+02  0.40469435480E+03  0.91129448073E+02 0.  0.
        254    2    1    2    0    0  0.16283767074E+03  0.35849792284E+03 -0.37961266893E+03  0.10613736874E+04  0.90959961426E+03 0.  0.
        -24    2    4    4    0    0  0.17676540347E+03  0.21188157901E+03 -0.66853837421E+03  0.72762887827E+03  0.79752212012E+02 0.  0.
         24    2    4    4    0    0 -0.13927732727E+02  0.14661634383E+03  0.28892570527E+03  0.33374480916E+03  0.78849226100E+02 0.  0.
         13    1    3    3    0    0 -0.12433502040E+03 -0.33618941784E+03  0.28389120816E+02  0.35956705097E+03  0.00000000000E+00 0.  1.
        -13    1    3    3    0    0 -0.38502650336E+02 -0.22308504999E+02 -0.75066685480E+01  0.45127303829E+02  0.00000000000E+00 0. -1.
          2    1    6    6  502    0  0.17005043804E+02  0.86257456838E+02  0.22059154230E+03  0.23746610055E+03  0.00000000000E+00 0. -1.
          3    1    5    5  503    0  0.14864700417E+03  0.19282772367E+03 -0.63420211098E+03  0.67933112724E+03  0.00000000000E+00 0. -1.
         -4    1    5    5    0  503  0.28118399300E+02  0.19053855343E+02 -0.34336263230E+02  0.48297751037E+02  0.00000000000E+00 0.  1.
         -1    1    6    6    0  502 -0.30932776531E+02  0.60358886988E+02  0.68334162969E+02  0.96278708607E+02  0.00000000000E+00 0.  1.
<mgrwt>
<rscale>  0 0.14215021E+04</rscale>
<asrwt>0</asrwt>
<pdfrwt beam="1">  1        1 0.14036910E+00 0.14215021E+04</pdfrwt>
<pdfrwt beam="2">  1       -1 0.85179833E-01 0.14215021E+04</pdfrwt>
<totfact> 0.23589366E+01</totfact>
</mgrwt>
</event>
<event>
12    1  0.1494110E-007  0.1929637E+04  0.7818608E-02  0.8640243E-01
         -1   -1    0    0    0  501 -0.00000000000E+00  0.00000000000E+00  0.59017732370E+03  0.59017732370E+03  0.00000000000E+00 0.  1.
          1   -1    0    0  501    0  0.00000000000E+00 -0.00000000000E+00 -0.15772791853E+04  0.15772791853E+04  0.00000000000E+00 0. -1.
         23    2    1    2    0    0 -0.26355967110E+03  0.18292868693E+03 -0.11500530464E+04  0.11976701384E+04  0.94154904386E+02 0.  0.
        254    2    1    2    0    0  0.26355967110E+03 -0.18292868693E+03  0.16295118484E+03  0.96978637062E+03  0.90055866620E+03 0.  0.
        -24    2    4    4    0    0  0.42613254911E+03  0.12097513190E+03 -0.17192744731E+03  0.48278430656E+03  0.85426620992E+02 0.  0.
         24    2    4    4    0    0 -0.16257287801E+03 -0.30390381882E+03  0.33487863215E+03  0.48700206406E+03  0.78992660183E+02 0.  0.
         11    1    3    3    0    0 -0.24065074008E+03  0.19221611778E+03 -0.10912820730E+04  0.11339119796E+04  0.00000000000E+00 0. -1.
        -11    1    3    3    0    0 -0.22908931020E+02 -0.92874308548E+01 -0.58770973497E+02  0.63758158835E+02  0.00000000000E+00 0.  1.
          2    1    6    6  502    0 -0.13396932561E+03 -0.17933854655E+03  0.18820784689E+03  0.29245903664E+03  0.00000000000E+00 0. -1.
          1    1    5    5  503    0  0.33430132926E+03  0.83529045091E+02 -0.95467015782E+02  0.35755898985E+03  0.00000000000E+00 0. -1.
         -2    1    5    5    0  503  0.91831219853E+02  0.37446086807E+02 -0.76460431531E+02  0.12522531672E+03  0.00000000000E+00 0.  1.
         -1    1    6    6    0  502 -0.28603552407E+02 -0.12456527228E+03  0.14667078526E+03  0.19454302741E+03  0.00000000000E+00 0.  1.
<mgrwt>
<rscale>  0 0.19296367E+04</rscale>
<asrwt>0</asrwt>
<pdfrwt beam="1">  1        1 0.24265834E+00 0.19296367E+04</pdfrwt>
<pdfrwt beam="2">  1       -1 0.90796511E-01 0.19296367E+04</pdfrwt>
<totfact> 0.63947311E+00</totfact>
</mgrwt>
</event>
<event>
12    1  0.1494110E-007  0.1589440E+04  0.7818608E-02  0.8827062E-01
         -1   -1    0    0    0  501 -0.00000000000E+00  0.00000000000E+00  0.31300757843E+04  0.31300757843E+04  0.00000000000E+00 0.  1.
          1   -1    0    0  501    0  0.00000000000E+00 -0.00000000000E+00 -0.20177790734E+03  0.20177790734E+03  0.00000000000E+00 0. -1.
         23    2    1    2    0    0  0.21014157594E+03  0.11761340905E+03  0.20220478092E+04  0.20383232000E+04  0.89954039002E+02 0.  0.
        254    2    1    2    0    0 -0.21014157594E+03 -0.11761340905E+03  0.90625006776E+03  0.12935304916E+04  0.89103285658E+03 0.  0.
        -24    2    4    4    0    0 -0.43173562997E+03 -0.68018677837E+02  0.94974702327E+03  0.10483492087E+04  0.77423901150E+02 0.  0.
         24    2    4    4    0    0  0.22159405404E+03 -0.49594731214E+02 -0.43496955515E+02  0.24518128290E+03  0.81598493854E+02 0.  0.
         13    1    3    3    0    0  0.70934338219E+02  0.33997244757E+02  0.36742146939E+03  0.37574729428E+03  0.00000000000E+00 0. -1.
        -13    1    3    3    0    0  0.13920723772E+03  0.83616164294E+02  0.16546263398E+04  0.16625759057E+04  0.00000000000E+00 0.  1.
          4    1    6    6  502    0  0.10031888579E+03  0.31625927711E+01 -0.51258632982E+02  0.11270016989E+03  0.00000000000E+00 0. -1.
          1    1    5    5  503    0 -0.31706159626E+02  0.50927596458E+01  0.36260347261E+02  0.48435829120E+02  0.00000000000E+00 0. -1.
         -2    1    5    5    0  503 -0.40002947035E+03 -0.73111437483E+02  0.91348667601E+03  0.99991337959E+03  0.00000000000E+00 0.  1.
         -3    1    6    6    0  502  0.12127516825E+03 -0.52757323985E+02  0.77616774665E+01  0.13248111301E+03  0.00000000000E+00 0.  1.
<mgrwt>
<rscale>  0 0.15894403E+04</rscale>
<asrwt>0</asrwt>
<pdfrwt beam="1">  1        1 0.31042757E-01 0.15894403E+04</pdfrwt>
<pdfrwt beam="2">  1       -1 0.48155008E+00 0.15894403E+04</pdfrwt>
<totfact> 0.27898014E-01</totfact>
</mgrwt>
</event>
<event>
12    1  0.1494110E-007  0.2243406E+04  0.7818608E-02  0.8500576E-01
         -2   -1    0    0    0  501 -0.00000000000E+00  0.00000000000E+00  0.42893762960E+03  0.42893762960E+03  0.00000000000E+00 0.  1.
          2   -1    0    0  501    0  0.00000000000E+00 -0.00000000000E+00 -0.29333352307E+04  0.29333352307E+04  0.00000000000E+00 0. -1.
         23    2    1    2    0    0  0.47119285551E+03 -0.49401714827E+03 -0.20316765423E+04  0.21451880458E+04  0.89702450199E+02 0.  0.
        254    2    1    2    0    0 -0.47119285551E+03  0.49401714827E+03 -0.47272105885E+03  0.12170848145E+04  0.88980593185E+03 0.  0.
        -24    2    4    4    0    0 -0.61864711526E+03  0.55096454478E+03 -0.57676997753E+03  0.10126465494E+04  0.80642694577E+02 0.  0.
         24    2    4    4    0    0  0.14745425974E+03 -0.56947396511E+02  0.10404891868E+03  0.20443826512E+03  0.77350255855E+02 0.  0.
         13    1    3    3    0    0  0.36154759394E+03 -0.32823531906E+03 -0.13781956961E+04  0.14621485780E+04  0.00000000000E+00 0. -1.
        -13    1    3    3    0    0  0.10964526157E+03 -0.16578182920E+03 -0.65348084618E+03  0.68303946782E+03  0.00000000000E+00 0.  1.
          4    1    6    6  502    0  0.69008972975E+02 -0.62587614524E+02  0.34173415792E+02  0.99233412668E+02  0.00000000000E+00 0. -1.
          1    1    5    5  503    0 -0.42773978906E+02  0.39603626661E+02 -0.17519145635E+02  0.60868554935E+02  0.00000000000E+00 0. -1.
         -2    1    5    5    0  503 -0.57587313635E+03  0.51136091812E+03 -0.55925083190E+03  0.95177799445E+03  0.00000000000E+00 0.  1.
         -3    1    6    6    0  502  0.78445286769E+02  0.56402180130E+01  0.69875502891E+02  0.10520485245E+03  0.00000000000E+00 0.  1.
<mgrwt>
<rscale>  0 0.22434062E+04</rscale>
<asrwt>0</asrwt>
<pdfrwt beam="1">  1        2 0.45128233E+00 0.22434062E+04</pdfrwt>
<pdfrwt beam="2">  1       -2 0.65990406E-01 0.22434062E+04</pdfrwt>
<totfact> 0.36907322E+00</totfact>
</mgrwt>
</event>
<event>
12    1  0.1494110E-007  0.1489121E+04  0.7818608E-02  0.8891720E-01
          1   -1    0    0  501    0  0.00000000000E+00  0.00000000000E+00  0.25995931164E+04  0.25995931164E+04  0.00000000000E+00 0. -1.
         -1   -1    0    0    0  501 -0.00000000000E+00 -0.00000000000E+00 -0.21325265704E+03  0.21325265704E+03  0.00000000000E+00 0.  1.
         23    2    1    2    0    0 -0.10306670350E+03 -0.28492064153E+03  0.89623582265E+02  0.32841837159E+03  0.89575236303E+02 0.  0.
        254    2    1    2    0    0  0.10306670350E+03  0.28492064153E+03  0.22967168771E+04  0.24844274019E+04  0.89759043231E+03 0.  0.
        -24    2    4    4    0    0 -0.30355814773E+02 -0.47101964932E+02 -0.49501881844E+02  0.10972421093E+03  0.80305015831E+02 0.  0.
         24    2    4    4    0    0  0.13342251827E+03  0.33202260647E+03  0.23462187590E+04  0.23747031910E+04  0.80201000948E+02 0.  0.
         13    1    3    3    0    0 -0.66987501440E+02 -0.24394825358E+03  0.10144382379E+03  0.27255994783E+03  0.00000000000E+00 0.  1.
        -13    1    3    3    0    0 -0.36079202060E+02 -0.40972387954E+02 -0.11820241525E+02  0.55858423766E+02  0.00000000000E+00 0. -1.
          2    1    6    6  502    0  0.80895878231E+02  0.28445759802E+03  0.19148455691E+04  0.19375484050E+04  0.00000000000E+00 0. -1.
          3    1    5    5  503    0 -0.85229789475E+01 -0.60120412251E+02 -0.56936420110E+02  0.83239780600E+02  0.00000000000E+00 0. -1.
         -4    1    5    5    0  503 -0.21832835825E+02  0.13018447320E+02  0.74345382659E+01  0.26484430332E+02  0.00000000000E+00 0.  1.
         -1    1    6    6    0  502  0.52526640041E+02  0.47565008450E+02  0.43137318983E+03  0.43715478592E+03  0.00000000000E+00 0.  1.
<mgrwt>
<rscale>  0 0.14891207E+04</rscale>
<asrwt>0</asrwt>
<pdfrwt beam="1">  1        1 0.39993738E+00 0.14891207E+04</pdfrwt>
<pdfrwt beam="2">  1       -1 0.32808103E-01 0.14891207E+04</pdfrwt>
<totfact> 0.97698332E+00</totfact>
</mgrwt>
</event>
<event>
12    1  0.1558809E-007  0.1451968E+04  0.7818608E-02  0.8917037E-01
         -2   -1    0    0    0  501 -0.00000000000E+00  0.00000000000E+00  0.32771045743E+03  0.32771045743E+03  0.00000000000E+00 0.  1.
          2   -1    0    0  501    0  0.00000000000E+00 -0.00000000000E+00 -0.16082884183E+04  0.16082884183E+04  0.00000000000E+00 0. -1.
         23    2    1    2    0    0  0.24045763032E+03 -0.66450720197E+02  0.88412574373E+02  0.28027750614E+03  0.92212401259E+02 0.  0.
        254    2    1    2    0    0 -0.24045763032E+03  0.66450720197E+02 -0.13689905352E+04  0.16557213696E+04  0.89724166084E+03 0.  0.
        -24    2    4    4    0    0  0.22318278735E+03 -0.22016025776E+03 -0.80329010176E+03  0.86603212326E+03  0.80346470186E+02 0.  0.
         24    2    4    4    0    0 -0.46364041767E+03  0.28661097795E+03 -0.56570043345E+03  0.78968924630E+03  0.80522268594E+02 0.  0.
         11    1    3    3    0    0  0.23475258657E+03 -0.77529680656E+02  0.96534735957E+02  0.26540268184E+03  0.00000000000E+00 0.  1.
        -11    1    3    3    0    0  0.57050437537E+01  0.11078960459E+02 -0.81221615834E+01  0.14874824297E+02  0.00000000000E+00 0. -1.
          2    1    6    6  502    0 -0.44950160303E+03  0.28972686180E+03 -0.55939803543E+03  0.77389890013E+03  0.00000000000E+00 0. -1.
          1    1    5    5  503    0  0.22146191639E+03 -0.22538946601E+03 -0.77038521625E+03  0.83266990651E+03  0.00000000000E+00 0. -1.
         -2    1    5    5    0  503  0.17208709577E+01  0.52292082524E+01 -0.32904885515E+02  0.33362216751E+02  0.00000000000E+00 0.  1.
         -1    1    6    6    0  502 -0.14138814636E+02 -0.31158838479E+01 -0.63023980225E+01  0.15790346174E+02  0.00000000000E+00 0.  1.
<mgrwt>
<rscale>  0 0.14519682E+04</rscale>
<asrwt>0</asrwt>
<pdfrwt beam="1">  1        2 0.24742899E+00 0.14519682E+04</pdfrwt>
<pdfrwt beam="2">  1       -2 0.50416993E-01 0.14519682E+04</pdfrwt>
<totfact> 0.39796556E+01</totfact>
</mgrwt>
</event>
<event>
12    1  0.1494110E-007  0.1243678E+04  0.7818608E-02  0.9075462E-01
          2   -1    0    0  501    0  0.00000000000E+00  0.00000000000E+00  0.11468594755E+04  0.11468594755E+04  0.00000000000E+00 0. -1.
         -2   -1    0    0    0  501 -0.00000000000E+00 -0.00000000000E+00 -0.33716728919E+03  0.33716728919E+03  0.00000000000E+00 0.  1.
         23    2    1    2    0    0 -0.12229760414E+03  0.12224347911E+01  0.57784318325E+03  0.59733023579E+03  0.89120524184E+02 0.  0.
        254    2    1    2    0    0  0.12229760414E+03 -0.12224347911E+01  0.23184900306E+03  0.88669652891E+03  0.84706468220E+03 0.  0.
        -24    2    4    4    0    0 -0.28244644583E+03  0.89317093189E+02 -0.12773707638E+03  0.33226028562E+03  0.79539919688E+02 0.  0.
         24    2    4    4    0    0  0.40474404996E+03 -0.90539527980E+02  0.35958607944E+03  0.55443624329E+03  0.77988763496E+02 0.  0.
         11    1    3    3    0    0 -0.74144397062E+02 -0.40992434833E+02  0.27344410835E+03  0.28626814654E+03  0.00000000000E+00 0.  1.
        -11    1    3    3    0    0 -0.48153207076E+02  0.42214869625E+02  0.30439907490E+03  0.31106208925E+03  0.00000000000E+00 0. -1.
          4    1    6    6  502    0  0.28571826702E+03 -0.64172840964E+02  0.29819757222E+03  0.41794123236E+03  0.00000000000E+00 0. -1.
          1    1    5    5  503    0 -0.25675461123E+03  0.53144989113E+02 -0.10542485865E+03  0.28259816184E+03  0.00000000000E+00 0. -1.
         -2    1    5    5    0  503 -0.25691834596E+02  0.36172104076E+02 -0.22312217731E+02  0.49662123779E+02  0.00000000000E+00 0.  1.
         -3    1    6    6    0  502  0.11902578294E+03 -0.26366687016E+02  0.61388507225E+02  0.13649501093E+03  0.00000000000E+00 0.  1.
<mgrwt>
<rscale>  0 0.12436776E+04</rscale>
<asrwt>0</asrwt>
<pdfrwt beam="1">  1        2 0.17643992E+00 0.12436776E+04</pdfrwt>
<pdfrwt beam="2">  1       -2 0.51871891E-01 0.12436776E+04</pdfrwt>
<totfact> 0.70401967E+01</totfact>
</mgrwt>
</event>
<event>
12    1  0.1494110E-007  0.2205671E+04  0.7818608E-02  0.8516071E-01
          1   -1    0    0  501    0  0.00000000000E+00  0.00000000000E+00  0.11324444923E+04  0.11324444923E+04  0.00000000000E+00 0. -1.
         -1   -1    0    0    0  501 -0.00000000000E+00 -0.00000000000E+00 -0.10740008290E+04  0.10740008290E+04  0.00000000000E+00 0.  1.
         23    2    1    2    0    0 -0.37049421503E+03 -0.58997382812E+03  0.63363242811E+03  0.94606679918E+03  0.90649066780E+02 0.  0.
        254    2    1    2    0    0  0.37049421503E+03  0.58997382812E+03 -0.57518876482E+03  0.12603785221E+04  0.87884971553E+03 0.  0.
        -24    2    4    4    0    0  0.57901871349E+03  0.13290319457E+03 -0.40557179769E+03  0.72396171103E+03  0.81891063345E+02 0.  0.
         24    2    4    4    0    0 -0.20852449846E+03  0.45707063355E+03 -0.16961696713E+03  0.53641681104E+03  0.81099008145E+02 0.  0.
         11    1    3    3    0    0 -0.20054201309E+02 -0.16448122484E+02  0.48201998094E+02  0.54737047269E+02  0.00000000000E+00 0.  1.
        -11    1    3    3    0    0 -0.35044001372E+03 -0.57352570564E+03  0.58543043002E+03  0.89132975191E+03  0.00000000000E+00 0. -1.
          4    1    6    6  502    0 -0.98226903504E+02  0.26381801100E+03 -0.57780622196E+02  0.28737965795E+03  0.00000000000E+00 0. -1.
          3    1    5    5  503    0  0.23552265809E+02  0.68903272174E+01 -0.40728589509E+02  0.47550014062E+02  0.00000000000E+00 0. -1.
         -4    1    5    5    0  503  0.55546644768E+03  0.12601286736E+03 -0.36484320818E+03  0.67641169697E+03  0.00000000000E+00 0.  1.
         -3    1    6    6    0  502 -0.11029759496E+03  0.19325262255E+03 -0.11183634493E+03  0.24903715310E+03  0.00000000000E+00 0.  1.
<mgrwt>
<rscale>  0 0.22056712E+04</rscale>
<asrwt>0</asrwt>
<pdfrwt beam="1">  1        1 0.17422223E+00 0.22056712E+04</pdfrwt>
<pdfrwt beam="2">  1       -1 0.16523090E+00 0.22056712E+04</pdfrwt>
<totfact> 0.29160898E+00</totfact>
</mgrwt>
</event>
<event>
12    1  0.1494110E-007  0.1990485E+04  0.7818608E-02  0.8611082E-01
         -2   -1    0    0    0  501 -0.00000000000E+00  0.00000000000E+00  0.37061794257E+03  0.37061794257E+03  0.00000000000E+00 0.  1.
          2   -1    0    0  501    0  0.00000000000E+00 -0.00000000000E+00 -0.26725854018E+04  0.26725854018E+04  0.00000000000E+00 0. -1.
         23    2    1    2    0    0  0.45612248773E+03 -0.24186291909E+03 -0.58346862400E+01  0.52366515632E+03  0.87440019109E+02 0.  0.
        254    2    1    2    0    0 -0.45612248773E+03  0.24186291909E+03 -0.22961327730E+04  0.25195381880E+04  0.89961190211E+03 0.  0.
        -24    2    4    4    0    0 -0.26163912998E+03  0.34927694973E+03 -0.36614689139E+03  0.57513946817E+03  0.79198736242E+02 0.  0.
         24    2    4    4    0    0 -0.19448335774E+03 -0.10741403063E+03 -0.19299858816E+04  0.19443987199E+04  0.80494274988E+02 0.  0.
         13    1    3    3    0    0  0.13966623497E+03 -0.96733945019E+02 -0.37813434336E+02  0.17405162776E+03  0.00000000000E+00 0. -1.
        -13    1    3    3    0    0  0.31645625276E+03 -0.14512897407E+03  0.31978748096E+02  0.34961352857E+03  0.00000000000E+00 0.  1.
          2    1    6    6  502    0 -0.38546639582E+02  0.75101031353E+01 -0.22019242098E+03  0.22366704569E+03  0.00000000000E+00 0. -1.
          3    1    5    5  503    0 -0.74565230826E+02  0.64069571355E+02 -0.51006041796E+02  0.11075423207E+03  0.00000000000E+00 0. -1.
         -4    1    5    5    0  503 -0.18707389916E+03  0.28520737837E+03 -0.31514084960E+03  0.46438523610E+03  0.00000000000E+00 0.  1.
         -1    1    6    6    0  502 -0.15593671816E+03 -0.11492413377E+03 -0.17097934606E+04  0.17207316742E+04  0.00000000000E+00 0.  1.
<mgrwt>
<rscale>  0 0.19904855E+04</rscale>
<asrwt>0</asrwt>
<pdfrwt beam="1">  1        2 0.41116700E+00 0.19904855E+04</pdfrwt>
<pdfrwt beam="2">  1       -2 0.57018144E-01 0.19904855E+04</pdfrwt>
<totfact> 0.73999409E+00</totfact>
</mgrwt>
</event>
<event>
12    1  0.1494110E-007  0.1682921E+04  0.7818608E-02  0.8771165E-01
          3   -1    0    0  501    0  0.00000000000E+00  0.00000000000E+00  0.80357299155E+03  0.80357299155E+03  0.00000000000E+00 0. -1.
         -3   -1    0    0    0  501 -0.00000000000E+00 -0.00000000000E+00 -0.88113485683E+03  0.88113485683E+03  0.00000000000E+00 0.  1.
         23    2    1    2    0    0  0.51655425203E+03 -0.26742842598E+03 -0.14707084344E+03  0.60576627865E+03  0.83526600854E+02 0.  0.
        254    2    1    2    0    0 -0.51655425203E+03  0.26742842598E+03  0.69508978156E+02  0.10789415697E+04  0.90605582307E+03 0.  0.
        -24    2    4    4    0    0 -0.19785369711E+03  0.11866952407E+02  0.46074595369E+03  0.50789517444E+03  0.79898462804E+02 0.  0.
         24    2    4    4    0    0 -0.31870055491E+03  0.25556147357E+03 -0.39123697553E+03  0.57104639528E+03  0.78395816645E+02 0.  0.
         13    1    3    3    0    0  0.45143566033E+03 -0.23811349399E+03 -0.99591299224E+02  0.52001020982E+03  0.00000000000E+00 0.  1.
        -13    1    3    3    0    0  0.65118591696E+02 -0.29314931991E+02 -0.47479544212E+02  0.85756068827E+02  0.00000000000E+00 0. -1.
          4    1    6    6  502    0 -0.13855340866E+03  0.13035993408E+03 -0.13256327149E+03  0.23187018009E+03  0.00000000000E+00 0. -1.
          1    1    5    5  503    0 -0.76721376613E+02 -0.52517814355E+01  0.27446679901E+03  0.28503644433E+03  0.00000000000E+00 0. -1.
         -2    1    5    5    0  503 -0.12113232050E+03  0.17118733842E+02  0.18627915467E+03  0.22285873010E+03  0.00000000000E+00 0.  1.
         -3    1    6    6    0  502 -0.18014714625E+03  0.12520153950E+03 -0.25867370404E+03  0.33917621520E+03  0.00000000000E+00 0.  1.
<mgrwt>
<rscale>  0 0.16829215E+04</rscale>
<asrwt>0</asrwt>
<pdfrwt beam="1">  1        3 0.12362661E+00 0.16829215E+04</pdfrwt>
<pdfrwt beam="2">  1       -3 0.13555921E+00 0.16829215E+04</pdfrwt>
<totfact> 0.54888162E-01</totfact>
</mgrwt>
</event>
<event>
12    1  0.1494110E-007  0.1571128E+04  0.7818608E-02  0.8838484E-01
         -2   -1    0    0    0  501 -0.00000000000E+00  0.00000000000E+00  0.37580978882E+03  0.37580978882E+03  0.00000000000E+00 0.  1.
          2   -1    0    0  501    0  0.00000000000E+00 -0.00000000000E+00 -0.16420818796E+04  0.16420818796E+04  0.00000000000E+00 0. -1.
         23    2    1    2    0    0  0.45966910817E+02  0.45535354718E+03 -0.96577598988E+02  0.47740174451E+03  0.95526871663E+02 0.  0.
        254    2    1    2    0    0 -0.45966910817E+02 -0.45535354718E+03 -0.11696944918E+04  0.15404899239E+04  0.89188799284E+03 0.  0.
        -24    2    4    4    0    0 -0.31819025959E+03 -0.56087341225E+03 -0.10027028101E+04  0.11948838266E+04  0.80687098954E+02 0.  0.
         24    2    4    4    0    0  0.27222334877E+03  0.10551986506E+03 -0.16699168172E+03  0.34560609730E+03  0.79481816720E+02 0.  0.
         13    1    3    3    0    0  0.17047582783E+02  0.75156840674E+01 -0.16723762067E+01  0.18705679029E+02  0.00000000000E+00 0. -1.
        -13    1    3    3    0    0  0.28919328034E+02  0.44783786312E+03 -0.94905222781E+02  0.45869606548E+03  0.00000000000E+00 0.  1.
          2    1    6    6  502    0  0.12937654822E+03  0.16227551592E+02 -0.46266880287E+02  0.13835551623E+03  0.00000000000E+00 0. -1.
          1    1    5    5  503    0 -0.27363126206E+03 -0.44990557534E+03 -0.86324416342E+03  0.10111773237E+04  0.00000000000E+00 0. -1.
         -2    1    5    5    0  503 -0.44558997526E+02 -0.11096783691E+03 -0.13945864667E+03  0.18370650293E+03  0.00000000000E+00 0.  1.
         -1    1    6    6    0  502  0.14284680055E+03  0.89292313471E+02 -0.12072480143E+03  0.20725058107E+03  0.00000000000E+00 0.  1.
<mgrwt>
<rscale>  0 0.15711275E+04</rscale>
<asrwt>0</asrwt>
<pdfrwt beam="1">  1        2 0.25262798E+00 0.15711275E+04</pdfrwt>
<pdfrwt beam="2">  1       -2 0.57816890E-01 0.15711275E+04</pdfrwt>
<totfact> 0.28427877E+01</totfact>
</mgrwt>
</event>
<event>
12    1  0.1494110E-007  0.3808383E+04  0.7818608E-02  0.8044358E-01
         -2   -1    0    0    0  501 -0.00000000000E+00  0.00000000000E+00  0.15028148965E+04  0.15028148965E+04  0.00000000000E+00 0.  1.
          2   -1    0    0  501    0  0.00000000000E+00 -0.00000000000E+00 -0.24127696379E+04  0.24127696379E+04  0.00000000000E+00 0. -1.
         23    2    1    2    0    0 -0.37531496394E+03  0.96203934939E+03 -0.19425319930E+04  0.22017418241E+04  0.88631170541E+02 0.  0.
        254    2    1    2    0    0  0.37531496394E+03 -0.96203934939E+03  0.10325772516E+04  0.17138427104E+04  0.89702844073E+03 0.  0.
        -24    2    4    4    0    0  0.45020456444E+02 -0.90968319762E+03  0.10203618892E+04  0.13700374115E+04  0.79459187395E+02 0.  0.
         24    2    4    4    0    0  0.33029450749E+03 -0.52356151771E+02  0.12215362361E+02  0.34380529885E+03  0.78849477696E+02 0.  0.
         13    1    3    3    0    0 -0.15011425503E+03  0.37439206625E+03 -0.85181596137E+03  0.94249357604E+03  0.00000000000E+00 0. -1.
        -13    1    3    3    0    0 -0.22520070891E+03  0.58764728314E+03 -0.10907160316E+04  0.12592482481E+04  0.00000000000E+00 0.  1.
          4    1    6    6  502    0  0.22392191928E+03 -0.81482902847E+01  0.33806821706E+02  0.22660609384E+03  0.00000000000E+00 0. -1.
          1    1    5    5  503    0 -0.22811015843E+02 -0.18376057187E+03  0.20630616138E+03  0.27721926780E+03  0.00000000000E+00 0. -1.
         -4    1    5    5    0  503  0.67831472287E+02 -0.72592262576E+03  0.81405572784E+03  0.10928181437E+04  0.00000000000E+00 0.  1.
         -3    1    6    6    0  502  0.10637258821E+03 -0.44207861486E+02 -0.21591459345E+02  0.11719920501E+03  0.00000000000E+00 0.  1.
<mgrwt>
<rscale>  0 0.38083835E+04</rscale>
<asrwt>0</asrwt>
<pdfrwt beam="1">  1        2 0.37119532E+00 0.38083835E+04</pdfrwt>
<pdfrwt beam="2">  1       -2 0.23120230E+00 0.38083835E+04</pdfrwt>
<totfact> 0.26319595E-01</totfact>
</mgrwt>
</event>
<event>
12    1  0.1494110E-007  0.2237256E+04  0.7818608E-02  0.8503079E-01
         -4   -1    0    0    0  501 -0.00000000000E+00  0.00000000000E+00  0.21224793678E+04  0.21224793678E+04  0.00000000000E+00 0.  1.
          4   -1    0    0  501    0  0.00000000000E+00 -0.00000000000E+00 -0.58956005966E+03  0.58956005966E+03  0.00000000000E+00 0. -1.
         23    2    1    2    0    0 -0.28562554067E+03  0.27347318422E+03 -0.38546083492E+03  0.55973061373E+03  0.91371618797E+02 0.  0.
        254    2    1    2    0    0  0.28562554067E+03 -0.27347318422E+03  0.19183801431E+04  0.21523088137E+04  0.89212181032E+03 0.  0.
        -24    2    4    4    0    0  0.34314078549E+03 -0.40709404472E+03  0.19108553900E+04  0.19852071188E+04  0.78789739502E+02 0.  0.
         24    2    4    4    0    0 -0.57515244812E+02  0.13362086050E+03  0.75247530553E+01  0.16710169495E+03  0.81876839227E+02 0.  0.
         13    1    3    3    0    0 -0.57660028298E+02  0.27571466270E+02 -0.10340395237E+03  0.12156167974E+03  0.00000000000E+00 0.  1.
        -13    1    3    3    0    0 -0.22796551238E+03  0.24590171795E+03 -0.28205688255E+03  0.43816893399E+03  0.00000000000E+00 0. -1.
          4    1    6    6  502    0  0.36422266143E-01 -0.90600619895E+01 -0.84942634982E+01  0.12419281872E+02  0.00000000000E+00 0. -1.
          3    1    5    5  503    0  0.17614248478E+03 -0.14898020834E+03  0.83763002405E+03  0.86881835536E+03  0.00000000000E+00 0. -1.
         -4    1    5    5    0  503  0.16699830071E+03 -0.25811383638E+03  0.10732253660E+04  0.11163887634E+04  0.00000000000E+00 0.  1.
         -3    1    6    6    0  502 -0.57551667078E+02  0.14268092249E+03  0.16019016553E+02  0.15468241308E+03  0.00000000000E+00 0.  1.
<mgrwt>
<rscale>  0 0.22372564E+04</rscale>
<asrwt>0</asrwt>
<pdfrwt beam="1">  1        4 0.90701549E-01 0.22372564E+04</pdfrwt>
<pdfrwt beam="2">  1       -4 0.32653528E+00 0.22372564E+04</pdfrwt>
<totfact> 0.39814702E-02</totfact>
</mgrwt>
</event>
<event>
12    1  0.1494110E-007  0.1810787E+04  0.7818608E-02  0.8700584E-01
          2   -1    0    0  501    0  0.00000000000E+00  0.00000000000E+00  0.17444445357E+04  0.17444445357E+04  0.00000000000E+00 0. -1.
         -2   -1    0    0    0  501 -0.00000000000E+00 -0.00000000000E+00 -0.46991314577E+03  0.46991314577E+03  0.00000000000E+00 0.  1.
         23    2    1    2    0    0  0.38133976058E+03  0.16169545211E+03  0.11317314246E+04  0.12085927740E+04  0.91186861511E+02 0.  0.
        254    2    1    2    0    0 -0.38133976058E+03 -0.16169545211E+03  0.14279996535E+03  0.10057649075E+04  0.90532081981E+03 0.  0.
        -24    2    4    4    0    0 -0.30965830789E+03 -0.18685841762E+03 -0.34458620111E+03  0.50585243680E+03  0.79641081967E+02 0.  0.
         24    2    4    4    0    0 -0.71681452694E+02  0.25162965513E+02  0.48738616647E+03  0.49991247068E+03  0.81214515880E+02 0.  0.
         13    1    3    3    0    0  0.12063406669E+03  0.72647489436E+02  0.28003663016E+03  0.31344975674E+03  0.00000000000E+00 0.  1.
        -13    1    3    3    0    0  0.26070569389E+03  0.89047962671E+02  0.85169479441E+03  0.89514301724E+03  0.00000000000E+00 0. -1.
          4    1    6    6  502    0 -0.71558941257E+02 -0.59990349503E+01  0.41403666548E+03  0.42021783739E+03  0.00000000000E+00 0. -1.
          1    1    5    5  503    0 -0.96197295529E+02 -0.78095052753E+02 -0.16549191481E+03  0.20673734737E+03  0.00000000000E+00 0. -1.
         -2    1    5    5    0  503 -0.21346101236E+03 -0.10876336487E+03 -0.17909428630E+03  0.29911508943E+03  0.00000000000E+00 0.  1.
         -3    1    6    6    0  502 -0.12251143691E+00  0.31162000463E+02  0.73349500982E+02  0.79694633296E+02  0.00000000000E+00 0.  1.
<mgrwt>
<rscale>  0 0.18107870E+04</rscale>
<asrwt>0</asrwt>
<pdfrwt beam="1">  1        2 0.26837608E+00 0.18107870E+04</pdfrwt>
<pdfrwt beam="2">  1       -2 0.72294331E-01 0.18107870E+04</pdfrwt>
<totfact> 0.15132932E+01</totfact>
</mgrwt>
</event>
<event>
12    1  0.1494110E-007  0.2044486E+04  0.7818608E-02  0.8586100E-01
          1   -1    0    0  501    0  0.00000000000E+00  0.00000000000E+00  0.59484181912E+03  0.59484181912E+03  0.00000000000E+00 0. -1.
         -1   -1    0    0    0  501 -0.00000000000E+00 -0.00000000000E+00 -0.17567374299E+04  0.17567374299E+04  0.00000000000E+00 0.  1.
         23    2    1    2    0    0  0.13691066539E+03 -0.44948316117E+03  0.30154832246E+03  0.56578423134E+03  0.91655677270E+02 0.  0.
        254    2    1    2    0    0 -0.13691066539E+03  0.44948316117E+03 -0.14634439332E+04  0.17857950177E+04  0.90918428108E+03 0.  0.
        -24    2    4    4    0    0  0.33061201498E+03  0.12701161050E+03 -0.94595724621E+03  0.10132572328E+04  0.80117754392E+02 0.  0.
         24    2    4    4    0    0 -0.46752268037E+03  0.32247155067E+03 -0.51748668704E+03  0.77253778486E+03  0.80354216606E+02 0.  0.
         11    1    3    3    0    0  0.92349648926E+02 -0.32338768094E+03  0.16484567548E+03  0.37454258311E+03  0.00000000000E+00 0.  1.
        -11    1    3    3    0    0  0.44561016468E+02 -0.12609548023E+03  0.13670264699E+03  0.19124164822E+03  0.00000000000E+00 0. -1.
          4    1    6    6  502    0 -0.19643743529E+02  0.89344051075E+01 -0.29657771754E+01  0.21782931132E+02  0.00000000000E+00 0. -1.
          3    1    5    5  503    0  0.59956211480E+02  0.48852348229E+02 -0.27222984167E+03  0.28300244861E+03  0.00000000000E+00 0. -1.
         -4    1    5    5    0  503  0.27065580350E+03  0.78159262273E+02 -0.67372740454E+03  0.73025478422E+03  0.00000000000E+00 0.  1.
         -1    1    6    6    0  502 -0.44787893684E+03  0.31353714556E+03 -0.51452090986E+03  0.75075485373E+03  0.00000000000E+00 0.  1.
<mgrwt>
<rscale>  0 0.20444861E+04</rscale>
<asrwt>0</asrwt>
<pdfrwt beam="1">  1        1 0.91514127E-01 0.20444861E+04</pdfrwt>
<pdfrwt beam="2">  1       -1 0.27026729E+00 0.20444861E+04</pdfrwt>
<totfact> 0.16495216E+00</totfact>
</mgrwt>
</event>
<event>
12    1  0.1494110E-007  0.1938043E+04  0.7818608E-02  0.8636148E-01
         -1   -1    0    0    0  501 -0.00000000000E+00  0.00000000000E+00  0.76330757522E+03  0.76330757522E+03  0.00000000000E+00 0. -1.
          1   -1    0    0  501    0  0.00000000000E+00 -0.00000000000E+00 -0.12301762500E+04  0.12301762500E+04  0.00000000000E+00 0.  1.
         23    2    1    2    0    0  0.24393747008E+03  0.83245642295E+02 -0.91242539069E+03  0.95220851269E+03  0.88009271119E+02 0.  0.
        254    2    1    2    0    0 -0.24393747008E+03 -0.83245642295E+02  0.44555671594E+03  0.10412753125E+04  0.90515090621E+03 0.  0.
        -24    2    4    4    0    0 -0.36005888461E+03 -0.25182609444E+03 -0.96203734460E+02  0.45675386499E+03  0.79436467902E+02 0.  0.
         24    2    4    4    0    0  0.11612141453E+03  0.16858045215E+03  0.54176045040E+03  0.58452144750E+03  0.79103635900E+02 0.  0.
         11    1    3    3    0    0  0.72713206966E+01 -0.87660067961E+01 -0.10944514992E+03  0.11003615688E+03  0.00000000000E+00 0. -1.
        -11    1    3    3    0    0  0.23666614938E+03  0.92011649091E+02 -0.80298024076E+03  0.84217235581E+03  0.00000000000E+00 0.  1.
          2    1    6    6  502    0  0.43875378069E+01 -0.81248536684E+01  0.13142978244E+02  0.16062428592E+02  0.00000000000E+00 0. -1.
          3    1    5    5  503    0 -0.12592531989E+03 -0.53722711697E+02 -0.53978222799E+02  0.14716305405E+03  0.00000000000E+00 0. -1.
         -4    1    5    5    0  503 -0.23413356472E+03 -0.19810338275E+03 -0.42225511661E+02  0.30959081094E+03  0.00000000000E+00 0.  1.
         -1    1    6    6    0  502  0.11173387672E+03  0.17670530582E+03  0.52861747215E+03  0.56845901891E+03  0.00000000000E+00 0.  1.
<mgrwt>
<rscale>  0 0.19380432E+04</rscale>
<asrwt>0</asrwt>
<pdfrwt beam="1">  1        1 0.18925788E+00 0.19380432E+04</pdfrwt>
<pdfrwt beam="2">  1       -1 0.11743194E+00 0.19380432E+04</pdfrwt>
<totfact> 0.61826967E+00</totfact>
</mgrwt>
</event>
<event>
12    1  0.1494110E-007  0.1134525E+04  0.7818608E-02  0.9172180E-01
          1   -1    0    0  501    0  0.00000000000E+00  0.00000000000E+00  0.95542856651E+03  0.95542856651E+03  0.00000000000E+00 0. -1.
         -1   -1    0    0    0  501 -0.00000000000E+00 -0.00000000000E+00 -0.33679808978E+03  0.33679808978E+03  0.00000000000E+00 0.  1.
         23    2    1    2    0    0 -0.66111862270E+02 -0.60367560793E+02 -0.27623532443E+02  0.13027264136E+03  0.90514533715E+02 0.  0.
        254    2    1    2    0    0  0.66111862270E+02  0.60367560793E+02  0.64625400916E+03  0.11619540149E+04  0.96149772112E+03 0.  0.
        -24    2    4    4    0    0  0.41499764841E+03  0.27871791101E+03  0.51662244824E+03  0.72334496322E+03  0.80140250138E+02 0.  0.
         24    2    4    4    0    0 -0.34888578614E+03 -0.21835035022E+03  0.12963156093E+03  0.43860905171E+03  0.78583658854E+02 0.  0.
         11    1    3    3    0    0 -0.49159107243E+02 -0.63237498617E+02 -0.55551678717E+02  0.97476089707E+02  0.00000000000E+00 0.  1.
        -11    1    3    3    0    0 -0.16952755028E+02  0.28699378245E+01  0.27928146274E+02  0.32796551655E+02  0.00000000000E+00 0. -1.
          4    1    6    6  502    0 -0.29537280165E+03 -0.16298623894E+03  0.13019536260E+03  0.36160812834E+03  0.00000000000E+00 0. -1.
          3    1    5    5  503    0  0.31622211413E+03  0.17013892681E+03  0.35321957384E+03  0.50369410084E+03  0.00000000000E+00 0. -1.
         -2    1    5    5    0  503  0.98775534280E+02  0.10857898420E+03  0.16340287440E+03  0.21965086238E+03  0.00000000000E+00 0.  1.
         -3    1    6    6    0  502 -0.53512984487E+02 -0.55364111281E+02 -0.56380167554E+00  0.77000923364E+02  0.00000000000E+00 0.  1.
<mgrwt>
<rscale>  0 0.11345246E+04</rscale>
<asrwt>0</asrwt>
<pdfrwt beam="1">  1        1 0.14698901E+00 0.11345246E+04</pdfrwt>
<pdfrwt beam="2">  1       -1 0.51815091E-01 0.11345246E+04</pdfrwt>
<totfact> 0.61151152E+01</totfact>
</mgrwt>
</event>
<event>
12    1  0.1494110E-007  0.1160944E+04  0.7818608E-02  0.9147746E-01
          2   -1    0    0  501    0  0.00000000000E+00  0.00000000000E+00  0.47165956593E+03  0.47165956593E+03  0.00000000000E+00 0. -1.
         -2   -1    0    0    0  501 -0.00000000000E+00 -0.00000000000E+00 -0.71438778755E+03  0.71438778755E+03  0.00000000000E+00 0.  1.
         23    2    1    2    0    0  0.77382793397E+02  0.18350249547E+03  0.32919337673E+02  0.22116525953E+03  0.90383221181E+02 0.  0.
        254    2    1    2    0    0 -0.77382793397E+02 -0.18350249547E+03 -0.27564755930E+03  0.96488209395E+03  0.90296988639E+03 0.  0.
        -24    2    4    4    0    0  0.42562038468E+02 -0.14985717065E+03 -0.59102588926E+03  0.61652142556E+03  0.80736408709E+02 0.  0.
         24    2    4    4    0    0 -0.11994483187E+03 -0.33645324821E+02  0.31537832996E+03  0.34836066839E+03  0.79830405848E+02 0.  0.
         13    1    3    3    0    0  0.78104982727E+02  0.19304569147E+03  0.35502925822E+02  0.21125218357E+03  0.00000000000E+00 0. -1.
        -13    1    3    3    0    0 -0.72218932959E+00 -0.95431959958E+01 -0.25835881489E+01  0.99130759589E+01  0.00000000000E+00 0.  1.
          2    1    6    6  502    0 -0.80277535507E+02 -0.51200882188E+02  0.26655537796E+03  0.28305084802E+03  0.00000000000E+00 0. -1.
          1    1    5    5  503    0  0.43511444282E+02 -0.14573759761E+03 -0.59275282907E+03  0.61195474466E+03  0.00000000000E+00 0. -1.
         -2    1    5    5    0  503 -0.94940581381E+00 -0.41195730345E+01  0.17269398091E+01  0.45666809052E+01  0.00000000000E+00 0.  1.
         -1    1    6    6    0  502 -0.39667296359E+02  0.17555557367E+02  0.48822951999E+02  0.65309820370E+02  0.00000000000E+00 0.  1.
<mgrwt>
<rscale>  0 0.11609442E+04</rscale>
<asrwt>0</asrwt>
<pdfrwt beam="1">  1        2 0.72563010E-01 0.11609442E+04</pdfrwt>
<pdfrwt beam="2">  1       -2 0.10990581E+00 0.11609442E+04</pdfrwt>
<totfact> 0.42910431E+01</totfact>
</mgrwt>
</event>
<event>
12    1  0.1494110E-007  0.1379261E+04  0.7818608E-02  0.8968969E-01
         -4   -1    0    0    0  501 -0.00000000000E+00  0.00000000000E+00  0.10772620982E+04  0.10772620982E+04  0.00000000000E+00 0.  1.
          4   -1    0    0  501    0  0.00000000000E+00 -0.00000000000E+00 -0.44148060488E+03  0.44148060488E+03  0.00000000000E+00 0. -1.
         23    2    1    2    0    0 -0.19284080203E+03 -0.22149504670E+03 -0.10399867592E+03  0.32462894291E+03  0.91217297356E+02 0.  0.
        254    2    1    2    0    0  0.19284080203E+03  0.22149504670E+03  0.73978016927E+03  0.11941137602E+04  0.89016029051E+03 0.  0.
        -24    2    4    4    0    0  0.22022953209E+03  0.48421449493E+03  0.74503895788E+03  0.91911642427E+03  0.82019684794E+02 0.  0.
         24    2    4    4    0    0 -0.27388730064E+02 -0.26271944823E+03 -0.52587886097E+01  0.27499733593E+03  0.76316635795E+02 0.  0.
         11    1    3    3    0    0 -0.74978977787E+02 -0.36560424675E+02 -0.37488276785E+01  0.83501889028E+02  0.00000000000E+00 0.  1.
        -11    1    3    3    0    0 -0.11786182424E+03 -0.18493462203E+03 -0.10024984824E+03  0.24112705388E+03  0.00000000000E+00 0. -1.
          4    1    6    6  502    0 -0.40991996027E+02 -0.15223625318E+03  0.25029118770E+02  0.15963294555E+03  0.00000000000E+00 0. -1.
          3    1    5    5  503    0  0.14837216078E+03  0.35608437396E+03  0.59520365887E+03  0.70927975793E+03  0.00000000000E+00 0. -1.
         -4    1    5    5    0  503  0.71857371310E+02  0.12813012097E+03  0.14983529901E+03  0.20983666634E+03  0.00000000000E+00 0.  1.
         -3    1    6    6    0  502  0.13603265963E+02 -0.11048319505E+03 -0.30287907380E+02  0.11536439037E+03  0.00000000000E+00 0.  1.
<mgrwt>
<rscale>  0 0.13792611E+04</rscale>
<asrwt>0</asrwt>
<pdfrwt beam="1">  1        4 0.67920093E-01 0.13792611E+04</pdfrwt>
<pdfrwt beam="2">  1       -4 0.16573263E+00 0.13792611E+04</pdfrwt>
<totfact> 0.88492759E-01</totfact>
</mgrwt>
</event>
<event>
12    1  0.1494110E-007  0.1488129E+04  0.7818608E-02  0.8892386E-01
         -2   -1    0    0    0  501 -0.00000000000E+00  0.00000000000E+00  0.31895717132E+03  0.31895717132E+03  0.00000000000E+00 0.  1.
          2   -1    0    0  501    0  0.00000000000E+00 -0.00000000000E+00 -0.17357561746E+04  0.17357561746E+04  0.00000000000E+00 0. -1.
         23    2    1    2    0    0  0.23256715355E+03  0.20232779970E+03 -0.88666840430E+03  0.94304103743E+03  0.90119474254E+02 0.  0.
        254    2    1    2    0    0 -0.23256715355E+03 -0.20232779970E+03 -0.53013059897E+03  0.11116723085E+04  0.92722858566E+03 0.  0.
        -24    2    4    4    0    0 -0.60456662652E+02 -0.25149473658E+03  0.21224310061E+03  0.34413349846E+03  0.80474346350E+02 0.  0.
         24    2    4    4    0    0 -0.17211049090E+03  0.49166936879E+02 -0.74237369958E+03  0.76753881004E+03  0.77186179668E+02 0.  0.
         13    1    3    3    0    0  0.23564840234E+03  0.17574332819E+03 -0.82528741587E+03  0.87607945172E+03  0.00000000000E+00 0. -1.
        -13    1    3    3    0    0 -0.30812487906E+01  0.26584471511E+02 -0.61380988430E+02  0.66961585706E+02  0.00000000000E+00 0.  1.
          4    1    6    6  502    0 -0.20530512081E+02  0.31893618506E+02 -0.22372505357E+03  0.22691761594E+03  0.00000000000E+00 0. -1.
          3    1    5    5  503    0 -0.44672955620E+02 -0.45185894860E+02  0.41764243971E+02  0.76037425868E+02  0.00000000000E+00 0. -1.
         -4    1    5    5    0  503 -0.15783707032E+02 -0.20630884172E+03  0.17047885663E+03  0.26809607259E+03  0.00000000000E+00 0.  1.
         -3    1    6    6    0  502 -0.15157997882E+03  0.17273318373E+02 -0.51864864600E+03  0.54062119410E+03  0.00000000000E+00 0.  1.
<mgrwt>
<rscale>  0 0.14881289E+04</rscale>
<asrwt>0</asrwt>
<pdfrwt beam="1">  1        2 0.26703940E+00 0.14881289E+04</pdfrwt>
<pdfrwt beam="2">  1       -2 0.49070335E-01 0.14881289E+04</pdfrwt>
<totfact> 0.35616517E+01</totfact>
</mgrwt>
</event>
<event>
12    1  0.1494110E-007  0.1125714E+04  0.7818608E-02  0.9180485E-01
          1   -1    0    0  501    0  0.00000000000E+00  0.00000000000E+00  0.16763866558E+04  0.16763866558E+04  0.00000000000E+00 0. -1.
         -1   -1    0    0    0  501 -0.00000000000E+00 -0.00000000000E+00 -0.18898276882E+03  0.18898276882E+03  0.00000000000E+00 0.  1.
         23    2    1    2    0    0  0.10700335365E+03 -0.14442907450E+03  0.37352577746E+03  0.42483466173E+03  0.93024234111E+02 0.  0.
        254    2    1    2    0    0 -0.10700335365E+03  0.14442907450E+03  0.11138781096E+04  0.14405347629E+04  0.89560397776E+03 0.  0.
        -24    2    4    4    0    0  0.18279302661E+03  0.14357557598E+03  0.11124188511E+04  0.11392623883E+04  0.80099017967E+02 0.  0.
         24    2    4    4    0    0 -0.28979638027E+03  0.85349851189E+00  0.14592584898E+01  0.30127237458E+03  0.82342235676E+02 0.  0.
         13    1    3    3    0    0  0.24865498586E+02 -0.10338246961E+01  0.12641392944E+02  0.27913556366E+02  0.00000000000E+00 0.  1.
        -13    1    3    3    0    0  0.82137855067E+02 -0.14339524980E+03  0.36088438451E+03  0.39692110537E+03  0.00000000000E+00 0. -1.
          4    1    6    6  502    0 -0.27207547203E+03  0.39089296553E+01  0.23162166371E+02  0.27308758332E+03  0.00000000000E+00 0. -1.
          3    1    5    5  503    0  0.14682578932E+03  0.80601885207E+02  0.87977352537E+03  0.89557575461E+03  0.00000000000E+00 0. -1.
         -4    1    5    5    0  503  0.35967237290E+02  0.62973690776E+02  0.23264532569E+03  0.24368663372E+03  0.00000000000E+00 0.  1.
         -3    1    6    6    0  502 -0.17720908239E+02 -0.30554311434E+01 -0.21702907881E+02  0.28184791267E+02  0.00000000000E+00 0.  1.
<mgrwt>
<rscale>  0 0.11257143E+04</rscale>
<asrwt>0</asrwt>
<pdfrwt beam="1">  1        1 0.25790563E+00 0.11257143E+04</pdfrwt>
<pdfrwt beam="2">  1       -1 0.29074273E-01 0.11257143E+04</pdfrwt>
<totfact> 0.53071093E+01</totfact>
</mgrwt>
</event>
<event>
12    1  0.1494110E-007  0.1136476E+04  0.7818608E-02  0.9170351E-01
         -1   -1    0    0    0  501 -0.00000000000E+00  0.00000000000E+00  0.53874775530E+03  0.53874775530E+03  0.00000000000E+00 0.  1.
          1   -1    0    0  501    0  0.00000000000E+00 -0.00000000000E+00 -0.59934284314E+03  0.59934284314E+03  0.00000000000E+00 0. -1.
         23    2    1    2    0    0 -0.15955949548E+03  0.11407471024E+03  0.32897225030E+01  0.21657123174E+03  0.91760579927E+02 0.  0.
        254    2    1    2    0    0  0.15955949548E+03 -0.11407471024E+03 -0.63884810343E+02  0.92151936670E+03  0.89813384420E+03 0.  0.
        -24    2    4    4    0    0 -0.23783244624E+03  0.14619137297E+03 -0.27094109544E+03  0.39736398850E+03  0.80949812513E+02 0.  0.
         24    2    4    4    0    0  0.39739194172E+03 -0.26026608320E+03  0.20705628510E+03  0.52415537820E+03  0.78789376763E+02 0.  0.
         13    1    3    3    0    0 -0.22999376524E+02  0.67079706293E+01  0.32544571531E+02  0.40411846364E+02  0.00000000000E+00 0.  1.
        -13    1    3    3    0    0 -0.13656011896E+03  0.10736673961E+03 -0.29254849028E+02  0.17615938537E+03  0.00000000000E+00 0. -1.
          4    1    6    6  502    0  0.14823535249E+03 -0.11731095329E+03  0.44921749271E+02  0.19430270983E+03  0.00000000000E+00 0. -1.
          1    1    5    5  503    0 -0.41101149068E+02  0.56033258867E+02 -0.37184658876E+02  0.78814525373E+02  0.00000000000E+00 0. -1.
         -2    1    5    5    0  503 -0.19673129717E+03  0.90158114098E+02 -0.23375643656E+03  0.31854946313E+03  0.00000000000E+00 0.  1.
         -3    1    6    6    0  502  0.24915658923E+03 -0.14295512991E+03  0.16213453583E+03  0.32985266837E+03  0.00000000000E+00 0.  1.
<mgrwt>
<rscale>  0 0.11364763E+04</rscale>
<asrwt>0</asrwt>
<pdfrwt beam="1">  1        1 0.92206591E-01 0.11364763E+04</pdfrwt>
<pdfrwt beam="2">  1       -1 0.82884271E-01 0.11364763E+04</pdfrwt>
<totfact> 0.49329991E+01</totfact>
</mgrwt>
</event>
<event>
12    1  0.1494110E-007  0.1944052E+04  0.7818608E-02  0.8633234E-01
          1   -1    0    0  501    0  0.00000000000E+00  0.00000000000E+00  0.11096044617E+04  0.11096044617E+04  0.00000000000E+00 0. -1.
         -1   -1    0    0    0  501 -0.00000000000E+00 -0.00000000000E+00 -0.85150556405E+03  0.85150556405E+03  0.00000000000E+00 0.  1.
         23    2    1    2    0    0  0.58489217988E+03  0.46631387376E+03 -0.74120297972E+01  0.75360988474E+03  0.91243790133E+02 0.  0.
        254    2    1    2    0    0 -0.58489217988E+03 -0.46631387376E+03  0.26551092745E+03  0.12075001410E+04  0.90995222238E+03 0.  0.
        -24    2    4    4    0    0 -0.69328947463E+03 -0.38842200602E+03  0.48774788424E+03  0.93592864876E+03  0.80885638965E+02 0.  0.
         24    2    4    4    0    0  0.10839729475E+03 -0.77891867740E+02 -0.22223695679E+03  0.27157149226E+03  0.80899282288E+02 0.  0.
         13    1    3    3    0    0  0.48188467862E+03  0.39421780045E+03  0.27250806680E+02  0.62318787227E+03  0.00000000000E+00 0.  1.
        -13    1    3    3    0    0  0.10300750126E+03  0.72096073312E+02 -0.34662836477E+02  0.13042201246E+03  0.00000000000E+00 0. -1.
          4    1    6    6  502    0  0.12115134904E+03 -0.66838039138E+02 -0.18831155575E+03  0.23367972715E+03  0.00000000000E+00 0. -1.
          3    1    5    5  503    0 -0.32698105310E+03 -0.13940423758E+03  0.23183141345E+03  0.42437713746E+03  0.00000000000E+00 0. -1.
         -4    1    5    5    0  503 -0.36630842154E+03 -0.24901776844E+03  0.25591647079E+03  0.51155151130E+03  0.00000000000E+00 0.  1.
         -3    1    6    6    0  502 -0.12754054289E+02 -0.11053828602E+02 -0.33925401039E+02  0.37891765111E+02  0.00000000000E+00 0.  1.
<mgrwt>
<rscale>  0 0.19440518E+04</rscale>
<asrwt>0</asrwt>
<pdfrwt beam="1">  1        1 0.17070838E+00 0.19440518E+04</pdfrwt>
<pdfrwt beam="2">  1       -1 0.13100086E+00 0.19440518E+04</pdfrwt>
<totfact> 0.57816682E+00</totfact>
</mgrwt>
</event>
<event>
12    1  0.1494110E-007  0.1706757E+04  0.7818608E-02  0.8757520E-01
          2   -1    0    0  501    0  0.00000000000E+00  0.00000000000E+00  0.35377100170E+04  0.35377100170E+04  0.00000000000E+00 0. -1.
         -2   -1    0    0    0  501 -0.00000000000E+00 -0.00000000000E+00 -0.20585482552E+03  0.20585482552E+03  0.00000000000E+00 0.  1.
         23    2    1    2    0    0 -0.15113320430E+03  0.56325436634E+03  0.15716285703E+04  0.16788580608E+04  0.91930946152E+02 0.  0.
        254    2    1    2    0    0  0.15113320430E+03 -0.56325436634E+03  0.17602266212E+04  0.20647067817E+04  0.90803062158E+03 0.  0.
        -24    2    4    4    0    0  0.52360404188E+02 -0.41779952526E+03  0.18139305259E+04  0.18637581674E+04  0.77152438438E+02 0.  0.
         24    2    4    4    0    0  0.98772800115E+02 -0.14545484107E+03 -0.53703904657E+02  0.20094861426E+03  0.81136054655E+02 0.  0.
         11    1    3    3    0    0  0.10176174710E+02  0.50743907042E+02  0.17301592354E+03  0.18059072079E+03  0.00000000000E+00 0. -1.
        -11    1    3    3    0    0 -0.16130937901E+03  0.51251045929E+03  0.13986126467E+04  0.14982673400E+04  0.00000000000E+00 0.  1.
          2    1    6    6  502    0 -0.13620096021E+02 -0.84053722223E+01 -0.99748488098E+00  0.16035968131E+02  0.00000000000E+00 0. -1.
          1    1    5    5  503    0  0.10299454920E+02 -0.35205187365E+01  0.67421026579E+02  0.68293979594E+02  0.00000000000E+00 0. -1.
         -2    1    5    5    0  503  0.42060949268E+02 -0.41427900653E+03  0.17465094993E+04  0.17954641879E+04  0.00000000000E+00 0.  1.
         -1    1    6    6    0  502  0.11239289614E+03 -0.13704946885E+03 -0.52706419776E+02  0.18491264613E+03  0.00000000000E+00 0.  1.
<mgrwt>
<rscale>  0 0.17067568E+04</rscale>
<asrwt>0</asrwt>
<pdfrwt beam="1">  1        2 0.54426303E+00 0.17067568E+04</pdfrwt>
<pdfrwt beam="2">  1       -2 0.31669976E-01 0.17067568E+04</pdfrwt>
<totfact> 0.68072930E+00</totfact>
</mgrwt>
</event>
<event>
12    1  0.1494110E-007  0.1104502E+04  0.7818608E-02  0.9200815E-01
         -2   -1    0    0    0  501 -0.00000000000E+00  0.00000000000E+00  0.20620224279E+03  0.20620224279E+03  0.00000000000E+00 0. -1.
          2   -1    0    0  501    0  0.00000000000E+00 -0.00000000000E+00 -0.14790389570E+04  0.14790389570E+04  0.00000000000E+00 0.  1.
         23    2    1    2    0    0 -0.81419243766E+02 -0.14500686176E+03 -0.22824844780E+03  0.29581384309E+03  0.88047672485E+02 0.  0.
        254    2    1    2    0    0  0.81419243766E+02  0.14500686176E+03 -0.10445882664E+04  0.13894273567E+04  0.90093709548E+03 0.  0.
        -24    2    4    4    0    0  0.24067383002E+03  0.41977176649E+03 -0.91283729142E+03  0.10363969848E+04  0.81942425229E+02 0.  0.
         24    2    4    4    0    0 -0.15925458626E+03 -0.27476490472E+03 -0.13175097501E+03  0.35303037193E+03  0.80089624680E+02 0.  0.
         13    1    3    3    0    0 -0.47388919307E+02 -0.11925081914E+03 -0.21629103400E+03  0.25149210510E+03  0.00000000000E+00 0.  1.
        -13    1    3    3    0    0 -0.34030324459E+02 -0.25756042623E+02 -0.11957413803E+02  0.44321737999E+02  0.00000000000E+00 0. -1.
          2    1    6    6  502    0 -0.15500808268E+03 -0.20203161203E+03 -0.10074683274E+03  0.27385069338E+03  0.00000000000E+00 0. -1.
          1    1    5    5  503    0  0.11236696279E+03  0.23454874049E+03 -0.56459519161E+03  0.62161658309E+03  0.00000000000E+00 0. -1.
         -2    1    5    5    0  503  0.12830686723E+03  0.18522302600E+03 -0.34824209981E+03  0.41478040169E+03  0.00000000000E+00 0.  1.
         -1    1    6    6    0  502 -0.42465035739E+01 -0.72733292693E+02 -0.31004142270E+02  0.79179678558E+02  0.00000000000E+00 0.  1.
<mgrwt>
<rscale>  0 0.11045020E+04</rscale>
<asrwt>0</asrwt>
<pdfrwt beam="1">  1        2 0.22754445E+00 0.11045020E+04</pdfrwt>
<pdfrwt beam="2">  1       -2 0.31723422E-01 0.11045020E+04</pdfrwt>
<totfact> 0.11947387E+02</totfact>
</mgrwt>
</event>
<event>
12    1  0.1494110E-007  0.3237888E+04  0.7818608E-02  0.8178882E-01
         -1   -1    0    0    0  501 -0.00000000000E+00  0.00000000000E+00  0.10271881991E+04  0.10271881991E+04  0.00000000000E+00 0.  1.
          1   -1    0    0  501    0  0.00000000000E+00 -0.00000000000E+00 -0.25516059372E+04  0.25516059372E+04  0.00000000000E+00 0. -1.
         23    2    1    2    0    0  0.12856216544E+04 -0.10688230740E+03  0.13826367525E+03  0.13004115618E+04  0.87786788073E+02 0.  0.
        254    2    1    2    0    0 -0.12856216544E+04  0.10688230740E+03 -0.16626814133E+04  0.22783825745E+04  0.87308121488E+03 0.  0.
        -24    2    4    4    0    0 -0.45327771467E+03  0.16807820017E+03 -0.92704298378E+02  0.49863287934E+03  0.79559370463E+02 0.  0.
         24    2    4    4    0    0 -0.83234393975E+03 -0.61195892767E+02 -0.15699771149E+04  0.17797496952E+04  0.78354736884E+02 0.  0.
         13    1    3    3    0    0  0.11148552516E+04 -0.91713051758E+02  0.14969032506E+03  0.11285923574E+04  0.00000000000E+00 0.  1.
        -13    1    3    3    0    0  0.17076640286E+03 -0.15169255647E+02 -0.11426649809E+02  0.17181920437E+03  0.00000000000E+00 0. -1.
          2    1    6    6  502    0 -0.73466956053E+03 -0.75293808194E+02 -0.13545509261E+04  0.15427951037E+04  0.00000000000E+00 0. -1.
          3    1    5    5  503    0 -0.34972766941E+03  0.16077103388E+03 -0.58476100965E+02  0.38932791124E+03  0.00000000000E+00 0. -1.
         -4    1    5    5    0  503 -0.10355004526E+03  0.73071662906E+01 -0.34228197413E+02  0.10930496810E+03  0.00000000000E+00 0.  1.
         -1    1    6    6    0  502 -0.97674379215E+02  0.14097915427E+02 -0.21542618884E+03  0.23695459145E+03  0.00000000000E+00 0.  1.
<mgrwt>
<rscale>  0 0.32378879E+04</rscale>
<asrwt>0</asrwt>
<pdfrwt beam="1">  1        1 0.39255476E+00 0.32378879E+04</pdfrwt>
<pdfrwt beam="2">  1       -1 0.15802895E+00 0.32378879E+04</pdfrwt>
<totfact> 0.31453894E-01</totfact>
</mgrwt>
</event>
<event>
12    1  0.1494110E-007  0.1029675E+04  0.7818608E-02  0.9276583E-01
         -2   -1    0    0    0  501 -0.00000000000E+00  0.00000000000E+00  0.75877806812E+03  0.75877806812E+03  0.00000000000E+00 0.  1.
          2   -1    0    0  501    0  0.00000000000E+00 -0.00000000000E+00 -0.34932197293E+03  0.34932197293E+03  0.00000000000E+00 0. -1.
         23    2    1    2    0    0  0.36109136039E+02 -0.31923591491E+02  0.12112822719E+03  0.16061261352E+03  0.93815663941E+02 0.  0.
        254    2    1    2    0    0 -0.36109136039E+02  0.31923591491E+02  0.28832786800E+03  0.94748742754E+03  0.90126382402E+03 0.  0.
        -24    2    4    4    0    0 -0.31580064043E+03  0.19351629299E+03 -0.14060083156E+03  0.40482333575E+03  0.83275081440E+02 0.  0.
         24    2    4    4    0    0  0.27969150439E+03 -0.16159270149E+03  0.42892869956E+03  0.54266409179E+03  0.78517185424E+02 0.  0.
         11    1    3    3    0    0  0.18449842355E+02 -0.26508157875E+02 -0.53984444230E+01  0.32744805986E+02  0.00000000000E+00 0. -1.
        -11    1    3    3    0    0  0.17659293684E+02 -0.54154336160E+01  0.12652667161E+03  0.12786780753E+03  0.00000000000E+00 0.  1.
          2    1    6    6  502    0  0.22144016235E+03 -0.13623012102E+03  0.28750826251E+03  0.38762790455E+03  0.00000000000E+00 0. -1.
          1    1    5    5  503    0 -0.28316078580E+03  0.15347166559E+03 -0.14451618167E+03  0.35301346932E+03  0.00000000000E+00 0. -1.
         -2    1    5    5    0  503 -0.32639854623E+02  0.40044627396E+02  0.39153501149E+01  0.51809866431E+02  0.00000000000E+00 0.  1.
         -1    1    6    6    0  502  0.58251342037E+02 -0.25362580474E+02  0.14142043705E+03  0.15503618724E+03  0.00000000000E+00 0.  1.
<mgrwt>
<rscale>  0 0.10296754E+04</rscale>
<asrwt>0</asrwt>
<pdfrwt beam="1">  1        2 0.53741842E-01 0.10296754E+04</pdfrwt>
<pdfrwt beam="2">  1       -2 0.11673509E+00 0.10296754E+04</pdfrwt>
<totfact> 0.52459195E+01</totfact>
</mgrwt>
</event>
<event>
12    1  0.1494110E-007  0.1870711E+04  0.7818608E-02  0.8669574E-01
          2   -1    0    0  501    0  0.00000000000E+00  0.00000000000E+00  0.26111379709E+04  0.26111379709E+04  0.00000000000E+00 0.  1.
         -2   -1    0    0    0  501 -0.00000000000E+00 -0.00000000000E+00 -0.33506075293E+03  0.33506075293E+03  0.00000000000E+00 0. -1.
         23    2    1    2    0    0 -0.40348403193E+02 -0.88261844087E+02 -0.23286008276E+03  0.26845305130E+03  0.91788211928E+02 0.  0.
        254    2    1    2    0    0  0.40348403193E+02  0.88261844087E+02  0.25089373007E+04  0.26777456725E+04  0.93066501007E+03 0.  0.
        -24    2    4    4    0    0 -0.38936643571E+03 -0.73517086567E+02  0.16689207915E+04  0.17171696319E+04  0.79774389749E+02 0.  0.
         24    2    4    4    0    0  0.42971483891E+03  0.16177893065E+03  0.84001650922E+03  0.96057604058E+03  0.79065345088E+02 0.  0.
         11    1    3    3    0    0  0.26799964740E+02 -0.42640416639E+02 -0.11269058181E+03  0.12343261510E+03  0.00000000000E+00 0. -1.
        -11    1    3    3    0    0 -0.67148367933E+02 -0.45621427448E+02 -0.12016950095E+03  0.14502043620E+03  0.00000000000E+00 0.  1.
          2    1    6    6  502    0  0.37422433979E+03  0.12505690523E+03  0.76153912183E+03  0.85768579335E+03  0.00000000000E+00 0. -1.
          1    1    5    5  503    0 -0.38226074318E+03 -0.73941569820E+02  0.16628213649E+04  0.17077955156E+04  0.00000000000E+00 0. -1.
         -2    1    5    5    0  503 -0.71056925339E+01  0.42448325286E+00  0.60994266245E+01  0.93741163619E+01  0.00000000000E+00 0.  1.
         -1    1    6    6    0  502  0.55490499113E+02  0.36722025427E+02  0.78477387391E+02  0.10289024723E+03  0.00000000000E+00 0.  1.
<mgrwt>
<rscale>  0 0.18707109E+04</rscale>
<asrwt>0</asrwt>
<pdfrwt beam="1">  1        2 0.40171352E+00 0.18707109E+04</pdfrwt>
<pdfrwt beam="2">  1       -2 0.51547810E-01 0.18707109E+04</pdfrwt>
<totfact> 0.10017467E+01</totfact>
</mgrwt>
</event>
<event>
12    1  0.1494110E-007  0.2090412E+04  0.7818608E-02  0.8565479E-01
         -2   -1    0    0    0  501 -0.00000000000E+00  0.00000000000E+00  0.49863267764E+03  0.49863267764E+03  0.00000000000E+00 0. -1.
          2   -1    0    0  501    0  0.00000000000E+00 -0.00000000000E+00 -0.21909027166E+04  0.21909027166E+04  0.00000000000E+00 0.  1.
         23    2    1    2    0    0 -0.26746893161E+03  0.55052596781E+03  0.65866985534E+02  0.62192542755E+03  0.88511620928E+02 0.  0.
        254    2    1    2    0    0  0.26746893161E+03 -0.55052596781E+03 -0.17581370245E+04  0.20676099667E+04  0.89963698614E+03 0.  0.
        -24    2    4    4    0    0  0.19016775014E+03 -0.46575992250E+03 -0.18376344140E+04  0.19069242315E+04  0.79772844888E+02 0.  0.
         24    2    4    4    0    0  0.77301181473E+02 -0.84766045307E+02  0.79497389469E+02  0.16068573516E+03  0.79619818250E+02 0.  0.
         13    1    3    3    0    0 -0.17989424198E+03  0.36539671474E+03  0.85603869230E+02  0.41617871146E+03  0.00000000000E+00 0. -1.
        -13    1    3    3    0    0 -0.87574689635E+02  0.18512925307E+03 -0.19736883696E+02  0.20574671609E+03  0.00000000000E+00 0.  1.
          2    1    6    6  502    0  0.72586613375E+02 -0.86435349563E+02  0.93023658488E+02  0.14626444248E+03  0.00000000000E+00 0. -1.
          3    1    5    5  503    0  0.19200345574E+03 -0.44823676807E+03 -0.17130915003E+04  0.17811412116E+04  0.00000000000E+00 0. -1.
         -4    1    5    5    0  503 -0.18357056025E+01 -0.17523154430E+02 -0.12454291368E+03  0.12578301993E+03  0.00000000000E+00 0.  1.
         -1    1    6    6    0  502  0.47145680973E+01  0.16693042559E+01 -0.13526269020E+02  0.14421292682E+02  0.00000000000E+00 0.  1.
<mgrwt>
<rscale>  0 0.20904121E+04</rscale>
<asrwt>0</asrwt>
<pdfrwt beam="1">  1        2 0.33706195E+00 0.20904121E+04</pdfrwt>
<pdfrwt beam="2">  1       -2 0.76712721E-01 0.20904121E+04</pdfrwt>
<totfact> 0.73174347E+00</totfact>
</mgrwt>
</event>
<event>
12    1  0.1494110E-007  0.1559016E+04  0.7818608E-02  0.8846130E-01
         -4   -1    0    0    0  501 -0.00000000000E+00  0.00000000000E+00  0.63974870613E+03  0.63974870613E+03  0.00000000000E+00 0.  1.
          4   -1    0    0  501    0  0.00000000000E+00 -0.00000000000E+00 -0.94979864895E+03  0.94979864895E+03  0.00000000000E+00 0. -1.
         23    2    1    2    0    0  0.63065115952E+02 -0.22130543035E+03  0.36171562360E+03  0.43842128695E+03  0.91769984937E+02 0.  0.
        254    2    1    2    0    0 -0.63065115952E+02  0.22130543035E+03 -0.67176556642E+03  0.11511260681E+04  0.90601818202E+03 0.  0.
        -24    2    4    4    0    0 -0.13757689701E+03  0.22663797513E+03  0.15477655188E+03  0.31723298914E+03  0.79930057061E+02 0.  0.
         24    2    4    4    0    0  0.74511781054E+02 -0.53325447789E+01 -0.82654211831E+03  0.83389307900E+03  0.81396267242E+02 0.  0.
         13    1    3    3    0    0 -0.22822846707E+02 -0.43958151197E+02  0.90688376281E+02  0.10333239076E+03  0.00000000000E+00 0. -1.
        -13    1    3    3    0    0  0.85887962659E+02 -0.17734727916E+03  0.27102724732E+03  0.33508889618E+03  0.00000000000E+00 0.  1.
          4    1    6    6  502    0  0.87018514985E+02  0.98774273673E+01 -0.58110141433E+03  0.58766371273E+03  0.00000000000E+00 0. -1.
          3    1    5    5  503    0 -0.81422649541E+02  0.90728595303E+02  0.10814793135E+03  0.16296410930E+03  0.00000000000E+00 0. -1.
         -4    1    5    5    0  503 -0.56154247465E+02  0.13590937983E+03  0.46628620533E+02  0.15426887984E+03  0.00000000000E+00 0.  1.
         -3    1    6    6    0  502 -0.12506733930E+02 -0.15209972146E+02 -0.24544070397E+03  0.24622936627E+03  0.00000000000E+00 0.  1.
<mgrwt>
<rscale>  0 0.15590157E+04</rscale>
<asrwt>0</asrwt>
<pdfrwt beam="1">  1        4 0.14612287E+00 0.15590157E+04</pdfrwt>
<pdfrwt beam="2">  1       -4 0.98422878E-01 0.15590157E+04</pdfrwt>
<totfact> 0.52682205E-01</totfact>
</mgrwt>
</event>
<event>
12    1  0.1494110E-007  0.1573277E+04  0.7818608E-02  0.8837135E-01
          2   -1    0    0  501    0  0.00000000000E+00  0.00000000000E+00  0.31154878648E+04  0.31154878648E+04  0.00000000000E+00 0. -1.
         -2   -1    0    0    0  501 -0.00000000000E+00 -0.00000000000E+00 -0.19862061526E+03  0.19862061526E+03  0.00000000000E+00 0.  1.
         23    2    1    2    0    0 -0.52417250292E+03 -0.37896126824E+02  0.93123721848E+03  0.10731515162E+04  0.90876237137E+02 0.  0.
        254    2    1    2    0    0  0.52417250292E+03  0.37896126824E+02  0.19856300310E+04  0.22409569638E+04  0.89608513221E+03 0.  0.
        -24    2    4    4    0    0  0.68273942024E+03  0.27408015443E+03  0.15029741227E+04  0.16752319794E+04  0.78853815737E+02 0.  0.
         24    2    4    4    0    0 -0.15856691731E+03 -0.23618402761E+03  0.48265590835E+03  0.56572498442E+03  0.78496305416E+02 0.  0.
         13    1    3    3    0    0 -0.27224147291E+03 -0.51963527971E+02  0.55151135828E+03  0.61723610242E+03  0.00000000000E+00 0. -1.
        -13    1    3    3    0    0 -0.25193103002E+03  0.14067401147E+02  0.37972586019E+03  0.45591541382E+03  0.00000000000E+00 0.  1.
          2    1    6    6  502    0 -0.16060273965E+03 -0.20580679987E+03  0.40009827286E+03  0.47773246362E+03  0.00000000000E+00 0. -1.
          1    1    5    5  503    0  0.66541560291E+03  0.25237971700E+03  0.14341748863E+04  0.16010406149E+04  0.00000000000E+00 0. -1.
         -2    1    5    5    0  503  0.17323817329E+02  0.21700437431E+02  0.68799236388E+02  0.74191364451E+02  0.00000000000E+00 0.  1.
         -1    1    6    6    0  502  0.20358223331E+01 -0.30377227740E+02  0.82557635492E+02  0.87992520795E+02  0.00000000000E+00 0.  1.
<mgrwt>
<rscale>  0 0.15732770E+04</rscale>
<asrwt>0</asrwt>
<pdfrwt beam="1">  1        2 0.47930579E+00 0.15732770E+04</pdfrwt>
<pdfrwt beam="2">  1       -2 0.30557020E-01 0.15732770E+04</pdfrwt>
<totfact> 0.14108273E+01</totfact>
</mgrwt>
</event>
<event>
12    1  0.1494110E-007  0.1765602E+04  0.7818608E-02  0.8724809E-01
          2   -1    0    0  501    0  0.00000000000E+00  0.00000000000E+00  0.93057570774E+03  0.93057570774E+03  0.00000000000E+00 0. -1.
         -2   -1    0    0    0  501 -0.00000000000E+00 -0.00000000000E+00 -0.83747938932E+03  0.83747938932E+03  0.00000000000E+00 0.  1.
         23    2    1    2    0    0  0.67023528204E+02  0.29947045900E+03  0.56819410546E+03  0.65226918817E+03  0.91846846468E+02 0.  0.
        254    2    1    2    0    0 -0.67023528204E+02 -0.29947045900E+03 -0.47509778704E+03  0.11157859089E+04  0.96181369197E+03 0.  0.
        -24    2    4    4    0    0  0.31057584184E+03 -0.15344501865E+03 -0.58835876974E+03  0.68732345493E+03  0.79023809623E+02 0.  0.
         24    2    4    4    0    0 -0.37759937004E+03 -0.14602544035E+03  0.11326098270E+03  0.42846245395E+03  0.82748478896E+02 0.  0.
         13    1    3    3    0    0  0.27481000689E+02  0.24556657130E+03  0.38724662082E+03  0.45936705550E+03  0.00000000000E+00 0. -1.
        -13    1    3    3    0    0  0.39542527515E+02  0.53903887701E+02  0.18094748464E+03  0.19290213267E+03  0.00000000000E+00 0.  1.
          2    1    6    6  502    0 -0.36893317703E+02 -0.44229680398E+02  0.17770050489E+02  0.60275668504E+02  0.00000000000E+00 0. -1.
          3    1    5    5  503    0  0.58069050234E+02 -0.26079327523E+01 -0.66836472043E+02  0.88577253872E+02  0.00000000000E+00 0. -1.
         -4    1    5    5    0  503  0.25250679160E+03 -0.15083708589E+03 -0.52152229770E+03  0.59874620106E+03  0.00000000000E+00 0.  1.
         -1    1    6    6    0  502 -0.34070605234E+03 -0.10179575995E+03  0.95490932210E+02  0.36818678545E+03  0.00000000000E+00 0.  1.
<mgrwt>
<rscale>  0 0.17656024E+04</rscale>
<asrwt>0</asrwt>
<pdfrwt beam="1">  1        2 0.14316549E+00 0.17656024E+04</pdfrwt>
<pdfrwt beam="2">  1       -2 0.12884298E+00 0.17656024E+04</pdfrwt>
<totfact> 0.11760732E+01</totfact>
</mgrwt>
</event>
<event>
12    1  0.1494110E-007  0.2267472E+04  0.7818608E-02  0.8490858E-01
         -2   -1    0    0    0  501 -0.00000000000E+00  0.00000000000E+00  0.40182315568E+03  0.40182315568E+03  0.00000000000E+00 0.  1.
          2   -1    0    0  501    0  0.00000000000E+00 -0.00000000000E+00 -0.31988125708E+04  0.31988125708E+04  0.00000000000E+00 0. -1.
         23    2    1    2    0    0  0.92343041599E+03  0.30683518345E+03 -0.12614091845E+04  0.15957317254E+04  0.91296472363E+02 0.  0.
        254    2    1    2    0    0 -0.92343041599E+03 -0.30683518345E+03 -0.15355802307E+04  0.20049040011E+04  0.84543589097E+03 0.  0.
        -24    2    4    4    0    0 -0.90314498930E+03 -0.22714002943E+03 -0.16145133089E+04  0.18655408570E+04  0.79536152870E+02 0.  0.
         24    2    4    4    0    0 -0.20285426686E+02 -0.79695154017E+02  0.78933078267E+02  0.13936314411E+03  0.80180041047E+02 0.  0.
         11    1    3    3    0    0  0.88531329912E+03  0.27537680204E+03 -0.12106226194E+04  0.15248669277E+04  0.00000000000E+00 0.  1.
        -11    1    3    3    0    0  0.38117116869E+02  0.31458381413E+02 -0.50786565115E+02  0.70864797718E+02  0.00000000000E+00 0. -1.
          4    1    6    6  502    0  0.15794700638E+00 -0.91251676702E+02  0.65293542690E+02  0.11220579381E+03  0.00000000000E+00 0. -1.
          3    1    5    5  503    0 -0.85210408994E+03 -0.20996580299E+03 -0.14797351232E+04  0.17204020034E+04  0.00000000000E+00 0. -1.
         -4    1    5    5    0  503 -0.51040899362E+02 -0.17174226442E+02 -0.13477818570E+03  0.14513885352E+03  0.00000000000E+00 0.  1.
         -3    1    6    6    0  502 -0.20443373692E+02  0.11556522685E+02  0.13639535577E+02  0.27157350298E+02  0.00000000000E+00 0.  1.
<mgrwt>
<rscale>  0 0.22674717E+04</rscale>
<asrwt>0</asrwt>
<pdfrwt beam="1">  1        2 0.49212499E+00 0.22674717E+04</pdfrwt>
<pdfrwt beam="2">  1       -2 0.61818949E-01 0.22674717E+04</pdfrwt>
<totfact> 0.28750671E+00</totfact>
</mgrwt>
</event>
<event>
12    1  0.1494110E-007  0.1900462E+04  0.7818608E-02  0.8654626E-01
         -1   -1    0    0    0  501 -0.00000000000E+00  0.00000000000E+00  0.68922973940E+03  0.68922973940E+03  0.00000000000E+00 0.  1.
          1   -1    0    0  501    0  0.00000000000E+00 -0.00000000000E+00 -0.13100703220E+04  0.13100703220E+04  0.00000000000E+00 0. -1.
         23    2    1    2    0    0 -0.96685341051E+02  0.50098769743E+02  0.52412650447E+03  0.53938981834E+03  0.66142584946E+02 0.  0.
        254    2    1    2    0    0  0.96685341051E+02 -0.50098769743E+02 -0.11449670870E+04  0.14599102430E+04  0.89918315452E+03 0.  0.
        -24    2    4    4    0    0 -0.43608446319E+02  0.40462333947E+03 -0.42425343996E+03  0.59272814204E+03  0.75590512746E+02 0.  0.
         24    2    4    4    0    0  0.14029378737E+03 -0.45472210921E+03 -0.72071364707E+03  0.86718210098E+03  0.78243797196E+02 0.  0.
         13    1    3    3    0    0 -0.47359068085E+02  0.46358991614E+02  0.18170137398E+03  0.19340999648E+03  0.00000000000E+00 0. -1.
        -13    1    3    3    0    0 -0.49326272966E+02  0.37397781297E+01  0.34242513049E+03  0.34597982186E+03  0.00000000000E+00 0.  1.
          2    1    6    6  502    0  0.12914006181E+03 -0.34587184579E+03 -0.50815366400E+03  0.62811196097E+03  0.00000000000E+00 0. -1.
          3    1    5    5  503    0 -0.27435356342E+02  0.33912639653E+03 -0.38833580624E+03  0.51629846989E+03  0.00000000000E+00 0. -1.
         -4    1    5    5    0  503 -0.16173089977E+02  0.65496942932E+02 -0.35917633723E+02  0.76429672151E+02  0.00000000000E+00 0.  1.
         -1    1    6    6    0  502  0.11153725565E+02 -0.10885026341E+03 -0.21255998307E+03  0.23907014001E+03  0.00000000000E+00 0.  1.
<mgrwt>
<rscale>  0 0.19004625E+04</rscale>
<asrwt>0</asrwt>
<pdfrwt beam="1">  1        1 0.20154928E+00 0.19004625E+04</pdfrwt>
<pdfrwt beam="2">  1       -1 0.10603535E+00 0.19004625E+04</pdfrwt>
<totfact> 0.69262468E+00</totfact>
</mgrwt>
</event>
<event>
12    1  0.1494110E-007  0.2338388E+04  0.7818608E-02  0.8462937E-01
         -2   -1    0    0    0  501 -0.00000000000E+00  0.00000000000E+00  0.63445643324E+03  0.63445643324E+03  0.00000000000E+00 0.  1.
          2   -1    0    0  501    0  0.00000000000E+00 -0.00000000000E+00 -0.21546231095E+04  0.21546231095E+04  0.00000000000E+00 0. -1.
         23    2    1    2    0    0 -0.99116083299E+03 -0.67803837641E+02 -0.60954996955E+03  0.11687410257E+04  0.86065454320E+02 0.  0.
        254    2    1    2    0    0  0.99116083299E+03  0.67803837641E+02 -0.91061670666E+03  0.16203385170E+04  0.89959822481E+03 0.  0.
        -24    2    4    4    0    0  0.18657072969E+03 -0.17225801201E+03 -0.70341145288E+03  0.75202034922E+03  0.79154745467E+02 0.  0.
         24    2    4    4    0    0  0.80459010329E+03  0.24006184965E+03 -0.20720525379E+03  0.86831816781E+03  0.77765656760E+02 0.  0.
         11    1    3    3    0    0 -0.23122609738E+03  0.19422787782E+01 -0.17992256744E+03  0.29298704892E+03  0.00000000000E+00 0.  1.
        -11    1    3    3    0    0 -0.75993473561E+03 -0.69746116419E+02 -0.42962740211E+03  0.87575397674E+03  0.00000000000E+00 0. -1.
          2    1    6    6  502    0  0.29118882946E+03  0.12519243239E+03 -0.69278389312E+02  0.32444348469E+03  0.00000000000E+00 0. -1.
          1    1    5    5  503    0  0.12991277844E+03 -0.70889279756E+02 -0.34948468870E+03  0.37952887588E+03  0.00000000000E+00 0. -1.
         -2    1    5    5    0  503  0.56657951255E+02 -0.10136873225E+03 -0.35392676417E+03  0.37249147335E+03  0.00000000000E+00 0.  1.
         -1    1    6    6    0  502  0.51340127383E+03  0.11486941726E+03 -0.13792686447E+03  0.54387468312E+03  0.00000000000E+00 0.  1.
<mgrwt>
<rscale>  0 0.23383879E+04</rscale>
<asrwt>0</asrwt>
<pdfrwt beam="1">  1        2 0.33148047E+00 0.23383879E+04</pdfrwt>
<pdfrwt beam="2">  1       -2 0.97608684E-01 0.23383879E+04</pdfrwt>
<totfact> 0.43280782E+00</totfact>
</mgrwt>
</event>
<event>
12    1  0.1494110E-007  0.2923477E+04  0.7818608E-02  0.8265927E-01
          2   -1    0    0  501    0  0.00000000000E+00  0.00000000000E+00  0.35399726600E+04  0.35399726600E+04  0.00000000000E+00 0. -1.
         -2   -1    0    0    0  501 -0.00000000000E+00 -0.00000000000E+00 -0.60358637087E+03  0.60358637087E+03  0.00000000000E+00 0.  1.
         23    2    1    2    0    0  0.97526762426E+03 -0.73838614799E+03  0.20404908519E+04  0.23808570132E+04  0.92283032015E+02 0.  0.
        254    2    1    2    0    0 -0.97526762426E+03  0.73838614799E+03  0.89589543720E+03  0.17627020177E+04  0.89895980234E+03 0.  0.
        -24    2    4    4    0    0 -0.80232218177E+03  0.36355995935E+03  0.13679166892E+03  0.89493974802E+03  0.79425842861E+02 0.  0.
         24    2    4    4    0    0 -0.17294544249E+03  0.37482618864E+03  0.75910376828E+03  0.86776226964E+03  0.79799923705E+02 0.  0.
         13    1    3    3    0    0  0.65404601121E+03 -0.44057528840E+03  0.13266245415E+04  0.15433131386E+04  0.00000000000E+00 0. -1.
        -13    1    3    3    0    0  0.32122161305E+03 -0.29781085958E+03  0.71386631041E+03  0.83754387462E+03  0.00000000000E+00 0.  1.
          2    1    6    6  502    0 -0.19242311622E+02  0.34552451246E+02  0.33925264847E+02  0.52106257193E+02  0.00000000000E+00 0. -1.
          3    1    5    5  503    0 -0.40956434838E+02  0.38131335758E+01  0.16472249351E+02  0.44309192511E+02  0.00000000000E+00 0. -1.
         -4    1    5    5    0  503 -0.76136574693E+03  0.35974682577E+03  0.12031941957E+03  0.85063055551E+03  0.00000000000E+00 0.  1.
         -1    1    6    6    0  502 -0.15370313087E+03  0.34027373739E+03  0.72517850344E+03  0.81565601245E+03  0.00000000000E+00 0.  1.
<mgrwt>
<rscale>  0 0.29234769E+04</rscale>
<asrwt>0</asrwt>
<pdfrwt beam="1">  1        2 0.54461116E+00 0.29234769E+04</pdfrwt>
<pdfrwt beam="2">  1       -2 0.92859444E-01 0.29234769E+04</pdfrwt>
<totfact> 0.64476625E-01</totfact>
</mgrwt>
</event>
<event>
12    1  0.1494110E-007  0.1131763E+04  0.7818608E-02  0.9174774E-01
         -2   -1    0    0    0  501 -0.00000000000E+00  0.00000000000E+00  0.62875226136E+03  0.62875226136E+03  0.00000000000E+00 0.  1.
          2   -1    0    0  501    0  0.00000000000E+00 -0.00000000000E+00 -0.50929769984E+03  0.50929769984E+03  0.00000000000E+00 0. -1.
         23    2    1    2    0    0  0.94764454346E+02  0.74718882474E+02  0.87151161835E+02  0.17984388104E+03  0.10092216473E+03 0.  0.
        254    2    1    2    0    0 -0.94764454346E+02 -0.74718882474E+02  0.32303399683E+02  0.95820608016E+03  0.95002745709E+03 0.  0.
        -24    2    4    4    0    0 -0.23341381953E+03 -0.47004784923E+03  0.49850482460E+01  0.53089747934E+03  0.80001819654E+02 0.  0.
         24    2    4    4    0    0  0.13864936518E+03  0.39532896676E+03  0.27318351437E+02  0.42730860082E+03  0.79609733001E+02 0.  0.
         13    1    3    3    0    0 -0.78161101425E+01  0.95119160012E+01  0.51819237933E+02  0.53261632943E+02  0.00000000000E+00 0.  1.
        -13    1    3    3    0    0  0.10258056449E+03  0.65206966473E+02  0.35331923902E+02  0.12658224810E+03  0.00000000000E+00 0. -1.
          2    1    6    6  502    0 -0.57102097972E+00  0.95820337016E+02 -0.84437957975E+00  0.95825758686E+02  0.00000000000E+00 0. -1.
          3    1    5    5  503    0 -0.30804414202E+02 -0.69325930600E+02  0.29022531109E+02  0.81223789002E+02  0.00000000000E+00 0. -1.
         -4    1    5    5    0  503 -0.20260940533E+03 -0.40072191863E+03 -0.24037482863E+02  0.44967369034E+03  0.00000000000E+00 0.  1.
         -1    1    6    6    0  502  0.13922038616E+03  0.29950862974E+03  0.28162731017E+02  0.33148284214E+03  0.00000000000E+00 0.  1.
<mgrwt>
<rscale>  0 0.11317634E+04</rscale>
<asrwt>0</asrwt>
<pdfrwt beam="1">  1        2 0.78353492E-01 0.11317634E+04</pdfrwt>
<pdfrwt beam="2">  1       -2 0.96731118E-01 0.11317634E+04</pdfrwt>
<totfact> 0.53375256E+01</totfact>
</mgrwt>
</event>
<event>
12    1  0.1494110E-007  0.1574442E+04  0.7818608E-02  0.8836405E-01
         -1   -1    0    0    0  501 -0.00000000000E+00  0.00000000000E+00  0.54754025040E+03  0.54754025040E+03  0.00000000000E+00 0.  1.
          1   -1    0    0  501    0  0.00000000000E+00 -0.00000000000E+00 -0.11318196207E+04  0.11318196207E+04  0.00000000000E+00 0. -1.
         23    2    1    2    0    0  0.59142606006E+02  0.19239564860E+03 -0.72095998504E+03  0.75409820151E+03  0.91470563852E+02 0.  0.
        254    2    1    2    0    0 -0.59142606006E+02 -0.19239564860E+03  0.13668061478E+03  0.92526166956E+03  0.89270019225E+03 0.  0.
        -24    2    4    4    0    0 -0.45740083215E+03 -0.86650684167E+02  0.17448296569E+03  0.50353865827E+03  0.79893759062E+02 0.  0.
         24    2    4    4    0    0  0.39825822615E+03 -0.10574496443E+03 -0.37802350909E+02  0.42172301129E+03  0.81422775180E+02 0.  0.
         13    1    3    3    0    0  0.12810080356E+02 -0.32379418549E+01 -0.14630805664E+02  0.19714028015E+02  0.00000000000E+00 0.  1.
        -13    1    3    3    0    0  0.46332525650E+02  0.19563359045E+03 -0.70632917937E+03  0.73438417350E+03  0.00000000000E+00 0. -1.
          4    1    6    6  502    0  0.18497738853E+03 -0.13182516195E+02 -0.37612282661E+02  0.18922234753E+03  0.00000000000E+00 0. -1.
          1    1    5    5  503    0 -0.21672408507E+03 -0.74726155965E+02  0.10893188724E+03  0.25380993576E+03  0.00000000000E+00 0. -1.
         -2    1    5    5    0  503 -0.24067674709E+03 -0.11924528202E+02  0.65551078449E+02  0.24972872251E+03  0.00000000000E+00 0.  1.
         -3    1    6    6    0  502  0.21328083762E+03 -0.92562448235E+02 -0.19006824814E+00  0.23250066375E+03  0.00000000000E+00 0.  1.
<mgrwt>
<rscale>  0 0.15744419E+04</rscale>
<asrwt>0</asrwt>
<pdfrwt beam="1">  1        1 0.17412609E+00 0.15744419E+04</pdfrwt>
<pdfrwt beam="2">  1       -1 0.84236963E-01 0.15744419E+04</pdfrwt>
<totfact> 0.16112262E+01</totfact>
</mgrwt>
</event>
<event>
12    1  0.1494110E-007  0.1119127E+04  0.7818608E-02  0.9186747E-01
         -2   -1    0    0    0  501 -0.00000000000E+00  0.00000000000E+00  0.94920752325E+02  0.94920752325E+02  0.00000000000E+00 0. -1.
          2   -1    0    0  501    0  0.00000000000E+00 -0.00000000000E+00 -0.32986607087E+04  0.32986607087E+04  0.00000000000E+00 0.  1.
         23    2    1    2    0    0  0.14546703298E+03 -0.25121064582E+02 -0.25596300421E+03  0.30987527360E+03  0.93348273115E+02 0.  0.
        254    2    1    2    0    0 -0.14546703298E+03  0.25121064582E+02 -0.29477769522E+04  0.30837061875E+04  0.89334381125E+03 0.  0.
        -24    2    4    4    0    0 -0.16053735330E+03 -0.22028925838E+03 -0.26885329029E+03  0.39233280394E+03  0.85693279708E+02 0.  0.
         24    2    4    4    0    0  0.15070320321E+02  0.24541032297E+03 -0.26789236619E+04  0.26913733835E+04  0.80033505469E+02 0.  0.
         13    1    3    3    0    0  0.18781838723E+02 -0.15903696840E+02 -0.54500613601E+00  0.24616703083E+02  0.00000000000E+00 0. -1.
        -13    1    3    3    0    0  0.12668519425E+03 -0.92173677418E+01 -0.25541799807E+03  0.28525857051E+03  0.00000000000E+00 0.  1.
          4    1    6    6  502    0  0.10335448248E+02 -0.12478909500E+01 -0.64382696530E+02  0.65218941534E+02  0.00000000000E+00 0. -1.
          1    1    5    5  503    0 -0.10967265768E+02 -0.69927182251E+02 -0.44529356740E+02  0.83623892206E+02  0.00000000000E+00 0. -1.
         -2    1    5    5    0  503 -0.14957008753E+03 -0.15036207613E+03 -0.22432393355E+03  0.30870891174E+03  0.00000000000E+00 0.  1.
         -1    1    6    6    0  502  0.47348720727E+01  0.24665821392E+03 -0.26145409654E+04  0.26261544420E+04  0.00000000000E+00 0.  1.
<mgrwt>
<rscale>  0 0.11191271E+04</rscale>
<asrwt>0</asrwt>
<pdfrwt beam="1">  1        2 0.50748619E+00 0.11191271E+04</pdfrwt>
<pdfrwt beam="2">  1       -2 0.14603195E-01 0.11191271E+04</pdfrwt>
<totfact> 0.41707075E+01</totfact>
</mgrwt>
</event>
<event>
12    1  0.1494110E-007  0.1072800E+04  0.7818608E-02  0.9232115E-01
          2   -1    0    0  501    0  0.00000000000E+00  0.00000000000E+00  0.12839246755E+04  0.12839246755E+04  0.00000000000E+00 0. -1.
         -2   -1    0    0    0  501 -0.00000000000E+00 -0.00000000000E+00 -0.22409821286E+03  0.22409821286E+03  0.00000000000E+00 0.  1.
         23    2    1    2    0    0 -0.41228297179E+02 -0.67943371654E+02  0.35089264760E+03  0.37103360107E+03  0.90687423272E+02 0.  0.
        254    2    1    2    0    0  0.41228297179E+02  0.67943371654E+02  0.70893381503E+03  0.11369892873E+04  0.88534818635E+03 0.  0.
        -24    2    4    4    0    0 -0.39877609778E+03  0.14686509384E+03  0.39145118160E+03  0.58285813070E+03  0.76797402234E+02 0.  0.
         24    2    4    4    0    0  0.44000439496E+03 -0.78921722182E+02  0.31748263343E+03  0.55413115659E+03  0.80209789656E+02 0.  0.
         13    1    3    3    0    0  0.24565454883E+02 -0.42620656234E+02  0.12251810174E+03  0.13202525200E+03  0.00000000000E+00 0.  1.
        -13    1    3    3    0    0 -0.65793752061E+02 -0.25322715421E+02  0.22837454587E+03  0.23900834907E+03  0.00000000000E+00 0. -1.
          2    1    6    6  502    0  0.13129312204E+02  0.11905172914E+02  0.11640805627E+02  0.21204252798E+02  0.00000000000E+00 0. -1.
          1    1    5    5  503    0 -0.46464630687E+02  0.65722998533E+01  0.77252276623E+02  0.90388446572E+02  0.00000000000E+00 0. -1.
         -2    1    5    5    0  503 -0.35231146710E+03  0.14029279398E+03  0.31419890498E+03  0.49246968412E+03  0.00000000000E+00 0.  1.
         -1    1    6    6    0  502  0.42687508276E+03 -0.90826895096E+02  0.30584182780E+03  0.53292690379E+03  0.00000000000E+00 0.  1.
<mgrwt>
<rscale>  0 0.10728005E+04</rscale>
<asrwt>0</asrwt>
<pdfrwt beam="1">  1        2 0.19752687E+00 0.10728005E+04</pdfrwt>
<pdfrwt beam="2">  1       -2 0.34476649E-01 0.10728005E+04</pdfrwt>
<totfact> 0.13231790E+02</totfact>
</mgrwt>
</event>
<event>
12    1  0.1494110E-007  0.1410880E+04  0.7818608E-02  0.8945981E-01
          1   -1    0    0  501    0  0.00000000000E+00  0.00000000000E+00  0.78630532129E+03  0.78630532129E+03  0.00000000000E+00 0. -1.
         -1   -1    0    0    0  501 -0.00000000000E+00 -0.00000000000E+00 -0.63289061512E+03  0.63289061512E+03  0.00000000000E+00 0.  1.
         23    2    1    2    0    0  0.32781140156E+03 -0.13033483478E+03 -0.15133784232E+03  0.39410297656E+03  0.89255417038E+02 0.  0.
        254    2    1    2    0    0 -0.32781140156E+03  0.13033483478E+03  0.30475254849E+03  0.10250929598E+04  0.91295891274E+03 0.  0.
        -24    2    4    4    0    0 -0.64354069430E+02 -0.73120210282E+02  0.57478916137E+03  0.58829702049E+03  0.78884680965E+02 0.  0.
         24    2    4    4    0    0 -0.26345733213E+03  0.20345504506E+03 -0.27003661288E+03  0.43679593935E+03  0.84066635024E+02 0.  0.
         11    1    3    3    0    0  0.47926854814E+01 -0.22063058509E+02 -0.40141789482E+01  0.22931681524E+02  0.00000000000E+00 0. -1.
        -11    1    3    3    0    0  0.32301871608E+03 -0.10827177627E+03 -0.14732366337E+03  0.37117129504E+03  0.00000000000E+00 0.  1.
          2    1    6    6  502    0 -0.15140066196E+03  0.15873079122E+03 -0.14446824760E+03  0.26265699893E+03  0.00000000000E+00 0. -1.
          3    1    5    5  503    0 -0.78698701815E+02 -0.38544055338E+02  0.38427849469E+03  0.39414349081E+03  0.00000000000E+00 0. -1.
         -4    1    5    5    0  503  0.14344632385E+02 -0.34576154944E+02  0.19051066668E+03  0.19415352968E+03  0.00000000000E+00 0.  1.
         -1    1    6    6    0  502 -0.11205667017E+03  0.44724253838E+02 -0.12556836528E+03  0.17413894041E+03  0.00000000000E+00 0.  1.
<mgrwt>
<rscale>  0 0.14108795E+04</rscale>
<asrwt>0</asrwt>
<pdfrwt beam="1">  1        1 0.12097005E+00 0.14108795E+04</pdfrwt>
<pdfrwt beam="2">  1       -1 0.97367788E-01 0.14108795E+04</pdfrwt>
<totfact> 0.22437979E+01</totfact>
</mgrwt>
</event>
<event>
12    1  0.1494110E-007  0.1366603E+04  0.7818608E-02  0.8978354E-01
         -1   -1    0    0    0  501 -0.00000000000E+00  0.00000000000E+00  0.79063542200E+03  0.79063542200E+03  0.00000000000E+00 0.  1.
          1   -1    0    0  501    0  0.00000000000E+00 -0.00000000000E+00 -0.59053879705E+03  0.59053879705E+03  0.00000000000E+00 0. -1.
         23    2    1    2    0    0  0.34105310264E+03  0.14960618458E+03 -0.99626698761E+01  0.38343786236E+03  0.90697906335E+02 0.  0.
        254    2    1    2    0    0 -0.34105310264E+03 -0.14960618458E+03  0.21005929483E+03  0.99773635669E+03  0.90147307271E+03 0.  0.
        -24    2    4    4    0    0  0.97307179584E+02  0.89970106661E+02  0.42207151472E+03  0.44892137695E+03  0.76306827006E+02 0.  0.
         24    2    4    4    0    0 -0.43836028223E+03 -0.23957629124E+03 -0.21201221990E+03  0.54881497974E+03  0.81805649253E+02 0.  0.
         11    1    3    3    0    0  0.20851852458E+02  0.38994379601E+02 -0.61755490945E+01  0.44648614737E+02  0.00000000000E+00 0. -1.
        -11    1    3    3    0    0  0.32020125018E+03  0.11061180498E+03 -0.37871207816E+01  0.33878924762E+03  0.00000000000E+00 0.  1.
          2    1    6    6  502    0 -0.42554571929E+03 -0.23002669167E+03 -0.21945045914E+03  0.53118729475E+03  0.00000000000E+00 0. -1.
          3    1    5    5  503    0  0.67402571606E+02  0.50107551006E+02  0.35817423599E+03  0.36788946254E+03  0.00000000000E+00 0. -1.
         -4    1    5    5    0  503  0.29904607978E+02  0.39862555654E+02  0.63897278736E+02  0.81031914401E+02  0.00000000000E+00 0.  1.
         -1    1    6    6    0  502 -0.12814562933E+02 -0.95495995619E+01  0.74382392467E+01  0.17627684988E+02  0.00000000000E+00 0.  1.
<mgrwt>
<rscale>  0 0.13666029E+04</rscale>
<asrwt>0</asrwt>
<pdfrwt beam="1">  1        1 0.90852122E-01 0.13666029E+04</pdfrwt>
<pdfrwt beam="2">  1       -1 0.12163622E+00 0.13666029E+04</pdfrwt>
<totfact> 0.20521118E+01</totfact>
</mgrwt>
</event>
<event>
12    1  0.1494110E-007  0.2497035E+04  0.7818608E-02  0.8404043E-01
          3   -1    0    0  501    0  0.00000000000E+00  0.00000000000E+00  0.11093467097E+04  0.11093467097E+04  0.00000000000E+00 0. -1.
         -3   -1    0    0    0  501 -0.00000000000E+00 -0.00000000000E+00 -0.14051475845E+04  0.14051475845E+04  0.00000000000E+00 0.  1.
         23    2    1    2    0    0  0.94632612095E+03  0.38120574492E+03  0.23560148271E+03  0.10516326500E+04  0.97837747281E+02 0.  0.
        254    2    1    2    0    0 -0.94632612095E+03 -0.38120574492E+03 -0.53140235745E+03  0.14628616442E+04  0.90372826523E+03 0.  0.
        -24    2    4    4    0    0 -0.24893679463E+03 -0.35551099765E+03  0.16714517299E+03  0.47230814242E+03  0.82339998564E+02 0.  0.
         24    2    4    4    0    0 -0.69738932632E+03 -0.25694747264E+02 -0.69854753044E+03  0.99055350177E+03  0.78838411227E+02 0.  0.
         13    1    3    3    0    0  0.66991337704E+03  0.25223312203E+03  0.12201984346E+03  0.72615034447E+03  0.00000000000E+00 0. -1.
        -13    1    3    3    0    0  0.27641274392E+03  0.12897262289E+03  0.11358163925E+03  0.32548230556E+03  0.00000000000E+00 0.  1.
          4    1    6    6  502    0 -0.17894591189E+03 -0.31513704852E+02 -0.21608412859E+03  0.28232446511E+03  0.00000000000E+00 0. -1.
          1    1    5    5  503    0 -0.83886519661E+02 -0.83857798344E+02  0.78777181003E+02  0.14239003747E+03  0.00000000000E+00 0. -1.
         -2    1    5    5    0  503 -0.16505027497E+03 -0.27165319931E+03  0.88367991992E+02  0.32991810495E+03  0.00000000000E+00 0.  1.
         -3    1    6    6    0  502 -0.51844341443E+03  0.58189575884E+01 -0.48246340185E+03  0.70822903666E+03  0.00000000000E+00 0.  1.
<mgrwt>
<rscale>  0 0.24970349E+04</rscale>
<asrwt>0</asrwt>
<pdfrwt beam="1">  1        3 0.17066873E+00 0.24970349E+04</pdfrwt>
<pdfrwt beam="2">  1       -3 0.21617655E+00 0.24970349E+04</pdfrwt>
<totfact> 0.62004070E-02</totfact>
</mgrwt>
</event>
<event>
12    1  0.1494110E-007  0.1816947E+04  0.7818608E-02  0.8697339E-01
          1   -1    0    0  501    0  0.00000000000E+00  0.00000000000E+00  0.17837877210E+04  0.17837877210E+04  0.00000000000E+00 0. -1.
         -1   -1    0    0    0  501 -0.00000000000E+00 -0.00000000000E+00 -0.46268087140E+03  0.46268087140E+03  0.00000000000E+00 0.  1.
         23    2    1    2    0    0 -0.16686022448E+03 -0.16376299288E+03  0.12858906271E+04  0.13101376523E+04  0.91023681947E+02 0.  0.
        254    2    1    2    0    0  0.16686022448E+03  0.16376299288E+03  0.35216222458E+02  0.93633094010E+03  0.90598829723E+03 0.  0.
        -24    2    4    4    0    0  0.12896507043E+03  0.49779205776E+03  0.19531282575E+03  0.55564649705E+03  0.78530297439E+02 0.  0.
         24    2    4    4    0    0  0.37895154057E+02 -0.33402906489E+03 -0.16009660330E+03  0.38068444305E+03  0.79235496498E+02 0.  0.
         13    1    3    3    0    0 -0.15379914643E+03 -0.15705686762E+03  0.12683747932E+04  0.12872822740E+04  0.00000000000E+00 0. -1.
        -13    1    3    3    0    0 -0.13061078053E+02 -0.67061252522E+01  0.17515833949E+02  0.22855378246E+02  0.00000000000E+00 0.  1.
          4    1    6    6  502    0 -0.10800704519E+02 -0.18675930026E+03 -0.11312740284E+03  0.21861724709E+03  0.00000000000E+00 0. -1.
          1    1    5    5  503    0  0.10529247359E+03  0.25849608261E+03  0.11827992142E+03  0.30314496455E+03  0.00000000000E+00 0. -1.
         -2    1    5    5    0  503  0.23672596836E+02  0.23929597515E+03  0.77032904336E+02  0.25250153250E+03  0.00000000000E+00 0.  1.
         -3    1    6    6    0  502  0.48695858575E+02 -0.14726976463E+03 -0.46969200454E+02  0.16206719596E+03  0.00000000000E+00 0.  1.
<mgrwt>
<rscale>  0 0.18169474E+04</rscale>
<asrwt>0</asrwt>
<pdfrwt beam="1">  1        1 0.27442888E+00 0.18169474E+04</pdfrwt>
<pdfrwt beam="2">  1       -1 0.71181673E-01 0.18169474E+04</pdfrwt>
<totfact> 0.78478405E+00</totfact>
</mgrwt>
</event>
<event>
12    1  0.1494110E-007  0.2173743E+04  0.7818608E-02  0.8529437E-01
         -1   -1    0    0    0  501 -0.00000000000E+00  0.00000000000E+00  0.20121082413E+04  0.20121082413E+04  0.00000000000E+00 0.  1.
          1   -1    0    0  501    0  0.00000000000E+00 -0.00000000000E+00 -0.58709050530E+03  0.58709050530E+03  0.00000000000E+00 0. -1.
         23    2    1    2    0    0  0.47951274682E+03 -0.16036044036E+03  0.14613840397E+04  0.15490053385E+04  0.90145892686E+02 0.  0.
        254    2    1    2    0    0 -0.47951274682E+03  0.16036044036E+03 -0.36366303693E+02  0.10501934081E+04  0.91974765085E+03 0.  0.
        -24    2    4    4    0    0 -0.20187898863E+03  0.24526759414E+03  0.40196776750E+03  0.51843146140E+03  0.79257651204E+02 0.  0.
         24    2    4    4    0    0 -0.27763375819E+03 -0.84907153785E+02 -0.43833407119E+03  0.53176194673E+03  0.79650998557E+02 0.  0.
         13    1    3    3    0    0  0.42257161080E+03 -0.13024863693E+03  0.13471037204E+04  0.14178222410E+04  0.00000000000E+00 0.  1.
        -13    1    3    3    0    0  0.56941136018E+02 -0.30111803431E+02  0.11428031938E+03  0.13118309752E+03  0.00000000000E+00 0. -1.
          4    1    6    6  502    0 -0.27491275739E+03 -0.82587707162E+02 -0.39502611446E+03  0.48830665022E+03  0.00000000000E+00 0. -1.
          3    1    5    5  503    0 -0.94301960382E+02  0.17343168648E+03  0.25846221194E+03  0.32522934156E+03  0.00000000000E+00 0. -1.
         -4    1    5    5    0  503 -0.10757702824E+03  0.71835907658E+02  0.14350555556E+03  0.19320211984E+03  0.00000000000E+00 0.  1.
         -3    1    6    6    0  502 -0.27210008035E+01 -0.23194466223E+01 -0.43307956732E+02  0.43455296505E+02  0.00000000000E+00 0.  1.
<mgrwt>
<rscale>  0 0.21737430E+04</rscale>
<asrwt>0</asrwt>
<pdfrwt beam="1">  1        1 0.90321618E-01 0.21737430E+04</pdfrwt>
<pdfrwt beam="2">  1       -1 0.30955511E+00 0.21737430E+04</pdfrwt>
<totfact> 0.92498604E-01</totfact>
</mgrwt>
</event>
<event>
12    1  0.1691673E-007  0.1550641E+04  0.7818608E-02  0.8851459E-01
         -1   -1    0    0    0  501 -0.00000000000E+00  0.00000000000E+00  0.59397011596E+03  0.59397011596E+03  0.00000000000E+00 0.  1.
          1   -1    0    0  501    0  0.00000000000E+00 -0.00000000000E+00 -0.10120399802E+04  0.10120399802E+04  0.00000000000E+00 0. -1.
         23    2    1    2    0    0 -0.46878475695E+03  0.10629128288E+03  0.25626851260E+02  0.48978749509E+03  0.90432680324E+02 0.  0.
        254    2    1    2    0    0  0.46878475695E+03 -0.10629128288E+03 -0.44369671553E+03  0.11162226011E+04  0.90444963082E+03 0.  0.
        -24    2    4    4    0    0  0.72555046960E+03 -0.16662168287E+02 -0.38888600483E+03  0.82715249835E+03  0.79043146364E+02 0.  0.
         24    2    4    4    0    0 -0.25676571265E+03 -0.89629114596E+02 -0.54810710701E+02  0.28907010276E+03  0.81211458069E+02 0.  0.
         11    1    3    3    0    0 -0.62654180246E+00  0.11391633222E+02  0.13890575936E+01  0.11493099803E+02  0.00000000000E+00 0. -1.
        -11    1    3    3    0    0 -0.46815821515E+03  0.94899649662E+02  0.24237793666E+02  0.47829439528E+03  0.00000000000E+00 0.  1.
          4    1    6    6  502    0 -0.17279277968E+03 -0.71209915797E+02  0.41411837958E+00  0.18689132755E+03  0.00000000000E+00 0. -1.
          1    1    5    5  503    0  0.57832345259E+03  0.53466804648E+01 -0.33777247457E+03  0.66975879791E+03  0.00000000000E+00 0. -1.
         -2    1    5    5    0  503  0.14722701701E+03 -0.22008848752E+02 -0.51113530256E+02  0.15739370044E+03  0.00000000000E+00 0.  1.
         -3    1    6    6    0  502 -0.83972932971E+02 -0.18419198800E+02 -0.55224829081E+02  0.10217877521E+03  0.00000000000E+00 0.  1.
<mgrwt>
<rscale>  0 0.15506405E+04</rscale>
<asrwt>0</asrwt>
<pdfrwt beam="1">  1        1 0.15569846E+00 0.15506405E+04</pdfrwt>
<pdfrwt beam="2">  1       -1 0.91380019E-01 0.15506405E+04</pdfrwt>
<totfact> 0.16663873E+01</totfact>
</mgrwt>
</event>
<event>
12    1  0.1494110E-007  0.1489429E+04  0.7818608E-02  0.8891513E-01
          1   -1    0    0  501    0  0.00000000000E+00  0.00000000000E+00  0.29286228556E+04  0.29286228556E+04  0.00000000000E+00 0. -1.
         -1   -1    0    0    0  501 -0.00000000000E+00 -0.00000000000E+00 -0.18937223991E+03  0.18937223991E+03  0.00000000000E+00 0.  1.
         23    2    1    2    0    0  0.31784417041E+03 -0.33497812262E+03  0.99591083846E+03  0.11014055800E+04  0.89557770461E+02 0.  0.
        254    2    1    2    0    0 -0.31784417041E+03  0.33497812262E+03  0.17433397772E+04  0.20165895154E+04  0.90231060938E+03 0.  0.
        -24    2    4    4    0    0 -0.47875706376E+03 -0.17290326138E+02  0.14356411933E+04  0.15156719540E+04  0.81783584675E+02 0.  0.
         24    2    4    4    0    0  0.16091289336E+03  0.35226844876E+03  0.30769858389E+03  0.50091756146E+03  0.79082018285E+02 0.  0.
         11    1    3    3    0    0  0.11921555763E+03 -0.95996769151E+02  0.24695574521E+03  0.29054237034E+03  0.00000000000E+00 0. -1.
        -11    1    3    3    0    0  0.19862861278E+03 -0.23898135347E+03  0.74895509325E+03  0.81086320969E+03  0.00000000000E+00 0.  1.
          2    1    6    6  502    0  0.30944527588E+02  0.13929456872E+03  0.14265975217E+03  0.20177300501E+03  0.00000000000E+00 0. -1.
          1    1    5    5  503    0 -0.78804274306E+02 -0.20529093693E+02  0.17324282289E+03  0.19142787942E+03  0.00000000000E+00 0. -1.
         -2    1    5    5    0  503 -0.39995278946E+03  0.32387675546E+01  0.12623983704E+04  0.13242440746E+04  0.00000000000E+00 0.  1.
         -1    1    6    6    0  502  0.12996836577E+03  0.21297388005E+03  0.16503883172E+03  0.29914455646E+03  0.00000000000E+00 0.  1.
<mgrwt>
<rscale>  0 0.14894292E+04</rscale>
<asrwt>0</asrwt>
<pdfrwt beam="1">  1        1 0.45055733E+00 0.14894292E+04</pdfrwt>
<pdfrwt beam="2">  1       -1 0.29134193E-01 0.14894292E+04</pdfrwt>
<totfact> 0.70461919E+00</totfact>
</mgrwt>
</event>
<event>
12    1  0.1494110E-007  0.2572081E+04  0.7818608E-02  0.8377747E-01
         -2   -1    0    0    0  501 -0.00000000000E+00  0.00000000000E+00  0.65727135996E+03  0.65727135996E+03  0.00000000000E+00 0.  1.
          2   -1    0    0  501    0  0.00000000000E+00 -0.00000000000E+00 -0.25163123377E+04  0.25163123377E+04  0.00000000000E+00 0. -1.
         23    2    1    2    0    0 -0.40380995305E+03  0.61931601230E+03  0.23253771815E+03  0.78040358248E+03  0.91329950743E+02 0.  0.
        254    2    1    2    0    0  0.40380995305E+03 -0.61931601230E+03 -0.20915786958E+04  0.23931801151E+04  0.89777214330E+03 0.  0.
        -24    2    4    4    0    0  0.61158906494E+03 -0.39483843902E+03 -0.90068560739E+03  0.11607899159E+04  0.79120719481E+02 0.  0.
         24    2    4    4    0    0 -0.20777911189E+03 -0.22447757328E+03 -0.11908930885E+04  0.12323901992E+04  0.83647562769E+02 0.  0.
         11    1    3    3    0    0 -0.82531387910E+02  0.68522863878E+02  0.36239588911E+02  0.11322597171E+03  0.00000000000E+00 0. -1.
        -11    1    3    3    0    0 -0.32127856514E+03  0.55079314843E+03  0.19629812924E+03  0.66717761077E+03  0.00000000000E+00 0.  1.
          2    1    6    6  502    0 -0.15958811126E+02 -0.14064307845E+01 -0.14575084255E+03  0.14662868002E+03  0.00000000000E+00 0. -1.
          3    1    5    5  503    0  0.87773717392E+01 -0.17060283446E+02 -0.38344124326E+02  0.42876186820E+02  0.00000000000E+00 0. -1.
         -4    1    5    5    0  503  0.60281169320E+03 -0.37777815558E+03 -0.86234148306E+03  0.11179137291E+04  0.00000000000E+00 0.  1.
         -1    1    6    6    0  502 -0.19182030077E+03 -0.22307114250E+03 -0.10451422459E+04  0.10857615192E+04  0.00000000000E+00 0.  1.
<mgrwt>
<rscale>  0 0.25720809E+04</rscale>
<asrwt>0</asrwt>
<pdfrwt beam="1">  1        2 0.38712497E+00 0.25720809E+04</pdfrwt>
<pdfrwt beam="2">  1       -2 0.10111867E+00 0.25720809E+04</pdfrwt>
<totfact> 0.24286894E+00</totfact>
</mgrwt>
</event>
<event>
12    1  0.1494110E-007  0.2871156E+04  0.7818608E-02  0.8281511E-01
         -2   -1    0    0    0  501 -0.00000000000E+00  0.00000000000E+00  0.14600768254E+04  0.14600768254E+04  0.00000000000E+00 0.  1.
          2   -1    0    0  501    0  0.00000000000E+00 -0.00000000000E+00 -0.14114904920E+04  0.14114904920E+04  0.00000000000E+00 0. -1.
         23    2    1    2    0    0  0.71333374912E+03  0.20129472598E+03 -0.10155236663E+04  0.12609942839E+04  0.97229948756E+02 0.  0.
        254    2    1    2    0    0 -0.71333374912E+03 -0.20129472598E+03  0.10641099997E+04  0.16105730335E+04  0.95511821277E+03 0.  0.
        -24    2    4    4    0    0 -0.70851705631E+03 -0.46304939591E+03  0.10280989226E+04  0.13342966695E+04  0.83360934556E+02 0.  0.
         24    2    4    4    0    0 -0.48166928122E+01  0.26175466993E+03  0.36011077074E+02  0.27627636397E+03  0.80579922170E+02 0.  0.
         13    1    3    3    0    0  0.57552912277E+03  0.15192899083E+03 -0.74692676799E+03  0.95509988281E+03  0.00000000000E+00 0. -1.
        -13    1    3    3    0    0  0.13780462635E+03  0.49365735150E+02 -0.26859689829E+03  0.30589440110E+03  0.00000000000E+00 0.  1.
          2    1    6    6  502    0 -0.49035879939E+01  0.11928473508E+03 -0.23844830555E+02  0.12174345626E+03  0.00000000000E+00 0. -1.
          3    1    5    5  503    0 -0.35354583604E+03 -0.22894977674E+03  0.44630712987E+03  0.61367964983E+03  0.00000000000E+00 0. -1.
         -4    1    5    5    0  503 -0.35497122027E+03 -0.23409961918E+03  0.58179179278E+03  0.72061701969E+03  0.00000000000E+00 0.  1.
         -1    1    6    6    0  502  0.86895181637E-01  0.14246993485E+03  0.59855907629E+02  0.15453290771E+03  0.00000000000E+00 0.  1.
<mgrwt>
<rscale>  0 0.28711563E+04</rscale>
<asrwt>0</asrwt>
<pdfrwt beam="1">  1        2 0.21715238E+00 0.28711563E+04</pdfrwt>
<pdfrwt beam="2">  1       -2 0.22462721E+00 0.28711563E+04</pdfrwt>
<totfact> 0.11394077E+00</totfact>
</mgrwt>
</event>
<event>
12    1  0.1494110E-007  0.1734782E+04  0.7818608E-02  0.8741772E-01
          2   -1    0    0  501    0  0.00000000000E+00  0.00000000000E+00  0.27867329155E+04  0.27867329155E+04  0.00000000000E+00 0. -1.
         -2   -1    0    0    0  501 -0.00000000000E+00 -0.00000000000E+00 -0.26998175280E+03  0.26998175280E+03  0.00000000000E+00 0.  1.
         23    2    1    2    0    0 -0.12634043974E+02  0.13952295142E+02  0.20356875127E+04  0.20378133025E+04  0.91132436214E+02 0.  0.
        254    2    1    2    0    0  0.12634043974E+02 -0.13952295142E+02  0.48106365002E+03  0.10189013658E+04  0.89798857023E+03 0.  0.
        -24    2    4    4    0    0 -0.24686421568E+03  0.15566657026E+03 -0.12964369871E+03  0.32908330384E+03  0.79462633826E+02 0.  0.
         24    2    4    4    0    0  0.25949825965E+03 -0.16961886540E+03  0.61070734872E+03  0.68981806196E+03  0.82313951221E+02 0.  0.
         11    1    3    3    0    0 -0.45714259078E+02 -0.14228390946E+02  0.87040329529E+03  0.87171907003E+03  0.00000000000E+00 0. -1.
        -11    1    3    3    0    0  0.33080215104E+02  0.28180686088E+02  0.11652842174E+04  0.11660942325E+04  0.00000000000E+00 0.  1.
          2    1    6    6  502    0  0.12203274435E+03 -0.91674955570E+02  0.38624352790E+03  0.41530753787E+03  0.00000000000E+00 0. -1.
          3    1    5    5  503    0 -0.22144708890E+03  0.10500174431E+03 -0.96303050627E+02  0.26332196462E+03  0.00000000000E+00 0. -1.
         -4    1    5    5    0  503 -0.25417126777E+02  0.50664825948E+02 -0.33340648078E+02  0.65761339222E+02  0.00000000000E+00 0.  1.
         -1    1    6    6    0  502  0.13746551530E+03 -0.77943909830E+02  0.22446382082E+03  0.27451052409E+03  0.00000000000E+00 0.  1.
<mgrwt>
<rscale>  0 0.17347819E+04</rscale>
<asrwt>0</asrwt>
<pdfrwt beam="1">  1        2 0.42872812E+00 0.17347819E+04</pdfrwt>
<pdfrwt beam="2">  1       -2 0.41535656E-01 0.17347819E+04</pdfrwt>
<totfact> 0.12312736E+01</totfact>
</mgrwt>
</event>
<event>
12    1  0.1494110E-007  0.3094447E+04  0.7818608E-02  0.8217263E-01
          2   -1    0    0  501    0  0.00000000000E+00  0.00000000000E+00  0.27236577928E+04  0.27236577928E+04  0.00000000000E+00 0. -1.
         -2   -1    0    0    0  501 -0.00000000000E+00 -0.00000000000E+00 -0.87892880159E+03  0.87892880159E+03  0.00000000000E+00 0.  1.
         23    2    1    2    0    0  0.35646525258E+02 -0.57589833125E+03 -0.65921250737E+03  0.88081902645E+03  0.91386348965E+02 0.  0.
        254    2    1    2    0    0 -0.35646525258E+02  0.57589833125E+03  0.25039414986E+04  0.27217675680E+04  0.89742192022E+03 0.  0.
        -24    2    4    4    0    0 -0.34660083300E+03  0.56463717388E+03  0.11451188573E+04  0.13254846755E+04  0.81640382976E+02 0.  0.
         24    2    4    4    0    0  0.31095430774E+03  0.11261157371E+02  0.13588226414E+04  0.13962828925E+04  0.79922149774E+02 0.  0.
         13    1    3    3    0    0  0.27662071395E+02 -0.24007523023E+03 -0.34223197167E+03  0.41895587930E+03  0.00000000000E+00 0. -1.
        -13    1    3    3    0    0  0.79844538622E+01 -0.33582310102E+03 -0.31698053570E+03  0.46186314715E+03  0.00000000000E+00 0.  1.
          2    1    6    6  502    0  0.67272073931E+01 -0.35696324058E+01  0.62881369472E+01  0.98761460647E+01  0.00000000000E+00 0. -1.
          3    1    5    5  503    0 -0.16362094826E+03  0.22806804858E+03  0.41582007105E+03  0.50169032378E+03  0.00000000000E+00 0. -1.
         -4    1    5    5    0  503 -0.18297988473E+03  0.33656912531E+03  0.72929878621E+03  0.82379435170E+03  0.00000000000E+00 0.  1.
         -1    1    6    6    0  502  0.30422710035E+03  0.14830789777E+02  0.13525345044E+04  0.13864067464E+04  0.00000000000E+00 0.  1.
<mgrwt>
<rscale>  0 0.30944475E+04</rscale>
<asrwt>0</asrwt>
<pdfrwt beam="1">  1        2 0.41902427E+00 0.30944475E+04</pdfrwt>
<pdfrwt beam="2">  1       -2 0.13521982E+00 0.30944475E+04</pdfrwt>
<totfact> 0.85746348E-01</totfact>
</mgrwt>
</event>
<event>
12    1  0.1494110E-007  0.1997548E+04  0.7818608E-02  0.8607768E-01
          2   -1    0    0  501    0  0.00000000000E+00  0.00000000000E+00  0.87602772899E+03  0.87602772899E+03  0.00000000000E+00 0. -1.
         -2   -1    0    0    0  501 -0.00000000000E+00 -0.00000000000E+00 -0.11387195100E+04  0.11387195100E+04  0.00000000000E+00 0.  1.
         23    2    1    2    0    0 -0.44386311707E+03  0.34960443682E+03 -0.67104997989E+03  0.88195255493E+03  0.91074171346E+02 0.  0.
        254    2    1    2    0    0  0.44386311707E+03 -0.34960443682E+03  0.40835819886E+03  0.11327946841E+04  0.89287717453E+03 0.  0.
        -24    2    4    4    0    0  0.42346374521E+03 -0.94295351665E+02 -0.18788451494E+03  0.47921593578E+03  0.78320912273E+02 0.  0.
         24    2    4    4    0    0  0.20399371859E+02 -0.25530908515E+03  0.59624271380E+03  0.65357874830E+03  0.77852059335E+02 0.  0.
         13    1    3    3    0    0 -0.20468980087E+02  0.43774337084E+02 -0.77406827371E+02  0.91252335074E+02  0.00000000000E+00 0. -1.
        -13    1    3    3    0    0 -0.42339413698E+03  0.30583009973E+03 -0.59364315252E+03  0.79070021985E+03  0.00000000000E+00 0.  1.
          2    1    6    6  502    0  0.46678965854E+02 -0.20614817035E+03  0.45352702023E+03  0.50036262058E+03  0.00000000000E+00 0. -1.
          3    1    5    5  503    0  0.36734402837E+03 -0.97078661136E+02 -0.18589325841E+03  0.42299196818E+03  0.00000000000E+00 0. -1.
         -4    1    5    5    0  503  0.56119716846E+02  0.27833094709E+01 -0.19912565366E+01  0.56223967604E+02  0.00000000000E+00 0.  1.
         -1    1    6    6    0  502 -0.26279593995E+02 -0.49160914799E+02  0.14271569357E+03  0.15321612772E+03  0.00000000000E+00 0.  1.
<mgrwt>
<rscale>  0 0.19975484E+04</rscale>
<asrwt>0</asrwt>
<pdfrwt beam="1">  1        2 0.13477350E+00 0.19975484E+04</pdfrwt>
<pdfrwt beam="2">  1       -2 0.17518762E+00 0.19975484E+04</pdfrwt>
<totfact> 0.55400143E+00</totfact>
</mgrwt>
</event>
<event>
12    1  0.1494110E-007  0.1337998E+04  0.7818608E-02  0.8999963E-01
          2   -1    0    0  501    0  0.00000000000E+00  0.00000000000E+00  0.42483085914E+03  0.42483085914E+03  0.00000000000E+00 0. -1.
         -2   -1    0    0    0  501 -0.00000000000E+00 -0.00000000000E+00 -0.10535010432E+04  0.10535010432E+04  0.00000000000E+00 0.  1.
         23    2    1    2    0    0 -0.62861484447E+02  0.19284066079E+03  0.14731054512E+03  0.26694823085E+03  0.91770771881E+02 0.  0.
        254    2    1    2    0    0  0.62861484447E+02 -0.19284066079E+03 -0.77598072919E+03  0.12113836715E+04  0.90783545911E+03 0.  0.
        -24    2    4    4    0    0 -0.26387953908E+03 -0.23290679092E+03 -0.79260358460E+03  0.87125741390E+03  0.83612526272E+02 0.  0.
         24    2    4    4    0    0  0.32674102353E+03  0.40066130130E+02  0.16622855409E+02  0.34012625760E+03  0.83931880403E+02 0.  0.
         11    1    3    3    0    0 -0.27219842267E+02  0.16545721661E+03  0.79446745609E+02  0.18554998176E+03  0.00000000000E+00 0. -1.
        -11    1    3    3    0    0 -0.35641642180E+02  0.27383444182E+02  0.67863799509E+02  0.81398249099E+02  0.00000000000E+00 0.  1.
          2    1    6    6  502    0  0.17502443215E+03  0.54853046707E+02  0.34536382947E+02  0.18664182363E+03  0.00000000000E+00 0. -1.
          3    1    5    5  503    0 -0.28159272503E+02 -0.62928658985E+02 -0.19287009976E+03  0.20482147380E+03  0.00000000000E+00 0. -1.
         -4    1    5    5    0  503 -0.23572026658E+03 -0.16997813194E+03 -0.59973348484E+03  0.66643594010E+03  0.00000000000E+00 0.  1.
         -1    1    6    6    0  502  0.15171659138E+03 -0.14786916577E+02 -0.17913527538E+02  0.15348443397E+03  0.00000000000E+00 0.  1.
<mgrwt>
<rscale>  0 0.13379981E+04</rscale>
<asrwt>0</asrwt>
<pdfrwt beam="1">  1        2 0.65358594E-01 0.13379981E+04</pdfrwt>
<pdfrwt beam="2">  1       -2 0.16207708E+00 0.13379981E+04</pdfrwt>
<totfact> 0.17635904E+01</totfact>
</mgrwt>
</event>
<event>
12    1  0.1494110E-007  0.2201577E+04  0.7818608E-02  0.8517772E-01
          2   -1    0    0  501    0  0.00000000000E+00  0.00000000000E+00  0.71380089448E+03  0.71380089448E+03  0.00000000000E+00 0.  1.
         -2   -1    0    0    0  501 -0.00000000000E+00 -0.00000000000E+00 -0.16975814299E+04  0.16975814299E+04  0.00000000000E+00 0. -1.
         23    2    1    2    0    0 -0.44013125597E+03  0.88104871431E+02 -0.12956532633E+04  0.13741489519E+04  0.89944273991E+02 0.  0.
        254    2    1    2    0    0  0.44013125597E+03 -0.88104871431E+02  0.31187272790E+03  0.10372333725E+04  0.88153870006E+03 0.  0.
        -24    2    4    4    0    0  0.24486511592E+03  0.14833257015E+03  0.56037649941E+03  0.63445482881E+03  0.80929798913E+02 0.  0.
         24    2    4    4    0    0  0.19526614006E+03 -0.23643744159E+03 -0.24850377151E+03  0.40277854366E+03  0.80280144128E+02 0.  0.
         13    1    3    3    0    0 -0.25853404133E+02 -0.13836094309E+02 -0.57358507027E+02  0.64419207844E+02  0.00000000000E+00 0.  1.
        -13    1    3    3    0    0 -0.41427785184E+03  0.10194096574E+03 -0.12382947563E+04  0.13097297441E+04  0.00000000000E+00 0. -1.
          2    1    6    6  502    0  0.11441528966E+03 -0.13796689883E+03 -0.93588423161E+02  0.20219920037E+03  0.00000000000E+00 0. -1.
          1    1    5    5  503    0  0.29139259301E+02  0.54611156122E+02  0.10375465067E+03  0.12081598545E+03  0.00000000000E+00 0. -1.
         -2    1    5    5    0  503  0.21572585661E+03  0.93721414032E+02  0.45662184874E+03  0.51363884336E+03  0.00000000000E+00 0.  1.
         -1    1    6    6    0  502  0.80850850403E+02 -0.98470542755E+02 -0.15491534835E+03  0.20057934329E+03  0.00000000000E+00 0.  1.
<mgrwt>
<rscale>  0 0.22015768E+04</rscale>
<asrwt>0</asrwt>
<pdfrwt beam="1">  1        2 0.10981552E+00 0.22015768E+04</pdfrwt>
<pdfrwt beam="2">  1       -2 0.26116637E+00 0.22015768E+04</pdfrwt>
<totfact> 0.20045788E+00</totfact>
</mgrwt>
</event>
<event>
12    1  0.1494110E-007  0.1468088E+04  0.7818608E-02  0.8905956E-01
          1   -1    0    0  501    0  0.00000000000E+00  0.00000000000E+00  0.20920979264E+04  0.20920979264E+04  0.00000000000E+00 0. -1.
         -1   -1    0    0    0  501 -0.00000000000E+00 -0.00000000000E+00 -0.25755022297E+03  0.25755022297E+03  0.00000000000E+00 0.  1.
         23    2    1    2    0    0 -0.11046966701E+03  0.17817927800E+03  0.11694779433E+04  0.11915757663E+04  0.90679349830E+02 0.  0.
        254    2    1    2    0    0  0.11046966701E+03 -0.17817927800E+03  0.66506976011E+03  0.11580723831E+04  0.92458772227E+03 0.  0.
        -24    2    4    4    0    0  0.29186833847E+02 -0.29221781033E+02  0.87147569444E+03  0.87619033004E+03  0.80832077146E+02 0.  0.
         24    2    4    4    0    0  0.81282833164E+02 -0.14895749697E+03 -0.20640593433E+03  0.28188205303E+03  0.89771082344E+02 0.  0.
         11    1    3    3    0    0  0.26179170595E+01  0.72222402896E+02  0.43042469672E+03  0.43644970904E+03  0.00000000000E+00 0.  1.
        -11    1    3    3    0    0 -0.11308758407E+03  0.10595687511E+03  0.73905324656E+03  0.75512605723E+03  0.00000000000E+00 0. -1.
          2    1    6    6  502    0  0.36784809551E+01 -0.47972780437E+02 -0.11633342989E+03  0.12589037213E+03  0.00000000000E+00 0. -1.
          3    1    5    5  503    0  0.20862617726E+02 -0.36959450136E+02  0.19265162454E+03  0.19727112868E+03  0.00000000000E+00 0. -1.
         -4    1    5    5    0  503  0.83242161209E+01  0.77376691032E+01  0.67882406990E+03  0.67891920136E+03  0.00000000000E+00 0.  1.
         -1    1    6    6    0  502  0.77604352209E+02 -0.10098471653E+03 -0.90072504437E+02  0.15599168090E+03  0.00000000000E+00 0.  1.
<mgrwt>
<rscale>  0 0.14680876E+04</rscale>
<asrwt>0</asrwt>
<pdfrwt beam="1">  1        1 0.32186121E+00 0.14680876E+04</pdfrwt>
<pdfrwt beam="2">  1       -1 0.39623113E-01 0.14680876E+04</pdfrwt>
<totfact> 0.15523925E+01</totfact>
</mgrwt>
</event>
<event>
12    1  0.1494110E-007  0.1959212E+04  0.7818608E-02  0.8625931E-01
          2   -1    0    0  501    0  0.00000000000E+00  0.00000000000E+00  0.20625007118E+04  0.20625007118E+04  0.00000000000E+00 0. -1.
         -2   -1    0    0    0  501 -0.00000000000E+00 -0.00000000000E+00 -0.46527403260E+03  0.46527403260E+03  0.00000000000E+00 0.  1.
         23    2    1    2    0    0  0.73779415759E+03  0.13965809511E+03  0.79717718895E+03  0.10998576042E+04  0.10173827456E+03 0.  0.
        254    2    1    2    0    0 -0.73779415759E+03 -0.13965809511E+03  0.80004949025E+03  0.14279171402E+04  0.91379624088E+03 0.  0.
        -24    2    4    4    0    0 -0.90081036266E+03 -0.13276675085E+03  0.83971664885E+03  0.12414098068E+04  0.82993604654E+02 0.  0.
         24    2    4    4    0    0  0.16301620507E+03 -0.68913442629E+01 -0.39667158594E+02  0.18650733339E+03  0.81177140844E+02 0.  0.
         13    1    3    3    0    0  0.36283660381E+03  0.32843168933E+02  0.43843534028E+03  0.57004791239E+03  0.00000000000E+00 0.  1.
        -13    1    3    3    0    0  0.37495755377E+03  0.10681492618E+03  0.35874184867E+03  0.52980969185E+03  0.00000000000E+00 0. -1.
          4    1    6    6  502    0  0.97541685814E+02  0.11042667969E+02  0.15054129161E+02  0.99312374818E+02  0.00000000000E+00 0. -1.
          3    1    5    5  503    0 -0.89697702437E+03 -0.12498774864E+03  0.83191030959E+03  0.12297416325E+04  0.00000000000E+00 0. -1.
         -4    1    5    5    0  503 -0.38333382842E+01 -0.77790022124E+01  0.78063392547E+01  0.11668174252E+02  0.00000000000E+00 0.  1.
         -3    1    6    6    0  502  0.65474519259E+02 -0.17934012232E+02 -0.54721287754E+02  0.87194958572E+02  0.00000000000E+00 0.  1.
<mgrwt>
<rscale>  0 0.19592121E+04</rscale>
<asrwt>0</asrwt>
<pdfrwt beam="1">  1        2 0.31730780E+00 0.19592121E+04</pdfrwt>
<pdfrwt beam="2">  1       -2 0.71580622E-01 0.19592121E+04</pdfrwt>
<totfact> 0.10173689E+01</totfact>
</mgrwt>
</event>
<event>
12    1  0.1494110E-007  0.2169628E+04  0.7818608E-02  0.8531177E-01
          2   -1    0    0  501    0  0.00000000000E+00  0.00000000000E+00  0.29418817090E+04  0.29418817090E+04  0.00000000000E+00 0. -1.
         -2   -1    0    0    0  501 -0.00000000000E+00 -0.00000000000E+00 -0.40002328525E+03  0.40002328525E+03  0.00000000000E+00 0.  1.
         23    2    1    2    0    0  0.20764171598E+03 -0.19385899215E+03  0.23777942816E+04  0.23964233341E+04  0.90789644801E+02 0.  0.
        254    2    1    2    0    0 -0.20764171598E+03  0.19385899215E+03  0.16406414217E+03  0.94548166017E+03  0.88674806789E+03 0.  0.
        -24    2    4    4    0    0 -0.95538402557E+02  0.32115438689E+03  0.47259628786E+03  0.58501056791E+03  0.81378047970E+02 0.  0.
         24    2    4    4    0    0 -0.11210331343E+03 -0.12729539474E+03 -0.30853214568E+03  0.36047109226E+03  0.77304935343E+02 0.  0.
         13    1    3    3    0    0  0.10004753762E+03 -0.54680042988E+02  0.12234733866E+04  0.12287744075E+04  0.00000000000E+00 0. -1.
        -13    1    3    3    0    0  0.10759417837E+03 -0.13917894916E+03  0.11543208950E+04  0.11676489266E+04  0.00000000000E+00 0.  1.
          4    1    6    6  502    0 -0.11448044168E+03 -0.10447486159E+03 -0.29649915093E+03  0.33456317002E+03  0.00000000000E+00 0. -1.
          1    1    5    5  503    0 -0.86055636780E+02  0.32235439265E+03  0.46698239276E+03  0.57392550234E+03  0.00000000000E+00 0. -1.
         -2    1    5    5    0  503 -0.94827657769E+01 -0.12000057675E+01  0.56138950981E+01  0.11085065575E+02  0.00000000000E+00 0.  1.
         -3    1    6    6    0  502  0.23771282504E+01 -0.22820533147E+02 -0.12032994754E+02  0.25907922236E+02  0.00000000000E+00 0.  1.
<mgrwt>
<rscale>  0 0.21696278E+04</rscale>
<asrwt>0</asrwt>
<pdfrwt beam="1">  1        2 0.45259717E+00 0.21696278E+04</pdfrwt>
<pdfrwt beam="2">  1       -2 0.61542046E-01 0.21696278E+04</pdfrwt>
<totfact> 0.42614989E+00</totfact>
</mgrwt>
</event>
<event>
12    1  0.1494110E-007  0.2033374E+04  0.7818608E-02  0.8591174E-01
          2   -1    0    0  501    0  0.00000000000E+00  0.00000000000E+00  0.82188052758E+03  0.82188052758E+03  0.00000000000E+00 0. -1.
         -2   -1    0    0    0  501 -0.00000000000E+00 -0.00000000000E+00 -0.12576674211E+04  0.12576674211E+04  0.00000000000E+00 0.  1.
         23    2    1    2    0    0 -0.10005971515E+03 -0.11033218300E+03 -0.10020024606E+04  0.10174776049E+04  0.95218739152E+02 0.  0.
        254    2    1    2    0    0  0.10005971515E+03  0.11033218300E+03  0.56621556705E+03  0.10620703438E+04  0.88611974900E+03 0.  0.
        -24    2    4    4    0    0  0.23020978729E+03  0.45620512971E+03  0.28354741732E+03  0.58996261399E+03  0.80852220123E+02 0.  0.
         24    2    4    4    0    0 -0.13015007215E+03 -0.34587294671E+03  0.28266814973E+03  0.47210772978E+03  0.80107984054E+02 0.  0.
         13    1    3    3    0    0 -0.69377079561E+02 -0.80209112029E+02 -0.39609049190E+03  0.41004189859E+03  0.00000000000E+00 0. -1.
        -13    1    3    3    0    0 -0.30682635588E+02 -0.30123070975E+02 -0.60591196868E+03  0.60743570633E+03  0.00000000000E+00 0.  1.
          2    1    6    6  502    0 -0.51491668101E+02 -0.23338626782E+03  0.20177550513E+03  0.31278410504E+03  0.00000000000E+00 0. -1.
          1    1    5    5  503    0  0.45573817613E+02  0.16214451894E+03  0.70468802724E+02  0.18257510792E+03  0.00000000000E+00 0. -1.
         -2    1    5    5    0  503  0.18463596968E+03  0.29406061077E+03  0.21307861460E+03  0.40738750608E+03  0.00000000000E+00 0.  1.
         -1    1    6    6    0  502 -0.78658404045E+02 -0.11248667888E+03  0.80892644591E+02  0.15932362475E+03  0.00000000000E+00 0.  1.
<mgrwt>
<rscale>  0 0.20333739E+04</rscale>
<asrwt>0</asrwt>
<pdfrwt beam="1">  1        2 0.12644316E+00 0.20333739E+04</pdfrwt>
<pdfrwt beam="2">  1       -2 0.19348730E+00 0.20333739E+04</pdfrwt>
<totfact> 0.45193568E+00</totfact>
</mgrwt>
</event>
<event>
12    1  0.1494110E-007  0.1168172E+04  0.7818608E-02  0.9141181E-01
         -1   -1    0    0    0  501 -0.00000000000E+00  0.00000000000E+00  0.15570851826E+03  0.15570851826E+03  0.00000000000E+00 0.  1.
          1   -1    0    0  501    0  0.00000000000E+00 -0.00000000000E+00 -0.21909932323E+04  0.21909932323E+04  0.00000000000E+00 0. -1.
         23    2    1    2    0    0 -0.67066993868E+02  0.35406032491E+02  0.15076520817E+01  0.11855204681E+03  0.91108429824E+02 0.  0.
        254    2    1    2    0    0  0.67066993868E+02 -0.35406032491E+02 -0.20367923661E+04  0.22281497037E+04  0.90020908171E+03 0.  0.
        -24    2    4    4    0    0  0.50368934512E+02 -0.44539634674E+03 -0.77611099957E+03  0.89982468658E+03  0.80132687900E+02 0.  0.
         24    2    4    4    0    0  0.16698059355E+02  0.40999031425E+03 -0.12606813665E+04  0.13283250172E+04  0.82212896154E+02 0.  0.
         13    1    3    3    0    0  0.19728535840E+02  0.23648224784E+02  0.30717264971E+01  0.30949784579E+02  0.00000000000E+00 0.  1.
        -13    1    3    3    0    0 -0.86795529708E+02  0.11757807707E+02 -0.15640744154E+01  0.87602262232E+02  0.00000000000E+00 0. -1.
          4    1    6    6  502    0 -0.27558432520E+02  0.20137229574E+03 -0.55089747029E+03  0.58719527541E+03  0.00000000000E+00 0. -1.
          1    1    5    5  503    0  0.69820439210E+02 -0.27087015993E+03 -0.47374266009E+03  0.55016147199E+03  0.00000000000E+00 0. -1.
         -2    1    5    5    0  503 -0.19451504698E+02 -0.17452618681E+03 -0.30236833947E+03  0.34966321458E+03  0.00000000000E+00 0.  1.
         -3    1    6    6    0  502  0.44256491876E+02  0.20861801851E+03 -0.70978389625E+03  0.74112974174E+03  0.00000000000E+00 0.  1.
<mgrwt>
<rscale>  0 0.11681718E+04</rscale>
<asrwt>0</asrwt>
<pdfrwt beam="1">  1        1 0.33707588E+00 0.11681718E+04</pdfrwt>
<pdfrwt beam="2">  1       -1 0.23955157E-01 0.11681718E+04</pdfrwt>
<totfact> 0.33155022E+01</totfact>
</mgrwt>
</event>
<event>
12    1  0.2372535E-007  0.2293050E+04  0.7818608E-02  0.8480666E-01
          1   -1    0    0  501    0  0.00000000000E+00  0.00000000000E+00  0.27483712176E+04  0.27483712176E+04  0.00000000000E+00 0. -1.
         -1   -1    0    0    0  501 -0.00000000000E+00 -0.00000000000E+00 -0.47829056803E+03  0.47829056803E+03  0.00000000000E+00 0.  1.
         23    2    1    2    0    0  0.72824477570E+03 -0.49628903054E+02  0.18592907187E+04  0.19994966498E+04  0.90671906214E+02 0.  0.
        254    2    1    2    0    0 -0.72824477570E+03  0.49628903054E+02  0.41078993088E+03  0.12271651358E+04  0.89687369342E+03 0.  0.
        -24    2    4    4    0    0  0.19526964628E+03 -0.60896631334E+02  0.11692930293E+03  0.24838436787E+03  0.78636491867E+02 0.  0.
         24    2    4    4    0    0 -0.92351442198E+03  0.11052553439E+03  0.29386062795E+03  0.97878076796E+03  0.81011985071E+02 0.  0.
         13    1    3    3    0    0  0.12551715046E+01 -0.70054934282E+01  0.22926987430E+02  0.24006231405E+02  0.00000000000E+00 0.  1.
        -13    1    3    3    0    0  0.72698960419E+03 -0.42623409626E+02  0.18363637313E+04  0.19754904184E+04  0.00000000000E+00 0. -1.
          4    1    6    6  502    0 -0.66614881894E+03  0.88557361364E+02  0.17486770415E+03  0.69438848577E+03  0.00000000000E+00 0. -1.
          1    1    5    5  503    0  0.16262401328E+03 -0.38192071141E+02  0.12394098179E+03  0.20800618010E+03  0.00000000000E+00 0. -1.
         -2    1    5    5    0  503  0.32645633003E+02 -0.22704560192E+02 -0.70116788539E+01  0.40378187775E+02  0.00000000000E+00 0.  1.
         -3    1    6    6    0  502 -0.25736560304E+03  0.21968173023E+02  0.11899292379E+03  0.28439228219E+03  0.00000000000E+00 0.  1.
<mgrwt>
<rscale>  0 0.22930504E+04</rscale>
<asrwt>0</asrwt>
<pdfrwt beam="1">  1        1 0.42282633E+00 0.22930504E+04</pdfrwt>
<pdfrwt beam="2">  1       -1 0.73583166E-01 0.22930504E+04</pdfrwt>
<totfact> 0.15264402E+00</totfact>
</mgrwt>
</event>
<event>
12    1  0.1494110E-007  0.1113424E+04  0.7818608E-02  0.9192206E-01
         -1   -1    0    0    0  501 -0.00000000000E+00  0.00000000000E+00  0.18806909894E+04  0.18806909894E+04  0.00000000000E+00 0.  1.
          1   -1    0    0  501    0  0.00000000000E+00 -0.00000000000E+00 -0.16479482087E+03  0.16479482087E+03  0.00000000000E+00 0. -1.
         23    2    1    2    0    0  0.12797040666E+03 -0.76010837742E+02  0.14101950206E+03  0.22310201339E+03  0.87942799495E+02 0.  0.
        254    2    1    2    0    0 -0.12797040666E+03  0.76010837742E+02  0.15748766665E+04  0.18223837969E+04  0.90481606754E+03 0.  0.
        -24    2    4    4    0    0 -0.47791194440E+03  0.14069416414E+03  0.61762395684E+03  0.79816914339E+03  0.86139160506E+02 0.  0.
         24    2    4    4    0    0  0.34994153775E+03 -0.64683326399E+02  0.95725270963E+03  0.10242146535E+04  0.77716753390E+02 0.  0.
         11    1    3    3    0    0  0.14907852011E+02  0.36217357957E+01 -0.10013725990E+02  0.18320363805E+02  0.00000000000E+00 0.  1.
        -11    1    3    3    0    0  0.11306255465E+03 -0.79632573538E+02  0.15103322805E+03  0.20478164958E+03  0.00000000000E+00 0. -1.
          4    1    6    6  502    0  0.39091695078E+02  0.16675454864E+01  0.54130290141E+02  0.66790939826E+02  0.00000000000E+00 0. -1.
          3    1    5    5  503    0 -0.57501223592E+02 -0.65604369019E+01  0.97311771149E+02  0.11322107070E+03  0.00000000000E+00 0. -1.
         -4    1    5    5    0  503 -0.42041072081E+03  0.14725460104E+03  0.52031218569E+03  0.68494807269E+03  0.00000000000E+00 0.  1.
         -3    1    6    6    0  502  0.31084984267E+03 -0.66350871885E+02  0.90312241949E+03  0.95742371366E+03  0.00000000000E+00 0.  1.
<mgrwt>
<rscale>  0 0.11134238E+04</rscale>
<asrwt>0</asrwt>
<pdfrwt beam="1">  1        1 0.25353051E-01 0.11134238E+04</pdfrwt>
<pdfrwt beam="2">  1       -1 0.28933706E+00 0.11134238E+04</pdfrwt>
<totfact> 0.74480056E+00</totfact>
</mgrwt>
</event>
<event>
12    1  0.1494110E-007  0.2191250E+04  0.7818608E-02  0.8522079E-01
         -3   -1    0    0    0  501 -0.00000000000E+00  0.00000000000E+00  0.77073123034E+03  0.77073123034E+03  0.00000000000E+00 0.  1.
          3   -1    0    0  501    0  0.00000000000E+00 -0.00000000000E+00 -0.15574746312E+04  0.15574746312E+04  0.00000000000E+00 0. -1.
         23    2    1    2    0    0 -0.64293868041E+03  0.12885765159E+03 -0.98820458892E+03  0.11893102842E+04  0.89085359672E+02 0.  0.
        254    2    1    2    0    0  0.64293868041E+03 -0.12885765159E+03  0.20146118811E+03  0.11388955773E+04  0.90913260013E+03 0.  0.
        -24    2    4    4    0    0  0.70922680660E+03 -0.40825929753E+03  0.13345900619E+03  0.83297451138E+03  0.79730251773E+02 0.  0.
         24    2    4    4    0    0 -0.66288126192E+02  0.27940164594E+03  0.68002181913E+02  0.30592106595E+03  0.80647420410E+02 0.  0.
         11    1    3    3    0    0 -0.11215642907E+03  0.17047695168E+02 -0.11644941059E+03  0.16257353327E+03  0.00000000000E+00 0.  1.
        -11    1    3    3    0    0 -0.53078225134E+03  0.11180995642E+03 -0.87175517833E+03  0.10267367509E+04  0.00000000000E+00 0. -1.
          4    1    6    6  502    0  0.19044382776E+01  0.16520146415E+03  0.35060592357E+02  0.16889166877E+03  0.00000000000E+00 0. -1.
          3    1    5    5  503    0  0.16592112435E+03 -0.66885343705E+02  0.73414448034E+01  0.17904570791E+03  0.00000000000E+00 0. -1.
         -2    1    5    5    0  503  0.54330568225E+03 -0.34137395383E+03  0.12611756139E+03  0.65392880347E+03  0.00000000000E+00 0.  1.
         -1    1    6    6    0  502 -0.68192564469E+02  0.11420018179E+03  0.32941589556E+02  0.13702939718E+03  0.00000000000E+00 0.  1.
<mgrwt>
<rscale>  0 0.21912502E+04</rscale>
<asrwt>0</asrwt>
<pdfrwt beam="1">  1        3 0.23961148E+00 0.21912502E+04</pdfrwt>
<pdfrwt beam="2">  1       -3 0.11857404E+00 0.21912502E+04</pdfrwt>
<totfact> 0.11795916E-01</totfact>
</mgrwt>
</event>
<event>
12    1  0.1494110E-007  0.1500624E+04  0.7818608E-02  0.8884038E-01
          1   -1    0    0  501    0  0.00000000000E+00  0.00000000000E+00  0.75772046180E+03  0.75772046180E+03  0.00000000000E+00 0. -1.
         -1   -1    0    0    0  501 -0.00000000000E+00 -0.00000000000E+00 -0.74297575016E+03  0.74297575016E+03  0.00000000000E+00 0.  1.
         23    2    1    2    0    0 -0.28249252620E+03 -0.17498001126E+03 -0.33787389722E+03  0.48293116768E+03  0.92971558047E+02 0.  0.
        254    2    1    2    0    0  0.28249252620E+03  0.17498001126E+03  0.35261860886E+03  0.10177650443E+04  0.89503394927E+03 0.  0.
        -24    2    4    4    0    0  0.24937520140E+03 -0.10918547707E+03  0.57882038615E+03  0.64462280526E+03  0.79975384722E+02 0.  0.
         24    2    4    4    0    0  0.33117324793E+02  0.28416548833E+03 -0.22620177730E+03  0.37314223901E+03  0.78873978742E+02 0.  0.
         11    1    3    3    0    0 -0.38969098577E+02 -0.44585085434E+02 -0.21658116689E+02  0.63051522627E+02  0.00000000000E+00 0. -1.
        -11    1    3    3    0    0 -0.24352342762E+03 -0.13039492582E+03 -0.31621578053E+03  0.41987964506E+03  0.00000000000E+00 0.  1.
          2    1    6    6  502    0  0.36503725369E+02  0.12535780538E+03 -0.61500987747E+02  0.14432419350E+03  0.00000000000E+00 0. -1.
          1    1    5    5  503    0  0.34154949977E+02 -0.41884539868E+02  0.16109515570E+03  0.16991917042E+03  0.00000000000E+00 0. -1.
         -2    1    5    5    0  503  0.21522025143E+03 -0.67300937205E+02  0.41772523046E+03  0.47470363484E+03  0.00000000000E+00 0.  1.
         -1    1    6    6    0  502 -0.33864005757E+01  0.15880768294E+03 -0.16470078955E+03  0.22881804551E+03  0.00000000000E+00 0.  1.
<mgrwt>
<rscale>  0 0.15006238E+04</rscale>
<asrwt>0</asrwt>
<pdfrwt beam="1">  1        1 0.11657238E+00 0.15006238E+04</pdfrwt>
<pdfrwt beam="2">  1       -1 0.11430396E+00 0.15006238E+04</pdfrwt>
<totfact> 0.16243607E+01</totfact>
</mgrwt>
</event>
<event>
12    1  0.1494110E-007  0.2681587E+04  0.7818608E-02  0.8341004E-01
          2   -1    0    0  501    0  0.00000000000E+00  0.00000000000E+00  0.94124478453E+03  0.94124478453E+03  0.00000000000E+00 0.  1.
         -2   -1    0    0    0  501 -0.00000000000E+00 -0.00000000000E+00 -0.19099471536E+04  0.19099471536E+04  0.00000000000E+00 0. -1.
         23    2    1    2    0    0 -0.10767664100E+04 -0.19850545756E+03  0.54614976300E+02  0.10998050652E+04  0.88079892680E+02 0.  0.
        254    2    1    2    0    0  0.10767664100E+04  0.19850545756E+03 -0.10233173454E+04  0.17513868729E+04  0.90628211441E+03 0.  0.
        -24    2    4    4    0    0  0.11500723605E+04  0.25202599109E+03 -0.10952077632E+04  0.16099485125E+04  0.79187332634E+02 0.  0.
         24    2    4    4    0    0 -0.73305950517E+02 -0.53520533526E+02  0.71890417770E+02  0.14143836047E+03  0.81230337660E+02 0.  0.
         13    1    3    3    0    0 -0.80991896898E+02 -0.63225106671E+01 -0.17471621029E+02  0.83095842529E+02  0.00000000000E+00 0. -1.
        -13    1    3    3    0    0 -0.99577451310E+03 -0.19218294690E+03  0.72086597329E+02  0.10167092227E+04  0.00000000000E+00 0.  1.
          2    1    6    6  502    0  0.15807350612E+02  0.91567150155E+00  0.17844946290E+02  0.23856925531E+02  0.00000000000E+00 0. -1.
          1    1    5    5  503    0  0.62245809183E+03  0.12270409960E+03 -0.53917656221E+03  0.83259938589E+03  0.00000000000E+00 0. -1.
         -2    1    5    5    0  503  0.52761426869E+03  0.12932189149E+03 -0.55603120095E+03  0.77734912657E+03  0.00000000000E+00 0.  1.
         -1    1    6    6    0  502 -0.89113301129E+02 -0.54436205027E+02  0.54045471480E+02  0.11758143494E+03  0.00000000000E+00 0.  1.
<mgrwt>
<rscale>  0 0.26815874E+04</rscale>
<asrwt>0</asrwt>
<pdfrwt beam="1">  1        2 0.14480689E+00 0.26815874E+04</pdfrwt>
<pdfrwt beam="2">  1       -2 0.29383802E+00 0.26815874E+04</pdfrwt>
<totfact> 0.83804121E-01</totfact>
</mgrwt>
</event>
<event>
12    1  0.1494110E-007  0.1736448E+04  0.7818608E-02  0.8740846E-01
         -2   -1    0    0    0  501 -0.00000000000E+00  0.00000000000E+00  0.14856738831E+04  0.14856738831E+04  0.00000000000E+00 0.  1.
          2   -1    0    0  501    0  0.00000000000E+00 -0.00000000000E+00 -0.50738758826E+03  0.50738758826E+03  0.00000000000E+00 0. -1.
         23    2    1    2    0    0  0.41639342554E+03 -0.37015308311E+03  0.67671056600E+03  0.88116587564E+03  0.90107272065E+02 0.  0.
        254    2    1    2    0    0 -0.41639342554E+03  0.37015308311E+03  0.30157572879E+03  0.11118955957E+04  0.91376534500E+03 0.  0.
        -24    2    4    4    0    0 -0.39493654014E+03  0.65438104259E+03  0.16600621702E+03  0.78618444065E+03  0.79614640592E+02 0.  0.
         24    2    4    4    0    0 -0.21456885409E+02 -0.28422795948E+03  0.13556951177E+03  0.32571115502E+03  0.80391125772E+02 0.  0.
         13    1    3    3    0    0  0.18209381330E+03 -0.15816725666E+03  0.36369006062E+03  0.43640061654E+03  0.00000000000E+00 0.  1.
        -13    1    3    3    0    0  0.23429961224E+03 -0.21198582645E+03  0.31302050539E+03  0.44476525910E+03  0.00000000000E+00 0. -1.
          2    1    6    6  502    0  0.23890193608E+02 -0.38459385932E+02  0.11608032735E+02  0.46739834626E+02  0.00000000000E+00 0. -1.
          1    1    5    5  503    0 -0.29090955183E+01  0.10623206382E+02 -0.67382242756E+01  0.12911971846E+02  0.00000000000E+00 0. -1.
         -2    1    5    5    0  503 -0.39202744462E+03  0.64375783621E+03  0.17274444130E+03  0.77327246880E+03  0.00000000000E+00 0.  1.
         -1    1    6    6    0  502 -0.45347079017E+02 -0.24576857355E+03  0.12396147903E+03  0.27897132040E+03  0.00000000000E+00 0.  1.
<mgrwt>
<rscale>  0 0.17364475E+04</rscale>
<asrwt>0</asrwt>
<pdfrwt beam="1">  1        2 0.78059629E-01 0.17364475E+04</pdfrwt>
<pdfrwt beam="2">  1       -2 0.22856521E+00 0.17364475E+04</pdfrwt>
<totfact> 0.50108879E+00</totfact>
</mgrwt>
</event>
<event>
12    1  0.1494110E-007  0.1188447E+04  0.7818608E-02  0.9123029E-01
         -1   -1    0    0    0  501 -0.00000000000E+00  0.00000000000E+00  0.38167437514E+03  0.38167437514E+03  0.00000000000E+00 0.  1.
          1   -1    0    0  501    0  0.00000000000E+00 -0.00000000000E+00 -0.92513827293E+03  0.92513827293E+03  0.00000000000E+00 0. -1.
         23    2    1    2    0    0  0.12653074237E+03  0.18525686796E+03 -0.26049906186E+03  0.35636057245E+03  0.93824093239E+02 0.  0.
        254    2    1    2    0    0 -0.12653074237E+03 -0.18525686796E+03 -0.28296483593E+03  0.95045207563E+03  0.87918138845E+03 0.  0.
        -24    2    4    4    0    0  0.27174806228E+03 -0.19795338763E+03  0.13411344642E+03  0.36938268949E+03  0.73651895789E+02 0.  0.
         24    2    4    4    0    0 -0.39827880466E+03  0.12696519670E+02 -0.41707828235E+03  0.58106938614E+03  0.70000928906E+02 0.  0.
         11    1    3    3    0    0  0.63204609185E+01  0.33795553412E+01 -0.59181209942E+02  0.59613632926E+02  0.00000000000E+00 0.  1.
        -11    1    3    3    0    0  0.12021028146E+03  0.18187731262E+03 -0.20131785192E+03  0.29674693952E+03  0.00000000000E+00 0. -1.
          2    1    6    6  502    0 -0.28240718991E+03  0.38323279457E+02 -0.31188410670E+03  0.42248572837E+03  0.00000000000E+00 0. -1.
          3    1    5    5  503    0  0.20050038848E+03 -0.14762035812E+03  0.62982212923E+02  0.25682471660E+03  0.00000000000E+00 0. -1.
         -2    1    5    5    0  503  0.71247673806E+02 -0.50333029513E+02  0.71131233492E+02  0.11255797289E+03  0.00000000000E+00 0.  1.
         -1    1    6    6    0  502 -0.11587161475E+03 -0.25626759787E+02 -0.10519417565E+03  0.15858365777E+03  0.00000000000E+00 0.  1.
<mgrwt>
<rscale>  0 0.11884470E+04</rscale>
<asrwt>0</asrwt>
<pdfrwt beam="1">  1        1 0.14232896E+00 0.11884470E+04</pdfrwt>
<pdfrwt beam="2">  1       -1 0.58719135E-01 0.11884470E+04</pdfrwt>
<totfact> 0.50534815E+01</totfact>
</mgrwt>
</event>
<event>
12    1  0.1647032E-007  0.2109879E+04  0.7818608E-02  0.8556904E-01
          2   -1    0    0  501    0  0.00000000000E+00  0.00000000000E+00  0.15380798724E+04  0.15380798724E+04  0.00000000000E+00 0. -1.
         -2   -1    0    0    0  501 -0.00000000000E+00 -0.00000000000E+00 -0.72356299703E+03  0.72356299703E+03  0.00000000000E+00 0.  1.
         23    2    1    2    0    0 -0.81410544121E+02  0.49170186762E+03  0.10888471022E+04  0.12011157585E+04  0.93234382151E+02 0.  0.
        254    2    1    2    0    0  0.81410544121E+02 -0.49170186762E+03 -0.27433022687E+03  0.10605271109E+04  0.89502082449E+03 0.  0.
        -24    2    4    4    0    0 -0.15063100600E+03  0.10160422972E+03  0.18478809414E+03  0.27119289678E+03  0.79911376278E+02 0.  0.
         24    2    4    4    0    0  0.23204155013E+03 -0.59330609733E+03 -0.45911832101E+03  0.78933421413E+03  0.80021639492E+02 0.  0.
         11    1    3    3    0    0 -0.85048047227E+02  0.49475832469E+03  0.10741904504E+04  0.11857082668E+04  0.00000000000E+00 0. -1.
        -11    1    3    3    0    0  0.36375031063E+01 -0.30564570728E+01  0.14656651853E+02  0.15407491757E+02  0.00000000000E+00 0.  1.
          2    1    6    6  502    0  0.33096031966E+02 -0.96084806535E+02 -0.11149048766E+03  0.15085677385E+03  0.00000000000E+00 0. -1.
          3    1    5    5  503    0 -0.12072136819E+02 -0.12772005762E+02  0.86500191896E+01  0.19587839354E+02  0.00000000000E+00 0. -1.
         -4    1    5    5    0  503 -0.13855886918E+03  0.11437623548E+03  0.17613807495E+03  0.25160505742E+03  0.00000000000E+00 0.  1.
         -1    1    6    6    0  502  0.19894551816E+03 -0.49722129080E+03 -0.34762783335E+03  0.63847744027E+03  0.00000000000E+00 0.  1.
<mgrwt>
<rscale>  0 0.21098793E+04</rscale>
<asrwt>0</asrwt>
<pdfrwt beam="1">  1        2 0.23662767E+00 0.21098793E+04</pdfrwt>
<pdfrwt beam="2">  1       -2 0.11131738E+00 0.21098793E+04</pdfrwt>
<totfact> 0.71018557E+00</totfact>
</mgrwt>
</event>
<event>
12    1  0.1494110E-007  0.1868785E+04  0.7818608E-02  0.8670552E-01
         -1   -1    0    0    0  501 -0.00000000000E+00  0.00000000000E+00  0.90807871815E+03  0.90807871815E+03  0.00000000000E+00 0.  1.
          1   -1    0    0  501    0  0.00000000000E+00 -0.00000000000E+00 -0.96146861530E+03  0.96146861530E+03  0.00000000000E+00 0. -1.
         23    2    1    2    0    0 -0.41697210039E+03 -0.35098516634E+03 -0.49027710696E+03  0.73889844285E+03  0.92428067856E+02 0.  0.
        254    2    1    2    0    0  0.41697210039E+03  0.35098516634E+03  0.43688720981E+03  0.11306488906E+04  0.88906701672E+03 0.  0.
        -24    2    4    4    0    0  0.55770311795E+03  0.41344662922E+03  0.57717575970E+03  0.90672484664E+03  0.83947644081E+02 0.  0.
         24    2    4    4    0    0 -0.14073101756E+03 -0.62461462875E+02 -0.14028854989E+03  0.22392404396E+03  0.82185440244E+02 0.  0.
         11    1    3    3    0    0 -0.38519637823E+03 -0.29028102077E+03 -0.44862532656E+03  0.65871390182E+03  0.00000000000E+00 0. -1.
        -11    1    3    3    0    0 -0.31775722167E+02 -0.60704145571E+02 -0.41651780402E+02  0.80184541025E+02  0.00000000000E+00 0.  1.
          2    1    6    6  502    0 -0.73894057854E+02  0.86404324263E+01 -0.42063675374E+02  0.85465441230E+02  0.00000000000E+00 0. -1.
          1    1    5    5  503    0  0.12948751768E+03  0.92482339834E+02  0.18026194277E+03  0.24044618614E+03  0.00000000000E+00 0. -1.
         -4    1    5    5    0  503  0.42821560027E+03  0.32096428938E+03  0.39691381693E+03  0.66627866050E+03  0.00000000000E+00 0.  1.
         -1    1    6    6    0  502 -0.66836959704E+02 -0.71101895301E+02 -0.98224874513E+02  0.13845860273E+03  0.00000000000E+00 0.  1.
<mgrwt>
<rscale>  0 0.18687848E+04</rscale>
<asrwt>0</asrwt>
<pdfrwt beam="1">  1        1 0.14791825E+00 0.18687848E+04</pdfrwt>
<pdfrwt beam="2">  1       -1 0.13970442E+00 0.18687848E+04</pdfrwt>
<totfact> 0.64176122E+00</totfact>
</mgrwt>
</event>
<event>
12    1  0.1494110E-007  0.1647159E+04  0.7818608E-02  0.8792089E-01
         -1   -1    0    0    0  501 -0.00000000000E+00  0.00000000000E+00  0.26586369120E+03  0.26586369120E+03  0.00000000000E+00 0.  1.
          1   -1    0    0  501    0  0.00000000000E+00 -0.00000000000E+00 -0.25512428560E+04  0.25512428560E+04  0.00000000000E+00 0. -1.
         23    2    1    2    0    0 -0.13703566662E+03  0.55693194875E+03 -0.85100876795E+03  0.10303749304E+04  0.92220413325E+02 0.  0.
        254    2    1    2    0    0  0.13703566662E+03 -0.55693194875E+03 -0.14343703968E+04  0.17867316168E+04  0.89779700689E+03 0.  0.
        -24    2    4    4    0    0 -0.12755634919E+03  0.10270056152E+03  0.23389597141E+01  0.18175843709E+03  0.78820245917E+02 0.  0.
         24    2    4    4    0    0  0.26459201581E+03 -0.65963251027E+03 -0.14367093565E+04  0.16049731797E+04  0.81738294985E+02 0.  0.
         11    1    3    3    0    0 -0.19398122548E+02  0.12287625821E+03 -0.12489941619E+03  0.17628024891E+03  0.00000000000E+00 0.  1.
        -11    1    3    3    0    0 -0.11763754408E+03  0.43405569054E+03 -0.72610935175E+03  0.85409468150E+03  0.00000000000E+00 0. -1.
          2    1    6    6  502    0  0.23290536918E+03 -0.52368765775E+03 -0.12071995831E+04  0.13363474501E+04  0.00000000000E+00 0. -1.
          3    1    5    5  503    0 -0.10964977878E+03  0.87050528356E+02  0.32126604553E+02  0.14364187131E+03  0.00000000000E+00 0. -1.
         -4    1    5    5    0  503 -0.17906570409E+02  0.15650033163E+02 -0.29787644839E+02  0.38116565780E+02  0.00000000000E+00 0.  1.
         -1    1    6    6    0  502  0.31686646634E+02 -0.13594485251E+03 -0.22950977345E+03  0.26862572961E+03  0.00000000000E+00 0.  1.
<mgrwt>
<rscale>  0 0.16471586E+04</rscale>
<asrwt>0</asrwt>
<pdfrwt beam="1">  1        1 0.39249888E+00 0.16471586E+04</pdfrwt>
<pdfrwt beam="2">  1       -1 0.40902108E-01 0.16471586E+04</pdfrwt>
<totfact> 0.69877619E+00</totfact>
</mgrwt>
</event>
<event>
12    1  0.1494110E-007  0.1336554E+04  0.7818608E-02  0.9001069E-01
          2   -1    0    0  501    0  0.00000000000E+00  0.00000000000E+00  0.16154315366E+04  0.16154315366E+04  0.00000000000E+00 0. -1.
         -2   -1    0    0    0  501 -0.00000000000E+00 -0.00000000000E+00 -0.27645509413E+03  0.27645509413E+03  0.00000000000E+00 0.  1.
         23    2    1    2    0    0  0.32781231779E+03  0.67730942128E+02  0.56694357321E+03  0.66469679426E+03  0.91369671539E+02 0.  0.
        254    2    1    2    0    0 -0.32781231779E+03 -0.67730942128E+02  0.77203286925E+03  0.12271898365E+04  0.89325905947E+03 0.  0.
        -24    2    4    4    0    0  0.14709620118E+03 -0.16576441957E+03 -0.76134459121E+02  0.24704442271E+03  0.78226310971E+02 0.  0.
         24    2    4    4    0    0 -0.47490851897E+03  0.98033477447E+02  0.84816732837E+03  0.98014541376E+03  0.78412697367E+02 0.  0.
         11    1    3    3    0    0  0.79791044737E+02  0.22095776305E+02  0.74240271166E+02  0.11120455033E+03  0.00000000000E+00 0.  1.
        -11    1    3    3    0    0  0.24802127305E+03  0.45635165823E+02  0.49270330205E+03  0.55349224393E+03  0.00000000000E+00 0. -1.
          4    1    6    6  502    0 -0.34241855068E+03  0.57581351728E+02  0.53625515741E+03  0.63885496771E+03  0.00000000000E+00 0. -1.
          1    1    5    5  503    0  0.63655446599E+02 -0.26276320202E+02 -0.42919751141E+02  0.81145338271E+02  0.00000000000E+00 0. -1.
         -2    1    5    5    0  503  0.83440754583E+02 -0.13948809937E+03 -0.33214707979E+02  0.16589908444E+03  0.00000000000E+00 0.  1.
         -3    1    6    6    0  502 -0.13248996829E+03  0.40452125719E+02  0.31191217096E+03  0.34129044605E+03  0.00000000000E+00 0.  1.
<mgrwt>
<rscale>  0 0.13365542E+04</rscale>
<asrwt>0</asrwt>
<pdfrwt beam="1">  1        2 0.24852792E+00 0.13365542E+04</pdfrwt>
<pdfrwt beam="2">  1       -2 0.42531554E-01 0.13365542E+04</pdfrwt>
<totfact> 0.55997408E+01</totfact>
</mgrwt>
</event>
<event>
12    1  0.1494110E-007  0.1174984E+04  0.7818608E-02  0.9135039E-01
         -2   -1    0    0    0  501 -0.00000000000E+00  0.00000000000E+00  0.76424126676E+02  0.76424126676E+02  0.00000000000E+00 0.  1.
          2   -1    0    0  501    0  0.00000000000E+00 -0.00000000000E+00 -0.45162064664E+04  0.45162064664E+04  0.00000000000E+00 0. -1.
         23    2    1    2    0    0  0.14657570902E+03 -0.53413140635E+02 -0.14820695486E+04  0.14930755113E+04  0.91689330661E+02 0.  0.
        254    2    1    2    0    0 -0.14657570902E+03  0.53413140635E+02 -0.29577127911E+04  0.30995550818E+04  0.91369543524E+03 0.  0.
        -24    2    4    4    0    0 -0.44415169637E+03 -0.38293386024E+02 -0.24959415995E+04  0.25366998448E+04  0.79903201205E+02 0.  0.
         24    2    4    4    0    0  0.29757598735E+03  0.91706526659E+02 -0.46177119153E+03  0.56285523696E+03  0.81313154913E+02 0.  0.
         11    1    3    3    0    0  0.61120903122E+01 -0.45192903412E+01 -0.47704340346E+03  0.47710396186E+03  0.00000000000E+00 0.  1.
        -11    1    3    3    0    0  0.14046361870E+03 -0.48893850294E+02 -0.10050261452E+04  0.10159715494E+04  0.00000000000E+00 0. -1.
          4    1    6    6  502    0  0.13744853000E+03  0.54040454233E+02 -0.15091782719E+03  0.21116027007E+03  0.00000000000E+00 0. -1.
          3    1    5    5  503    0 -0.12234770278E+03  0.12070018872E+02 -0.53960969551E+03  0.55343768323E+03  0.00000000000E+00 0. -1.
         -4    1    5    5    0  503 -0.32180399359E+03 -0.50363404895E+02 -0.19563319040E+04  0.19832621616E+04  0.00000000000E+00 0.  1.
         -3    1    6    6    0  502  0.16012745735E+03  0.37666072425E+02 -0.31085336435E+03  0.35169496689E+03  0.00000000000E+00 0.  1.
<mgrwt>
<rscale>  0 0.11749845E+04</rscale>
<asrwt>0</asrwt>
<pdfrwt beam="1">  1        2 0.69480137E+00 0.11749845E+04</pdfrwt>
<pdfrwt beam="2">  1       -2 0.11757552E-01 0.11749845E+04</pdfrwt>
<totfact> 0.65738920E+00</totfact>
</mgrwt>
</event>
<event>
12    1  0.1494110E-007  0.1921142E+04  0.7818608E-02  0.8644403E-01
          1   -1    0    0  501    0  0.00000000000E+00  0.00000000000E+00  0.16237911865E+04  0.16237911865E+04  0.00000000000E+00 0. -1.
         -1   -1    0    0    0  501 -0.00000000000E+00 -0.00000000000E+00 -0.56823630495E+03  0.56823630495E+03  0.00000000000E+00 0.  1.
         23    2    1    2    0    0 -0.31299401306E+03 -0.31151395389E+03 -0.27141988765E+03  0.52659537750E+03  0.92885631320E+02 0.  0.
        254    2    1    2    0    0  0.31299401306E+03  0.31151395389E+03  0.13269747692E+04  0.16654321140E+04  0.90432068008E+03 0.  0.
        -24    2    4    4    0    0 -0.15942595554E+03  0.45646404930E+03  0.80700833191E+03  0.94394269215E+03  0.77390533611E+02 0.  0.
         24    2    4    4    0    0  0.47241996860E+03 -0.14495009540E+03  0.51996643734E+03  0.72148942185E+03  0.77399825498E+02 0.  0.
         13    1    3    3    0    0 -0.30563064148E+03 -0.31762961352E+03 -0.27001634417E+03  0.51692116083E+03  0.00000000000E+00 0.  1.
        -13    1    3    3    0    0 -0.73633715844E+01  0.61156596297E+01 -0.14035434831E+01  0.96742166663E+01  0.00000000000E+00 0. -1.
          2    1    6    6  502    0  0.31808158347E+03 -0.12653150693E+03  0.38955573277E+03  0.51859404637E+03  0.00000000000E+00 0. -1.
          1    1    5    5  503    0 -0.16691313001E+03  0.41140388186E+03  0.73309646019E+03  0.85705517146E+03  0.00000000000E+00 0. -1.
         -2    1    5    5    0  503  0.74871744719E+01  0.45060167435E+02  0.73911871720E+02  0.86887520692E+02  0.00000000000E+00 0.  1.
         -1    1    6    6    0  502  0.15433838513E+03 -0.18418588469E+02  0.13041070457E+03  0.20289537548E+03  0.00000000000E+00 0.  1.
<mgrwt>
<rscale>  0 0.19211425E+04</rscale>
<asrwt>0</asrwt>
<pdfrwt beam="1">  1        1 0.24981403E+00 0.19211425E+04</pdfrwt>
<pdfrwt beam="2">  1       -1 0.87420971E-01 0.19211425E+04</pdfrwt>
<totfact> 0.64627444E+00</totfact>
</mgrwt>
</event>
<event>
12    1  0.1494110E-007  0.1982081E+04  0.7818608E-02  0.8615044E-01
         -1   -1    0    0    0  501 -0.00000000000E+00  0.00000000000E+00  0.15022474095E+04  0.15022474095E+04  0.00000000000E+00 0.  1.
          1   -1    0    0  501    0  0.00000000000E+00 -0.00000000000E+00 -0.65379472140E+03  0.65379472140E+03  0.00000000000E+00 0. -1.
         23    2    1    2    0    0 -0.39189304550E+03 -0.20252925045E+03  0.10405177635E+04  0.11338433619E+04  0.91243064743E+02 0.  0.
        254    2    1    2    0    0  0.39189304550E+03  0.20252925045E+03 -0.19206507536E+03  0.10221987690E+04  0.90188861494E+03 0.  0.
        -24    2    4    4    0    0  0.43726387329E+03 -0.12855010229E+03 -0.40782500284E+03  0.61666242522E+03  0.78908111438E+02 0.  0.
         24    2    4    4    0    0 -0.45370827791E+02  0.33107935274E+03  0.21575992749E+03  0.40553634377E+03  0.78964105696E+02 0.  0.
         11    1    3    3    0    0 -0.33589511267E+03 -0.20648398214E+03  0.91618265046E+03  0.99742258376E+03  0.00000000000E+00 0.  1.
        -11    1    3    3    0    0 -0.55997932837E+02  0.39547316972E+01  0.12433511300E+03  0.13642077815E+03  0.00000000000E+00 0. -1.
          4    1    6    6  502    0 -0.56474138811E+02  0.28617732414E+03  0.20888138168E+03  0.35877321641E+03  0.00000000000E+00 0. -1.
          1    1    5    5  503    0  0.33035417025E+03 -0.84104929709E+02 -0.25909329030E+03  0.42817852594E+03  0.00000000000E+00 0. -1.
         -2    1    5    5    0  503  0.10690970305E+03 -0.44445172582E+02 -0.14873171254E+03  0.18848389928E+03  0.00000000000E+00 0.  1.
         -3    1    6    6    0  502  0.11103311020E+02  0.44902028600E+02  0.68785458112E+01  0.46763127359E+02  0.00000000000E+00 0.  1.
<mgrwt>
<rscale>  0 0.19820812E+04</rscale>
<asrwt>0</asrwt>
<pdfrwt beam="1">  1        1 0.10058380E+00 0.19820812E+04</pdfrwt>
<pdfrwt beam="2">  1       -1 0.23111499E+00 0.19820812E+04</pdfrwt>
<totfact> 0.26029406E+00</totfact>
</mgrwt>
</event>
<event>
12    1  0.1494110E-007  0.1425236E+04  0.7818608E-02  0.8935751E-01
          2   -1    0    0  501    0  0.00000000000E+00  0.00000000000E+00  0.52394868860E+03  0.52394868860E+03  0.00000000000E+00 0. -1.
         -2   -1    0    0    0  501 -0.00000000000E+00 -0.00000000000E+00 -0.96922529935E+03  0.96922529935E+03  0.00000000000E+00 0.  1.
         23    2    1    2    0    0  0.34264699367E+03 -0.96094487096E+00 -0.36832358579E+03  0.51124848287E+03  0.91131013962E+02 0.  0.
        254    2    1    2    0    0 -0.34264699367E+03  0.96094487096E+00 -0.76953024959E+02  0.98192550507E+03  0.91697766809E+03 0.  0.
        -24    2    4    4    0    0 -0.13017757816E+03 -0.68329263148E+02 -0.48329097148E+03  0.51129955023E+03  0.79006182657E+02 0.  0.
         24    2    4    4    0    0 -0.21246941551E+03  0.69290208019E+02  0.40633794652E+03  0.47062595484E+03  0.80211452654E+02 0.  0.
         11    1    3    3    0    0  0.55553661469E+00 -0.12253466574E+02 -0.13648746032E+02  0.18350594875E+02  0.00000000000E+00 0. -1.
        -11    1    3    3    0    0  0.34209145706E+03  0.11292521703E+02 -0.35467483976E+03  0.49289788800E+03  0.00000000000E+00 0.  1.
          4    1    6    6  502    0 -0.19598307804E+03  0.67886629583E+02  0.31069945929E+03  0.37356674820E+03  0.00000000000E+00 0. -1.
          1    1    5    5  503    0 -0.90027850918E+02 -0.75007189645E+01 -0.31945816364E+03  0.33198613381E+03  0.00000000000E+00 0. -1.
         -2    1    5    5    0  503 -0.40149727246E+02 -0.60828544183E+02 -0.16383280784E+03  0.17931341642E+03  0.00000000000E+00 0.  1.
         -3    1    6    6    0  502 -0.16486337466E+02  0.14035784360E+01  0.95638487225E+02  0.97059206642E+02  0.00000000000E+00 0.  1.
<mgrwt>
<rscale>  0 0.14252359E+04</rscale>
<asrwt>0</asrwt>
<pdfrwt beam="1">  1        2 0.80607491E-01 0.14252359E+04</pdfrwt>
<pdfrwt beam="2">  1       -2 0.14911158E+00 0.14252359E+04</pdfrwt>
<totfact> 0.17225176E+01</totfact>
</mgrwt>
</event>
<event>
12    1  0.1494110E-007  0.2855669E+04  0.7818608E-02  0.8286191E-01
          1   -1    0    0  501    0  0.00000000000E+00  0.00000000000E+00  0.12154386445E+04  0.12154386445E+04  0.00000000000E+00 0. -1.
         -1   -1    0    0    0  501 -0.00000000000E+00 -0.00000000000E+00 -0.16773458473E+04  0.16773458473E+04  0.00000000000E+00 0.  1.
         23    2    1    2    0    0 -0.92509156325E+03  0.50992769542E+03 -0.94864187308E+03  0.14225167166E+04  0.88384109439E+02 0.  0.
        254    2    1    2    0    0  0.92509156325E+03 -0.50992769542E+03  0.48673467025E+03  0.14702677752E+04  0.89941983335E+03 0.  0.
        -24    2    4    4    0    0  0.84294567225E+03 -0.52540772279E+03  0.70695217737E+03  0.12218251842E+04  0.80403470609E+02 0.  0.
         24    2    4    4    0    0  0.82145891003E+02  0.15480027369E+02 -0.22021750711E+03  0.24844259103E+03  0.78996151435E+02 0.  0.
         13    1    3    3    0    0 -0.30258038864E+03  0.21281101938E+03 -0.34764309025E+03  0.50764075856E+03  0.00000000000E+00 0. -1.
        -13    1    3    3    0    0 -0.62251117462E+03  0.29711667605E+03 -0.60099878283E+03  0.91487595808E+03  0.00000000000E+00 0.  1.
          2    1    6    6  502    0  0.58393692158E+02 -0.28538796483E+02 -0.12465898577E+03  0.14058502382E+03  0.00000000000E+00 0. -1.
          1    1    5    5  503    0  0.51211617545E+03 -0.28582660977E+03  0.45036721507E+03  0.73945280879E+03  0.00000000000E+00 0. -1.
         -2    1    5    5    0  503  0.33082949680E+03 -0.23958111303E+03  0.25658496229E+03  0.48237237540E+03  0.00000000000E+00 0.  1.
         -1    1    6    6    0  502  0.23752198845E+02  0.44018823852E+02 -0.95558521343E+02  0.10785756721E+03  0.00000000000E+00 0.  1.
<mgrwt>
<rscale>  0 0.28556687E+04</rscale>
<asrwt>0</asrwt>
<pdfrwt beam="1">  1        1 0.18699056E+00 0.28556687E+04</pdfrwt>
<pdfrwt beam="2">  1       -1 0.25805321E+00 0.28556687E+04</pdfrwt>
<totfact> 0.55416540E-01</totfact>
</mgrwt>
</event>
<event>
12    1  0.1494110E-007  0.3211644E+04  0.7818608E-02  0.8185749E-01
          2   -1    0    0  501    0  0.00000000000E+00  0.00000000000E+00  0.23262510484E+04  0.23262510484E+04  0.00000000000E+00 0. -1.
         -2   -1    0    0    0  501 -0.00000000000E+00 -0.00000000000E+00 -0.11085064289E+04  0.11085064289E+04  0.00000000000E+00 0.  1.
         23    2    1    2    0    0 -0.68797128800E+03  0.12952183833E+04  0.36293220526E+03  0.15137568765E+04  0.94047551953E+02 0.  0.
        254    2    1    2    0    0  0.68797128800E+03 -0.12952183833E+04  0.85481241426E+03  0.19210006008E+04  0.89924629059E+03 0.  0.
        -24    2    4    4    0    0  0.85379070595E+03 -0.78603647088E+03  0.46010775485E+03  0.12508431457E+04  0.78086656938E+02 0.  0.
         24    2    4    4    0    0 -0.16581941794E+03 -0.50918191244E+03  0.39470465940E+03  0.67015745509E+03  0.80974978486E+02 0.  0.
         13    1    3    3    0    0 -0.12151675419E+03  0.16906770308E+03  0.34066040825E+02  0.21097560264E+03  0.00000000000E+00 0.  1.
        -13    1    3    3    0    0 -0.56645453381E+03  0.11261506802E+04  0.32886616443E+03  0.13027812739E+04  0.00000000000E+00 0. -1.
          2    1    6    6  502    0 -0.14708551701E+03 -0.46652971546E+03  0.38516806393E+03  0.62260626579E+03  0.00000000000E+00 0. -1.
          3    1    5    5  503    0  0.84851511105E+03 -0.77014196459E+03  0.44891211806E+03  0.12306984314E+04  0.00000000000E+00 0. -1.
         -4    1    5    5    0  503  0.52755948943E+01 -0.15894506287E+02  0.11195636793E+02  0.20144714314E+02  0.00000000000E+00 0.  1.
         -1    1    6    6    0  502 -0.18733900936E+02 -0.42652196980E+02  0.95365954679E+01  0.47551189308E+02  0.00000000000E+00 0.  1.
<mgrwt>
<rscale>  0 0.32116440E+04</rscale>
<asrwt>0</asrwt>
<pdfrwt beam="1">  1        2 0.35788478E+00 0.32116440E+04</pdfrwt>
<pdfrwt beam="2">  1       -2 0.17053945E+00 0.32116440E+04</pdfrwt>
<totfact> 0.77845532E-01</totfact>
</mgrwt>
</event>
<event>
12    1  0.1494110E-007  0.2265698E+04  0.7818608E-02  0.8491570E-01
         -1   -1    0    0    0  501 -0.00000000000E+00  0.00000000000E+00  0.54597180920E+03  0.54597180920E+03  0.00000000000E+00 0.  1.
          1   -1    0    0  501    0  0.00000000000E+00 -0.00000000000E+00 -0.23505733272E+04  0.23505733272E+04  0.00000000000E+00 0. -1.
         23    2    1    2    0    0  0.60053994861E+03 -0.72304721437E+03 -0.57575036927E+03  0.11057054478E+04  0.87467396858E+02 0.  0.
        254    2    1    2    0    0 -0.60053994861E+03  0.72304721437E+03 -0.12288511487E+04  0.17908396886E+04  0.90199009993E+03 0.  0.
        -24    2    4    4    0    0 -0.56753240285E+03  0.18698862097E+03 -0.21385974626E+03  0.63962135028E+03  0.79509169253E+02 0.  0.
         24    2    4    4    0    0 -0.33007545757E+02  0.53605859340E+03 -0.10149914025E+04  0.11512183383E+04  0.81534052595E+02 0.  0.
         13    1    3    3    0    0  0.31387757639E+02 -0.16126972503E+02 -0.11857571974E+02  0.37227309664E+02  0.00000000000E+00 0. -1.
        -13    1    3    3    0    0  0.56915219097E+03 -0.70692024187E+03 -0.56389279729E+03  0.10684781381E+04  0.00000000000E+00 0.  1.
          2    1    6    6  502    0 -0.49903140485E+02  0.48476746990E+03 -0.93988419759E+03  0.10587124861E+04  0.00000000000E+00 0. -1.
          1    1    5    5  503    0 -0.43471671023E+03  0.16450983135E+03 -0.13719402403E+03  0.48462800476E+03  0.00000000000E+00 0. -1.
         -2    1    5    5    0  503 -0.13281569262E+03  0.22478789620E+02 -0.76665722232E+02  0.15499334552E+03  0.00000000000E+00 0.  1.
         -1    1    6    6    0  502  0.16895594728E+02  0.51291123503E+02 -0.75107204865E+02  0.92505852215E+02  0.00000000000E+00 0.  1.
<mgrwt>
<rscale>  0 0.22656979E+04</rscale>
<asrwt>0</asrwt>
<pdfrwt beam="1">  1        1 0.36162666E+00 0.22656979E+04</pdfrwt>
<pdfrwt beam="2">  1       -1 0.83995664E-01 0.22656979E+04</pdfrwt>
<totfact> 0.21878632E+00</totfact>
</mgrwt>
</event>
<event>
12    1  0.1494110E-007  0.1591574E+04  0.7818608E-02  0.8825741E-01
         -2   -1    0    0    0  501 -0.00000000000E+00  0.00000000000E+00  0.36047587155E+03  0.36047587155E+03  0.00000000000E+00 0.  1.
          2   -1    0    0  501    0  0.00000000000E+00 -0.00000000000E+00 -0.17567806450E+04  0.17567806450E+04  0.00000000000E+00 0. -1.
         23    2    1    2    0    0  0.10327668627E+03  0.51600590258E+03 -0.61588238441E+03  0.81536913593E+03  0.92669039993E+02 0.  0.
        254    2    1    2    0    0 -0.10327668627E+03 -0.51600590258E+03 -0.78042238905E+03  0.13018873806E+04  0.89940173510E+03 0.  0.
        -24    2    4    4    0    0  0.87483256322E+02 -0.66593892481E+03 -0.26754905809E+03  0.72749215670E+03  0.80835436877E+02 0.  0.
         24    2    4    4    0    0 -0.19075994259E+03  0.14993302223E+03 -0.51287333096E+03  0.57439522394E+03  0.89563121985E+02 0.  0.
         11    1    3    3    0    0  0.11649579758E+03  0.49438985462E+03 -0.59657200816E+03  0.78351181237E+03  0.00000000000E+00 0.  1.
        -11    1    3    3    0    0 -0.13219111312E+02  0.21616047960E+02 -0.19310376253E+02  0.31857323559E+02  0.00000000000E+00 0. -1.
          4    1    6    6  502    0 -0.58192419614E+02  0.32607299142E+02 -0.66462817378E+02  0.94164216939E+02  0.00000000000E+00 0. -1.
          1    1    5    5  503    0  0.41971170514E+02 -0.14781491171E+03 -0.34159978879E+02  0.15740943884E+03  0.00000000000E+00 0. -1.
         -2    1    5    5    0  503  0.45512085808E+02 -0.51812401310E+03 -0.23338907921E+03  0.57008271786E+03  0.00000000000E+00 0.  1.
         -3    1    6    6    0  502 -0.13256752298E+03  0.11732572309E+03 -0.44641051359E+03  0.48023100700E+03  0.00000000000E+00 0.  1.
<mgrwt>
<rscale>  0 0.15915741E+04</rscale>
<asrwt>0</asrwt>
<pdfrwt beam="1">  1        2 0.27027394E+00 0.15915741E+04</pdfrwt>
<pdfrwt beam="2">  1       -2 0.55457827E-01 0.15915741E+04</pdfrwt>
<totfact> 0.26736167E+01</totfact>
</mgrwt>
</event>
<event>
12    1  0.1494110E-007  0.1578592E+04  0.7818608E-02  0.8833809E-01
         -1   -1    0    0    0  501 -0.00000000000E+00  0.00000000000E+00  0.21458533835E+03  0.21458533835E+03  0.00000000000E+00 0.  1.
          1   -1    0    0  501    0  0.00000000000E+00 -0.00000000000E+00 -0.29032179635E+04  0.29032179635E+04  0.00000000000E+00 0. -1.
         23    2    1    2    0    0 -0.28174495031E+03 -0.39384707275E+03 -0.73556594487E+03  0.88545680834E+03  0.92091076975E+02 0.  0.
        254    2    1    2    0    0  0.28174495031E+03  0.39384707275E+03 -0.19530666803E+04  0.22323464935E+04  0.96664661367E+03 0.  0.
        -24    2    4    4    0    0  0.51804311610E+03  0.10870353170E+03 -0.16857930904E+04  0.17687628031E+04  0.80239527382E+02 0.  0.
         24    2    4    4    0    0 -0.23629816579E+03  0.28514354105E+03 -0.26727358985E+03  0.46358369046E+03  0.79567606895E+02 0.  0.
         13    1    3    3    0    0 -0.12340586869E+03 -0.15967536619E+03 -0.22799313369E+03  0.30447676431E+03  0.00000000000E+00 0.  1.
        -13    1    3    3    0    0 -0.15833908162E+03 -0.23417170656E+03 -0.50757281118E+03  0.58098004403E+03  0.00000000000E+00 0. -1.
          2    1    6    6  502    0  0.38139354045E-01  0.96296638967E+01  0.39982753220E+01  0.10426796580E+02  0.00000000000E+00 0. -1.
          3    1    5    5  503    0  0.16158248537E+03 -0.14616214138E+01 -0.46917050741E+03  0.49621769511E+03  0.00000000000E+00 0. -1.
         -4    1    5    5    0  503  0.35646063073E+03  0.11016515311E+03 -0.12166225830E+04  0.12725451080E+04  0.00000000000E+00 0.  1.
         -1    1    6    6    0  502 -0.23633630515E+03  0.27551387715E+03 -0.27127186517E+03  0.45315689388E+03  0.00000000000E+00 0.  1.
<mgrwt>
<rscale>  0 0.15785918E+04</rscale>
<asrwt>0</asrwt>
<pdfrwt beam="1">  1        1 0.44664891E+00 0.15785918E+04</pdfrwt>
<pdfrwt beam="2">  1       -1 0.33013129E-01 0.15785918E+04</pdfrwt>
<totfact> 0.58450486E+00</totfact>
</mgrwt>
</event>
<event>
12    1  0.1494110E-007  0.1662359E+04  0.7818608E-02  0.8783128E-01
         -2   -1    0    0    0  501 -0.00000000000E+00  0.00000000000E+00  0.63518055228E+03  0.63518055228E+03  0.00000000000E+00 0.  1.
          2   -1    0    0  501    0  0.00000000000E+00 -0.00000000000E+00 -0.10876587154E+04  0.10876587154E+04  0.00000000000E+00 0. -1.
         23    2    1    2    0    0 -0.48452617798E+03  0.14010780544E+03 -0.45749349081E+03  0.68715419307E+03  0.92112847242E+02 0.  0.
        254    2    1    2    0    0  0.48452617798E+03 -0.14010780544E+03  0.50153276965E+01  0.10356850746E+04  0.90455657975E+03 0.  0.
        -24    2    4    4    0    0  0.73518314868E+03 -0.41149781209E+02 -0.73315831167E+02  0.74424139839E+03  0.79576889739E+02 0.  0.
         24    2    4    4    0    0 -0.25065697070E+03 -0.98958024234E+02  0.78331158864E+02  0.29144367622E+03  0.78625940006E+02 0.  0.
         11    1    3    3    0    0 -0.28604666691E+03  0.51192515972E+02 -0.21541183817E+03  0.36172590364E+03  0.00000000000E+00 0.  1.
        -11    1    3    3    0    0 -0.19847951107E+03  0.88915289471E+02 -0.24208165263E+03  0.32542828942E+03  0.00000000000E+00 0. -1.
          2    1    6    6  502    0 -0.66542481796E+02 -0.81465416820E+01 -0.10318509630E+02  0.67828752501E+02  0.00000000000E+00 0. -1.
          3    1    5    5  503    0  0.41860886073E+03 -0.23184233242E+02 -0.20856054165E+01  0.41925557445E+03  0.00000000000E+00 0. -1.
         -4    1    5    5    0  503  0.31657428795E+03 -0.17965547967E+02 -0.71230225751E+02  0.32498582394E+03  0.00000000000E+00 0.  1.
         -1    1    6    6    0  502 -0.18411448890E+03 -0.90811482552E+02  0.88649668494E+02  0.22361492372E+03  0.00000000000E+00 0.  1.
<mgrwt>
<rscale>  0 0.16623594E+04</rscale>
<asrwt>0</asrwt>
<pdfrwt beam="1">  1        2 0.16733211E+00 0.16623594E+04</pdfrwt>
<pdfrwt beam="2">  1       -2 0.97720084E-01 0.16623594E+04</pdfrwt>
<totfact> 0.18460967E+01</totfact>
</mgrwt>
</event>
<event>
12    1  0.1494110E-007  0.2430775E+04  0.7818608E-02  0.8428071E-01
          1   -1    0    0  501    0  0.00000000000E+00  0.00000000000E+00  0.29997650946E+04  0.29997650946E+04  0.00000000000E+00 0. -1.
         -1   -1    0    0    0  501 -0.00000000000E+00 -0.00000000000E+00 -0.49242753063E+03  0.49242753063E+03  0.00000000000E+00 0.  1.
         23    2    1    2    0    0 -0.36850895759E+03  0.60327660727E+03 -0.26221862135E+02  0.71310800265E+03  0.89966219697E+02 0.  0.
        254    2    1    2    0    0  0.36850895759E+03 -0.60327660727E+03  0.25335594261E+04  0.27790846226E+04  0.89702087889E+03 0.  0.
        -24    2    4    4    0    0 -0.11942959086E+03  0.13277152387E+03  0.18823152656E+03  0.27162780091E+03  0.80366970304E+02 0.  0.
         24    2    4    4    0    0  0.48793854845E+03 -0.73604813113E+03  0.23453278996E+04  0.25074568217E+04  0.83221858542E+02 0.  0.
         13    1    3    3    0    0 -0.34097354170E+03  0.56206572943E+03 -0.79989248761E+00  0.65740511116E+03  0.00000000000E+00 0.  1.
        -13    1    3    3    0    0 -0.27535415891E+02  0.41210877833E+02 -0.25421969647E+02  0.55702891494E+02  0.00000000000E+00 0. -1.
          2    1    6    6  502    0  0.32137616416E+03 -0.52912762360E+03  0.15560529211E+04  0.16746818726E+04  0.00000000000E+00 0. -1.
          3    1    5    5  503    0 -0.12935165982E+03  0.12664641200E+03  0.18637470033E+03  0.25982050438E+03  0.00000000000E+00 0. -1.
         -2    1    5    5    0  503  0.99220689623E+01  0.61251118647E+01  0.18568262278E+01  0.11807296536E+02  0.00000000000E+00 0.  1.
         -1    1    6    6    0  502  0.16656238430E+03 -0.20692050753E+03  0.78927497844E+03  0.83277494912E+03  0.00000000000E+00 0.  1.
<mgrwt>
<rscale>  0 0.24307751E+04</rscale>
<asrwt>0</asrwt>
<pdfrwt beam="1">  1        1 0.46150231E+00 0.24307751E+04</pdfrwt>
<pdfrwt beam="2">  1       -1 0.75758084E-01 0.24307751E+04</pdfrwt>
<totfact> 0.93572823E-01</totfact>
</mgrwt>
</event>
<event>
12    1  0.1494110E-007  0.1696026E+04  0.7818608E-02  0.8763634E-01
         -2   -1    0    0    0  501 -0.00000000000E+00  0.00000000000E+00  0.37884495841E+03  0.37884495841E+03  0.00000000000E+00 0. -1.
          2   -1    0    0  501    0  0.00000000000E+00 -0.00000000000E+00 -0.18982075950E+04  0.18982075950E+04  0.00000000000E+00 0.  1.
         23    2    1    2    0    0  0.42282307696E+02  0.18001035803E+02 -0.13832099032E+04  0.13870634841E+04  0.92539946988E+02 0.  0.
        254    2    1    2    0    0 -0.42282307696E+02 -0.18001035803E+02 -0.13615273342E+03  0.88998906933E+03  0.87831153122E+03 0.  0.
        -24    2    4    4    0    0 -0.29591405028E+03 -0.73859108985E+02  0.26027468824E+03  0.40937972837E+03  0.82635074469E+02 0.  0.
         24    2    4    4    0    0  0.25363174258E+03  0.55858073182E+02 -0.39642742166E+03  0.48060934096E+03  0.79883995821E+02 0.  0.
         11    1    3    3    0    0  0.26743189597E+01 -0.15022297727E+00  0.45147758317E+00  0.27163175163E+01  0.00000000000E+00 0. -1.
        -11    1    3    3    0    0  0.39607988736E+02  0.18151258780E+02 -0.13836613808E+04  0.13843471666E+04  0.00000000000E+00 0.  1.
          4    1    6    6  502    0  0.15783856930E+03  0.43758606631E+02 -0.17855736477E+03  0.24230262509E+03  0.00000000000E+00 0. -1.
          1    1    5    5  503    0 -0.22135343366E+03 -0.39474230414E+02  0.14388351363E+03  0.26694198425E+03  0.00000000000E+00 0. -1.
         -2    1    5    5    0  503 -0.74560616619E+02 -0.34384878572E+02  0.11639117461E+03  0.14243774412E+03  0.00000000000E+00 0.  1.
         -3    1    6    6    0  502  0.95793173284E+02  0.12099466551E+02 -0.21787005689E+03  0.23830671587E+03  0.00000000000E+00 0.  1.
<mgrwt>
<rscale>  0 0.16960264E+04</rscale>
<asrwt>0</asrwt>
<pdfrwt beam="1">  1        2 0.29203195E+00 0.16960264E+04</pdfrwt>
<pdfrwt beam="2">  1       -2 0.58283838E-01 0.16960264E+04</pdfrwt>
<totfact> 0.19947504E+01</totfact>
</mgrwt>
</event>
<event>
12    1  0.1494110E-007  0.1606608E+04  0.7818608E-02  0.8816499E-01
         -2   -1    0    0    0  501 -0.00000000000E+00  0.00000000000E+00  0.55744272787E+03  0.55744272787E+03  0.00000000000E+00 0.  1.
          2   -1    0    0  501    0  0.00000000000E+00 -0.00000000000E+00 -0.11576031502E+04  0.11576031502E+04  0.00000000000E+00 0. -1.
         23    2    1    2    0    0  0.33531194914E+03  0.38298057123E+03 -0.38308757609E+03  0.64273928907E+03  0.85143887528E+02 0.  0.
        254    2    1    2    0    0 -0.33531194914E+03 -0.38298057123E+03 -0.21707284621E+03  0.10723065890E+04  0.91848384799E+03 0.  0.
        -24    2    4    4    0    0 -0.68944412373E+02 -0.65613102345E+01 -0.50915814522E+03  0.52043978899E+03  0.82578292112E+02 0.  0.
         24    2    4    4    0    0 -0.26636753676E+03 -0.37641926100E+03  0.29208529901E+03  0.55186679998E+03  0.81240496878E+02 0.  0.
         13    1    3    3    0    0  0.15103109770E+03  0.13617463225E+03 -0.11055877071E+03  0.23146741611E+03  0.00000000000E+00 0. -1.
        -13    1    3    3    0    0  0.18428085143E+03  0.24680593899E+03 -0.27252880538E+03  0.41127187296E+03  0.00000000000E+00 0.  1.
          2    1    6    6  502    0 -0.39645021648E+02 -0.23164077424E+02  0.12713950045E+02  0.47643958171E+02  0.00000000000E+00 0. -1.
          1    1    5    5  503    0  0.13047247759E+02 -0.20799081956E+02 -0.11408545801E+03  0.11669757586E+03  0.00000000000E+00 0. -1.
         -2    1    5    5    0  503 -0.81991660132E+02  0.14237771721E+02 -0.39507268721E+03  0.40374221312E+03  0.00000000000E+00 0.  1.
         -1    1    6    6    0  502 -0.22672251511E+03 -0.35325518358E+03  0.27937134897E+03  0.50422284181E+03  0.00000000000E+00 0.  1.
<mgrwt>
<rscale>  0 0.16066082E+04</rscale>
<asrwt>0</asrwt>
<pdfrwt beam="1">  1        2 0.17809279E+00 0.16066082E+04</pdfrwt>
<pdfrwt beam="2">  1       -2 0.85760420E-01 0.16066082E+04</pdfrwt>
<totfact> 0.22735432E+01</totfact>
</mgrwt>
</event>
<event>
12    1  0.1494110E-007  0.2019424E+04  0.7818608E-02  0.8597593E-01
          1   -1    0    0  501    0  0.00000000000E+00  0.00000000000E+00  0.22214276392E+04  0.22214276392E+04  0.00000000000E+00 0.  1.
         -1   -1    0    0    0  501 -0.00000000000E+00 -0.00000000000E+00 -0.45894732352E+03  0.45894732352E+03  0.00000000000E+00 0. -1.
         23    2    1    2    0    0 -0.33634417555E+03 -0.40730363766E+03 -0.10479308906E+03  0.54592718588E+03  0.89617203090E+02 0.  0.
        254    2    1    2    0    0  0.33634417555E+03  0.40730363766E+03  0.18672734047E+04  0.21344477768E+04  0.88889464296E+03 0.  0.
        -24    2    4    4    0    0  0.29430953764E+03  0.58023369042E+03  0.73337377837E+03  0.98360935964E+03  0.79756091372E+02 0.  0.
         24    2    4    4    0    0  0.42034637911E+02 -0.17293005276E+03  0.11338996263E+04  0.11508384172E+04  0.83839047503E+02 0.  0.
         11    1    3    3    0    0 -0.27129198826E+03 -0.32864488154E+03 -0.12000154498E+03  0.44272697213E+03  0.00000000000E+00 0. -1.
        -11    1    3    3    0    0 -0.65052187298E+02 -0.78658756119E+02  0.15208455922E+02  0.10320021375E+03  0.00000000000E+00 0.  1.
          2    1    6    6  502    0  0.48464769386E+02 -0.13727522447E+03  0.10408982615E+04  0.10510292631E+04  0.00000000000E+00 0. -1.
          3    1    5    5  503    0  0.26110238420E+03  0.55623485097E+03  0.69002774233E+03  0.92396425778E+03  0.00000000000E+00 0. -1.
         -4    1    5    5    0  503  0.33207153446E+02  0.23998839453E+02  0.43346036041E+02  0.59645101856E+02  0.00000000000E+00 0.  1.
         -1    1    6    6    0  502 -0.64301314746E+01 -0.35654828298E+02  0.93001364850E+02  0.99809154067E+02  0.00000000000E+00 0.  1.
<mgrwt>
<rscale>  0 0.20194239E+04</rscale>
<asrwt>0</asrwt>
<pdfrwt beam="1">  1        1 0.34175809E+00 0.20194239E+04</pdfrwt>
<pdfrwt beam="2">  1       -1 0.70607282E-01 0.20194239E+04</pdfrwt>
<totfact> 0.39540609E+00</totfact>
</mgrwt>
</event>
<event>
12    1  0.1494110E-007  0.2982080E+04  0.7818608E-02  0.8248867E-01
          4   -1    0    0  501    0  0.00000000000E+00  0.00000000000E+00  0.21887546794E+04  0.21887546794E+04  0.00000000000E+00 0. -1.
         -4   -1    0    0    0  501 -0.00000000000E+00 -0.00000000000E+00 -0.10157377301E+04  0.10157377301E+04  0.00000000000E+00 0.  1.
         23    2    1    2    0    0 -0.47065718603E+03  0.16745434912E+03 -0.81865763576E+03  0.96351463723E+03  0.92741499730E+02 0.  0.
        254    2    1    2    0    0  0.47065718603E+03 -0.16745434912E+03  0.19916745850E+04  0.22409777723E+04  0.89758262995E+03 0.  0.
        -24    2    4    4    0    0  0.82256264778E+02 -0.44791734098E+03  0.14067109026E+04  0.14806710804E+04  0.78455384854E+02 0.  0.
         24    2    4    4    0    0  0.38840092125E+03  0.28046299186E+03  0.58496368234E+03  0.76030669183E+03  0.79805955639E+02 0.  0.
         13    1    3    3    0    0 -0.28411134141E+03  0.13985557870E+03 -0.56125088821E+03  0.64442330554E+03  0.00000000000E+00 0.  1.
        -13    1    3    3    0    0 -0.18654584463E+03  0.27598770413E+02 -0.25740674755E+03  0.31909133169E+03  0.00000000000E+00 0. -1.
          2    1    6    6  502    0  0.14416024505E+02 -0.47521415377E+01  0.14995205651E+02  0.21336841478E+02  0.00000000000E+00 0. -1.
          3    1    5    5  503    0 -0.29708446917E+01 -0.11771959988E+03  0.44378687191E+03  0.45914433220E+03  0.00000000000E+00 0. -1.
         -4    1    5    5    0  503  0.85227109469E+02 -0.33019774110E+03  0.96292403073E+03  0.10215267482E+04  0.00000000000E+00 0.  1.
         -1    1    6    6    0  502  0.37398489675E+03  0.28521513340E+03  0.56996847668E+03  0.73896985035E+03  0.00000000000E+00 0.  1.
<mgrwt>
<rscale>  0 0.29820803E+04</rscale>
<asrwt>0</asrwt>
<pdfrwt beam="1">  1        4 0.33673149E+00 0.29820803E+04</pdfrwt>
<pdfrwt beam="2">  1       -4 0.15626734E+00 0.29820803E+04</pdfrwt>
<totfact> 0.82083251E-03</totfact>
</mgrwt>
</event>
<event>
12    1  0.1494110E-007  0.1724234E+04  0.7818608E-02  0.8747662E-01
         -1   -1    0    0    0  501 -0.00000000000E+00  0.00000000000E+00  0.91144128543E+03  0.91144128543E+03  0.00000000000E+00 0.  1.
          1   -1    0    0  501    0  0.00000000000E+00 -0.00000000000E+00 -0.81546205514E+03  0.81546205514E+03  0.00000000000E+00 0. -1.
         23    2    1    2    0    0  0.42120240167E+03 -0.40218474052E+03 -0.19507658472E+03  0.62101601439E+03  0.91880289234E+02 0.  0.
        254    2    1    2    0    0 -0.42120240167E+03  0.40218474052E+03  0.29105581501E+03  0.11058873262E+04  0.89392911468E+03 0.  0.
        -24    2    4    4    0    0  0.11458496286E+03  0.49576812677E+03  0.11353252555E+03  0.52793908574E+03  0.83152237856E+02 0.  0.
         24    2    4    4    0    0 -0.53578736452E+03 -0.93583386250E+02  0.17752328946E+03  0.57794824044E+03  0.81753899979E+02 0.  0.
         11    1    3    3    0    0  0.36340125584E+03 -0.37229240071E+03 -0.19596809038E+03  0.55593668419E+03  0.00000000000E+00 0.  1.
        -11    1    3    3    0    0  0.57801145825E+02 -0.29892339806E+02  0.89150566223E+00  0.65079330206E+02  0.00000000000E+00 0. -1.
          2    1    6    6  502    0 -0.46635024263E+03 -0.10323026190E+03  0.17185590860E+03  0.50761549335E+03  0.00000000000E+00 0. -1.
          1    1    5    5  503    0  0.11915133336E+03  0.48246639724E+03  0.97186059173E+02  0.50637534972E+03  0.00000000000E+00 0. -1.
         -2    1    5    5    0  503 -0.45663705068E+01  0.13301729532E+02  0.16346466377E+02  0.21563736020E+02  0.00000000000E+00 0.  1.
         -1    1    6    6    0  502 -0.69437121894E+02  0.96468756543E+01  0.56673808637E+01  0.70332747086E+02  0.00000000000E+00 0.  1.
<mgrwt>
<rscale>  0 0.17242341E+04</rscale>
<asrwt>0</asrwt>
<pdfrwt beam="1">  1        1 0.12545570E+00 0.17242341E+04</pdfrwt>
<pdfrwt beam="2">  1       -1 0.14022174E+00 0.17242341E+04</pdfrwt>
<totfact> 0.84988619E+00</totfact>
</mgrwt>
</event>
<event>
12    1  0.1494110E-007  0.2026732E+04  0.7818608E-02  0.8594223E-01
         -1   -1    0    0    0  501 -0.00000000000E+00  0.00000000000E+00  0.17942510241E+04  0.17942510241E+04  0.00000000000E+00 0.  1.
          1   -1    0    0  501    0  0.00000000000E+00 -0.00000000000E+00 -0.57233405565E+03  0.57233405565E+03  0.00000000000E+00 0. -1.
         23    2    1    2    0    0 -0.59814202018E+03  0.38116161169E+03  0.95787155493E+03  0.11954094628E+04  0.91803145830E+02 0.  0.
        254    2    1    2    0    0  0.59814202018E+03 -0.38116161169E+03  0.26404541356E+03  0.11711756170E+04  0.89379768113E+03 0.  0.
        -24    2    4    4    0    0  0.41986213686E+03  0.20289366917E+03 -0.57490057697E+02  0.47638487616E+03  0.78659955105E+02 0.  0.
         24    2    4    4    0    0  0.17827988331E+03 -0.58405528086E+03  0.32153547126E+03  0.69479074079E+03  0.80279675620E+02 0.  0.
         11    1    3    3    0    0 -0.10130471527E+03  0.10108673488E+03  0.16021820700E+03  0.21482794781E+03  0.00000000000E+00 0. -1.
        -11    1    3    3    0    0 -0.49683730490E+03  0.28007487681E+03  0.79765334793E+03  0.98058151503E+03  0.00000000000E+00 0.  1.
          4    1    6    6  502    0  0.76519666717E+02 -0.33323941660E+03  0.14343662808E+03  0.37078003512E+03  0.00000000000E+00 0. -1.
          1    1    5    5  503    0  0.37917037027E+03  0.17130933079E+03 -0.27964875963E+02  0.41701209910E+03  0.00000000000E+00 0. -1.
         -4    1    5    5    0  503  0.40691766593E+02  0.31584338381E+02 -0.29525181733E+02  0.59372777059E+02  0.00000000000E+00 0.  1.
         -3    1    6    6    0  502  0.10176021660E+03 -0.25081586426E+03  0.17809884318E+03  0.32401070567E+03  0.00000000000E+00 0.  1.
<mgrwt>
<rscale>  0 0.20267323E+04</rscale>
<asrwt>0</asrwt>
<pdfrwt beam="1">  1        1 0.88051394E-01 0.20267323E+04</pdfrwt>
<pdfrwt beam="2">  1       -1 0.27603862E+00 0.20267323E+04</pdfrwt>
<totfact> 0.16022310E+00</totfact>
</mgrwt>
</event>
<event>
12    1  0.1494110E-007  0.1532269E+04  0.7818608E-02  0.8863274E-01
         -1   -1    0    0    0  501 -0.00000000000E+00  0.00000000000E+00  0.11892495502E+04  0.11892495502E+04  0.00000000000E+00 0.  1.
          1   -1    0    0  501    0  0.00000000000E+00 -0.00000000000E+00 -0.49355653850E+03  0.49355653850E+03  0.00000000000E+00 0. -1.
         23    2    1    2    0    0  0.45217134851E+03  0.18808966926E+03  0.25453508201E+03  0.55976696325E+03  0.93350378026E+02 0.  0.
        254    2    1    2    0    0 -0.45217134851E+03 -0.18808966926E+03  0.44115792968E+03  0.11230391254E+04  0.90926338662E+03 0.  0.
        -24    2    4    4    0    0 -0.50815513267E+03 -0.34026879137E+03  0.61633475023E+03  0.87160117088E+03  0.76259999355E+02 0.  0.
         24    2    4    4    0    0  0.55983784158E+02  0.15217912211E+03 -0.17517682055E+03  0.25143795456E+03  0.79002893870E+02 0.  0.
         13    1    3    3    0    0  0.24146167441E+03  0.11541914045E+03  0.88673414882E+02  0.28193668207E+03  0.00000000000E+00 0.  1.
        -13    1    3    3    0    0  0.21070967410E+03  0.72670528803E+02  0.16586166713E+03  0.27783028118E+03  0.00000000000E+00 0. -1.
          4    1    6    6  502    0  0.34799954992E+02  0.67387468702E+02 -0.13587724666E+03  0.15561084141E+03  0.00000000000E+00 0. -1.
          1    1    5    5  503    0 -0.28872508805E+03 -0.15919194290E+03  0.36650558612E+03  0.49298133414E+03  0.00000000000E+00 0. -1.
         -2    1    5    5    0  503 -0.21943004462E+03 -0.18107684847E+03  0.24982916411E+03  0.37861983674E+03  0.00000000000E+00 0.  1.
         -3    1    6    6    0  502  0.21183829167E+02  0.84791653413E+02 -0.39299573891E+02  0.95827113150E+02  0.00000000000E+00 0.  1.
<mgrwt>
<rscale>  0 0.15322688E+04</rscale>
<asrwt>0</asrwt>
<pdfrwt beam="1">  1        1 0.75931776E-01 0.15322688E+04</pdfrwt>
<pdfrwt beam="2">  1       -1 0.18296147E+00 0.15322688E+04</pdfrwt>
<totfact> 0.86270857E+00</totfact>
</mgrwt>
</event>
<event>
12    1  0.1494110E-007  0.1197328E+04  0.7818608E-02  0.9115198E-01
          2   -1    0    0  501    0  0.00000000000E+00  0.00000000000E+00  0.10993383023E+04  0.10993383023E+04  0.00000000000E+00 0. -1.
         -2   -1    0    0    0  501 -0.00000000000E+00 -0.00000000000E+00 -0.32601312150E+03  0.32601312150E+03  0.00000000000E+00 0.  1.
         23    2    1    2    0    0  0.23184099681E+03  0.29035116512E+02  0.30995384259E+03  0.39883885792E+03  0.91693861599E+02 0.  0.
        254    2    1    2    0    0 -0.23184099681E+03 -0.29035116512E+02  0.46337133824E+03  0.10265125659E+04  0.88567588038E+03 0.  0.
        -24    2    4    4    0    0 -0.15784891538E+03  0.23659462839E+03  0.62983412082E+03  0.69574678233E+03  0.80493894824E+02 0.  0.
         24    2    4    4    0    0 -0.73992081425E+02 -0.26562974491E+03 -0.16646278258E+03  0.33076578358E+03  0.75247299688E+02 0.  0.
         11    1    3    3    0    0  0.14888339000E+03  0.19670666026E+02  0.26352421152E+03  0.30331206533E+03  0.00000000000E+00 0. -1.
        -11    1    3    3    0    0  0.82957606807E+02  0.93644504859E+01  0.46429631078E+02  0.95526792587E+02  0.00000000000E+00 0.  1.
          4    1    6    6  502    0 -0.57811172740E+02 -0.26096699925E+03 -0.14707181067E+03  0.30508363424E+03  0.00000000000E+00 0. -1.
          3    1    5    5  503    0 -0.14792769008E+03  0.15880335633E+03  0.47194705144E+03  0.51945656877E+03  0.00000000000E+00 0. -1.
         -4    1    5    5    0  503 -0.99212253061E+01  0.77791272068E+02  0.15788706938E+03  0.17629021357E+03  0.00000000000E+00 0.  1.
         -3    1    6    6    0  502 -0.16180908685E+02 -0.46627456610E+01 -0.19390971911E+02  0.25682149338E+02  0.00000000000E+00 0.  1.
<mgrwt>
<rscale>  0 0.11973282E+04</rscale>
<asrwt>0</asrwt>
<pdfrwt beam="1">  1        2 0.16912897E+00 0.11973282E+04</pdfrwt>
<pdfrwt beam="2">  1       -2 0.50155865E-01 0.11973282E+04</pdfrwt>
<totfact> 0.80906823E+01</totfact>
</mgrwt>
</event>
<event>
12    1  0.1494110E-007  0.1017868E+04  0.7818608E-02  0.9289162E-01
          1   -1    0    0  501    0  0.00000000000E+00  0.00000000000E+00  0.80439154379E+03  0.80439154379E+03  0.00000000000E+00 0. -1.
         -1   -1    0    0    0  501 -0.00000000000E+00 -0.00000000000E+00 -0.32199970250E+03  0.32199970250E+03  0.00000000000E+00 0.  1.
         23    2    1    2    0    0 -0.20654014109E+02  0.29602033985E+01  0.99306262973E+02  0.13853509152E+03  0.94312706541E+02 0.  0.
        254    2    1    2    0    0  0.20654014109E+02 -0.29602033985E+01  0.38308557832E+03  0.98785615477E+03  0.91031306214E+03 0.  0.
        -24    2    4    4    0    0  0.15004322993E+03  0.41724146259E+03  0.27455751135E+03  0.52808140327E+03  0.82974288146E+02 0.  0.
         24    2    4    4    0    0 -0.12938921582E+03 -0.42020166599E+03  0.10852806696E+03  0.45977475150E+03  0.79394404877E+02 0.  0.
         11    1    3    3    0    0 -0.57746065080E+02 -0.59828714112E+01  0.53811676850E+02  0.79158697235E+02  0.00000000000E+00 0. -1.
        -11    1    3    3    0    0  0.37092050971E+02  0.89430748097E+01  0.45494586122E+02  0.59376394289E+02  0.00000000000E+00 0.  1.
          4    1    6    6  502    0 -0.13333014437E+03 -0.35829959521E+03  0.76179988496E+02  0.38981908364E+03  0.00000000000E+00 0. -1.
          1    1    5    5  503    0  0.12624145384E+03  0.40508416072E+03  0.25604891201E+03  0.49557151580E+03  0.00000000000E+00 0. -1.
         -2    1    5    5    0  503  0.23801776088E+02  0.12157301867E+02  0.18508599347E+02  0.32509887471E+02  0.00000000000E+00 0.  1.
         -3    1    6    6    0  502  0.39409285479E+01 -0.61902070781E+02  0.32348078468E+02  0.69955667858E+02  0.00000000000E+00 0.  1.
<mgrwt>
<rscale>  0 0.10178680E+04</rscale>
<asrwt>0</asrwt>
<pdfrwt beam="1">  1        1 0.12375254E+00 0.10178680E+04</pdfrwt>
<pdfrwt beam="2">  1       -1 0.49538416E-01 0.10178680E+04</pdfrwt>
<totfact> 0.89641051E+01</totfact>
</mgrwt>
</event>
<event>
12    1  0.1494110E-007  0.1581200E+04  0.7818608E-02  0.8832181E-01
          2   -1    0    0  501    0  0.00000000000E+00  0.00000000000E+00  0.12924940425E+04  0.12924940425E+04  0.00000000000E+00 0. -1.
         -2   -1    0    0    0  501 -0.00000000000E+00 -0.00000000000E+00 -0.48359871498E+03  0.48359871498E+03  0.00000000000E+00 0.  1.
         23    2    1    2    0    0 -0.72970765687E+02  0.51199045327E+03  0.41714183469E+03  0.67090987831E+03  0.93025790386E+02 0.  0.
        254    2    1    2    0    0  0.72970765687E+02 -0.51199045327E+03  0.39175349286E+03  0.11051828792E+04  0.89470634313E+03 0.  0.
        -24    2    4    4    0    0  0.59698417715E+02  0.22490873244E+03 -0.36711328476E+02  0.24889956471E+03  0.80345707231E+02 0.  0.
         24    2    4    4    0    0  0.13272347972E+02 -0.73689918571E+03  0.42846482134E+03  0.85628331450E+03  0.80264851855E+02 0.  0.
         11    1    3    3    0    0 -0.70905855670E+02  0.43887192265E+03  0.31320606924E+03  0.54381453334E+03  0.00000000000E+00 0. -1.
        -11    1    3    3    0    0 -0.20649100171E+01  0.73118530615E+02  0.10393576545E+03  0.12709534497E+03  0.00000000000E+00 0.  1.
          4    1    6    6  502    0 -0.25413251610E+01 -0.47487994342E+03  0.23275594216E+03  0.52885985630E+03  0.00000000000E+00 0. -1.
          1    1    5    5  503    0  0.51033151070E+02  0.18682707337E+03  0.23179244873E+01  0.19368559736E+03  0.00000000000E+00 0. -1.
         -2    1    5    5    0  503  0.86652666454E+01  0.38081659068E+02 -0.39029252964E+02  0.55213967348E+02  0.00000000000E+00 0.  1.
         -1    1    6    6    0  502  0.15813673133E+02 -0.26201924229E+03  0.19570887918E+03  0.32742345819E+03  0.00000000000E+00 0.  1.
<mgrwt>
<rscale>  0 0.15812001E+04</rscale>
<asrwt>0</asrwt>
<pdfrwt beam="1">  1        2 0.19884524E+00 0.15812001E+04</pdfrwt>
<pdfrwt beam="2">  1       -2 0.74399803E-01 0.15812001E+04</pdfrwt>
<totfact> 0.26068765E+01</totfact>
</mgrwt>
</event>
<event>
12    1  0.1494110E-007  0.1041926E+04  0.7818608E-02  0.9263720E-01
         -2   -1    0    0    0  501 -0.00000000000E+00  0.00000000000E+00  0.16487697104E+03  0.16487697104E+03  0.00000000000E+00 0.  1.
          2   -1    0    0  501    0  0.00000000000E+00 -0.00000000000E+00 -0.16460892708E+04  0.16460892708E+04  0.00000000000E+00 0. -1.
         23    2    1    2    0    0  0.53843107751E+01  0.21552280947E+02 -0.44330746011E+03  0.45174788752E+03  0.84030697190E+02 0.  0.
        254    2    1    2    0    0 -0.53843107751E+01 -0.21552280947E+02 -0.10379048397E+04  0.13592183544E+04  0.87734519259E+03 0.  0.
        -24    2    4    4    0    0  0.29850605927E+03 -0.18696052757E+03 -0.91725925923E+03  0.98580269493E+03  0.79889288305E+02 0.  0.
         24    2    4    4    0    0 -0.30389037005E+03  0.16540824662E+03 -0.12064558044E+03  0.37341565942E+03  0.71935064923E+02 0.  0.
         11    1    3    3    0    0 -0.75132948723E+01 -0.26783366253E+02 -0.73785412018E+02  0.78854837102E+02  0.00000000000E+00 0.  1.
        -11    1    3    3    0    0  0.12897605647E+02  0.48335647200E+02 -0.36952204810E+03  0.37289305042E+03  0.00000000000E+00 0. -1.
          2    1    6    6  502    0 -0.21793190994E+03  0.14631561399E+03 -0.69305046815E+02  0.27148805826E+03  0.00000000000E+00 0. -1.
          1    1    5    5  503    0  0.59824342400E+02 -0.77618074144E+02 -0.27607423018E+03  0.29295135765E+03  0.00000000000E+00 0. -1.
         -2    1    5    5    0  503  0.23868171687E+03 -0.10934245342E+03 -0.64118502905E+03  0.69285133728E+03  0.00000000000E+00 0.  1.
         -1    1    6    6    0  502 -0.85958460108E+02  0.19092632633E+02 -0.51340533627E+02  0.10192760116E+03  0.00000000000E+00 0.  1.
<mgrwt>
<rscale>  0 0.10419256E+04</rscale>
<asrwt>0</asrwt>
<pdfrwt beam="1">  1        2 0.25324451E+00 0.10419256E+04</pdfrwt>
<pdfrwt beam="2">  1       -2 0.25365687E-01 0.10419256E+04</pdfrwt>
<totfact> 0.14625314E+02</totfact>
</mgrwt>
</event>
<event>
12    1  0.1494110E-007  0.2983915E+04  0.7818608E-02  0.8248339E-01
         -2   -1    0    0    0  501 -0.00000000000E+00  0.00000000000E+00  0.83793864631E+03  0.83793864631E+03  0.00000000000E+00 0.  1.
          2   -1    0    0  501    0  0.00000000000E+00 -0.00000000000E+00 -0.26564442592E+04  0.26564442592E+04  0.00000000000E+00 0. -1.
         23    2    1    2    0    0 -0.12195344279E+04 -0.10417385807E+03 -0.15095353644E+04  0.19454842152E+04  0.89974448086E+02 0.  0.
        254    2    1    2    0    0  0.12195344279E+04  0.10417385807E+03 -0.30897024847E+03  0.15488986904E+04  0.89750104454E+03 0.  0.
        -24    2    4    4    0    0  0.11552006647E+04  0.24514967200E+03  0.12543040372E+02  0.11838953259E+04  0.82848521050E+02 0.  0.
         24    2    4    4    0    0  0.64333763237E+02 -0.14097581393E+03 -0.32151328884E+03  0.36500336445E+03  0.76443756826E+02 0.  0.
         11    1    3    3    0    0 -0.76153806264E+02 -0.25346863657E+02 -0.11847331175E+03  0.14310063348E+03  0.00000000000E+00 0. -1.
        -11    1    3    3    0    0 -0.11433806217E+04 -0.78826994416E+02 -0.13910620527E+04  0.18023835817E+04  0.00000000000E+00 0.  1.
          2    1    6    6  502    0  0.64728470217E+02 -0.14483786308E+03 -0.26862680222E+03  0.31197458280E+03  0.00000000000E+00 0. -1.
          3    1    5    5  503    0  0.14788627890E+03  0.60139961702E+02  0.39449966998E+01  0.15969574033E+03  0.00000000000E+00 0. -1.
         -2    1    5    5    0  503  0.10073143858E+04  0.18500971030E+03  0.85980436718E+01  0.10241995856E+04  0.00000000000E+00 0.  1.
         -1    1    6    6    0  502 -0.39470697995E+00  0.38620491570E+01 -0.52886486616E+02  0.53028781656E+02  0.00000000000E+00 0.  1.
<mgrwt>
<rscale>  0 0.29839151E+04</rscale>
<asrwt>0</asrwt>
<pdfrwt beam="1">  1        2 0.40868373E+00 0.29839151E+04</pdfrwt>
<pdfrwt beam="2">  1       -2 0.12891364E+00 0.29839151E+04</pdfrwt>
<totfact> 0.10714241E+00</totfact>
</mgrwt>
</event>
<event>
12    1  0.1494110E-007  0.1215586E+04  0.7818608E-02  0.9099323E-01
          2   -1    0    0  501    0  0.00000000000E+00  0.00000000000E+00  0.91191376602E+03  0.91191376602E+03  0.00000000000E+00 0. -1.
         -2   -1    0    0    0  501 -0.00000000000E+00 -0.00000000000E+00 -0.40509566197E+03  0.40509566197E+03  0.00000000000E+00 0.  1.
         23    2    1    2    0    0 -0.20973136309E+03  0.22415237511E+03  0.21550279590E+03  0.38570741992E+03  0.89984592071E+02 0.  0.
        254    2    1    2    0    0  0.20973136309E+03 -0.22415237511E+03  0.29131530816E+03  0.93130200806E+03  0.82959465375E+03 0.  0.
        -24    2    4    4    0    0  0.12387747185E+03 -0.19827431498E+03  0.57307382522E+03  0.62487212280E+03  0.85983886218E+02 0.  0.
         24    2    4    4    0    0  0.85853891239E+02 -0.25878060135E+02 -0.28175851707E+03  0.30642988526E+03  0.80441581315E+02 0.  0.
         11    1    3    3    0    0 -0.21686307764E+03  0.20625489587E+03  0.21019996566E+03  0.36572489945E+03  0.00000000000E+00 0. -1.
        -11    1    3    3    0    0  0.71317145553E+01  0.17897479246E+02  0.53028302409E+01  0.19982520472E+02  0.00000000000E+00 0.  1.
          2    1    6    6  502    0  0.30318692204E+02  0.29139587483E+02 -0.10790589907E+03  0.11581028326E+03  0.00000000000E+00 0. -1.
          3    1    5    5  503    0  0.11468929547E+03 -0.15215928624E+03  0.52079922726E+03  0.55456101377E+03  0.00000000000E+00 0. -1.
         -4    1    5    5    0  503  0.91881763776E+01 -0.46115028737E+02  0.52274597964E+02  0.70311109028E+02  0.00000000000E+00 0.  1.
         -1    1    6    6    0  502  0.55535199035E+02 -0.55017647618E+02 -0.17385261800E+03  0.19061960200E+03  0.00000000000E+00 0.  1.
<mgrwt>
<rscale>  0 0.12155860E+04</rscale>
<asrwt>0</asrwt>
<pdfrwt beam="1">  1        2 0.14029443E+00 0.12155860E+04</pdfrwt>
<pdfrwt beam="2">  1       -2 0.62322410E-01 0.12155860E+04</pdfrwt>
<totfact> 0.67802567E+01</totfact>
</mgrwt>
</event>
<event>
12    1  0.1494110E-007  0.1132688E+04  0.7818608E-02  0.9173905E-01
          2   -1    0    0  501    0  0.00000000000E+00  0.00000000000E+00  0.21673663761E+04  0.21673663761E+04  0.00000000000E+00 0. -1.
         -2   -1    0    0    0  501 -0.00000000000E+00 -0.00000000000E+00 -0.14798855400E+03  0.14798855400E+03  0.00000000000E+00 0.  1.
         23    2    1    2    0    0  0.92813104199E+02 -0.79708772495E+02  0.68384994904E+03  0.70084314766E+03  0.92534340134E+02 0.  0.
        254    2    1    2    0    0 -0.92813104199E+02  0.79708772495E+02  0.13355278730E+04  0.16145117824E+04  0.89891369729E+03 0.  0.
        -24    2    4    4    0    0  0.91157225536E+02  0.40885336557E+03  0.33470505848E+03  0.54219011425E+03  0.80448303320E+02 0.  0.
         24    2    4    4    0    0 -0.18397032974E+03 -0.32914459308E+03  0.10008228146E+04  0.10723216682E+04  0.77757369443E+02 0.  0.
         11    1    3    3    0    0  0.35794219155E+02 -0.41663354010E+02  0.52459533981E+03  0.52746310937E+03  0.00000000000E+00 0. -1.
        -11    1    3    3    0    0  0.57018885044E+02 -0.38045418485E+02  0.15925460922E+03  0.17338003829E+03  0.00000000000E+00 0.  1.
          4    1    6    6  502    0 -0.65805126009E+02 -0.52509587366E+02  0.21895073342E+03  0.23457833455E+03  0.00000000000E+00 0. -1.
          3    1    5    5  503    0  0.62980048740E+02  0.20773491343E+03  0.21949194513E+03  0.30870211333E+03  0.00000000000E+00 0. -1.
         -4    1    5    5    0  503  0.28177176797E+02  0.20111845214E+03  0.11521311335E+03  0.23348800092E+03  0.00000000000E+00 0.  1.
         -3    1    6    6    0  502 -0.11816520373E+03 -0.27663500571E+03  0.78187208113E+03  0.83774333361E+03  0.00000000000E+00 0.  1.
<mgrwt>
<rscale>  0 0.11326878E+04</rscale>
<asrwt>0</asrwt>
<pdfrwt beam="1">  1        2 0.33344096E+00 0.11326878E+04</pdfrwt>
<pdfrwt beam="2">  1       -2 0.22767471E-01 0.11326878E+04</pdfrwt>
<totfact> 0.90965969E+01</totfact>
</mgrwt>
</event>
<event>
12    1  0.1494110E-007  0.1260168E+04  0.7818608E-02  0.9061763E-01
         -1   -1    0    0    0  501 -0.00000000000E+00  0.00000000000E+00  0.56558032263E+03  0.56558032263E+03  0.00000000000E+00 0.  1.
          1   -1    0    0  501    0  0.00000000000E+00 -0.00000000000E+00 -0.70194373986E+03  0.70194373986E+03  0.00000000000E+00 0. -1.
         23    2    1    2    0    0 -0.19131983666E+02  0.14661831146E+03  0.22630601983E+03  0.28613595659E+03  0.93789173083E+02 0.  0.
        254    2    1    2    0    0  0.19131983666E+02 -0.14661831146E+03 -0.36266943706E+03  0.98138810589E+03  0.89985028297E+03 0.  0.
        -24    2    4    4    0    0  0.32235720631E+03  0.24254135516E+03 -0.16566351793E+03  0.44392009929E+03  0.82946826086E+02 0.  0.
         24    2    4    4    0    0 -0.30322522264E+03 -0.38915966662E+03 -0.19700591913E+03  0.53746800661E+03  0.81668501765E+02 0.  0.
         13    1    3    3    0    0 -0.12963159947E+02  0.10084744633E+03  0.21611719654E+03  0.23884072850E+03  0.00000000000E+00 0.  1.
        -13    1    3    3    0    0 -0.61688237186E+01  0.45770865123E+02  0.10188823289E+02  0.47295228092E+02  0.00000000000E+00 0. -1.
          4    1    6    6  502    0 -0.30422231365E+03 -0.39219387694E+03 -0.19756121650E+03  0.53422625123E+03  0.00000000000E+00 0. -1.
          1    1    5    5  503    0  0.32711574958E+03  0.24215853411E+03 -0.16465568168E+03  0.43904095798E+03  0.00000000000E+00 0. -1.
         -2    1    5    5    0  503 -0.47585432748E+01  0.38282104612E+00 -0.10078362457E+01  0.48791413127E+01  0.00000000000E+00 0.  1.
         -3    1    6    6    0  502  0.99709101003E+00  0.30342103246E+01  0.55529736135E+00  0.32417553788E+01  0.00000000000E+00 0.  1.
<mgrwt>
<rscale>  0 0.12601676E+04</rscale>
<asrwt>0</asrwt>
<pdfrwt beam="1">  1        1 0.10799134E+00 0.12601676E+04</pdfrwt>
<pdfrwt beam="2">  1       -1 0.87012357E-01 0.12601676E+04</pdfrwt>
<totfact> 0.34798766E+01</totfact>
</mgrwt>
</event>
<event>
12    1  0.1494110E-007  0.1886175E+04  0.7818608E-02  0.8661769E-01
         -1   -1    0    0    0  501 -0.00000000000E+00  0.00000000000E+00  0.32293876178E+03  0.32293876178E+03  0.00000000000E+00 0.  1.
          1   -1    0    0  501    0  0.00000000000E+00 -0.00000000000E+00 -0.27541248788E+04  0.27541248788E+04  0.00000000000E+00 0. -1.
         23    2    1    2    0    0 -0.55109829498E+03  0.44411105606E+02 -0.16546619226E+04  0.17468218456E+04  0.88310843653E+02 0.  0.
        254    2    1    2    0    0  0.55109829498E+03 -0.44411105606E+02 -0.77652419441E+03  0.13302417950E+04  0.92783173666E+03 0.  0.
        -24    2    4    4    0    0 -0.23131332745E+03 -0.10699154057E+03 -0.82837071303E+02  0.27971065668E+03  0.80143782495E+02 0.  0.
         24    2    4    4    0    0  0.78241162243E+03  0.62580434966E+02 -0.69368712311E+03  0.10505311383E+04  0.79558720464E+02 0.  0.
         11    1    3    3    0    0 -0.54406685231E+03  0.48903283844E+02 -0.16479054071E+04  0.17360853958E+04  0.00000000000E+00 0. -1.
        -11    1    3    3    0    0 -0.70314426651E+01 -0.44921782380E+01 -0.67565155067E+01  0.10736449742E+02  0.00000000000E+00 0.  1.
          4    1    6    6  502    0  0.34384920875E+03  0.12366228748E+02 -0.25565534056E+03  0.42865470384E+03  0.00000000000E+00 0. -1.
          3    1    5    5  503    0 -0.21330638231E+03 -0.85260158887E+02 -0.95502904867E+02  0.24877643028E+03  0.00000000000E+00 0. -1.
         -2    1    5    5    0  503 -0.18006945141E+02 -0.21731381685E+02  0.12665833564E+02  0.30934226402E+02  0.00000000000E+00 0.  1.
         -3    1    6    6    0  502  0.43856241368E+03  0.50214206218E+02 -0.43803178255E+03  0.62187643445E+03  0.00000000000E+00 0.  1.
<mgrwt>
<rscale>  0 0.18861746E+04</rscale>
<asrwt>0</asrwt>
<pdfrwt beam="1">  1        1 0.42371153E+00 0.18861746E+04</pdfrwt>
<pdfrwt beam="2">  1       -1 0.49682885E-01 0.18861746E+04</pdfrwt>
<totfact> 0.34246542E+00</totfact>
</mgrwt>
</event>
<event>
12    1  0.1494110E-007  0.1823576E+04  0.7818608E-02  0.8693862E-01
         -2   -1    0    0    0  501 -0.00000000000E+00  0.00000000000E+00  0.55550903407E+03  0.55550903407E+03  0.00000000000E+00 0.  1.
          2   -1    0    0  501    0  0.00000000000E+00 -0.00000000000E+00 -0.14965678538E+04  0.14965678538E+04  0.00000000000E+00 0. -1.
         23    2    1    2    0    0 -0.57087190595E+03  0.12509818878E+03 -0.75401772592E+03  0.95886182643E+03  0.96586651992E+02 0.  0.
        254    2    1    2    0    0  0.57087190595E+03 -0.12509818878E+03 -0.18704109385E+03  0.10932150615E+04  0.90475991844E+03 0.  0.
        -24    2    4    4    0    0  0.60458877214E+03 -0.65212815593E+02  0.23599652157E+03  0.65712008560E+03  0.79574832652E+02 0.  0.
         24    2    4    4    0    0 -0.33716866191E+02 -0.59885373183E+02 -0.42303761542E+03  0.43609497588E+03  0.80591059924E+02 0.  0.
         11    1    3    3    0    0 -0.51569505844E+03  0.92265950885E+02 -0.63129769497E+03  0.82036039560E+03  0.00000000000E+00 0. -1.
        -11    1    3    3    0    0 -0.55176847512E+02  0.32832237890E+02 -0.12272003094E+03  0.13850143083E+03  0.00000000000E+00 0.  1.
          2    1    6    6  502    0 -0.40549361719E+01 -0.70387885758E+02 -0.34137658604E+03  0.34858122506E+03  0.00000000000E+00 0. -1.
          3    1    5    5  503    0  0.37403112217E+03 -0.79038701885E+02  0.14950094355E+03  0.41048377419E+03  0.00000000000E+00 0. -1.
         -4    1    5    5    0  503  0.23055764997E+03  0.13825886292E+02  0.86495578019E+02  0.24663631141E+03  0.00000000000E+00 0.  1.
         -1    1    6    6    0  502 -0.29661930019E+02  0.10502512575E+02 -0.81661029383E+02  0.87513750820E+02  0.00000000000E+00 0.  1.
<mgrwt>
<rscale>  0 0.18235756E+04</rscale>
<asrwt>0</asrwt>
<pdfrwt beam="1">  1        2 0.23024121E+00 0.18235756E+04</pdfrwt>
<pdfrwt beam="2">  1       -2 0.85462926E-01 0.18235756E+04</pdfrwt>
<totfact> 0.14298904E+01</totfact>
</mgrwt>
</event>
<event>
12    1  0.1494110E-007  0.1660908E+04  0.7818608E-02  0.8783980E-01
         -2   -1    0    0    0  501 -0.00000000000E+00  0.00000000000E+00  0.10789127495E+04  0.10789127495E+04  0.00000000000E+00 0.  1.
          2   -1    0    0  501    0  0.00000000000E+00 -0.00000000000E+00 -0.63921177846E+03  0.63921177846E+03  0.00000000000E+00 0. -1.
         23    2    1    2    0    0 -0.51689723629E+03  0.53787667821E+02 -0.11013493330E+03  0.53864323942E+03  0.89055992153E+02 0.  0.
        254    2    1    2    0    0  0.51689723629E+03 -0.53787667821E+02  0.54983590435E+03  0.11794812886E+04  0.90486502985E+03 0.  0.
        -24    2    4    4    0    0 -0.14907535604E+03 -0.23059455099E+03 -0.12929090372E+02  0.28629589858E+03  0.80005446310E+02 0.  0.
         24    2    4    4    0    0  0.66597259233E+03  0.17680688317E+03  0.56276499473E+03  0.89318538998E+03  0.79344400657E+02 0.  0.
         11    1    3    3    0    0 -0.49755850666E+03  0.33138911111E+02 -0.10835021636E+03  0.51029640834E+03  0.00000000000E+00 0. -1.
        -11    1    3    3    0    0 -0.19338729632E+02  0.20648756710E+02 -0.17847169426E+01  0.28346831075E+02  0.00000000000E+00 0.  1.
          2    1    6    6  502    0  0.55909220923E+03  0.14159259030E+03  0.50551499447E+03  0.76692761698E+03  0.00000000000E+00 0. -1.
          3    1    5    5  503    0 -0.15269900739E+03 -0.19052681271E+03 -0.42828480838E+00  0.24416723090E+03  0.00000000000E+00 0. -1.
         -4    1    5    5    0  503  0.36236513523E+01 -0.40067738284E+02 -0.12500805564E+02  0.42128667674E+02  0.00000000000E+00 0.  1.
         -1    1    6    6    0  502  0.10688038311E+03  0.35214292869E+02  0.57250000252E+02  0.12625777301E+03  0.00000000000E+00 0.  1.
<mgrwt>
<rscale>  0 0.16609079E+04</rscale>
<asrwt>0</asrwt>
<pdfrwt beam="1">  1        2 0.98340274E-01 0.16609079E+04</pdfrwt>
<pdfrwt beam="2">  1       -2 0.16598658E+00 0.16609079E+04</pdfrwt>
<totfact> 0.99697578E+00</totfact>
</mgrwt>
</event>
<event>
12    1  0.1494110E-007  0.2597151E+04  0.7818608E-02  0.8369170E-01
          1   -1    0    0  501    0  0.00000000000E+00  0.00000000000E+00  0.18016846194E+04  0.18016846194E+04  0.00000000000E+00 0. -1.
         -1   -1    0    0    0  501 -0.00000000000E+00 -0.00000000000E+00 -0.93595641436E+03  0.93595641436E+03  0.00000000000E+00 0.  1.
         23    2    1    2    0    0 -0.34905470610E+03  0.42067737607E+03  0.14326233245E+04  0.15361395411E+04  0.92230456607E+02 0.  0.
        254    2    1    2    0    0  0.34905470610E+03 -0.42067737607E+03 -0.56689511945E+03  0.12015014927E+04  0.90742885008E+03 0.  0.
        -24    2    4    4    0    0 -0.26848734131E+03 -0.32371999859E+03 -0.20787565494E+03  0.47576480952E+03  0.79118747006E+02 0.  0.
         24    2    4    4    0    0  0.61754204741E+03 -0.96957377477E+02 -0.35901946451E+03  0.72573668319E+03  0.83903778668E+02 0.  0.
         11    1    3    3    0    0 -0.15020673564E+03  0.14556455722E+03  0.44254948945E+03  0.48949070917E+03  0.00000000000E+00 0. -1.
        -11    1    3    3    0    0 -0.19884797045E+03  0.27511281885E+03  0.99007383505E+03  0.10466488319E+04  0.00000000000E+00 0.  1.
          2    1    6    6  502    0  0.32716196601E+03 -0.89567529544E+01 -0.18797170801E+03  0.37742355311E+03  0.00000000000E+00 0. -1.
          3    1    5    5  503    0 -0.91102518979E+02 -0.16156724645E+03 -0.11422193333E+03  0.21783088428E+03  0.00000000000E+00 0. -1.
         -4    1    5    5    0  503 -0.17738482233E+03 -0.16215275214E+03 -0.93653721609E+02  0.25793392524E+03  0.00000000000E+00 0.  1.
         -1    1    6    6    0  502  0.29038008139E+03 -0.88000624523E+02 -0.17104775650E+03  0.34831313009E+03  0.00000000000E+00 0.  1.
<mgrwt>
<rscale>  0 0.25971510E+04</rscale>
<asrwt>0</asrwt>
<pdfrwt beam="1">  1        1 0.27718225E+00 0.25971510E+04</pdfrwt>
<pdfrwt beam="2">  1       -1 0.14399329E+00 0.25971510E+04</pdfrwt>
<totfact> 0.13931646E+00</totfact>
</mgrwt>
</event>
<event>
12    1  0.2459953E-007  0.2749878E+04  0.7818608E-02  0.8319000E-01
         -2   -1    0    0    0  501 -0.00000000000E+00  0.00000000000E+00  0.10863188273E+04  0.10863188273E+04  0.00000000000E+00 0. -1.
          2   -1    0    0  501    0  0.00000000000E+00 -0.00000000000E+00 -0.17402414661E+04  0.17402414661E+04  0.00000000000E+00 0.  1.
         23    2    1    2    0    0  0.10489065168E+04  0.62786070259E+03 -0.20046737877E+03  0.12424437216E+04  0.95211809208E+02 0.  0.
        254    2    1    2    0    0 -0.10489065168E+04 -0.62786070259E+03 -0.45345526008E+03  0.15841165718E+04  0.89966087903E+03 0.  0.
        -24    2    4    4    0    0 -0.71993727125E+03 -0.84317758414E+03 -0.27737054939E+03  0.11458832687E+04  0.82800549366E+02 0.  0.
         24    2    4    4    0    0 -0.32896924558E+03  0.21531688155E+03 -0.17608471069E+03  0.43823330306E+03  0.80377102160E+02 0.  0.
         11    1    3    3    0    0  0.36573896236E+02  0.35607128547E+02  0.65468278751E+01  0.51462398355E+02  0.00000000000E+00 0.  1.
        -11    1    3    3    0    0  0.10123326206E+04  0.59225357404E+03 -0.20701420665E+03  0.11909813233E+04  0.00000000000E+00 0. -1.
          2    1    6    6  502    0 -0.10632910860E+01 -0.59300715941E+00 -0.13074867553E+02  0.13131428214E+02  0.00000000000E+00 0. -1.
          1    1    5    5  503    0 -0.37967443387E+02 -0.30096766095E+02  0.20605765172E+01  0.48493175420E+02  0.00000000000E+00 0. -1.
         -2    1    5    5    0  503 -0.68196982786E+03 -0.81308081805E+03 -0.27943112591E+03  0.10973900933E+04  0.00000000000E+00 0.  1.
         -1    1    6    6    0  502 -0.32790595450E+03  0.21590988871E+03 -0.16300984313E+03  0.42510187484E+03  0.00000000000E+00 0.  1.
<mgrwt>
<rscale>  0 0.27498779E+04</rscale>
<asrwt>0</asrwt>
<pdfrwt beam="1">  1        2 0.26772946E+00 0.27498779E+04</pdfrwt>
<pdfrwt beam="2">  1       -2 0.16712597E+00 0.27498779E+04</pdfrwt>
<totfact> 0.18189247E+00</totfact>
</mgrwt>
</event>
<event>
12    1  0.1494110E-007  0.3550080E+04  0.7818608E-02  0.8102023E-01
          2   -1    0    0  501    0  0.00000000000E+00  0.00000000000E+00  0.29878220049E+04  0.29878220049E+04  0.00000000000E+00 0. -1.
         -2   -1    0    0    0  501 -0.00000000000E+00 -0.00000000000E+00 -0.10545361847E+04  0.10545361847E+04  0.00000000000E+00 0.  1.
         23    2    1    2    0    0  0.90377485634E+02 -0.13446534937E+04  0.19945861511E+04  0.24089187335E+04  0.90853962659E+02 0.  0.
        254    2    1    2    0    0 -0.90377485634E+02  0.13446534937E+04 -0.61300330850E+02  0.16334394561E+04  0.92092649986E+03 0.  0.
        -24    2    4    4    0    0 -0.39801002988E+03  0.12271025641E+04 -0.50739255811E+02  0.12935118067E+04  0.80035213102E+02 0.  0.
         24    2    4    4    0    0  0.30763254424E+03  0.11755092954E+03 -0.10561075039E+02  0.33992764933E+03  0.83565944974E+02 0.  0.
         13    1    3    3    0    0  0.42811761796E+02 -0.11032495562E+04  0.16587154146E+04  0.19925685074E+04  0.00000000000E+00 0. -1.
        -13    1    3    3    0    0  0.47565723838E+02 -0.24140393751E+03  0.33587073656E+03  0.41635022614E+03  0.00000000000E+00 0.  1.
          4    1    6    6  502    0  0.27945467999E+02  0.35947772811E+02  0.13759329736E+02  0.47565856521E+02  0.00000000000E+00 0. -1.
          3    1    5    5  503    0 -0.16197369349E+03  0.39056882536E+03 -0.33441174551E+02  0.42414360408E+03  0.00000000000E+00 0. -1.
         -4    1    5    5    0  503 -0.23603633639E+03  0.83653373876E+03 -0.17298081260E+02  0.86936820266E+03  0.00000000000E+00 0.  1.
         -3    1    6    6    0  502  0.27968707624E+03  0.81603156732E+02 -0.24320404775E+02  0.29236179281E+03  0.00000000000E+00 0.  1.
<mgrwt>
<rscale>  0 0.35500797E+04</rscale>
<asrwt>0</asrwt>
<pdfrwt beam="1">  1        2 0.45966492E+00 0.35500797E+04</pdfrwt>
<pdfrwt beam="2">  1       -2 0.16223634E+00 0.35500797E+04</pdfrwt>
<totfact> 0.35144477E-01</totfact>
</mgrwt>
</event>
<event>
12    1  0.1494110E-007  0.1391332E+04  0.7818608E-02  0.8960117E-01
          2   -1    0    0  501    0  0.00000000000E+00  0.00000000000E+00  0.18444193065E+04  0.18444193065E+04  0.00000000000E+00 0.  1.
         -2   -1    0    0    0  501 -0.00000000000E+00 -0.00000000000E+00 -0.26238661702E+03  0.26238661702E+03  0.00000000000E+00 0. -1.
         23    2    1    2    0    0  0.22997307565E+03  0.30959210521E+03  0.29033156192E+03  0.49054243605E+03  0.87204234912E+02 0.  0.
        254    2    1    2    0    0 -0.22997307565E+03 -0.30959210521E+03  0.12917011275E+04  0.16162634874E+04  0.89167313003E+03 0.  0.
        -24    2    4    4    0    0 -0.43744944362E+03 -0.18842891767E+03  0.24946635100E+03  0.54366474781E+03  0.80438951958E+02 0.  0.
         24    2    4    4    0    0  0.20747636797E+03 -0.12116318754E+03  0.10422347765E+04  0.10725987396E+04  0.80546666912E+02 0.  0.
         11    1    3    3    0    0  0.19692437204E+02  0.68302311353E+02  0.26869107064E+02  0.75993070300E+02  0.00000000000E+00 0. -1.
        -11    1    3    3    0    0  0.21028063845E+03  0.24128979386E+03  0.26346245486E+03  0.41454936575E+03  0.00000000000E+00 0.  1.
          4    1    6    6  502    0  0.10059559208E+03 -0.98136844525E+02  0.49577151953E+03  0.51530545599E+03  0.00000000000E+00 0. -1.
          3    1    5    5  503    0  0.31424211975E+01 -0.37499890929E+01  0.40897524621E+00  0.49096323621E+01  0.00000000000E+00 0. -1.
         -4    1    5    5    0  503 -0.44059186482E+03 -0.18467892858E+03  0.24905737575E+03  0.53875511545E+03  0.00000000000E+00 0.  1.
         -3    1    6    6    0  502  0.10688077589E+03 -0.23026343016E+02  0.54646325700E+03  0.55729328363E+03  0.00000000000E+00 0.  1.
<mgrwt>
<rscale>  0 0.13913317E+04</rscale>
<asrwt>0</asrwt>
<pdfrwt beam="1">  1        2 0.28375681E+00 0.13913317E+04</pdfrwt>
<pdfrwt beam="2">  1       -2 0.40367173E-01 0.13913317E+04</pdfrwt>
<totfact> 0.46130464E+01</totfact>
</mgrwt>
</event>
<event>
12    1  0.1494110E-007  0.2164665E+04  0.7818608E-02  0.8533281E-01
          2   -1    0    0  501    0  0.00000000000E+00  0.00000000000E+00  0.40495414036E+04  0.40495414036E+04  0.00000000000E+00 0. -1.
         -2   -1    0    0    0  501 -0.00000000000E+00 -0.00000000000E+00 -0.28927814602E+03  0.28927814602E+03  0.00000000000E+00 0.  1.
         23    2    1    2    0    0 -0.15928314834E+02  0.86389782186E+03  0.20312344532E+04  0.22090078531E+04  0.85024312627E+02 0.  0.
        254    2    1    2    0    0  0.15928314834E+02 -0.86389782186E+03  0.17290288045E+04  0.21298116965E+04  0.89441830152E+03 0.  0.
        -24    2    4    4    0    0  0.30575046857E+03 -0.83705679461E+03  0.15156629778E+04  0.17600421991E+04  0.79792566330E+02 0.  0.
         24    2    4    4    0    0 -0.28982215373E+03 -0.26841027245E+02  0.21336582665E+03  0.36976949747E+03  0.80543055185E+02 0.  0.
         13    1    3    3    0    0 -0.29093037991E+02  0.14326357010E+03  0.38936312955E+03  0.41590203418E+03  0.00000000000E+00 0. -1.
        -13    1    3    3    0    0  0.13164723157E+02  0.72063425175E+03  0.16418713236E+04  0.17931058190E+04  0.00000000000E+00 0.  1.
          2    1    6    6  502    0 -0.12095347662E+03 -0.46448673668E+02  0.69307236733E+02  0.14693779587E+03  0.00000000000E+00 0. -1.
          1    1    5    5  503    0  0.24129995425E+03 -0.57050903449E+03  0.10891209399E+04  0.12529527717E+04  0.00000000000E+00 0. -1.
         -2    1    5    5    0  503  0.64450514316E+02 -0.26654776012E+03  0.42654203797E+03  0.50708942740E+03  0.00000000000E+00 0.  1.
         -1    1    6    6    0  502 -0.16886867711E+03  0.19607646423E+02  0.14405858991E+03  0.22283170159E+03  0.00000000000E+00 0.  1.
<mgrwt>
<rscale>  0 0.21646652E+04</rscale>
<asrwt>0</asrwt>
<pdfrwt beam="1">  1        2 0.62300633E+00 0.21646652E+04</pdfrwt>
<pdfrwt beam="2">  1       -2 0.44504333E-01 0.21646652E+04</pdfrwt>
<totfact> 0.13792621E+00</totfact>
</mgrwt>
</event>
<event>
12    1  0.1494110E-007  0.1814569E+04  0.7818608E-02  0.8698590E-01
          1   -1    0    0  501    0  0.00000000000E+00  0.00000000000E+00  0.25811794231E+04  0.25811794231E+04  0.00000000000E+00 0. -1.
         -1   -1    0    0    0  501 -0.00000000000E+00 -0.00000000000E+00 -0.31891051730E+03  0.31891051730E+03  0.00000000000E+00 0.  1.
         23    2    1    2    0    0  0.61759722053E+03 -0.46730946500E+02  0.13051619525E+04  0.14475773940E+04  0.91774076615E+02 0.  0.
        254    2    1    2    0    0 -0.61759722053E+03  0.46730946500E+02  0.95710695332E+03  0.14525125464E+04  0.90007159120E+03 0.  0.
        -24    2    4    4    0    0 -0.37110173127E+03 -0.21489719005E+03  0.99105643416E+03  0.10828646926E+04  0.80658475084E+02 0.  0.
         24    2    4    4    0    0 -0.24649548926E+03  0.26162813655E+03 -0.33949480842E+02  0.36964785381E+03  0.79231688844E+02 0.  0.
         11    1    3    3    0    0  0.24595322412E+03 -0.20174187944E+02  0.62672976609E+03  0.67356527970E+03  0.00000000000E+00 0.  1.
        -11    1    3    3    0    0  0.37164399641E+03 -0.26556758556E+02  0.67843218638E+03  0.77401211425E+03  0.00000000000E+00 0. -1.
          4    1    6    6  502    0 -0.18191675580E+03  0.22665777760E+03 -0.49066031657E+01  0.29067426605E+03  0.00000000000E+00 0. -1.
          3    1    5    5  503    0 -0.22316578329E+03 -0.17189703494E+03  0.61314722420E+03  0.67476001363E+03  0.00000000000E+00 0. -1.
         -4    1    5    5    0  503 -0.14793594799E+03 -0.43000155113E+02  0.37790920996E+03  0.40810467900E+03  0.00000000000E+00 0.  1.
         -3    1    6    6    0  502 -0.64578733456E+02  0.34970358946E+02 -0.29042877677E+02  0.78973587758E+02  0.00000000000E+00 0.  1.
<mgrwt>
<rscale>  0 0.18145691E+04</rscale>
<asrwt>0</asrwt>
<pdfrwt beam="1">  1        1 0.39710451E+00 0.18145691E+04</pdfrwt>
<pdfrwt beam="2">  1       -1 0.49063158E-01 0.18145691E+04</pdfrwt>
<totfact> 0.46700492E+00</totfact>
</mgrwt>
</event>
<event>
12    1  0.1494110E-007  0.1982393E+04  0.7818608E-02  0.8614897E-01
         -2   -1    0    0    0  501 -0.00000000000E+00  0.00000000000E+00  0.70526992262E+03  0.70526992262E+03  0.00000000000E+00 0.  1.
          2   -1    0    0  501    0  0.00000000000E+00 -0.00000000000E+00 -0.13930422296E+04  0.13930422296E+04  0.00000000000E+00 0. -1.
         23    2    1    2    0    0  0.34525217614E+02  0.64460780135E+03 -0.74443692911E+03  0.98930296538E+03  0.88446637391E+02 0.  0.
        254    2    1    2    0    0 -0.34525217614E+02 -0.64460780135E+03  0.56664622083E+02  0.11090091869E+04  0.89998849381E+03 0.  0.
        -24    2    4    4    0    0 -0.39925895191E+03 -0.10276296971E+03 -0.10202374958E+03  0.43221459509E+03  0.80203940713E+02 0.  0.
         24    2    4    4    0    0  0.36473373429E+03 -0.54184483164E+03  0.15868837167E+03  0.67679459179E+03  0.79008870868E+02 0.  0.
         13    1    3    3    0    0 -0.25854132064E+02  0.31062621669E+03 -0.37511321772E+03  0.48771611491E+03  0.00000000000E+00 0.  1.
        -13    1    3    3    0    0  0.60379349678E+02  0.33398158466E+03 -0.36932371139E+03  0.50158685046E+03  0.00000000000E+00 0. -1.
          4    1    6    6  502    0  0.48327427671E+02 -0.50130075115E+02 -0.43603853024E+01  0.69768027465E+02  0.00000000000E+00 0. -1.
          3    1    5    5  503    0 -0.19688990825E+03 -0.91586349840E+02 -0.46547786731E+02  0.22208194861E+03  0.00000000000E+00 0. -1.
         -2    1    5    5    0  503 -0.20236904366E+03 -0.11176619873E+02 -0.55475962854E+02  0.21013264648E+03  0.00000000000E+00 0.  1.
         -3    1    6    6    0  502  0.31640630662E+03 -0.49171475652E+03  0.16304875697E+03  0.60702656433E+03  0.00000000000E+00 0.  1.
<mgrwt>
<rscale>  0 0.19823933E+04</rscale>
<asrwt>0</asrwt>
<pdfrwt beam="1">  1        2 0.21431419E+00 0.19823933E+04</pdfrwt>
<pdfrwt beam="2">  1       -2 0.10850307E+00 0.19823933E+04</pdfrwt>
<totfact> 0.92298087E+00</totfact>
</mgrwt>
</event>
<event>
12    1  0.1494110E-007  0.2931752E+04  0.7818608E-02  0.8263493E-01
          2   -1    0    0  501    0  0.00000000000E+00  0.00000000000E+00  0.23975868184E+04  0.23975868184E+04  0.00000000000E+00 0. -1.
         -2   -1    0    0    0  501 -0.00000000000E+00 -0.00000000000E+00 -0.89623137478E+03  0.89623137478E+03  0.00000000000E+00 0.  1.
         23    2    1    2    0    0 -0.12697540869E+04 -0.38575728183E+03  0.70363704928E+03  0.15047095496E+04  0.89227853798E+02 0.  0.
        254    2    1    2    0    0  0.12697540869E+04  0.38575728183E+03  0.79771839430E+03  0.17891086435E+04  0.89636542773E+03 0.  0.
        -24    2    4    4    0    0  0.78983579735E+03 -0.20273920530E+03  0.54868410334E+03  0.98603882924E+03  0.79212090984E+02 0.  0.
         24    2    4    4    0    0  0.47991828955E+03  0.58849648713E+03  0.24903429096E+03  0.80306981428E+03  0.79078243107E+02 0.  0.
         11    1    3    3    0    0 -0.73530638897E+03 -0.19126002309E+03  0.43814127742E+03  0.87705396702E+03  0.00000000000E+00 0. -1.
        -11    1    3    3    0    0 -0.53444769793E+03 -0.19449725874E+03  0.26549577186E+03  0.62765558259E+03  0.00000000000E+00 0.  1.
          2    1    6    6  502    0  0.34381508632E+02  0.70186800095E+02  0.43025135193E+02  0.89215678565E+02  0.00000000000E+00 0. -1.
          3    1    5    5  503    0  0.46939758588E+03 -0.92593733521E+02  0.35486574133E+03  0.59568228737E+03  0.00000000000E+00 0. -1.
         -4    1    5    5    0  503  0.32043821147E+03 -0.11014547178E+03  0.19381836201E+03  0.39035654187E+03  0.00000000000E+00 0.  1.
         -1    1    6    6    0  502  0.44553678091E+03  0.51830968704E+03  0.20600915577E+03  0.71385413572E+03  0.00000000000E+00 0.  1.
<mgrwt>
<rscale>  0 0.29317521E+04</rscale>
<asrwt>0</asrwt>
<pdfrwt beam="1">  1        2 0.36885951E+00 0.29317521E+04</pdfrwt>
<pdfrwt beam="2">  1       -2 0.13788175E+00 0.29317521E+04</pdfrwt>
<totfact> 0.12826154E+00</totfact>
</mgrwt>
</event>
<event>
12    1  0.1494110E-007  0.4093947E+04  0.7818608E-02  0.7985858E-01
          2   -1    0    0  501    0  0.00000000000E+00  0.00000000000E+00  0.21459057914E+04  0.21459057914E+04  0.00000000000E+00 0. -1.
         -2   -1    0    0    0  501 -0.00000000000E+00 -0.00000000000E+00 -0.19526022705E+04  0.19526022705E+04  0.00000000000E+00 0.  1.
         23    2    1    2    0    0 -0.80834420150E+03  0.15406468431E+03 -0.16750757443E+04  0.18684149496E+04  0.89103309262E+02 0.  0.
        254    2    1    2    0    0  0.80834420150E+03 -0.15406468431E+03  0.18683792653E+04  0.22300931123E+04  0.89739508314E+03 0.  0.
        -24    2    4    4    0    0  0.52321736935E+03  0.34849675019E+03  0.10089904342E+04  0.11915457058E+04  0.80703607123E+02 0.  0.
         24    2    4    4    0    0  0.28512683215E+03 -0.50256143450E+03  0.85938883115E+03  0.10385474065E+04  0.78525451754E+02 0.  0.
         13    1    3    3    0    0 -0.31097209646E+03  0.58962064642E+02 -0.54864420800E+03  0.63339611367E+03  0.00000000000E+00 0. -1.
        -13    1    3    3    0    0 -0.49737210504E+03  0.95102619666E+02 -0.11264315363E+04  0.12350188360E+04  0.00000000000E+00 0.  1.
          4    1    6    6  502    0  0.25804735297E+03 -0.48468730741E+03  0.79168883710E+03  0.96347363074E+03  0.00000000000E+00 0. -1.
          3    1    5    5  503    0  0.43101220023E+03  0.26931216966E+03  0.86354428182E+03  0.10020026388E+04  0.00000000000E+00 0. -1.
         -4    1    5    5    0  503  0.92205169115E+02  0.79184580532E+02  0.14544615234E+03  0.18954306697E+03  0.00000000000E+00 0.  1.
         -3    1    6    6    0  502  0.27079479186E+02 -0.17874127088E+02  0.67699994044E+02  0.75073775753E+02  0.00000000000E+00 0.  1.
<mgrwt>
<rscale>  0 0.40939470E+04</rscale>
<asrwt>0</asrwt>
<pdfrwt beam="1">  1        2 0.33013935E+00 0.40939470E+04</pdfrwt>
<pdfrwt beam="2">  1       -2 0.30040035E+00 0.40939470E+04</pdfrwt>
<totfact> 0.13704236E-01</totfact>
</mgrwt>
</event>
<event>
12    1  0.1494110E-007  0.1859844E+04  0.7818608E-02  0.8675107E-01
          2   -1    0    0  501    0  0.00000000000E+00  0.00000000000E+00  0.23544446004E+04  0.23544446004E+04  0.00000000000E+00 0. -1.
         -2   -1    0    0    0  501 -0.00000000000E+00 -0.00000000000E+00 -0.36728611910E+03  0.36728611910E+03  0.00000000000E+00 0.  1.
         23    2    1    2    0    0  0.68583786839E+03 -0.13172201466E+03  0.85258505811E+03  0.11058322820E+04  0.90771602370E+02 0.  0.
        254    2    1    2    0    0 -0.68583786839E+03  0.13172201466E+03  0.11345734232E+04  0.16158984374E+04  0.91441054056E+03 0.  0.
        -24    2    4    4    0    0 -0.10730302229E+03 -0.29454267510E+03  0.70242782996E+03  0.77333660048E+03  0.79845571534E+02 0.  0.
         24    2    4    4    0    0 -0.57853484611E+03  0.42626468976E+03  0.43214559320E+03  0.84256183696E+03  0.82197819143E+02 0.  0.
         13    1    3    3    0    0  0.97800734942E+02  0.11363047624E+02  0.10405712557E+03  0.14325497544E+03  0.00000000000E+00 0.  1.
        -13    1    3    3    0    0  0.58803713345E+03 -0.14308506229E+03  0.74852793255E+03  0.96257730660E+03  0.00000000000E+00 0. -1.
          2    1    6    6  502    0 -0.26991549400E+02  0.43764556226E+02  0.21669876269E+02  0.55798419854E+02  0.00000000000E+00 0. -1.
          3    1    5    5  503    0  0.12810115306E+02 -0.38933653104E+02  0.94784299219E+02  0.10326660533E+03  0.00000000000E+00 0. -1.
         -4    1    5    5    0  503 -0.12011313759E+03 -0.25560902199E+03  0.60764353074E+03  0.67006999515E+03  0.00000000000E+00 0.  1.
         -3    1    6    6    0  502 -0.55154329671E+03  0.38250013353E+03  0.41047571693E+03  0.78676341710E+03  0.00000000000E+00 0.  1.
<mgrwt>
<rscale>  0 0.18598439E+04</rscale>
<asrwt>0</asrwt>
<pdfrwt beam="1">  1        2 0.36222224E+00 0.18598439E+04</pdfrwt>
<pdfrwt beam="2">  1       -2 0.56505558E-01 0.18598439E+04</pdfrwt>
<totfact> 0.11661218E+01</totfact>
</mgrwt>
</event>
<event>
12    1  0.1494110E-007  0.1915289E+04  0.7818608E-02  0.8647283E-01
         -2   -1    0    0    0  501 -0.00000000000E+00  0.00000000000E+00  0.86307413681E+03  0.86307413681E+03  0.00000000000E+00 0.  1.
          2   -1    0    0  501    0  0.00000000000E+00 -0.00000000000E+00 -0.10625774222E+04  0.10625774222E+04  0.00000000000E+00 0. -1.
         23    2    1    2    0    0 -0.10115133543E+03  0.56028621796E+03 -0.54244243356E+03  0.79173048256E+03  0.91875593010E+02 0.  0.
        254    2    1    2    0    0  0.10115133543E+03 -0.56028621796E+03  0.34293914817E+03  0.11339210764E+04  0.91870425577E+03 0.  0.
        -24    2    4    4    0    0 -0.10353820688E+03 -0.76224126208E+03  0.18107184234E+03  0.79424494722E+03  0.79411096238E+02 0.  0.
         24    2    4    4    0    0  0.20468954231E+03  0.20195504412E+03  0.16186730583E+03  0.33967612923E+03  0.80592800513E+02 0.  0.
         13    1    3    3    0    0 -0.43165562074E+02  0.93943311942E+02 -0.13293475986E+03  0.16840505333E+03  0.00000000000E+00 0.  1.
        -13    1    3    3    0    0 -0.57985773356E+02  0.46634290602E+03 -0.40950767370E+03  0.62332542923E+03  0.00000000000E+00 0. -1.
          2    1    6    6  502    0  0.18518425041E+03  0.20624213079E+03  0.14172564782E+03  0.31131203376E+03  0.00000000000E+00 0. -1.
          1    1    5    5  503    0 -0.11549639205E+03 -0.67665310397E+03  0.15200199761E+03  0.70306717102E+03  0.00000000000E+00 0. -1.
         -2    1    5    5    0  503  0.11958185173E+02 -0.85588158105E+02  0.29069844728E+02  0.91177776201E+02  0.00000000000E+00 0.  1.
         -1    1    6    6    0  502  0.19505291896E+02 -0.42870866769E+01  0.20141658007E+02  0.28364095463E+02  0.00000000000E+00 0.  1.
<mgrwt>
<rscale>  0 0.19152891E+04</rscale>
<asrwt>0</asrwt>
<pdfrwt beam="1">  1        2 0.16347345E+00 0.19152891E+04</pdfrwt>
<pdfrwt beam="2">  1       -2 0.13278064E+00 0.19152891E+04</pdfrwt>
<totfact> 0.88497332E+00</totfact>
</mgrwt>
</event>
<event>
12    1  0.1494110E-007  0.1494619E+04  0.7818608E-02  0.8888039E-01
         -1   -1    0    0    0  501 -0.00000000000E+00  0.00000000000E+00  0.11441452311E+04  0.11441452311E+04  0.00000000000E+00 0.  1.
          1   -1    0    0  501    0  0.00000000000E+00 -0.00000000000E+00 -0.48811261578E+03  0.48811261578E+03  0.00000000000E+00 0. -1.
         23    2    1    2    0    0  0.33694909762E+03 -0.44873263311E+02  0.56831581073E+03  0.66832912000E+03  0.90181194102E+02 0.  0.
        254    2    1    2    0    0 -0.33694909762E+03  0.44873263311E+02  0.87716804602E+02  0.96392872688E+03  0.89772827100E+03 0.  0.
        -24    2    4    4    0    0 -0.19355124888E+03  0.26426143103E+03 -0.32506194036E+03  0.46856687915E+03  0.81200155751E+02 0.  0.
         24    2    4    4    0    0 -0.14339784874E+03 -0.21938816772E+03  0.41277874496E+03  0.49536184773E+03  0.79391162863E+02 0.  0.
         11    1    3    3    0    0  0.37150353193E+02 -0.32735538993E+02  0.57222115084E+02  0.75671227757E+02  0.00000000000E+00 0. -1.
        -11    1    3    3    0    0  0.29979874443E+03 -0.12137724319E+02  0.51109369564E+03  0.59265789224E+03  0.00000000000E+00 0.  1.
          2    1    6    6  502    0 -0.15052099045E+03 -0.18395155176E+03  0.36049753493E+03  0.43180228653E+03  0.00000000000E+00 0. -1.
          3    1    5    5  503    0 -0.13180715221E+03  0.19727055184E+03 -0.27977133449E+03  0.36682529302E+03  0.00000000000E+00 0. -1.
         -4    1    5    5    0  503 -0.61744096668E+02  0.66990879192E+02 -0.45290605866E+02  0.10174158613E+03  0.00000000000E+00 0.  1.
         -1    1    6    6    0  502  0.71231417099E+01 -0.35436615954E+02  0.52281210031E+02  0.63559561203E+02  0.00000000000E+00 0.  1.
<mgrwt>
<rscale>  0 0.14946193E+04</rscale>
<asrwt>0</asrwt>
<pdfrwt beam="1">  1        1 0.75094249E-01 0.14946193E+04</pdfrwt>
<pdfrwt beam="2">  1       -1 0.17602234E+00 0.14946193E+04</pdfrwt>
<totfact> 0.98582529E+00</totfact>
</mgrwt>
</event>
<event>
12    1  0.1494110E-007  0.1379531E+04  0.7818608E-02  0.8968770E-01
         -4   -1    0    0    0  501 -0.00000000000E+00  0.00000000000E+00  0.38486158993E+03  0.38486158993E+03  0.00000000000E+00 0.  1.
          4   -1    0    0  501    0  0.00000000000E+00 -0.00000000000E+00 -0.12362275517E+04  0.12362275517E+04  0.00000000000E+00 0. -1.
         23    2    1    2    0    0 -0.96519826031E+02  0.34417045003E+03 -0.10613083776E+03  0.38334823929E+03  0.89009787953E+02 0.  0.
        254    2    1    2    0    0  0.96519826031E+02 -0.34417045003E+03 -0.74523512400E+03  0.12377409023E+04  0.92133477940E+03 0.  0.
        -24    2    4    4    0    0 -0.12861770729E+03  0.22713975073E+03 -0.50555228005E+03  0.57412710406E+03  0.76836467617E+02 0.  0.
         24    2    4    4    0    0  0.22513753332E+03 -0.57131020076E+03 -0.23968284394E+03  0.66361379826E+03  0.76505902763E+02 0.  0.
         11    1    3    3    0    0 -0.81800693589E+01  0.40469152239E+01  0.97224809469E+01  0.13334830082E+02  0.00000000000E+00 0. -1.
        -11    1    3    3    0    0 -0.88339756672E+02  0.34012353481E+03 -0.11585331870E+03  0.37001340921E+03  0.00000000000E+00 0.  1.
          2    1    6    6  502    0  0.73138738821E+02 -0.20124848667E+03 -0.12274111539E+03  0.24681087884E+03  0.00000000000E+00 0. -1.
          1    1    5    5  503    0 -0.12030663088E+03  0.22997510220E+03 -0.46399119142E+03  0.53164843532E+03  0.00000000000E+00 0. -1.
         -2    1    5    5    0  503 -0.83110764072E+01 -0.28353514704E+01 -0.41561088636E+02  0.42478668736E+02  0.00000000000E+00 0.  1.
         -1    1    6    6    0  502  0.15199879450E+03 -0.37006171409E+03 -0.11694172855E+03  0.41680291942E+03  0.00000000000E+00 0.  1.
<mgrwt>
<rscale>  0 0.13795311E+04</rscale>
<asrwt>0</asrwt>
<pdfrwt beam="1">  1        4 0.19018885E+00 0.13795311E+04</pdfrwt>
<pdfrwt beam="2">  1       -4 0.59209476E-01 0.13795311E+04</pdfrwt>
<totfact> 0.80447270E-01</totfact>
</mgrwt>
</event>
<event>
12    1  0.1494110E-007  0.1086878E+04  0.7818608E-02  0.9218077E-01
         -1   -1    0    0    0  501 -0.00000000000E+00  0.00000000000E+00  0.21765423932E+03  0.21765423932E+03  0.00000000000E+00 0.  1.
          1   -1    0    0  501    0  0.00000000000E+00 -0.00000000000E+00 -0.13568579827E+04  0.13568579827E+04  0.00000000000E+00 0. -1.
         23    2    1    2    0    0 -0.13526900544E+02 -0.69926672375E+02 -0.35601746242E+03  0.37235299066E+03  0.82617186851E+02 0.  0.
        254    2    1    2    0    0  0.13526900544E+02  0.69926672375E+02 -0.78318628095E+03  0.12021592314E+04  0.90924878351E+03 0.  0.
        -24    2    4    4    0    0 -0.72366660436E+02 -0.35455747826E+03 -0.64224567548E+03  0.74132074924E+03  0.78287972629E+02 0.  0.
         24    2    4    4    0    0  0.85893560980E+02  0.42448415064E+03 -0.14094060548E+03  0.46083848211E+03  0.70308992029E+02 0.  0.
         11    1    3    3    0    0 -0.27929513557E+02 -0.10218785310E+02 -0.36971149907E+02  0.47448363788E+02  0.00000000000E+00 0.  1.
        -11    1    3    3    0    0  0.14402613013E+02 -0.59707887065E+02 -0.31904631251E+03  0.32490462688E+03  0.00000000000E+00 0. -1.
          4    1    6    6  502    0  0.76265999234E+02  0.41963518840E+03 -0.13099729661E+03  0.44617315664E+03  0.00000000000E+00 0. -1.
          1    1    5    5  503    0 -0.59604880779E+02 -0.29859156634E+03 -0.58889890595E+03  0.66295670050E+03  0.00000000000E+00 0. -1.
         -2    1    5    5    0  503 -0.12761779657E+02 -0.55965911926E+02 -0.53346769524E+02  0.78364048749E+02  0.00000000000E+00 0.  1.
         -3    1    6    6    0  502  0.96275617457E+01  0.48489622335E+01 -0.99433088677E+01  0.14665325470E+02  0.00000000000E+00 0.  1.
<mgrwt>
<rscale>  0 0.10868779E+04</rscale>
<asrwt>0</asrwt>
<pdfrwt beam="1">  1        1 0.20874739E+00 0.10868779E+04</pdfrwt>
<pdfrwt beam="2">  1       -1 0.33485267E-01 0.10868779E+04</pdfrwt>
<totfact> 0.68986859E+01</totfact>
</mgrwt>
</event>
<event>
12    1  0.1494110E-007  0.1459063E+04  0.7818608E-02  0.8912141E-01
         -2   -1    0    0    0  501 -0.00000000000E+00  0.00000000000E+00  0.60107372750E+03  0.60107372750E+03  0.00000000000E+00 0.  1.
          2   -1    0    0  501    0  0.00000000000E+00 -0.00000000000E+00 -0.88544236779E+03  0.88544236779E+03  0.00000000000E+00 0. -1.
         23    2    1    2    0    0  0.12964557152E+03  0.11855885223E+03  0.32760290137E+03  0.38316575933E+03  0.92887902730E+02 0.  0.
        254    2    1    2    0    0 -0.12964557152E+03 -0.11855885223E+03 -0.61197154166E+03  0.11033503360E+04  0.90111520929E+03 0.  0.
        -24    2    4    4    0    0 -0.10869169023E+03 -0.50152859401E+03 -0.28036492899E+03  0.59032437511E+03  0.80830441707E+02 0.  0.
         24    2    4    4    0    0 -0.20953881285E+02  0.38296974178E+03 -0.33160661268E+03  0.51302596085E+03  0.78280282806E+02 0.  0.
         13    1    3    3    0    0 -0.10677497612E+02  0.26455771926E+02  0.71260644667E+02  0.76759340160E+02  0.00000000000E+00 0. -1.
        -13    1    3    3    0    0  0.14032306913E+03  0.92103080306E+02  0.25634225671E+03  0.30640641916E+03  0.00000000000E+00 0.  1.
          2    1    6    6  502    0 -0.41826345881E+02  0.32468603671E+03 -0.29745040824E+03  0.44232025842E+03  0.00000000000E+00 0. -1.
          1    1    5    5  503    0 -0.59877174678E+02 -0.42043754741E+03 -0.22340692910E+03  0.47985796158E+03  0.00000000000E+00 0. -1.
         -2    1    5    5    0  503 -0.48814515555E+02 -0.81091046606E+02 -0.56957999881E+02  0.11046641353E+03  0.00000000000E+00 0.  1.
         -1    1    6    6    0  502  0.20872464596E+02  0.58283705074E+02 -0.34156204434E+02  0.70705702435E+02  0.00000000000E+00 0.  1.
<mgrwt>
<rscale>  0 0.14590629E+04</rscale>
<asrwt>0</asrwt>
<pdfrwt beam="1">  1        2 0.13622190E+00 0.14590629E+04</pdfrwt>
<pdfrwt beam="2">  1       -2 0.92472881E-01 0.14590629E+04</pdfrwt>
<totfact> 0.28861513E+01</totfact>
</mgrwt>
</event>
<event>
12    1  0.1494110E-007  0.1770718E+04  0.7818608E-02  0.8722028E-01
         -2   -1    0    0    0  501 -0.00000000000E+00  0.00000000000E+00  0.60970141991E+03  0.60970141991E+03  0.00000000000E+00 0.  1.
          2   -1    0    0  501    0  0.00000000000E+00 -0.00000000000E+00 -0.12856466045E+04  0.12856466045E+04  0.00000000000E+00 0. -1.
         23    2    1    2    0    0 -0.35757846047E+03  0.35787882953E+03  0.18671729129E+03  0.55118670411E+03  0.11403431022E+03 0.  0.
        254    2    1    2    0    0  0.35757846047E+03 -0.35787882953E+03 -0.86266247584E+03  0.13441613203E+04  0.89813333958E+03 0.  0.
        -24    2    4    4    0    0  0.23972668844E+03 -0.57679472440E+02 -0.96314626545E+03  0.99736798093E+03  0.79349568654E+02 0.  0.
         24    2    4    4    0    0  0.11785177202E+03 -0.30019935709E+03  0.10048378961E+03  0.34679333934E+03  0.78485247451E+02 0.  0.
         13    1    3    3    0    0  0.12253299120E+01  0.29692517634E+02 -0.15423682904E+01  0.29757787834E+02  0.00000000000E+00 0. -1.
        -13    1    3    3    0    0 -0.35880379038E+03  0.32818631190E+03  0.18825965958E+03  0.52142891628E+03  0.00000000000E+00 0.  1.
          2    1    6    6  502    0  0.12248020777E+02 -0.90505778444E+02  0.58015309386E+02  0.10819928867E+03  0.00000000000E+00 0. -1.
          3    1    5    5  503    0  0.70902589385E+02  0.19263007415E+02 -0.27853534062E+03  0.28806279977E+03  0.00000000000E+00 0. -1.
         -4    1    5    5    0  503  0.16882409906E+03 -0.76942479855E+02 -0.68461092483E+03  0.70930518116E+03  0.00000000000E+00 0.  1.
         -1    1    6    6    0  502  0.10560375124E+03 -0.20969357865E+03  0.42468480222E+02  0.23859405067E+03  0.00000000000E+00 0.  1.
<mgrwt>
<rscale>  0 0.17707180E+04</rscale>
<asrwt>0</asrwt>
<pdfrwt beam="1">  1        2 0.19779178E+00 0.17707180E+04</pdfrwt>
<pdfrwt beam="2">  1       -2 0.93800219E-01 0.17707180E+04</pdfrwt>
<totfact> 0.15314119E+01</totfact>
</mgrwt>
</event>
<event>
12    1  0.1494110E-007  0.2280649E+04  0.7818608E-02  0.8485590E-01
          2   -1    0    0  501    0  0.00000000000E+00  0.00000000000E+00  0.20267072941E+04  0.20267072941E+04  0.00000000000E+00 0. -1.
         -2   -1    0    0    0  501 -0.00000000000E+00 -0.00000000000E+00 -0.64160212919E+03  0.64160212919E+03  0.00000000000E+00 0.  1.
         23    2    1    2    0    0  0.32263514268E+03  0.58733711546E+03 -0.22278585536E+03  0.71186185102E+03  0.89752075743E+02 0.  0.
        254    2    1    2    0    0 -0.32263514268E+03 -0.58733711546E+03  0.16078910202E+04  0.19564475722E+04  0.89068246160E+03 0.  0.
        -24    2    4    4    0    0 -0.46967129753E+02 -0.74610408602E+03  0.87613574331E+03  0.11545337440E+04  0.80356125454E+02 0.  0.
         24    2    4    4    0    0 -0.27566801293E+03  0.15876697056E+03  0.73175527693E+03  0.80191382822E+03  0.80001239221E+02 0.  0.
         11    1    3    3    0    0  0.49812915663E+02  0.43016469125E+02 -0.83717300740E+01  0.66346281337E+02  0.00000000000E+00 0. -1.
        -11    1    3    3    0    0  0.27282222702E+03  0.54432064634E+03 -0.21441412529E+03  0.64551556969E+03  0.00000000000E+00 0.  1.
          2    1    6    6  502    0 -0.68836939999E+02  0.69303395125E+02  0.28984189281E+03  0.30585913050E+03  0.00000000000E+00 0. -1.
          1    1    5    5  503    0 -0.51588711446E+02 -0.74405096868E+03  0.87417307675E+03  0.11491091364E+04  0.00000000000E+00 0. -1.
         -2    1    5    5    0  503  0.46215816928E+01 -0.20531173395E+01  0.19626665576E+01  0.54246076512E+01  0.00000000000E+00 0.  1.
         -1    1    6    6    0  502 -0.20683107293E+03  0.89463575431E+02  0.44191338412E+03  0.49605469772E+03  0.00000000000E+00 0.  1.
<mgrwt>
<rscale>  0 0.22806488E+04</rscale>
<asrwt>0</asrwt>
<pdfrwt beam="1">  1        2 0.31180112E+00 0.22806488E+04</pdfrwt>
<pdfrwt beam="2">  1       -2 0.98708020E-01 0.22806488E+04</pdfrwt>
<totfact> 0.49934312E+00</totfact>
</mgrwt>
</event>
<event>
12    1  0.1494110E-007  0.9932799E+03  0.7818608E-02  0.9315946E-01
         -2   -1    0    0    0  501 -0.00000000000E+00  0.00000000000E+00  0.22478216700E+03  0.22478216700E+03  0.00000000000E+00 0.  1.
          2   -1    0    0  501    0  0.00000000000E+00 -0.00000000000E+00 -0.10972899908E+04  0.10972899908E+04  0.00000000000E+00 0. -1.
         23    2    1    2    0    0 -0.59533143320E+01 -0.60102062776E+02 -0.98476538843E+02  0.14559861567E+03  0.88620698946E+02 0.  0.
        254    2    1    2    0    0  0.59533143320E+01  0.60102062776E+02 -0.77403128495E+03  0.11764735421E+04  0.88392186606E+03 0.  0.
        -24    2    4    4    0    0  0.41350586873E+03  0.15345957416E+03 -0.49377459912E+03  0.66674107760E+03  0.78697938044E+02 0.  0.
         24    2    4    4    0    0 -0.40755255440E+03 -0.93357511380E+02 -0.28025668583E+03  0.50973246451E+03  0.80428016842E+02 0.  0.
         13    1    3    3    0    0  0.15497781044E+02 -0.70292139595E+02 -0.98316705154E+02  0.12184966401E+03  0.00000000000E+00 0. -1.
        -13    1    3    3    0    0 -0.21451095376E+02  0.10190076819E+02 -0.15983368912E+00  0.23748951666E+02  0.00000000000E+00 0.  1.
          2    1    6    6  502    0 -0.35115277381E+03 -0.10476865706E+03 -0.22533552028E+03  0.43018698115E+03  0.00000000000E+00 0. -1.
          3    1    5    5  503    0  0.22272958004E+03  0.53771203296E+02 -0.21203031274E+03  0.31218049531E+03  0.00000000000E+00 0. -1.
         -4    1    5    5    0  503  0.19077628869E+03  0.99688370859E+02 -0.28174428638E+03  0.35456058229E+03  0.00000000000E+00 0.  1.
         -1    1    6    6    0  502 -0.56399780594E+02  0.11411145680E+02 -0.54921165557E+02  0.79545483359E+02  0.00000000000E+00 0.  1.
<mgrwt>
<rscale>  0 0.99327986E+03</rscale>
<asrwt>0</asrwt>
<pdfrwt beam="1">  1        2 0.16881384E+00 0.99327986E+03</pdfrwt>
<pdfrwt beam="2">  1       -2 0.34581872E-01 0.99327986E+03</pdfrwt>
<totfact> 0.17099924E+02</totfact>
</mgrwt>
</event>
<event>
12    1  0.1494110E-007  0.1713349E+04  0.7818608E-02  0.8753788E-01
         -1   -1    0    0    0  501 -0.00000000000E+00  0.00000000000E+00  0.17646488966E+03  0.17646488966E+03  0.00000000000E+00 0.  1.
          1   -1    0    0  501    0  0.00000000000E+00 -0.00000000000E+00 -0.41588489570E+04  0.41588489570E+04  0.00000000000E+00 0. -1.
         23    2    1    2    0    0  0.36056634351E+03 -0.75611435504E+01 -0.27051759494E+04  0.27306322724E+04  0.91161562515E+02 0.  0.
        254    2    1    2    0    0 -0.36056634351E+03  0.75611435504E+01 -0.12772081179E+04  0.16046815742E+04  0.90204053094E+03 0.  0.
        -24    2    4    4    0    0  0.23377033218E+03  0.11336206101E+03 -0.11860126314E+03  0.29607099168E+03  0.78052850101E+02 0.  0.
         24    2    4    4    0    0 -0.59433667569E+03 -0.10580091746E+03 -0.11586068547E+04  0.13086105826E+04  0.75245563497E+02 0.  0.
         13    1    3    3    0    0  0.35034074637E+03 -0.10149329277E+02 -0.26857916845E+04  0.27085639405E+04  0.00000000000E+00 0. -1.
        -13    1    3    3    0    0  0.10225597146E+02  0.25881857266E+01 -0.19384264941E+02  0.22068331828E+02  0.00000000000E+00 0.  1.
          4    1    6    6  502    0 -0.54287668657E+03 -0.74098904647E+02 -0.10432755383E+04  0.11784012871E+04  0.00000000000E+00 0. -1.
          1    1    5    5  503    0  0.20940304180E+03  0.12354271382E+03 -0.11643747534E+03  0.26957396335E+03  0.00000000000E+00 0. -1.
         -2    1    5    5    0  503  0.24367290384E+02 -0.10180652817E+02 -0.21637878037E+01  0.26497028325E+02  0.00000000000E+00 0.  1.
         -3    1    6    6    0  502 -0.51459989124E+02 -0.31702012810E+02 -0.11533131638E+03  0.13020929550E+03  0.00000000000E+00 0.  1.
<mgrwt>
<rscale>  0 0.17133486E+04</rscale>
<asrwt>0</asrwt>
<pdfrwt beam="1">  1        1 0.63982290E+00 0.17133486E+04</pdfrwt>
<pdfrwt beam="2">  1       -1 0.27148445E-01 0.17133486E+04</pdfrwt>
<totfact> 0.81000358E-01</totfact>
</mgrwt>
</event>
<event>
12    1  0.1494110E-007  0.2703879E+04  0.7818608E-02  0.8333748E-01
          1   -1    0    0  501    0  0.00000000000E+00  0.00000000000E+00  0.10887734250E+04  0.10887734250E+04  0.00000000000E+00 0. -1.
         -1   -1    0    0    0  501 -0.00000000000E+00 -0.00000000000E+00 -0.16787145049E+04  0.16787145049E+04  0.00000000000E+00 0.  1.
         23    2    1    2    0    0 -0.83052777276E+03  0.98912545881E+02  0.62287712163E+03  0.10469708674E+04  0.92800945033E+02 0.  0.
        254    2    1    2    0    0  0.83052777276E+03 -0.98912545881E+02 -0.12128182015E+04  0.17205170625E+04  0.88864554200E+03 0.  0.
        -24    2    4    4    0    0  0.36703238050E+03 -0.13175676727E+03  0.22604556951E+02  0.39814075028E+03  0.77022574497E+02 0.  0.
         24    2    4    4    0    0  0.46349539225E+03  0.32844221391E+02 -0.12354227585E+04  0.13223763122E+04  0.80641164503E+02 0.  0.
         11    1    3    3    0    0 -0.61353012884E+03  0.63646935313E+02  0.40795813483E+03  0.73952686979E+03  0.00000000000E+00 0.  1.
        -11    1    3    3    0    0 -0.21699764392E+03  0.35265610567E+02  0.21491898681E+03  0.30744399757E+03  0.00000000000E+00 0. -1.
          4    1    6    6  502    0  0.41599109711E+03  0.51848429948E+01 -0.10683845846E+04  0.11465256631E+04  0.00000000000E+00 0. -1.
          3    1    5    5  503    0  0.33589872782E+03 -0.11608485864E+03  0.42633577360E+02  0.35794031859E+03  0.00000000000E+00 0. -1.
         -4    1    5    5    0  503  0.31133652686E+02 -0.15671908635E+02 -0.20029020409E+02  0.40200431694E+02  0.00000000000E+00 0.  1.
         -3    1    6    6    0  502  0.47504295143E+02  0.27659378397E+02 -0.16703817383E+03  0.17585064910E+03  0.00000000000E+00 0.  1.
<mgrwt>
<rscale>  0 0.27038785E+04</rscale>
<asrwt>0</asrwt>
<pdfrwt beam="1">  1        1 0.16750361E+00 0.27038785E+04</pdfrwt>
<pdfrwt beam="2">  1       -1 0.25826377E+00 0.27038785E+04</pdfrwt>
<totfact> 0.69492688E-01</totfact>
</mgrwt>
</event>
<event>
12    1  0.1494110E-007  0.1849230E+04  0.7818608E-02  0.8680549E-01
          2   -1    0    0  501    0  0.00000000000E+00  0.00000000000E+00  0.22163975811E+04  0.22163975811E+04  0.00000000000E+00 0.  1.
         -2   -1    0    0    0  501 -0.00000000000E+00 -0.00000000000E+00 -0.38572163194E+03  0.38572163194E+03  0.00000000000E+00 0. -1.
         23    2    1    2    0    0 -0.27067877030E+03 -0.19099069111E+03 -0.16006228295E+03  0.38723605038E+03  0.12077824104E+03 0.  0.
        254    2    1    2    0    0  0.27067877030E+03  0.19099069111E+03  0.19907382321E+04  0.22148831626E+04  0.91264685100E+03 0.  0.
        -24    2    4    4    0    0 -0.39599598134E+02  0.33529406150E+03  0.17623126457E+04  0.17959891088E+04  0.76425007903E+02 0.  0.
         24    2    4    4    0    0  0.31027836843E+03 -0.14430337039E+03  0.22842558643E+03  0.41889405389E+03  0.78726432815E+02 0.  0.
         13    1    3    3    0    0 -0.14640476176E+03 -0.95261458070E+02 -0.14967044959E+03  0.23002248399E+03  0.00000000000E+00 0.  1.
        -13    1    3    3    0    0 -0.12427400854E+03 -0.95729233036E+02 -0.10391833361E+02  0.15721356639E+03  0.00000000000E+00 0. -1.
          4    1    6    6  502    0  0.27135218072E+03 -0.12928566616E+03  0.22783396236E+03  0.37716720942E+03  0.00000000000E+00 0. -1.
          3    1    5    5  503    0 -0.36589246584E+02  0.16419641124E+03  0.69657377536E+03  0.71659909220E+03  0.00000000000E+00 0. -1.
         -4    1    5    5    0  503 -0.30103515493E+01  0.17109765026E+03  0.10657388703E+04  0.10793900166E+04  0.00000000000E+00 0.  1.
         -3    1    6    6    0  502  0.38926187713E+02 -0.15017704228E+02  0.59162406655E+00  0.41726844467E+02  0.00000000000E+00 0.  1.
<mgrwt>
<rscale>  0 0.18492296E+04</rscale>
<asrwt>0</asrwt>
<pdfrwt beam="1">  1        2 0.34098424E+00 0.18492296E+04</pdfrwt>
<pdfrwt beam="2">  1       -2 0.59341791E-01 0.18492296E+04</pdfrwt>
<totfact> 0.12605224E+01</totfact>
</mgrwt>
</event>
<event>
12    1  0.1494110E-007  0.2057128E+04  0.7818608E-02  0.8580367E-01
         -2   -1    0    0    0  501 -0.00000000000E+00  0.00000000000E+00  0.74171600562E+03  0.74171600562E+03  0.00000000000E+00 0. -1.
          2   -1    0    0  501    0  0.00000000000E+00 -0.00000000000E+00 -0.14263469475E+04  0.14263469475E+04  0.00000000000E+00 0.  1.
         23    2    1    2    0    0  0.28014826047E+03 -0.58116650071E+03 -0.73930867868E+03  0.98544641260E+03  0.91048120999E+02 0.  0.
        254    2    1    2    0    0 -0.28014826047E+03  0.58116650071E+03  0.54677736773E+02  0.11826165406E+04  0.98962350301E+03 0.  0.
        -24    2    4    4    0    0 -0.51090000008E+03 -0.26378512219E+02 -0.47426202167E+02  0.51986356268E+03  0.79336266414E+02 0.  0.
         24    2    4    4    0    0  0.23075173961E+03  0.60754501293E+03  0.10210393894E+03  0.66275297787E+03  0.80367824805E+02 0.  0.
         11    1    3    3    0    0  0.23940857754E+03 -0.42948335727E+03 -0.59781487913E+03  0.77405106478E+03  0.00000000000E+00 0.  1.
        -11    1    3    3    0    0  0.40739682926E+02 -0.15168314344E+03 -0.14149379955E+03  0.21139534782E+03  0.00000000000E+00 0. -1.
          4    1    6    6  502    0  0.94188111398E+02  0.35539115252E+03  0.69134934412E+02  0.37410414429E+03  0.00000000000E+00 0. -1.
          1    1    5    5  503    0 -0.20731914950E+03 -0.35389010834E+02 -0.49826575850E+02  0.21613953710E+03  0.00000000000E+00 0. -1.
         -2    1    5    5    0  503 -0.30358085058E+03  0.90104986156E+01  0.24003736833E+01  0.30372402558E+03  0.00000000000E+00 0.  1.
         -3    1    6    6    0  502  0.13656362821E+03  0.25215386041E+03  0.32969004528E+02  0.28864883358E+03  0.00000000000E+00 0.  1.
<mgrwt>
<rscale>  0 0.20571284E+04</rscale>
<asrwt>0</asrwt>
<pdfrwt beam="1">  1        2 0.21943799E+00 0.20571284E+04</pdfrwt>
<pdfrwt beam="2">  1       -2 0.11411016E+00 0.20571284E+04</pdfrwt>
<totfact> 0.77688806E+00</totfact>
</mgrwt>
</event>
<event>
12    1  0.1494110E-007  0.2031714E+04  0.7818608E-02  0.8591935E-01
          2   -1    0    0  501    0  0.00000000000E+00  0.00000000000E+00  0.11308253466E+04  0.11308253466E+04  0.00000000000E+00 0. -1.
         -2   -1    0    0    0  501 -0.00000000000E+00 -0.00000000000E+00 -0.91257735777E+03  0.91257735777E+03  0.00000000000E+00 0.  1.
         23    2    1    2    0    0 -0.83749951122E+00 -0.19670206283E+03  0.89140351763E+03  0.91757385755E+03  0.93000805859E+02 0.  0.
        254    2    1    2    0    0  0.83749951122E+00  0.19670206283E+03 -0.67315552883E+03  0.11258288468E+04  0.88071551781E+03 0.  0.
        -24    2    4    4    0    0  0.33154153430E+03  0.30622436832E+03 -0.60965785924E+03  0.76277413561E+03  0.80302701687E+02 0.  0.
         24    2    4    4    0    0 -0.33070403479E+03 -0.10952230549E+03 -0.63497669593E+02  0.36305471117E+03  0.80102904019E+02 0.  0.
         11    1    3    3    0    0  0.37090510092E+01 -0.20069350859E+03  0.76092671368E+03  0.78695686352E+03  0.00000000000E+00 0. -1.
        -11    1    3    3    0    0 -0.45465505204E+01  0.39914457569E+01  0.13047680394E+03  0.13061699402E+03  0.00000000000E+00 0.  1.
          2    1    6    6  502    0 -0.99996995595E+01 -0.12933976663E+02 -0.19179163247E+02  0.25201627854E+02  0.00000000000E+00 0. -1.
          1    1    5    5  503    0  0.19376656293E+03  0.22199454656E+03 -0.35671778297E+03  0.46268200343E+03  0.00000000000E+00 0. -1.
         -2    1    5    5    0  503  0.13777497137E+03  0.84229821757E+02 -0.25294007627E+03  0.30009213218E+03  0.00000000000E+00 0.  1.
         -1    1    6    6    0  502 -0.32070433523E+03 -0.96588328825E+02 -0.44318506346E+02  0.33785308332E+03  0.00000000000E+00 0.  1.
<mgrwt>
<rscale>  0 0.20317142E+04</rscale>
<asrwt>0</asrwt>
<pdfrwt beam="1">  1        2 0.17397313E+00 0.20317142E+04</pdfrwt>
<pdfrwt beam="2">  1       -2 0.14039652E+00 0.20317142E+04</pdfrwt>
<totfact> 0.68910078E+00</totfact>
</mgrwt>
</event>
<event>
12    1  0.1494110E-007  0.1518559E+04  0.7818608E-02  0.8872205E-01
         -1   -1    0    0    0  501 -0.00000000000E+00  0.00000000000E+00  0.28134747942E+03  0.28134747942E+03  0.00000000000E+00 0.  1.
          1   -1    0    0  501    0  0.00000000000E+00 -0.00000000000E+00 -0.20490857537E+04  0.20490857537E+04  0.00000000000E+00 0. -1.
         23    2    1    2    0    0 -0.45289907170E+03 -0.54838975297E+02 -0.30788344858E+03  0.55807427651E+03  0.92356904652E+02 0.  0.
        254    2    1    2    0    0  0.45289907170E+03  0.54838975297E+02 -0.14598548257E+04  0.17723589566E+04  0.89551955678E+03 0.  0.
        -24    2    4    4    0    0  0.36380048296E+03  0.32324601599E+03 -0.13835136451E+04  0.14687853848E+04  0.79885682067E+02 0.  0.
         24    2    4    4    0    0  0.89098588745E+02 -0.26840704070E+03 -0.76341180547E+02  0.30357357175E+03  0.79674585687E+02 0.  0.
         11    1    3    3    0    0 -0.17356594378E+03 -0.34873623890E+02 -0.69079474637E+02  0.19003494495E+03  0.00000000000E+00 0.  1.
        -11    1    3    3    0    0 -0.27933312792E+03 -0.19965351407E+02 -0.23880397394E+03  0.36803933157E+03  0.00000000000E+00 0. -1.
          2    1    6    6  502    0 -0.79414647682E+01  0.27269970836E+00 -0.26648701677E+00  0.79506127516E+01  0.00000000000E+00 0. -1.
          3    1    5    5  503    0  0.14108733071E+03  0.92291458823E+02 -0.56564742421E+03  0.59023754267E+03  0.00000000000E+00 0. -1.
         -4    1    5    5    0  503  0.22271315225E+03  0.23095455717E+03 -0.81786622091E+03  0.87854784216E+03  0.00000000000E+00 0.  1.
         -1    1    6    6    0  502  0.97040053513E+02 -0.26867974040E+03 -0.76074693530E+02  0.29562295899E+03  0.00000000000E+00 0.  1.
<mgrwt>
<rscale>  0 0.15185587E+04</rscale>
<asrwt>0</asrwt>
<pdfrwt beam="1">  1        1 0.31524398E+00 0.15185587E+04</pdfrwt>
<pdfrwt beam="2">  1       -1 0.43284226E-01 0.15185587E+04</pdfrwt>
<totfact> 0.14046217E+01</totfact>
</mgrwt>
</event>
<event>
12    1  0.1494110E-007  0.1883919E+04  0.7818608E-02  0.8662903E-01
         -1   -1    0    0    0  501 -0.00000000000E+00  0.00000000000E+00  0.89329296990E+03  0.89329296990E+03  0.00000000000E+00 0.  1.
          1   -1    0    0  501    0  0.00000000000E+00 -0.00000000000E+00 -0.99327729285E+03  0.99327729285E+03  0.00000000000E+00 0. -1.
         23    2    1    2    0    0 -0.39377882908E+03 -0.46641343618E+03  0.32232313816E+03  0.69637690201E+03  0.91898447125E+02 0.  0.
        254    2    1    2    0    0  0.39377882908E+03  0.46641343618E+03 -0.42230746110E+03  0.11901933607E+04  0.93038346103E+03 0.  0.
        -24    2    4    4    0    0  0.19894941051E+03 -0.17882135346E+03 -0.42875629529E+03  0.51195551451E+03  0.81905699993E+02 0.  0.
         24    2    4    4    0    0  0.19482941857E+03  0.64523478964E+03  0.64488341841E+01  0.67823784623E+03  0.75356170858E+02 0.  0.
         11    1    3    3    0    0 -0.19068046074E+03 -0.22287008557E+03  0.20676733329E+03  0.35886326542E+03  0.00000000000E+00 0. -1.
        -11    1    3    3    0    0 -0.20309836834E+03 -0.24354335062E+03  0.11555580486E+03  0.33751363660E+03  0.00000000000E+00 0.  1.
          2    1    6    6  502    0  0.18873540554E+03  0.52968328148E+03  0.11410228463E+02  0.56241943894E+03  0.00000000000E+00 0. -1.
          3    1    5    5  503    0  0.20537694401E+03 -0.16988762741E+03 -0.42173562637E+03  0.49890122632E+03  0.00000000000E+00 0. -1.
         -4    1    5    5    0  503 -0.64275334977E+01 -0.89337260481E+01 -0.70206689180E+01  0.13054288185E+02  0.00000000000E+00 0.  1.
         -1    1    6    6    0  502  0.60940130325E+01  0.11555150816E+03 -0.49613942789E+01  0.11581840729E+03  0.00000000000E+00 0.  1.
<mgrwt>
<rscale>  0 0.18839189E+04</rscale>
<asrwt>0</asrwt>
<pdfrwt beam="1">  1        1 0.15281189E+00 0.18839189E+04</pdfrwt>
<pdfrwt beam="2">  1       -1 0.13742969E+00 0.18839189E+04</pdfrwt>
<totfact> 0.63133131E+00</totfact>
</mgrwt>
</event>
<event>
12    1  0.1494110E-007  0.2088783E+04  0.7818608E-02  0.8566201E-01
          1   -1    0    0  501    0  0.00000000000E+00  0.00000000000E+00  0.42181614143E+03  0.42181614143E+03  0.00000000000E+00 0. -1.
         -1   -1    0    0    0  501 -0.00000000000E+00 -0.00000000000E+00 -0.25858515812E+04  0.25858515812E+04  0.00000000000E+00 0.  1.
         23    2    1    2    0    0  0.19847037540E+03  0.41823451105E+02  0.30990581251E+03  0.38088764354E+03  0.88848710769E+02 0.  0.
        254    2    1    2    0    0 -0.19847037540E+03 -0.41823451105E+02 -0.24739412523E+04  0.26267800791E+04  0.85933030504E+03 0.  0.
        -24    2    4    4    0    0 -0.12371156254E+03 -0.26261056554E+03 -0.23128306628E+04  0.23324621903E+04  0.83218593787E+02 0.  0.
         24    2    4    4    0    0 -0.74758812858E+02  0.22078711443E+03 -0.16111058943E+03  0.29431788877E+03  0.79564864281E+02 0.  0.
         13    1    3    3    0    0  0.12222638939E+00  0.15180634974E+02  0.53573819200E+02  0.55683217590E+02  0.00000000000E+00 0.  1.
        -13    1    3    3    0    0  0.19834814901E+03  0.26642816131E+02  0.25633199331E+03  0.32520442595E+03  0.00000000000E+00 0. -1.
          2    1    6    6  502    0  0.11910591319E+01  0.29080780536E+01 -0.27518522883E+02  0.27697376075E+02  0.00000000000E+00 0. -1.
          1    1    5    5  503    0 -0.51480421931E+02 -0.12911881097E+03 -0.79491673416E+03  0.80697863382E+03  0.00000000000E+00 0. -1.
         -4    1    5    5    0  503 -0.72231140613E+02 -0.13349175457E+03 -0.15179139287E+04  0.15254835565E+04  0.00000000000E+00 0.  1.
         -1    1    6    6    0  502 -0.75949871990E+02  0.21787903638E+03 -0.13359206654E+03  0.26662051270E+03  0.00000000000E+00 0.  1.
<mgrwt>
<rscale>  0 0.20887833E+04</rscale>
<asrwt>0</asrwt>
<pdfrwt beam="1">  1        1 0.64894791E-01 0.20887833E+04</pdfrwt>
<pdfrwt beam="2">  1       -1 0.39782332E+00 0.20887833E+04</pdfrwt>
<totfact> 0.38134023E-01</totfact>
</mgrwt>
</event>
<event>
12    1  0.1494110E-007  0.1595089E+04  0.7818608E-02  0.8823570E-01
          1   -1    0    0  501    0  0.00000000000E+00  0.00000000000E+00  0.26333551752E+04  0.26333551752E+04  0.00000000000E+00 0. -1.
         -1   -1    0    0    0  501 -0.00000000000E+00 -0.00000000000E+00 -0.24154642555E+03  0.24154642555E+03  0.00000000000E+00 0.  1.
         23    2    1    2    0    0 -0.14832736540E+03  0.35713870723E+03  0.15081865527E+04  0.15596035044E+04  0.90483974291E+02 0.  0.
        254    2    1    2    0    0  0.14832736540E+03 -0.35713870723E+03  0.88362219690E+03  0.13152980963E+04  0.89424372059E+03 0.  0.
        -24    2    4    4    0    0 -0.13407750158E+03 -0.51863252967E+03  0.80705111207E+03  0.97202552118E+03  0.80905123827E+02 0.  0.
         24    2    4    4    0    0  0.28240486699E+03  0.16149382244E+03  0.76571084829E+02  0.34327257515E+03  0.78359212804E+02 0.  0.
         13    1    3    3    0    0 -0.78893920005E+02  0.21806992153E+03  0.10647921871E+04  0.10897527898E+04  0.00000000000E+00 0. -1.
        -13    1    3    3    0    0 -0.69433445400E+02  0.13906878570E+03  0.44339436568E+03  0.46985071460E+03  0.00000000000E+00 0.  1.
          4    1    6    6  502    0  0.16389605678E+03  0.69547200606E+02  0.75200022858E+02  0.19327124457E+03  0.00000000000E+00 0. -1.
          3    1    5    5  503    0 -0.22432286709E+02 -0.18521961070E+03  0.22830858529E+03  0.29484626807E+03  0.00000000000E+00 0. -1.
         -4    1    5    5    0  503 -0.11164521487E+03 -0.33341291897E+03  0.57874252678E+03  0.67717925311E+03  0.00000000000E+00 0.  1.
         -3    1    6    6    0  502  0.11850881021E+03  0.91946621834E+02  0.13710619710E+01  0.15000133057E+03  0.00000000000E+00 0.  1.
<mgrwt>
<rscale>  0 0.15950894E+04</rscale>
<asrwt>0</asrwt>
<pdfrwt beam="1">  1        1 0.40513155E+00 0.15950894E+04</pdfrwt>
<pdfrwt beam="2">  1       -1 0.37160990E-01 0.15950894E+04</pdfrwt>
<totfact> 0.73300616E+00</totfact>
</mgrwt>
</event>
<event>
12    1  0.1494110E-007  0.1208027E+04  0.7818608E-02  0.9105859E-01
          2   -1    0    0  501    0  0.00000000000E+00  0.00000000000E+00  0.26885281108E+04  0.26885281108E+04  0.00000000000E+00 0. -1.
         -2   -1    0    0    0  501 -0.00000000000E+00 -0.00000000000E+00 -0.13569975652E+03  0.13569975652E+03  0.00000000000E+00 0.  1.
         23    2    1    2    0    0 -0.33581320043E+02  0.26210109312E+03  0.56600033456E+03  0.63154339173E+03  0.93091293071E+02 0.  0.
        254    2    1    2    0    0  0.33581320043E+02 -0.26210109312E+03  0.19868280197E+04  0.21926844756E+04  0.88913156589E+03 0.  0.
        -24    2    4    4    0    0  0.35654686315E+03  0.12883295415E+03  0.60365064346E+03  0.71728034506E+03  0.79833566606E+02 0.  0.
         24    2    4    4    0    0 -0.32296554311E+03 -0.39093404727E+03  0.13831773763E+04  0.14754041305E+04  0.80632021247E+02 0.  0.
         13    1    3    3    0    0  0.33252325745E+01  0.19134277352E+03  0.31931410603E+03  0.37226954276E+03  0.00000000000E+00 0.  1.
        -13    1    3    3    0    0 -0.36906552617E+02  0.70758319602E+02  0.24668622852E+03  0.25927384897E+03  0.00000000000E+00 0. -1.
          2    1    6    6  502    0 -0.31821546920E+03 -0.38714600524E+03  0.13807144025E+04  0.14688483160E+04  0.00000000000E+00 0. -1.
          3    1    5    5  503    0  0.21440562504E+03  0.35546191894E+02  0.33181475135E+03  0.39665392096E+03  0.00000000000E+00 0. -1.
         -2    1    5    5    0  503  0.14214123811E+03  0.93286762253E+02  0.27183589212E+03  0.32062642409E+03  0.00000000000E+00 0.  1.
         -3    1    6    6    0  502 -0.47500739072E+01 -0.37880420259E+01  0.24629738087E+01  0.65558145562E+01  0.00000000000E+00 0.  1.
<mgrwt>
<rscale>  0 0.12080275E+04</rscale>
<asrwt>0</asrwt>
<pdfrwt beam="1">  1        2 0.41361967E+00 0.12080275E+04</pdfrwt>
<pdfrwt beam="2">  1       -2 0.20876888E-01 0.12080275E+04</pdfrwt>
<totfact> 0.53193595E+01</totfact>
</mgrwt>
</event>
<event>
12    1  0.1494110E-007  0.1159124E+04  0.7818608E-02  0.9149407E-01
          2   -1    0    0  501    0  0.00000000000E+00  0.00000000000E+00  0.11317857875E+04  0.11317857875E+04  0.00000000000E+00 0. -1.
         -2   -1    0    0    0  501 -0.00000000000E+00 -0.00000000000E+00 -0.29678073631E+03  0.29678073631E+03  0.00000000000E+00 0.  1.
         23    2    1    2    0    0 -0.11508662070E+03 -0.46991647795E+02  0.42373521530E+03  0.44847866415E+03  0.78284316987E+02 0.  0.
        254    2    1    2    0    0  0.11508662070E+03  0.46991647795E+02  0.41126983587E+03  0.98008785963E+03  0.88089510697E+03 0.  0.
        -24    2    4    4    0    0  0.33330410460E+03 -0.42108714483E+02  0.58316565352E+03  0.67769886865E+03  0.79553800352E+02 0.  0.
         24    2    4    4    0    0 -0.21821748390E+03  0.89100362278E+02 -0.17189581765E+03  0.30238899098E+03  0.79581310023E+02 0.  0.
         13    1    3    3    0    0  0.88216607617E+01 -0.43543457886E+01  0.80179582596E+02  0.80780860921E+02  0.00000000000E+00 0.  1.
        -13    1    3    3    0    0 -0.12390828146E+03 -0.42637302007E+02  0.34355563270E+03  0.36769780322E+03  0.00000000000E+00 0. -1.
          4    1    6    6  502    0 -0.17227258808E+03  0.68464682940E+02 -0.89582492216E+02  0.20588900001E+03  0.00000000000E+00 0. -1.
          1    1    5    5  503    0  0.33363381805E+03 -0.35980177919E+02  0.55248135625E+03  0.64640679665E+03  0.00000000000E+00 0. -1.
         -2    1    5    5    0  503 -0.32971345236E+00 -0.61285365638E+01  0.30684297266E+02  0.31292072000E+02  0.00000000000E+00 0.  1.
         -3    1    6    6    0  502 -0.45944895817E+02  0.20635679339E+02 -0.82313325433E+02  0.96499990970E+02  0.00000000000E+00 0.  1.
<mgrwt>
<rscale>  0 0.11591242E+04</rscale>
<asrwt>0</asrwt>
<pdfrwt beam="1">  1        2 0.17412089E+00 0.11591242E+04</pdfrwt>
<pdfrwt beam="2">  1       -2 0.45658575E-01 0.11591242E+04</pdfrwt>
<totfact> 0.93684907E+01</totfact>
</mgrwt>
</event>
<event>
12    1  0.1494110E-007  0.2043172E+04  0.7818608E-02  0.8586698E-01
         -2   -1    0    0    0  501 -0.00000000000E+00  0.00000000000E+00  0.59521686806E+03  0.59521686806E+03  0.00000000000E+00 0.  1.
          2   -1    0    0  501    0  0.00000000000E+00 -0.00000000000E+00 -0.17533746168E+04  0.17533746168E+04  0.00000000000E+00 0. -1.
         23    2    1    2    0    0  0.75607352784E+03 -0.13775511944E+02 -0.13283918950E+03  0.77443833641E+03  0.10134861816E+03 0.  0.
        254    2    1    2    0    0 -0.75607352784E+03  0.13775511944E+02 -0.10253185592E+04  0.15741531484E+04  0.92457722370E+03 0.  0.
        -24    2    4    4    0    0 -0.87725851727E+03  0.23417383631E+03 -0.66895346212E+03  0.11303289056E+04  0.75662464760E+02 0.  0.
         24    2    4    4    0    0  0.12118498943E+03 -0.22039832437E+03 -0.35636509711E+03  0.44382424285E+03  0.81991786500E+02 0.  0.
         11    1    3    3    0    0  0.17668953773E+03  0.18612440949E+02  0.60121563960E+01  0.17776884352E+03  0.00000000000E+00 0. -1.
        -11    1    3    3    0    0  0.57938399011E+03 -0.32387952893E+02 -0.13885134590E+03  0.59666949289E+03  0.00000000000E+00 0.  1.
          4    1    6    6  502    0  0.90341664575E+02 -0.20859934524E+03 -0.28024646319E+03  0.36085091565E+03  0.00000000000E+00 0. -1.
          1    1    5    5  503    0 -0.45231617730E+03  0.15686038802E+03 -0.33369986586E+03  0.58356722496E+03  0.00000000000E+00 0. -1.
         -2    1    5    5    0  503 -0.42494233997E+03  0.77313448293E+02 -0.33525359626E+03  0.54676168062E+03  0.00000000000E+00 0.  1.
         -1    1    6    6    0  502  0.30843324856E+02 -0.11798979125E+02 -0.76118633924E+02  0.82973327202E+02  0.00000000000E+00 0.  1.
<mgrwt>
<rscale>  0 0.20431722E+04</rscale>
<asrwt>0</asrwt>
<pdfrwt beam="1">  1        2 0.26974994E+00 0.20431722E+04</pdfrwt>
<pdfrwt beam="2">  1       -2 0.91571826E-01 0.20431722E+04</pdfrwt>
<totfact> 0.86091721E+00</totfact>
</mgrwt>
</event>
<event>
12    1  0.1494110E-007  0.1662492E+04  0.7818608E-02  0.8783051E-01
          2   -1    0    0  501    0  0.00000000000E+00  0.00000000000E+00  0.12815575741E+04  0.12815575741E+04  0.00000000000E+00 0. -1.
         -2   -1    0    0    0  501 -0.00000000000E+00 -0.00000000000E+00 -0.53916384530E+03  0.53916384530E+03  0.00000000000E+00 0.  1.
         23    2    1    2    0    0  0.28028983154E+03 -0.15056672939E+03  0.79327339174E+03  0.85930480197E+03  0.88821950971E+02 0.  0.
        254    2    1    2    0    0 -0.28028983154E+03  0.15056672939E+03 -0.50879662930E+02  0.96141661744E+03  0.90581479482E+03 0.  0.
        -24    2    4    4    0    0 -0.25108078465E+01 -0.11311181425E+03 -0.40849367216E+03  0.43139494549E+03  0.80211795367E+02 0.  0.
         24    2    4    4    0    0 -0.27777902370E+03  0.26367854364E+03  0.35761400923E+03  0.53002167195E+03  0.79672032440E+02 0.  0.
         11    1    3    3    0    0  0.26236119773E+03 -0.15943184060E+03  0.70763588554E+03  0.77136272686E+03  0.00000000000E+00 0. -1.
        -11    1    3    3    0    0  0.17928633810E+02  0.88651112139E+01  0.85637506197E+02  0.87942075111E+02  0.00000000000E+00 0.  1.
          2    1    6    6  502    0 -0.11535125870E+03  0.11611299376E+03  0.20686156149E+03  0.26377991930E+03  0.00000000000E+00 0. -1.
          1    1    5    5  503    0 -0.26861739649E+02 -0.11086086562E+03 -0.34409344723E+03  0.36250791027E+03  0.00000000000E+00 0. -1.
         -2    1    5    5    0  503  0.24350931803E+02 -0.22509486309E+01 -0.64400224937E+02  0.68887035219E+02  0.00000000000E+00 0.  1.
         -1    1    6    6    0  502 -0.16242776500E+03  0.14756554988E+03  0.15075244775E+03  0.26624175265E+03  0.00000000000E+00 0.  1.
<mgrwt>
<rscale>  0 0.16624915E+04</rscale>
<asrwt>0</asrwt>
<pdfrwt beam="1">  1        2 0.19716270E+00 0.16624915E+04</pdfrwt>
<pdfrwt beam="2">  1       -2 0.82948284E-01 0.16624915E+04</pdfrwt>
<totfact> 0.20602606E+01</totfact>
</mgrwt>
</event>
<event>
12    1  0.1494110E-007  0.1375373E+04  0.7818608E-02  0.8971840E-01
          2   -1    0    0  501    0  0.00000000000E+00  0.00000000000E+00  0.81878933846E+03  0.81878933846E+03  0.00000000000E+00 0.  1.
         -2   -1    0    0    0  501 -0.00000000000E+00 -0.00000000000E+00 -0.57757546094E+03  0.57757546094E+03  0.00000000000E+00 0. -1.
         23    2    1    2    0    0 -0.21628733028E+03 -0.27124356038E+03  0.21570813736E+03  0.41824365826E+03  0.89691018827E+02 0.  0.
        254    2    1    2    0    0  0.21628733028E+03  0.27124356038E+03  0.25505740163E+02  0.97812114114E+03  0.91417566456E+03 0.  0.
        -24    2    4    4    0    0 -0.30919729432E+03  0.29195828839E+03  0.91463717514E+02  0.44198478360E+03  0.78373007718E+02 0.  0.
         24    2    4    4    0    0  0.52548462460E+03 -0.20714728014E+02 -0.65957977352E+02  0.53613635754E+03  0.80799433462E+02 0.  0.
         13    1    3    3    0    0 -0.50397211929E+02 -0.15935321198E+02  0.21215217836E+02  0.56955235929E+02  0.00000000000E+00 0. -1.
        -13    1    3    3    0    0 -0.16589011836E+03 -0.25530823918E+03  0.19449291953E+03  0.36128842233E+03  0.00000000000E+00 0.  1.
          4    1    6    6  502    0  0.73306522656E+02  0.25206544297E+02 -0.72765256127E+01  0.77859899591E+02  0.00000000000E+00 0. -1.
          1    1    5    5  503    0 -0.13640341950E+03  0.13727365227E+03  0.23418817890E+01  0.19353406126E+03  0.00000000000E+00 0. -1.
         -2    1    5    5    0  503 -0.17279387482E+03  0.15468463612E+03  0.89121835725E+02  0.24845072234E+03  0.00000000000E+00 0.  1.
         -3    1    6    6    0  502  0.45217810195E+03 -0.45921272311E+02 -0.58681451739E+02  0.45827645795E+03  0.00000000000E+00 0.  1.
<mgrwt>
<rscale>  0 0.13753729E+04</rscale>
<asrwt>0</asrwt>
<pdfrwt beam="1">  1        2 0.12596759E+00 0.13753729E+04</pdfrwt>
<pdfrwt beam="2">  1       -2 0.88857763E-01 0.13753729E+04</pdfrwt>
<totfact> 0.35447583E+01</totfact>
</mgrwt>
</event>
<event>
12    1  0.1494110E-007  0.1993680E+04  0.7818608E-02  0.8609581E-01
         -2   -1    0    0    0  501 -0.00000000000E+00  0.00000000000E+00  0.81470502420E+03  0.81470502420E+03  0.00000000000E+00 0.  1.
          2   -1    0    0  501    0  0.00000000000E+00 -0.00000000000E+00 -0.12196932936E+04  0.12196932936E+04  0.00000000000E+00 0. -1.
         23    2    1    2    0    0 -0.10621566169E+03  0.46782429629E+03 -0.79309005390E+03  0.93142767057E+03  0.91784164839E+02 0.  0.
        254    2    1    2    0    0  0.10621566169E+03 -0.46782429629E+03  0.38810178448E+03  0.11029706472E+04  0.91420999480E+03 0.  0.
        -24    2    4    4    0    0 -0.19692071438E+03  0.11017521173E+03 -0.12406692747E+03  0.26975726073E+03  0.80374325471E+02 0.  0.
         24    2    4    4    0    0  0.30313637606E+03 -0.57799950802E+03  0.51216871194E+03  0.83321338652E+03  0.77153510662E+02 0.  0.
         13    1    3    3    0    0 -0.89063901081E+02  0.32382579111E+03 -0.47391975302E+03  0.58085751589E+03  0.00000000000E+00 0.  1.
        -13    1    3    3    0    0 -0.17151760607E+02  0.14399850518E+03 -0.31917030089E+03  0.35057015468E+03  0.00000000000E+00 0. -1.
          2    1    6    6  502    0  0.19022011102E+03 -0.42292344802E+03  0.38862280532E+03  0.60504183188E+03  0.00000000000E+00 0. -1.
          3    1    5    5  503    0 -0.13119430292E+03  0.28067485277E+02 -0.64115867356E+02  0.14869624506E+03  0.00000000000E+00 0. -1.
         -2    1    5    5    0  503 -0.65726411459E+02  0.82107726457E+02 -0.59951060113E+02  0.12106101567E+03  0.00000000000E+00 0.  1.
         -1    1    6    6    0  502  0.11291626504E+03 -0.15507606001E+03  0.12354590663E+03  0.22817155463E+03  0.00000000000E+00 0.  1.
<mgrwt>
<rscale>  0 0.19936803E+04</rscale>
<asrwt>0</asrwt>
<pdfrwt beam="1">  1        2 0.18764512E+00 0.19936803E+04</pdfrwt>
<pdfrwt beam="2">  1       -2 0.12533923E+00 0.19936803E+04</pdfrwt>
<totfact> 0.81618958E+00</totfact>
</mgrwt>
</event>
<event>
12    1  0.1494110E-007  0.1688638E+04  0.7818608E-02  0.8767871E-01
         -1   -1    0    0    0  501 -0.00000000000E+00  0.00000000000E+00  0.11686244464E+04  0.11686244464E+04  0.00000000000E+00 0.  1.
          1   -1    0    0  501    0  0.00000000000E+00 -0.00000000000E+00 -0.61001194932E+03  0.61001194932E+03  0.00000000000E+00 0. -1.
         23    2    1    2    0    0  0.30501649677E+03 -0.45327893260E+03  0.47780426205E+03  0.73121499326E+03  0.88778372934E+02 0.  0.
        254    2    1    2    0    0 -0.30501649677E+03  0.45327893260E+03  0.80808235061E+02  0.10474214025E+04  0.88998020736E+03 0.  0.
        -24    2    4    4    0    0 -0.31149919960E+03  0.53676374259E+03 -0.26756052955E+03  0.68054135123E+03  0.80005168857E+02 0.  0.
         24    2    4    4    0    0  0.64827028253E+01 -0.83484809995E+02  0.34836876462E+03  0.36688005126E+03  0.78920446745E+02 0.  0.
         11    1    3    3    0    0  0.17257533141E+03 -0.24030146660E+03  0.31532244659E+03  0.43238326192E+03  0.00000000000E+00 0.  1.
        -11    1    3    3    0    0  0.13244116536E+03 -0.21297746600E+03  0.16248181545E+03  0.29883173134E+03  0.00000000000E+00 0. -1.
          2    1    6    6  502    0  0.39962444266E+02 -0.32258932264E+02  0.19759592489E+03  0.20416117455E+03  0.00000000000E+00 0. -1.
          3    1    5    5  503    0 -0.20983398840E+03  0.28294157418E+03 -0.15505152067E+03  0.38487298054E+03  0.00000000000E+00 0. -1.
         -4    1    5    5    0  503 -0.10166521120E+03  0.25382216841E+03 -0.11250900888E+03  0.29566837068E+03  0.00000000000E+00 0.  1.
         -1    1    6    6    0  502 -0.33479741440E+02 -0.51225877731E+02  0.15077283973E+03  0.16271887670E+03  0.00000000000E+00 0.  1.
<mgrwt>
<rscale>  0 0.16886384E+04</rscale>
<asrwt>0</asrwt>
<pdfrwt beam="1">  1        1 0.93847992E-01 0.16886384E+04</pdfrwt>
<pdfrwt beam="2">  1       -1 0.17978838E+00 0.16886384E+04</pdfrwt>
<totfact> 0.66502883E+00</totfact>
</mgrwt>
</event>
<event>
12    1  0.1494110E-007  0.2130093E+04  0.7818608E-02  0.8548102E-01
         -1   -1    0    0    0  501 -0.00000000000E+00  0.00000000000E+00  0.31362144019E+04  0.31362144019E+04  0.00000000000E+00 0.  1.
          1   -1    0    0  501    0  0.00000000000E+00 -0.00000000000E+00 -0.36168569071E+03  0.36168569071E+03  0.00000000000E+00 0. -1.
         23    2    1    2    0    0  0.21302977543E+03 -0.13326798505E+03  0.25082465166E+04  0.25224284373E+04  0.90568163739E+02 0.  0.
        254    2    1    2    0    0 -0.21302977543E+03  0.13326798505E+03  0.26628219458E+03  0.97547165528E+03  0.90415524222E+03 0.  0.
        -24    2    4    4    0    0  0.92750302738E+02 -0.27069724213E+03 -0.13288161692E+03  0.32545170415E+03  0.79885368288E+02 0.  0.
         24    2    4    4    0    0 -0.30578007816E+03  0.40396522718E+03  0.39916381149E+03  0.65001995112E+03  0.80652510650E+02 0.  0.
         11    1    3    3    0    0  0.76449079213E+02 -0.12202652628E+01  0.80323690563E+03  0.80686769506E+03  0.00000000000E+00 0. -1.
        -11    1    3    3    0    0  0.13658069621E+03 -0.13204771979E+03  0.17050096110E+04  0.17155607422E+04  0.00000000000E+00 0.  1.
          2    1    6    6  502    0 -0.29736199570E+03  0.39224796401E+03  0.36454758717E+03  0.61251739981E+03  0.00000000000E+00 0. -1.
          1    1    5    5  503    0  0.42417283990E+02 -0.94081904020E+02 -0.82999928159E+01  0.10353511736E+03  0.00000000000E+00 0. -1.
         -2    1    5    5    0  503  0.50333018748E+02 -0.17661533811E+03 -0.12458162410E+03  0.22191658680E+03  0.00000000000E+00 0.  1.
         -1    1    6    6    0  502 -0.84180824633E+01  0.11717263176E+02  0.34616224322E+02  0.37502551313E+02  0.00000000000E+00 0.  1.
<mgrwt>
<rscale>  0 0.21300928E+04</rscale>
<asrwt>0</asrwt>
<pdfrwt beam="1">  1        1 0.55643955E-01 0.21300928E+04</pdfrwt>
<pdfrwt beam="2">  1       -1 0.48249450E+00 0.21300928E+04</pdfrwt>
<totfact> 0.12196868E-01</totfact>
</mgrwt>
</event>
<event>
12    1  0.1494110E-007  0.1842163E+04  0.7818608E-02  0.8684194E-01
         -4   -1    0    0    0  501 -0.00000000000E+00  0.00000000000E+00  0.18921847314E+04  0.18921847314E+04  0.00000000000E+00 0.  1.
          4   -1    0    0  501    0  0.00000000000E+00 -0.00000000000E+00 -0.44836590502E+03  0.44836590502E+03  0.00000000000E+00 0. -1.
         23    2    1    2    0    0  0.56366389090E+03  0.29189991258E+03  0.91125701427E+03  0.11141726305E+04  0.89826297596E+02 0.  0.
        254    2    1    2    0    0 -0.56366389090E+03 -0.29189991258E+03  0.53256181213E+03  0.12263780059E+04  0.90413405462E+03 0.  0.
        -24    2    4    4    0    0 -0.63974921661E+03  0.11612503540E+03  0.45211372050E+03  0.79606025696E+03  0.80876649566E+02 0.  0.
         24    2    4    4    0    0  0.76085325715E+02 -0.40802494798E+03  0.80448091631E+02  0.43031774893E+03  0.80175648657E+02 0.  0.
         13    1    3    3    0    0  0.46597140496E+03  0.27720554195E+03  0.77790414162E+03  0.94821259023E+03  0.00000000000E+00 0.  1.
        -13    1    3    3    0    0  0.97692485938E+02  0.14694370627E+02  0.13335287265E+03  0.16596004031E+03  0.00000000000E+00 0. -1.
          4    1    6    6  502    0  0.68783015084E+02 -0.37970290831E+03  0.95355222369E+02  0.39748964789E+03  0.00000000000E+00 0. -1.
          3    1    5    5  503    0 -0.32200033207E+03  0.99340987803E+02  0.23724682508E+03  0.41211515590E+03  0.00000000000E+00 0. -1.
         -4    1    5    5    0  503 -0.31774888454E+03  0.16784047594E+02  0.21486689542E+03  0.38394510106E+03  0.00000000000E+00 0.  1.
         -1    1    6    6    0  502  0.73023106305E+01 -0.28322039668E+02 -0.14907130738E+02  0.32828101047E+02  0.00000000000E+00 0.  1.
<mgrwt>
<rscale>  0 0.18421630E+04</rscale>
<asrwt>0</asrwt>
<pdfrwt beam="1">  1        4 0.68979371E-01 0.18421630E+04</pdfrwt>
<pdfrwt beam="2">  1       -4 0.29110534E+00 0.18421630E+04</pdfrwt>
<totfact> 0.12808859E-01</totfact>
</mgrwt>
</event>
<event>
12    1  0.1494110E-007  0.2243378E+04  0.7818608E-02  0.8500587E-01
         -1   -1    0    0    0  501 -0.00000000000E+00  0.00000000000E+00  0.50399374809E+03  0.50399374809E+03  0.00000000000E+00 0.  1.
          1   -1    0    0  501    0  0.00000000000E+00 -0.00000000000E+00 -0.24964332130E+04  0.24964332130E+04  0.00000000000E+00 0. -1.
         23    2    1    2    0    0  0.40677686468E+03 -0.38695533502E+02  0.29230926877E+03  0.51074658666E+03  0.91938051015E+02 0.  0.
        254    2    1    2    0    0 -0.40677686468E+03  0.38695533502E+02 -0.22847487336E+04  0.24896803744E+04  0.90081453630E+03 0.  0.
        -24    2    4    4    0    0  0.11478669318E+02 -0.35701045775E+03 -0.12547537949E+04  0.13070269659E+04  0.79524693649E+02 0.  0.
         24    2    4    4    0    0 -0.41825553400E+03  0.39570599125E+03 -0.10299949388E+04  0.11826534085E+04  0.79111235778E+02 0.  0.
         11    1    3    3    0    0  0.35046238676E+03 -0.49516388679E+02  0.21373182130E+03  0.41346952574E+03  0.00000000000E+00 0. -1.
        -11    1    3    3    0    0  0.56314477926E+02  0.10820855176E+02  0.78577447472E+02  0.97277060925E+02  0.00000000000E+00 0.  1.
          4    1    6    6  502    0 -0.39498498140E+03  0.38383878102E+03 -0.10073386968E+04  0.11480751698E+04  0.00000000000E+00 0. -1.
          1    1    5    5  503    0  0.19986858549E+02 -0.22629850974E+03 -0.91805014917E+03  0.94574127880E+03  0.00000000000E+00 0. -1.
         -2    1    5    5    0  503 -0.85081892305E+01 -0.13071194801E+03 -0.33670364572E+03  0.36128568706E+03  0.00000000000E+00 0.  1.
         -3    1    6    6    0  502 -0.23270552602E+02  0.11867210232E+02 -0.22656241933E+02  0.34578238759E+02  0.00000000000E+00 0.  1.
<mgrwt>
<rscale>  0 0.22433785E+04</rscale>
<asrwt>0</asrwt>
<pdfrwt beam="1">  1        1 0.38406665E+00 0.22433785E+04</pdfrwt>
<pdfrwt beam="2">  1       -1 0.77537499E-01 0.22433785E+04</pdfrwt>
<totfact> 0.20628859E+00</totfact>
</mgrwt>
</event>
<event>
12    1  0.1494110E-007  0.2117409E+04  0.7818608E-02  0.8553613E-01
         -1   -1    0    0    0  501 -0.00000000000E+00  0.00000000000E+00  0.75526944913E+03  0.75526944913E+03  0.00000000000E+00 0.  1.
          1   -1    0    0  501    0  0.00000000000E+00 -0.00000000000E+00 -0.14840472427E+04  0.14840472427E+04  0.00000000000E+00 0. -1.
         23    2    1    2    0    0 -0.28849528002E+03  0.20147223664E+03 -0.11367427003E+04  0.11935431970E+04  0.92416490535E+02 0.  0.
        254    2    1    2    0    0  0.28849528002E+03 -0.20147223664E+03  0.40796490676E+03  0.10457734948E+04  0.89631816256E+03 0.  0.
        -24    2    4    4    0    0  0.21496684253E+03 -0.20012105590E+03  0.68433577165E+03  0.74888129635E+03  0.79047879597E+02 0.  0.
         24    2    4    4    0    0  0.73528437486E+02 -0.13511807405E+01 -0.27637086489E+03  0.29689219844E+03  0.79723683587E+02 0.  0.
         13    1    3    3    0    0 -0.18760890809E+03  0.75487242776E+02 -0.65117373395E+03  0.68185237259E+03  0.00000000000E+00 0. -1.
        -13    1    3    3    0    0 -0.10088637192E+03  0.12598499386E+03 -0.48556896635E+03  0.51169082443E+03  0.00000000000E+00 0.  1.
          2    1    6    6  502    0  0.29717577698E+01  0.18283025778E+02 -0.10873451161E+02  0.21478647909E+02  0.00000000000E+00 0. -1.
          3    1    5    5  503    0  0.97114324996E+02 -0.10047807447E+03  0.23080231928E+03  0.26980872142E+03  0.00000000000E+00 0. -1.
         -4    1    5    5    0  503  0.11785251753E+03 -0.99642981427E+02  0.45353345237E+03  0.47907257493E+03  0.00000000000E+00 0.  1.
         -1    1    6    6    0  502  0.70556679717E+02 -0.19634206519E+02 -0.26549741373E+03  0.27541355053E+03  0.00000000000E+00 0.  1.
<mgrwt>
<rscale>  0 0.21174093E+04</rscale>
<asrwt>0</asrwt>
<pdfrwt beam="1">  1        1 0.22831496E+00 0.21174093E+04</pdfrwt>
<pdfrwt beam="2">  1       -1 0.11619530E+00 0.21174093E+04</pdfrwt>
<totfact> 0.41258846E+00</totfact>
</mgrwt>
</event>
<event>
12    1  0.1494110E-007  0.1754658E+04  0.7818608E-02  0.8730791E-01
          2   -1    0    0  501    0  0.00000000000E+00  0.00000000000E+00  0.21320343503E+04  0.21320343503E+04  0.00000000000E+00 0.  1.
         -2   -1    0    0    0  501 -0.00000000000E+00 -0.00000000000E+00 -0.36101958058E+03  0.36101958058E+03  0.00000000000E+00 0. -1.
         23    2    1    2    0    0 -0.28903051448E+03  0.14066427834E+03 -0.13433980551E+03  0.36050326579E+03  0.92684107599E+02 0.  0.
        254    2    1    2    0    0  0.28903051448E+03 -0.14066427834E+03  0.19053545752E+04  0.21325506651E+04  0.90225894531E+03 0.  0.
        -24    2    4    4    0    0  0.41237916368E+03 -0.27856046846E+03  0.49041148747E+03  0.70332764182E+03  0.80708335938E+02 0.  0.
         24    2    4    4    0    0 -0.12334864920E+03  0.13789619012E+03  0.14149430878E+04  0.14292230233E+04  0.79901565457E+02 0.  0.
         11    1    3    3    0    0 -0.83890437319E+02  0.54489716261E+01 -0.86082688144E+01  0.84506798882E+02  0.00000000000E+00 0.  1.
        -11    1    3    3    0    0 -0.20514007716E+03  0.13521530671E+03 -0.12573153669E+03  0.27599646691E+03  0.00000000000E+00 0. -1.
          4    1    6    6  502    0 -0.58977910479E+02  0.10627900260E+03  0.10715140247E+04  0.10783857962E+04  0.00000000000E+00 0. -1.
          1    1    5    5  503    0  0.14717547851E+03 -0.13692708313E+03  0.16287948887E+03  0.25872644911E+03  0.00000000000E+00 0. -1.
         -2    1    5    5    0  503  0.26520368516E+03 -0.14163338532E+03  0.32753199860E+03  0.44460119272E+03  0.00000000000E+00 0.  1.
         -3    1    6    6    0  502 -0.64370738722E+02  0.31617187518E+02  0.34342906308E+03  0.35083722710E+03  0.00000000000E+00 0.  1.
<mgrwt>
<rscale>  0 0.17546580E+04</rscale>
<asrwt>0</asrwt>
<pdfrwt beam="1">  1        2 0.32800528E+00 0.17546580E+04</pdfrwt>
<pdfrwt beam="2">  1       -2 0.55541475E-01 0.17546580E+04</pdfrwt>
<totfact> 0.16276680E+01</totfact>
</mgrwt>
</event>
<event>
12    1  0.1494110E-007  0.1410056E+04  0.7818608E-02  0.8946571E-01
         -2   -1    0    0    0  501 -0.00000000000E+00  0.00000000000E+00  0.77407810096E+03  0.77407810096E+03  0.00000000000E+00 0.  1.
          2   -1    0    0  501    0  0.00000000000E+00 -0.00000000000E+00 -0.64213777473E+03  0.64213777473E+03  0.00000000000E+00 0. -1.
         23    2    1    2    0    0  0.21461001917E+03  0.75533295311E+02  0.38476524574E+03  0.45617457908E+03  0.91039624582E+02 0.  0.
        254    2    1    2    0    0 -0.21461001917E+03 -0.75533295311E+02 -0.25282491950E+03  0.96004129661E+03  0.89777286228E+03 0.  0.
        -24    2    4    4    0    0 -0.36685775479E+03 -0.16551924046E+03 -0.49953911400E+03  0.64639406250E+03  0.79402307369E+02 0.  0.
         24    2    4    4    0    0  0.15224773562E+03  0.89985945144E+02  0.24671419450E+03  0.31364723411E+03  0.78929401173E+02 0.  0.
         13    1    3    3    0    0  0.20387647401E+03  0.85031044448E+02  0.31365525211E+03  0.38363460786E+03  0.00000000000E+00 0.  1.
        -13    1    3    3    0    0  0.10733545156E+02 -0.94977491372E+01  0.71109993626E+02  0.72539971214E+02  0.00000000000E+00 0. -1.
          4    1    6    6  502    0  0.14591221465E+02 -0.10097041198E+02  0.57759677848E+01  0.18660540953E+02  0.00000000000E+00 0. -1.
          1    1    5    5  503    0 -0.13808724597E+03 -0.93590931615E+02 -0.16367499472E+03  0.23370249010E+03  0.00000000000E+00 0. -1.
         -2    1    5    5    0  503 -0.22877050881E+03 -0.71928308840E+02 -0.33586411928E+03  0.41269157241E+03  0.00000000000E+00 0.  1.
         -3    1    6    6    0  502  0.13765651416E+03  0.10008298634E+03  0.24093822672E+03  0.29498669315E+03  0.00000000000E+00 0.  1.
<mgrwt>
<rscale>  0 0.14100564E+04</rscale>
<asrwt>0</asrwt>
<pdfrwt beam="1">  1        2 0.98790427E-01 0.14100564E+04</pdfrwt>
<pdfrwt beam="2">  1       -2 0.11908894E+00 0.14100564E+04</pdfrwt>
<totfact> 0.24020272E+01</totfact>
</mgrwt>
</event>
<event>
12    1  0.1494110E-007  0.1246630E+04  0.7818608E-02  0.9072992E-01
          2   -1    0    0  501    0  0.00000000000E+00  0.00000000000E+00  0.27042731764E+03  0.27042731764E+03  0.00000000000E+00 0. -1.
         -2   -1    0    0    0  501 -0.00000000000E+00 -0.00000000000E+00 -0.14366959125E+04  0.14366959125E+04  0.00000000000E+00 0.  1.
         23    2    1    2    0    0 -0.15853513672E+03 -0.22432246405E+03 -0.37561299805E+03  0.47443881670E+03  0.92483020267E+02 0.  0.
        254    2    1    2    0    0  0.15853513672E+03  0.22432246405E+03 -0.79065559684E+03  0.12326844135E+04  0.90494233680E+03 0.  0.
        -24    2    4    4    0    0  0.15498442468E+03 -0.26254897808E+03 -0.64535587582E+03  0.71829837585E+03  0.80723060610E+02 0.  0.
         24    2    4    4    0    0  0.35507120390E+01  0.48687144212E+03 -0.14529972103E+03  0.51438603762E+03  0.80153465633E+02 0.  0.
         13    1    3    3    0    0 -0.10307534907E+02  0.86886103225E+01 -0.14022106351E+02  0.19451393053E+02  0.00000000000E+00 0. -1.
        -13    1    3    3    0    0 -0.14822760182E+03 -0.23301107437E+03 -0.36159089170E+03  0.45498742365E+03  0.00000000000E+00 0.  1.
          4    1    6    6  502    0  0.66217007288E+01  0.20074580371E+03 -0.10105306216E+03  0.22484315867E+03  0.00000000000E+00 0. -1.
          1    1    5    5  503    0  0.18505746752E+02 -0.71939726193E+02 -0.98985767093E+02  0.12375770261E+03  0.00000000000E+00 0. -1.
         -2    1    5    5    0  503  0.13647867793E+03 -0.19060925188E+03 -0.54637010873E+03  0.59454067324E+03  0.00000000000E+00 0.  1.
         -3    1    6    6    0  502 -0.30709886898E+01  0.28612563841E+03 -0.44246658866E+02  0.28954287895E+03  0.00000000000E+00 0.  1.
<mgrwt>
<rscale>  0 0.12466304E+04</rscale>
<asrwt>0</asrwt>
<pdfrwt beam="1">  1        2 0.41604204E-01 0.12466304E+04</pdfrwt>
<pdfrwt beam="2">  1       -2 0.22103013E+00 0.12466304E+04</pdfrwt>
<totfact> 0.11809607E+01</totfact>
</mgrwt>
</event>
<event>
12    1  0.1494110E-007  0.2686192E+04  0.7818608E-02  0.8339499E-01
         -2   -1    0    0    0  501 -0.00000000000E+00  0.00000000000E+00  0.54821375544E+04  0.54821375544E+04  0.00000000000E+00 0.  1.
          2   -1    0    0  501    0  0.00000000000E+00 -0.00000000000E+00 -0.32905161505E+03  0.32905161505E+03  0.00000000000E+00 0. -1.
         23    2    1    2    0    0 -0.51659745940E+03  0.97772827070E+03  0.32527100434E+04  0.34367453253E+04  0.90941179159E+02 0.  0.
        254    2    1    2    0    0  0.51659745940E+03 -0.97772827070E+03  0.19003758959E+04  0.23744438441E+04  0.89650963002E+03 0.  0.
        -24    2    4    4    0    0 -0.24753579331E+03 -0.24458296261E+03  0.53923614254E+03  0.64754563926E+03  0.86284082780E+02 0.  0.
         24    2    4    4    0    0  0.76413325270E+03 -0.73314530810E+03  0.13611397534E+04  0.17268982049E+04  0.89857170301E+02 0.  0.
         13    1    3    3    0    0 -0.14696034249E+03  0.33895271306E+03  0.11866133668E+04  0.12427942574E+04  0.00000000000E+00 0.  1.
        -13    1    3    3    0    0 -0.36963711691E+03  0.63877555764E+03  0.20660966767E+04  0.21939510680E+04  0.00000000000E+00 0. -1.
          4    1    6    6  502    0  0.76317431356E+03 -0.73264096888E+03  0.13472874285E+04  0.17130035719E+04  0.00000000000E+00 0. -1.
          3    1    5    5  503    0 -0.14141542751E+03 -0.16117746398E+03  0.39863592245E+03  0.45264455890E+03  0.00000000000E+00 0. -1.
         -4    1    5    5    0  503 -0.10612036579E+03 -0.83405498622E+02  0.14060022008E+03  0.19490108036E+03  0.00000000000E+00 0.  1.
         -3    1    6    6    0  502  0.95893914320E+00 -0.50433921428E+00  0.13852324838E+02  0.13894632984E+02  0.00000000000E+00 0.  1.
<mgrwt>
<rscale>  0 0.26861915E+04</rscale>
<asrwt>0</asrwt>
<pdfrwt beam="1">  1        2 0.50623329E-01 0.26861915E+04</pdfrwt>
<pdfrwt beam="2">  1       -2 0.84340571E+00 0.26861915E+04</pdfrwt>
<totfact> 0.33108058E-03</totfact>
</mgrwt>
</event>
<event>
12    1  0.1494110E-007  0.1445848E+04  0.7818608E-02  0.8921284E-01
         -1   -1    0    0    0  501 -0.00000000000E+00  0.00000000000E+00  0.29662000584E+03  0.29662000584E+03  0.00000000000E+00 0.  1.
          1   -1    0    0  501    0  0.00000000000E+00 -0.00000000000E+00 -0.17619142779E+04  0.17619142779E+04  0.00000000000E+00 0. -1.
         23    2    1    2    0    0  0.12781729312E+03 -0.12781865181E+03  0.11286565261E+03  0.23244752722E+03  0.92834956769E+02 0.  0.
        254    2    1    2    0    0 -0.12781729312E+03  0.12781865181E+03 -0.15781599247E+04  0.18260867566E+04  0.90073815639E+03 0.  0.
        -24    2    4    4    0    0 -0.35600025708E+03 -0.59901432149E+02 -0.21165757571E+03  0.42568848031E+03  0.78021716834E+02 0.  0.
         24    2    4    4    0    0  0.22818296396E+03  0.18772008396E+03 -0.13665023490E+04  0.14003982763E+04  0.80500728900E+02 0.  0.
         13    1    3    3    0    0  0.93652771068E+02 -0.12142434826E+03  0.12262501221E+03  0.19634563274E+03  0.00000000000E+00 0.  1.
        -13    1    3    3    0    0  0.34164522048E+02 -0.63943035541E+01 -0.97593595957E+01  0.36101894472E+02  0.00000000000E+00 0. -1.
          4    1    6    6  502    0  0.23423942966E+03  0.18204680820E+03 -0.13454776925E+04  0.13777951125E+04  0.00000000000E+00 0. -1.
          3    1    5    5  503    0 -0.27871722634E+03 -0.35549790649E+02 -0.19747217302E+03  0.34342734165E+03  0.00000000000E+00 0. -1.
         -4    1    5    5    0  503 -0.77283030738E+02 -0.24351641500E+02 -0.14185402684E+02  0.82261138657E+02  0.00000000000E+00 0.  1.
         -1    1    6    6    0  502 -0.60564656939E+01  0.56732757618E+01 -0.21024656460E+02  0.22603163801E+02  0.00000000000E+00 0.  1.
<mgrwt>
<rscale>  0 0.14458479E+04</rscale>
<asrwt>0</asrwt>
<pdfrwt beam="1">  1        1 0.27106373E+00 0.14458479E+04</pdfrwt>
<pdfrwt beam="2">  1       -1 0.45633847E-01 0.14458479E+04</pdfrwt>
<totfact> 0.20048720E+01</totfact>
</mgrwt>
</event>
<event>
12    1  0.1494110E-007  0.1663852E+04  0.7818608E-02  0.8782254E-01
          2   -1    0    0  501    0  0.00000000000E+00  0.00000000000E+00  0.83088796147E+03  0.83088796147E+03  0.00000000000E+00 0. -1.
         -2   -1    0    0    0  501 -0.00000000000E+00 -0.00000000000E+00 -0.83296537665E+03  0.83296537665E+03  0.00000000000E+00 0.  1.
         23    2    1    2    0    0  0.19826179967E+03  0.29805891587E+03 -0.45023469972E+03  0.58245597219E+03  0.91634143059E+02 0.  0.
        254    2    1    2    0    0 -0.19826179967E+03 -0.29805891587E+03  0.44815728453E+03  0.10813973659E+04  0.91674884937E+03 0.  0.
        -24    2    4    4    0    0 -0.17234308412E+03  0.27095890514E+03 -0.30722044923E+02  0.33253299429E+03  0.80706141808E+02 0.  0.
         24    2    4    4    0    0 -0.25918715545E+02 -0.56901782102E+03  0.47887932946E+03  0.74886437164E+03  0.83781707298E+02 0.  0.
         13    1    3    3    0    0  0.38731702029E+02  0.11615203675E+03 -0.10756735334E+03  0.16297906580E+03  0.00000000000E+00 0. -1.
        -13    1    3    3    0    0  0.15953009764E+03  0.18190687912E+03 -0.34266734638E+03  0.41947690640E+03  0.00000000000E+00 0.  1.
          2    1    6    6  502    0 -0.67100874538E+01 -0.44496137574E+03  0.41283734082E+03  0.60701756247E+03  0.00000000000E+00 0. -1.
          1    1    5    5  503    0 -0.70164387236E+02  0.85005081173E+02 -0.46802123591E+02  0.11974699927E+03  0.00000000000E+00 0. -1.
         -2    1    5    5    0  503 -0.10217869689E+03  0.18595382397E+03  0.16080078668E+02  0.21278599502E+03  0.00000000000E+00 0.  1.
         -1    1    6    6    0  502 -0.19208628091E+02 -0.12405644528E+03  0.66041988641E+02  0.14184680917E+03  0.00000000000E+00 0.  1.
<mgrwt>
<rscale>  0 0.16638520E+04</rscale>
<asrwt>0</asrwt>
<pdfrwt beam="1">  1        2 0.12782892E+00 0.16638520E+04</pdfrwt>
<pdfrwt beam="2">  1       -2 0.12814852E+00 0.16638520E+04</pdfrwt>
<totfact> 0.14066432E+01</totfact>
</mgrwt>
</event>
<event>
12    1  0.1494110E-007  0.2457211E+04  0.7818608E-02  0.8418390E-01
         -2   -1    0    0    0  501 -0.00000000000E+00  0.00000000000E+00  0.75679477851E+03  0.75679477851E+03  0.00000000000E+00 0.  1.
          2   -1    0    0  501    0  0.00000000000E+00 -0.00000000000E+00 -0.19945584279E+04  0.19945584279E+04  0.00000000000E+00 0. -1.
         23    2    1    2    0    0 -0.70806757843E+03  0.11816796661E+03 -0.14163372463E+04  0.15911396805E+04  0.10193587984E+03 0.  0.
        254    2    1    2    0    0  0.70806757843E+03 -0.11816796661E+03  0.17857359700E+03  0.11602135259E+04  0.89380284855E+03 0.  0.
        -24    2    4    4    0    0 -0.94618825098E+02 -0.29603563802E+03  0.52653971505E+02  0.32457515322E+03  0.77374209717E+02 0.  0.
         24    2    4    4    0    0  0.80268640353E+03  0.17786767141E+03  0.12591962549E+03  0.83563837264E+03  0.80581429609E+02 0.  0.
         13    1    3    3    0    0 -0.58654532992E+03  0.75661734083E+02 -0.12281892200E+04  0.13631613559E+04  0.00000000000E+00 0. -1.
        -13    1    3    3    0    0 -0.12152224851E+03  0.42506232524E+02 -0.18814802631E+03  0.22797832460E+03  0.00000000000E+00 0.  1.
          4    1    6    6  502    0  0.11262167498E+03  0.53957143687E+02  0.14047991420E+02  0.12566766129E+03  0.00000000000E+00 0. -1.
          1    1    5    5  503    0  0.61729020337E+01 -0.74012261236E+02 -0.35380449558E+01  0.74353461890E+02  0.00000000000E+00 0. -1.
         -2    1    5    5    0  503 -0.10079172713E+03 -0.22202337679E+03  0.56192016461E+02  0.25022169133E+03  0.00000000000E+00 0.  1.
         -3    1    6    6    0  502  0.69006472855E+03  0.12391052773E+03  0.11187163407E+03  0.70997071135E+03  0.00000000000E+00 0.  1.
<mgrwt>
<rscale>  0 0.24572109E+04</rscale>
<asrwt>0</asrwt>
<pdfrwt beam="1">  1        2 0.30685514E+00 0.24572109E+04</pdfrwt>
<pdfrwt beam="2">  1       -2 0.11642997E+00 0.24572109E+04</pdfrwt>
<totfact> 0.34448933E+00</totfact>
</mgrwt>
</event>
<event>
12    1  0.1650470E-007  0.2356134E+04  0.7818608E-02  0.8456111E-01
         -2   -1    0    0    0  501 -0.00000000000E+00  0.00000000000E+00  0.10478297382E+04  0.10478297382E+04  0.00000000000E+00 0.  1.
          2   -1    0    0  501    0  0.00000000000E+00 -0.00000000000E+00 -0.13244919041E+04  0.13244919041E+04  0.00000000000E+00 0. -1.
         23    2    1    2    0    0 -0.77801869132E+02  0.37227401190E+03  0.81850824433E+03  0.90720940804E+03  0.91826429864E+02 0.  0.
        254    2    1    2    0    0  0.77801869132E+02 -0.37227401190E+03 -0.10951704103E+04  0.14651122343E+04  0.89583177042E+03 0.  0.
        -24    2    4    4    0    0  0.18528381698E+03 -0.41755500461E+03 -0.11996910483E+04  0.12857633073E+04  0.72432011911E+02 0.  0.
         24    2    4    4    0    0 -0.10748194784E+03  0.45280992709E+02  0.10452063804E+03  0.17934892702E+03  0.87399865186E+02 0.  0.
         11    1    3    3    0    0 -0.64427026244E+02  0.36859994137E+03  0.80560271307E+03  0.88826375013E+03  0.00000000000E+00 0. -1.
        -11    1    3    3    0    0 -0.13374842888E+02  0.36740705329E+01  0.12905531259E+02  0.18945657909E+02  0.00000000000E+00 0.  1.
          4    1    6    6  502    0 -0.83913085253E+02  0.20839668937E+02  0.11494261404E+03  0.14383150629E+03  0.00000000000E+00 0. -1.
          1    1    5    5  503    0  0.12056540700E+03 -0.30532848425E+03 -0.93752331915E+03  0.99333351630E+03  0.00000000000E+00 0. -1.
         -2    1    5    5    0  503  0.64718409976E+02 -0.11222652036E+03 -0.26216772915E+03  0.29242979101E+03  0.00000000000E+00 0.  1.
         -3    1    6    6    0  502 -0.23568862590E+02  0.24441323773E+02 -0.10421976006E+02  0.35517420732E+02  0.00000000000E+00 0.  1.
<mgrwt>
<rscale>  0 0.23561341E+04</rscale>
<asrwt>0</asrwt>
<pdfrwt beam="1">  1        2 0.20376798E+00 0.23561341E+04</pdfrwt>
<pdfrwt beam="2">  1       -2 0.16120458E+00 0.23561341E+04</pdfrwt>
<totfact> 0.35632802E+00</totfact>
</mgrwt>
</event>
<event>
12    1  0.1494110E-007  0.1372483E+04  0.7818608E-02  0.8973981E-01
         -2   -1    0    0    0  501 -0.00000000000E+00  0.00000000000E+00  0.23287761241E+03  0.23287761241E+03  0.00000000000E+00 0.  1.
          2   -1    0    0  501    0  0.00000000000E+00 -0.00000000000E+00 -0.20222098943E+04  0.20222098943E+04  0.00000000000E+00 0. -1.
         23    2    1    2    0    0  0.21248335832E+03 -0.30809423951E+03 -0.36652979811E+03  0.53169730129E+03  0.91031254580E+02 0.  0.
        254    2    1    2    0    0 -0.21248335832E+03  0.30809423951E+03 -0.14228024838E+04  0.17233902055E+04  0.89757208864E+03 0.  0.
        -24    2    4    4    0    0 -0.30601305364E+03 -0.10663708127E+03 -0.11813574213E+04  0.12275683585E+04  0.79393083801E+02 0.  0.
         24    2    4    4    0    0  0.93529695313E+02  0.41473132079E+03 -0.24144506252E+03  0.49582184699E+03  0.82423985501E+02 0.  0.
         13    1    3    3    0    0  0.98055063739E+02 -0.10263350842E+03 -0.87369496588E+02  0.16667891741E+03  0.00000000000E+00 0.  1.
        -13    1    3    3    0    0  0.11442829459E+03 -0.20546073109E+03 -0.27916030152E+03  0.36501838388E+03  0.00000000000E+00 0. -1.
          4    1    6    6  502    0  0.81293984954E+01  0.21013477299E+02  0.56241471655E+01  0.23222497269E+02  0.00000000000E+00 0. -1.
          1    1    5    5  503    0 -0.26344273787E+02 -0.25646110406E+02 -0.74811393372E+02  0.83357593047E+02  0.00000000000E+00 0. -1.
         -2    1    5    5    0  503 -0.27966877985E+03 -0.80990970868E+02 -0.11065460279E+04  0.11442107654E+04  0.00000000000E+00 0.  1.
         -3    1    6    6    0  502  0.85400296818E+02  0.39371784349E+03 -0.24706920969E+03  0.47259934972E+03  0.00000000000E+00 0.  1.
<mgrwt>
<rscale>  0 0.13724830E+04</rscale>
<asrwt>0</asrwt>
<pdfrwt beam="1">  1        2 0.31110921E+00 0.13724830E+04</pdfrwt>
<pdfrwt beam="2">  1       -2 0.35827325E-01 0.13724830E+04</pdfrwt>
<totfact> 0.46422380E+01</totfact>
</mgrwt>
</event>
<event>
12    1  0.1494110E-007  0.1546202E+04  0.7818608E-02  0.8854297E-01
         -1   -1    0    0    0  501 -0.00000000000E+00  0.00000000000E+00  0.38309050444E+03  0.38309050444E+03  0.00000000000E+00 0.  1.
          1   -1    0    0  501    0  0.00000000000E+00 -0.00000000000E+00 -0.15601671815E+04  0.15601671815E+04  0.00000000000E+00 0. -1.
         23    2    1    2    0    0 -0.18483069428E+03  0.36108697071E+03 -0.45612103660E+02  0.41805615731E+03  0.90245779421E+02 0.  0.
        254    2    1    2    0    0  0.18483069428E+03 -0.36108697071E+03 -0.11314645734E+04  0.15252015287E+04  0.93887242803E+03 0.  0.
        -24    2    4    4    0    0  0.22883785786E+02 -0.64123207271E+03 -0.52143269406E+03  0.82997963218E+03  0.72607827954E+02 0.  0.
         24    2    4    4    0    0  0.16194690850E+03  0.28014510200E+03 -0.61003187937E+03  0.69522189648E+03  0.80538885920E+02 0.  0.
         11    1    3    3    0    0 -0.74932581247E+02  0.11349422199E+03 -0.55742551291E+02  0.14697980195E+03  0.00000000000E+00 0. -1.
        -11    1    3    3    0    0 -0.10989811304E+03  0.24759274872E+03  0.10130447630E+02  0.27107635537E+03  0.00000000000E+00 0.  1.
          2    1    6    6  502    0  0.80008793260E+02  0.20497311573E+03 -0.44181638486E+03  0.49357583319E+03  0.00000000000E+00 0. -1.
          1    1    5    5  503    0 -0.10296836371E+02 -0.50392741670E+03 -0.39433160476E+03  0.63995803039E+03  0.00000000000E+00 0. -1.
         -2    1    5    5    0  503  0.33180622156E+02 -0.13730465600E+03 -0.12710108929E+03  0.19002160179E+03  0.00000000000E+00 0.  1.
         -1    1    6    6    0  502  0.81938115236E+02  0.75171986266E+02 -0.16821549451E+03  0.20164606329E+03  0.00000000000E+00 0.  1.
<mgrwt>
<rscale>  0 0.15462021E+04</rscale>
<asrwt>0</asrwt>
<pdfrwt beam="1">  1        1 0.24002572E+00 0.15462021E+04</pdfrwt>
<pdfrwt beam="2">  1       -1 0.58937001E-01 0.15462021E+04</pdfrwt>
<totfact> 0.16714136E+01</totfact>
</mgrwt>
</event>
<event>
12    1  0.1494110E-007  0.2079483E+04  0.7818608E-02  0.8570336E-01
          1   -1    0    0  501    0  0.00000000000E+00  0.00000000000E+00  0.99317321488E+03  0.99317321488E+03  0.00000000000E+00 0. -1.
         -1   -1    0    0    0  501 -0.00000000000E+00 -0.00000000000E+00 -0.10884931339E+04  0.10884931339E+04  0.00000000000E+00 0.  1.
         23    2    1    2    0    0  0.26421923208E+03  0.65905419633E+03 -0.48648983869E+03  0.86554939423E+03  0.91318970602E+02 0.  0.
        254    2    1    2    0    0 -0.26421923208E+03 -0.65905419633E+03  0.39116991972E+03  0.12161169545E+04  0.90651106151E+03 0.  0.
        -24    2    4    4    0    0 -0.17509765897E+02 -0.51469527224E+03  0.64252157523E+03  0.82729722257E+03  0.79805417558E+02 0.  0.
         24    2    4    4    0    0 -0.24670946618E+03 -0.14435892410E+03 -0.25135165551E+03  0.38881973194E+03  0.79360377672E+02 0.  0.
         11    1    3    3    0    0  0.23559686035E+03  0.53289230307E+03 -0.36161471041E+03  0.68574432995E+03  0.00000000000E+00 0.  1.
        -11    1    3    3    0    0  0.28622371729E+02  0.12616189326E+03 -0.12487512828E+03  0.17980506427E+03  0.00000000000E+00 0. -1.
          4    1    6    6  502    0 -0.97608376320E+01 -0.23597995874E+02 -0.44321441794E+01  0.25918782043E+02  0.00000000000E+00 0. -1.
          1    1    5    5  503    0  0.25733571479E+01 -0.12139756732E+02  0.14809274700E+01  0.12497560030E+02  0.00000000000E+00 0. -1.
         -2    1    5    5    0  503 -0.20083123045E+02 -0.50255551551E+03  0.64104064776E+03  0.81479966254E+03  0.00000000000E+00 0.  1.
         -3    1    6    6    0  502 -0.23694862855E+03 -0.12076092822E+03 -0.24691951133E+03  0.36290094989E+03  0.00000000000E+00 0.  1.
<mgrwt>
<rscale>  0 0.20794828E+04</rscale>
<asrwt>0</asrwt>
<pdfrwt beam="1">  1        1 0.15279588E+00 0.20794828E+04</pdfrwt>
<pdfrwt beam="2">  1       -1 0.16746048E+00 0.20794828E+04</pdfrwt>
<totfact> 0.36261655E+00</totfact>
</mgrwt>
</event>
<event>
12    1  0.1494110E-007  0.1856996E+04  0.7818608E-02  0.8676563E-01
         -2   -1    0    0    0  501 -0.00000000000E+00  0.00000000000E+00  0.39025751344E+03  0.39025751344E+03  0.00000000000E+00 0.  1.
          2   -1    0    0  501    0  0.00000000000E+00 -0.00000000000E+00 -0.22090765645E+04  0.22090765645E+04  0.00000000000E+00 0. -1.
         23    2    1    2    0    0  0.53212051133E+03  0.39986110499E+03 -0.10140248068E+04  0.12163686987E+04  0.90914028204E+02 0.  0.
        254    2    1    2    0    0 -0.53212051133E+03 -0.39986110499E+03 -0.80479424432E+03  0.13829653793E+04  0.90656402021E+03 0.  0.
        -24    2    4    4    0    0 -0.38437712871E+03 -0.43130695338E+03 -0.23856673227E+02  0.58368060170E+03  0.79639430123E+02 0.  0.
         24    2    4    4    0    0 -0.14774338262E+03  0.31445848397E+02 -0.78093757109E+03  0.79928477758E+03  0.78585731801E+02 0.  0.
         13    1    3    3    0    0  0.15890592118E+03  0.70641302734E+02 -0.24898332433E+03  0.30370047947E+03  0.00000000000E+00 0.  1.
        -13    1    3    3    0    0  0.37321459015E+03  0.32921980225E+03 -0.76504148243E+03  0.91266821920E+03  0.00000000000E+00 0. -1.
          2    1    6    6  502    0 -0.46889896825E+01 -0.16459764465E+02 -0.12836376369E+03  0.12949967683E+03  0.00000000000E+00 0. -1.
          1    1    5    5  503    0 -0.29656739194E+02 -0.86083303650E+01 -0.66936682747E+01  0.31597954463E+02  0.00000000000E+00 0. -1.
         -2    1    5    5    0  503 -0.35472038952E+03 -0.42269862302E+03 -0.17163004953E+02  0.55208264724E+03  0.00000000000E+00 0.  1.
         -1    1    6    6    0  502 -0.14305439294E+03  0.47905612863E+02 -0.65257380740E+03  0.66978510075E+03  0.00000000000E+00 0.  1.
<mgrwt>
<rscale>  0 0.18569962E+04</rscale>
<asrwt>0</asrwt>
<pdfrwt beam="1">  1        2 0.33985794E+00 0.18569962E+04</pdfrwt>
<pdfrwt beam="2">  1       -2 0.60039617E-01 0.18569962E+04</pdfrwt>
<totfact> 0.12406782E+01</totfact>
</mgrwt>
</event>
<event>
12    1  0.1494110E-007  0.1633620E+04  0.7818608E-02  0.8800156E-01
          1   -1    0    0  501    0  0.00000000000E+00  0.00000000000E+00  0.21845518588E+04  0.21845518588E+04  0.00000000000E+00 0. -1.
         -1   -1    0    0    0  501 -0.00000000000E+00 -0.00000000000E+00 -0.30540755423E+03  0.30540755423E+03  0.00000000000E+00 0.  1.
         23    2    1    2    0    0 -0.30377661590E+03  0.47061874944E+03  0.53452518422E+03  0.77985040244E+03  0.93205353510E+02 0.  0.
        254    2    1    2    0    0  0.30377661590E+03 -0.47061874944E+03  0.13446191204E+04  0.17101090106E+04  0.89594085165E+03 0.  0.
        -24    2    4    4    0    0  0.52511426464E+03 -0.45630922617E+03  0.12878071176E+04  0.14657980095E+04  0.78444449915E+02 0.  0.
         24    2    4    4    0    0 -0.22133764874E+03 -0.14309523270E+02  0.56812002770E+02  0.24431100112E+03  0.85235816427E+02 0.  0.
         11    1    3    3    0    0 -0.17582007037E+03  0.32549239063E+03  0.30350178355E+03  0.47850948384E+03  0.00000000000E+00 0.  1.
        -11    1    3    3    0    0 -0.12795654553E+03  0.14512635880E+03  0.23102340067E+03  0.30134091860E+03  0.00000000000E+00 0. -1.
          4    1    6    6  502    0 -0.51547555361E+02 -0.35842290480E+02 -0.34062153340E+01  0.62876247927E+02  0.00000000000E+00 0. -1.
          1    1    5    5  503    0  0.35324047267E+03 -0.26697616177E+03  0.86317598777E+03  0.97011746111E+03  0.00000000000E+00 0. -1.
         -2    1    5    5    0  503  0.17187379197E+03 -0.18933306440E+03  0.42463112982E+03  0.49568054839E+03  0.00000000000E+00 0.  1.
         -3    1    6    6    0  502 -0.16979009338E+03  0.21532767210E+02  0.60218218104E+02  0.18143475319E+03  0.00000000000E+00 0.  1.
<mgrwt>
<rscale>  0 0.16336201E+04</rscale>
<asrwt>0</asrwt>
<pdfrwt beam="1">  1        1 0.33608489E+00 0.16336201E+04</pdfrwt>
<pdfrwt beam="2">  1       -1 0.46985779E-01 0.16336201E+04</pdfrwt>
<totfact> 0.96529046E+00</totfact>
</mgrwt>
</event>
<event>
12    1  0.1494110E-007  0.2019931E+04  0.7818608E-02  0.8597359E-01
          2   -1    0    0  501    0  0.00000000000E+00  0.00000000000E+00  0.11142976067E+04  0.11142976067E+04  0.00000000000E+00 0. -1.
         -2   -1    0    0    0  501 -0.00000000000E+00 -0.00000000000E+00 -0.91540179389E+03  0.91540179389E+03  0.00000000000E+00 0.  1.
         23    2    1    2    0    0 -0.24644089101E+03 -0.24671020374E+03  0.81273388575E+03  0.88907086492E+03  0.91167957186E+02 0.  0.
        254    2    1    2    0    0  0.24644089101E+03  0.24671020374E+03 -0.61383807299E+03  0.11406285356E+04  0.89590023945E+03 0.  0.
        -24    2    4    4    0    0  0.18865625224E+03 -0.26412365726E+03  0.28375886311E+01  0.33385056289E+03  0.78074698830E+02 0.  0.
         24    2    4    4    0    0  0.57784638770E+02  0.51083386100E+03 -0.61667566162E+03  0.80677797274E+03  0.79445123438E+02 0.  0.
         13    1    3    3    0    0  0.41550052855E+01 -0.51989999146E+01  0.22555735965E+01  0.70271816031E+01  0.00000000000E+00 0.  1.
        -13    1    3    3    0    0 -0.25059589630E+03 -0.24151120382E+03  0.81047831215E+03  0.88204368332E+03  0.00000000000E+00 0. -1.
          2    1    6    6  502    0  0.54499089108E+02  0.17190406613E+03 -0.23722914236E+03  0.29799131640E+03  0.00000000000E+00 0. -1.
          1    1    5    5  503    0  0.20685637745E+02 -0.37496219154E+02  0.27167796179E+02  0.50714408298E+02  0.00000000000E+00 0. -1.
         -2    1    5    5    0  503  0.16797061450E+03 -0.22662743811E+03 -0.24330207548E+02  0.28313615459E+03  0.00000000000E+00 0.  1.
         -1    1    6    6    0  502  0.32855496623E+01  0.33892979487E+03 -0.37944651926E+03  0.50878665634E+03  0.00000000000E+00 0.  1.
<mgrwt>
<rscale>  0 0.20199307E+04</rscale>
<asrwt>0</asrwt>
<pdfrwt beam="1">  1        2 0.17143040E+00 0.20199307E+04</pdfrwt>
<pdfrwt beam="2">  1       -2 0.14083105E+00 0.20199307E+04</pdfrwt>
<totfact> 0.70037297E+00</totfact>
</mgrwt>
</event>
<event>
12    1  0.1494110E-007  0.1311540E+04  0.7818608E-02  0.9020464E-01
          2   -1    0    0  501    0  0.00000000000E+00  0.00000000000E+00  0.65708121982E+03  0.65708121982E+03  0.00000000000E+00 0. -1.
         -2   -1    0    0    0  501 -0.00000000000E+00 -0.00000000000E+00 -0.65446148624E+03  0.65446148624E+03  0.00000000000E+00 0.  1.
         23    2    1    2    0    0  0.23349331956E+03 -0.19187555018E+03  0.21435677560E+03  0.38134809652E+03  0.90234064729E+02 0.  0.
        254    2    1    2    0    0 -0.23349331956E+03  0.19187555018E+03 -0.21173704202E+03  0.93019460954E+03  0.85387006015E+03 0.  0.
        -24    2    4    4    0    0  0.31135407774E+03  0.75548001854E+02 -0.30247096462E+01  0.32979033156E+03  0.78125870310E+02 0.  0.
         24    2    4    4    0    0 -0.54484739730E+03  0.11632754833E+03 -0.20871233237E+03  0.60040427799E+03  0.80831148052E+02 0.  0.
         13    1    3    3    0    0  0.20870759781E+03 -0.19237690800E+03  0.21572754210E+03  0.35651943641E+03  0.00000000000E+00 0. -1.
        -13    1    3    3    0    0  0.24785721746E+02  0.50135781465E+00 -0.13707665035E+01  0.24828660111E+02  0.00000000000E+00 0.  1.
          4    1    6    6  502    0 -0.46950689076E+03  0.12533778999E+03 -0.16716863028E+03  0.51389846567E+03  0.00000000000E+00 0. -1.
          3    1    5    5  503    0  0.79968614719E+02  0.51361777518E+01 -0.31821374827E+02  0.86220412652E+02  0.00000000000E+00 0. -1.
         -4    1    5    5    0  503  0.23138546302E+03  0.70411824102E+02  0.28796665181E+02  0.24356991891E+03  0.00000000000E+00 0.  1.
         -3    1    6    6    0  502 -0.75340506538E+02 -0.90102416633E+01 -0.41543702091E+02  0.86505812311E+02  0.00000000000E+00 0.  1.
<mgrwt>
<rscale>  0 0.13115401E+04</rscale>
<asrwt>0</asrwt>
<pdfrwt beam="1">  1        2 0.10108942E+00 0.13115401E+04</pdfrwt>
<pdfrwt beam="2">  1       -2 0.10068638E+00 0.13115401E+04</pdfrwt>
<totfact> 0.35317192E+01</totfact>
</mgrwt>
</event>
<event>
12    1  0.1494110E-007  0.1509326E+04  0.7818608E-02  0.8878275E-01
          2   -1    0    0  501    0  0.00000000000E+00  0.00000000000E+00  0.24144301844E+04  0.24144301844E+04  0.00000000000E+00 0. -1.
         -2   -1    0    0    0  501 -0.00000000000E+00 -0.00000000000E+00 -0.23588027992E+03  0.23588027992E+03  0.00000000000E+00 0.  1.
         23    2    1    2    0    0  0.19663228322E+03 -0.45163167316E+03  0.86273593733E+03  0.99758243900E+03  0.90675255896E+02 0.  0.
        254    2    1    2    0    0 -0.19663228322E+03  0.45163167316E+03  0.13158139671E+04  0.16527280253E+04  0.87034941632E+03 0.  0.
        -24    2    4    4    0    0 -0.25766338578E+03  0.36080917201E+03  0.14145954284E+04  0.14846681840E+04  0.81152395807E+02 0.  0.
         24    2    4    4    0    0  0.61031102560E+02  0.90822501153E+02 -0.98781461307E+02  0.16805984133E+03  0.80701988661E+02 0.  0.
         13    1    3    3    0    0  0.17682452353E+03 -0.36713423258E+03  0.76581454733E+03  0.86748278239E+03  0.00000000000E+00 0. -1.
        -13    1    3    3    0    0  0.19807759692E+02 -0.84497440576E+02  0.96921390002E+02  0.13009965660E+03  0.00000000000E+00 0.  1.
          4    1    6    6  502    0  0.78523425365E+02  0.81490980826E+02 -0.69851599835E+02  0.13298854946E+03  0.00000000000E+00 0. -1.
          3    1    5    5  503    0 -0.10552315660E+03  0.12278848562E+03  0.40117748354E+03  0.43261475019E+03  0.00000000000E+00 0. -1.
         -4    1    5    5    0  503 -0.15214022917E+03  0.23802068639E+03  0.10134179449E+04  0.10520534338E+04  0.00000000000E+00 0.  1.
         -3    1    6    6    0  502 -0.17492322805E+02  0.93315203273E+01 -0.28929861472E+02  0.35071291872E+02  0.00000000000E+00 0.  1.
<mgrwt>
<rscale>  0 0.15093263E+04</rscale>
<asrwt>0</asrwt>
<pdfrwt beam="1">  1        2 0.37145078E+00 0.15093263E+04</pdfrwt>
<pdfrwt beam="2">  1       -2 0.36289275E-01 0.15093263E+04</pdfrwt>
<totfact> 0.26971043E+01</totfact>
</mgrwt>
</event>
<event>
12    1  0.1494110E-007  0.1104638E+04  0.7818608E-02  0.9200683E-01
         -2   -1    0    0    0  501 -0.00000000000E+00  0.00000000000E+00  0.61446444410E+03  0.61446444410E+03  0.00000000000E+00 0.  1.
          2   -1    0    0  501    0  0.00000000000E+00 -0.00000000000E+00 -0.49645852867E+03  0.49645852867E+03  0.00000000000E+00 0. -1.
         23    2    1    2    0    0 -0.14213358972E+03  0.64365033312E+02  0.90094191206E+02  0.20213726806E+03  0.91638949191E+02 0.  0.
        254    2    1    2    0    0  0.14213358972E+03 -0.64365033312E+02  0.27911724219E+02  0.90878570471E+03  0.89485617721E+03 0.  0.
        -24    2    4    4    0    0 -0.15954573013E+03 -0.40186423288E+03 -0.44609343459E+02  0.44292962506E+03  0.85129064127E+02 0.  0.
         24    2    4    4    0    0  0.30167931985E+03  0.33749919957E+03  0.72521067678E+02  0.46585607965E+03  0.82743337857E+02 0.  0.
         11    1    3    3    0    0 -0.77028629134E+02  0.31052058012E+02  0.98137298010E+02  0.12856348344E+03  0.00000000000E+00 0.  1.
        -11    1    3    3    0    0 -0.65104960585E+02  0.33312975300E+02 -0.80431068041E+01  0.73573784618E+02  0.00000000000E+00 0. -1.
          2    1    6    6  502    0  0.17960149047E+03  0.22894106418E+03  0.81699585454E+02  0.30223422790E+03  0.00000000000E+00 0. -1.
          3    1    5    5  503    0 -0.12034179656E+03 -0.34796287645E+03 -0.63573922140E+02  0.37363345000E+03  0.00000000000E+00 0. -1.
         -4    1    5    5    0  503 -0.39203933570E+02 -0.53901356430E+02  0.18964578681E+02  0.69296175053E+02  0.00000000000E+00 0.  1.
         -1    1    6    6    0  502  0.12207782938E+03  0.10855813538E+03 -0.91785177767E+01  0.16362185176E+03  0.00000000000E+00 0.  1.
<mgrwt>
<rscale>  0 0.11046377E+04</rscale>
<asrwt>0</asrwt>
<pdfrwt beam="1">  1        2 0.76378235E-01 0.11046377E+04</pdfrwt>
<pdfrwt beam="2">  1       -2 0.94532991E-01 0.11046377E+04</pdfrwt>
<totfact> 0.58129252E+01</totfact>
</mgrwt>
</event>
<event>
12    1  0.1494110E-007  0.1283841E+04  0.7818608E-02  0.9042479E-01
         -2   -1    0    0    0  501 -0.00000000000E+00  0.00000000000E+00  0.25766159554E+03  0.25766159554E+03  0.00000000000E+00 0.  1.
          2   -1    0    0  501    0  0.00000000000E+00 -0.00000000000E+00 -0.15992357294E+04  0.15992357294E+04  0.00000000000E+00 0. -1.
         23    2    1    2    0    0  0.13948952144E+03  0.70492684917E+01 -0.74694579205E+03  0.76542759578E+03  0.91893249735E+02 0.  0.
        254    2    1    2    0    0 -0.13948952144E+03 -0.70492684917E+01 -0.59462834181E+03  0.10914697291E+04  0.90455308633E+03 0.  0.
        -24    2    4    4    0    0 -0.24413958849E+03  0.19014417659E+03  0.11801689966E+03  0.34055340682E+03  0.79307551554E+02 0.  0.
         24    2    4    4    0    0  0.10465006705E+03 -0.19719344508E+03 -0.71264524146E+03  0.75091632233E+03  0.78582387593E+02 0.  0.
         11    1    3    3    0    0  0.67024181513E+02  0.49370982965E+02 -0.36563002822E+03  0.37498673630E+03  0.00000000000E+00 0. -1.
        -11    1    3    3    0    0  0.72465339924E+02 -0.42321714473E+02 -0.38131576382E+03  0.39044085947E+03  0.00000000000E+00 0.  1.
          4    1    6    6  502    0  0.38145115097E+02 -0.13871033712E+03 -0.50693540281E+03  0.52695266396E+03  0.00000000000E+00 0. -1.
          1    1    5    5  503    0 -0.14352853331E+03  0.15837510718E+03  0.84751141992E+02  0.22992579351E+03  0.00000000000E+00 0. -1.
         -2    1    5    5    0  503 -0.10061105518E+03  0.31769069407E+02  0.33265757664E+02  0.11062761332E+03  0.00000000000E+00 0.  1.
         -3    1    6    6    0  502  0.66504951957E+02 -0.58483107963E+02 -0.20570983865E+03  0.22396365837E+03  0.00000000000E+00 0.  1.
<mgrwt>
<rscale>  0 0.12838405E+04</rscale>
<asrwt>0</asrwt>
<pdfrwt beam="1">  1        2 0.24603627E+00 0.12838405E+04</pdfrwt>
<pdfrwt beam="2">  1       -2 0.39640245E-01 0.12838405E+04</pdfrwt>
<totfact> 0.65917780E+01</totfact>
</mgrwt>
</event>
<event>
12    1  0.1494110E-007  0.2387952E+04  0.7818608E-02  0.8444028E-01
          1   -1    0    0  501    0  0.00000000000E+00  0.00000000000E+00  0.17984154622E+04  0.17984154622E+04  0.00000000000E+00 0. -1.
         -1   -1    0    0    0  501 -0.00000000000E+00 -0.00000000000E+00 -0.79268622465E+03  0.79268622465E+03  0.00000000000E+00 0.  1.
         23    2    1    2    0    0  0.16067202055E+03 -0.14661244673E+03 -0.65573809602E+03  0.69806167637E+03  0.99934707248E+02 0.  0.
        254    2    1    2    0    0 -0.16067202055E+03  0.14661244673E+03  0.16614673336E+04  0.18930400105E+04  0.88080421945E+03 0.  0.
        -24    2    4    4    0    0 -0.26354893388E+03 -0.24171047213E+02  0.66849979213E+02  0.28404266782E+03  0.78543219632E+02 0.  0.
         24    2    4    4    0    0  0.10287691333E+03  0.17078349394E+03  0.15946173544E+04  0.16089973427E+04  0.79481323171E+02 0.  0.
         13    1    3    3    0    0  0.46374417036E+02  0.77675472754E+01 -0.14238859794E+03  0.14995143938E+03  0.00000000000E+00 0. -1.
        -13    1    3    3    0    0  0.11429760351E+03 -0.15437999400E+03 -0.51334949808E+03  0.54811023699E+03  0.00000000000E+00 0.  1.
          4    1    6    6  502    0  0.78130095609E+02  0.12838521350E+03  0.88384755948E+03  0.89653420642E+03  0.00000000000E+00 0. -1.
          3    1    5    5  503    0 -0.22526721847E+03 -0.32781345335E+02  0.82032679967E+02  0.24196961979E+03  0.00000000000E+00 0. -1.
         -4    1    5    5    0  503 -0.38281715412E+02  0.86102981226E+01 -0.15182700754E+02  0.42073048034E+02  0.00000000000E+00 0.  1.
         -3    1    6    6    0  502  0.24746817722E+02  0.42398280436E+02  0.71076979488E+03  0.71246313623E+03  0.00000000000E+00 0.  1.
<mgrwt>
<rscale>  0 0.23879524E+04</rscale>
<asrwt>0</asrwt>
<pdfrwt beam="1">  1        1 0.27667930E+00 0.23879524E+04</pdfrwt>
<pdfrwt beam="2">  1       -1 0.12195173E+00 0.23879524E+04</pdfrwt>
<totfact> 0.21796011E+00</totfact>
</mgrwt>
</event>
<event>
12    1  0.1494110E-007  0.1904262E+04  0.7818608E-02  0.8652738E-01
         -1   -1    0    0    0  501 -0.00000000000E+00  0.00000000000E+00  0.68256902804E+03  0.68256902804E+03  0.00000000000E+00 0.  1.
          1   -1    0    0  501    0  0.00000000000E+00 -0.00000000000E+00 -0.13281497592E+04  0.13281497592E+04  0.00000000000E+00 0. -1.
         23    2    1    2    0    0  0.27241812368E+03 -0.27237534802E+01 -0.98710142821E+03  0.10281110651E+04  0.91782784929E+02 0.  0.
        254    2    1    2    0    0 -0.27241812368E+03  0.27237534802E+01  0.34152069701E+03  0.98260772220E+03  0.88014913298E+03 0.  0.
        -24    2    4    4    0    0  0.17037276866E+03 -0.56109013345E+02  0.46982644217E+03  0.51042352172E+03  0.87293665737E+02 0.  0.
         24    2    4    4    0    0 -0.44279089235E+03  0.58832766825E+02 -0.12830574516E+03  0.47218420048E+03  0.83489437291E+02 0.  0.
         11    1    3    3    0    0  0.26523683393E+03 -0.19366934337E+02 -0.87396866902E+03  0.91353538008E+03  0.00000000000E+00 0. -1.
        -11    1    3    3    0    0  0.71812897586E+01  0.16643180857E+02 -0.11313275918E+03  0.11457568499E+03  0.00000000000E+00 0.  1.
          4    1    6    6  502    0 -0.34950573262E+03  0.17417391808E+02 -0.11932536299E+03  0.36972444458E+03  0.00000000000E+00 0. -1.
          3    1    5    5  503    0  0.17235367535E+03 -0.67121869938E+02  0.45894786719E+03  0.49481742050E+03  0.00000000000E+00 0. -1.
         -4    1    5    5    0  503 -0.19809066848E+01  0.11012856593E+02  0.10878574981E+02  0.15606101218E+02  0.00000000000E+00 0.  1.
         -3    1    6    6    0  502 -0.93285159732E+02  0.41415375017E+02 -0.89803821738E+01  0.10245975590E+03  0.00000000000E+00 0.  1.
<mgrwt>
<rscale>  0 0.19042625E+04</rscale>
<asrwt>0</asrwt>
<pdfrwt beam="1">  1        1 0.20433073E+00 0.19042625E+04</pdfrwt>
<pdfrwt beam="2">  1       -1 0.10501062E+00 0.19042625E+04</pdfrwt>
<totfact> 0.68756947E+00</totfact>
</mgrwt>
</event>
<event>
12    1  0.1494110E-007  0.1378216E+04  0.7818608E-02  0.8969739E-01
         -2   -1    0    0    0  501 -0.00000000000E+00  0.00000000000E+00  0.23522502174E+03  0.23522502174E+03  0.00000000000E+00 0.  1.
          2   -1    0    0  501    0  0.00000000000E+00 -0.00000000000E+00 -0.20187900909E+04  0.20187900909E+04  0.00000000000E+00 0. -1.
         23    2    1    2    0    0  0.10580269500E+03 -0.30354470553E+03 -0.86898477739E+03  0.93097798290E+03  0.90839764283E+02 0.  0.
        254    2    1    2    0    0 -0.10580269500E+03  0.30354470553E+03 -0.91458029180E+03  0.13230371298E+04  0.90035356283E+03 0.  0.
        -24    2    4    4    0    0  0.97079807102E+02 -0.63560219854E+02 -0.88429212586E+03  0.89529480057E+03  0.78203743928E+02 0.  0.
         24    2    4    4    0    0 -0.20288250211E+03  0.36710492539E+03 -0.30288165938E+02  0.42774232922E+03  0.78222703248E+02 0.  0.
         13    1    3    3    0    0  0.75765014341E+02 -0.17845019888E+03 -0.39750590565E+03  0.44226208960E+03  0.00000000000E+00 0. -1.
        -13    1    3    3    0    0  0.30037680662E+02 -0.12509450665E+03 -0.47147887175E+03  0.48871589329E+03  0.00000000000E+00 0.  1.
          4    1    6    6  502    0 -0.10995680973E+02  0.53968519610E+02 -0.24913129548E+02  0.60449732281E+02  0.00000000000E+00 0. -1.
          1    1    5    5  503    0 -0.78644084216E+01 -0.15250072856E+02 -0.24848257567E+03  0.24907429424E+03  0.00000000000E+00 0. -1.
         -2    1    5    5    0  503  0.10494421552E+03 -0.48310146998E+02 -0.63580955019E+03  0.64622050632E+03  0.00000000000E+00 0.  1.
         -3    1    6    6    0  502 -0.19188682113E+03  0.31313640578E+03 -0.53750363899E+01  0.36729259694E+03  0.00000000000E+00 0.  1.
<mgrwt>
<rscale>  0 0.13782162E+04</rscale>
<asrwt>0</asrwt>
<pdfrwt beam="1">  1        2 0.31058311E+00 0.13782162E+04</pdfrwt>
<pdfrwt beam="2">  1       -2 0.36188463E-01 0.13782162E+04</pdfrwt>
<totfact> 0.45714855E+01</totfact>
</mgrwt>
</event>
<event>
12    1  0.1494110E-007  0.2392371E+04  0.7818608E-02  0.8442365E-01
          1   -1    0    0  501    0  0.00000000000E+00  0.00000000000E+00  0.25703734494E+04  0.25703734494E+04  0.00000000000E+00 0. -1.
         -1   -1    0    0    0  501 -0.00000000000E+00 -0.00000000000E+00 -0.55667386868E+03  0.55667386868E+03  0.00000000000E+00 0.  1.
         23    2    1    2    0    0  0.58498851699E+03  0.10813203219E+03 -0.22476589627E+03  0.64201946437E+03  0.88120276355E+02 0.  0.
        254    2    1    2    0    0 -0.58498851699E+03 -0.10813203219E+03  0.22384654770E+04  0.24850278537E+04  0.90040637529E+03 0.  0.
        -24    2    4    4    0    0  0.17854861237E+03 -0.88571342293E+01  0.12261094149E+03  0.23162948043E+03  0.81613218445E+02 0.  0.
         24    2    4    4    0    0 -0.76353712936E+03 -0.99274897961E+02  0.21158545355E+04  0.22533983733E+04  0.90107491733E+02 0.  0.
         11    1    3    3    0    0  0.43670560106E+03  0.64697186048E+02 -0.20325978392E+03  0.48601650964E+03  0.00000000000E+00 0.  1.
        -11    1    3    3    0    0  0.14828291593E+03  0.43434846143E+02 -0.21506112346E+02  0.15600295473E+03  0.00000000000E+00 0. -1.
          4    1    6    6  502    0 -0.66117494545E+03 -0.97532916934E+02  0.17428301304E+04  0.18665802532E+04  0.00000000000E+00 0. -1.
          3    1    5    5  503    0  0.18026938435E+03 -0.16490377910E+02  0.12836595851E+03  0.22191620672E+03  0.00000000000E+00 0. -1.
         -4    1    5    5    0  503 -0.17207719825E+01  0.76332436808E+01 -0.57550170224E+01  0.97132737135E+01  0.00000000000E+00 0.  1.
         -3    1    6    6    0  502 -0.10236218390E+03 -0.17419810271E+01  0.37302440510E+03  0.38681812004E+03  0.00000000000E+00 0.  1.
<mgrwt>
<rscale>  0 0.23923710E+04</rscale>
<asrwt>0</asrwt>
<pdfrwt beam="1">  1        1 0.39544206E+00 0.23923710E+04</pdfrwt>
<pdfrwt beam="2">  1       -1 0.85642135E-01 0.23923710E+04</pdfrwt>
<totfact> 0.14613603E+00</totfact>
</mgrwt>
</event>
<event>
12    1  0.1494110E-007  0.2144274E+04  0.7818608E-02  0.8541987E-01
          2   -1    0    0  501    0  0.00000000000E+00  0.00000000000E+00  0.96951169399E+03  0.96951169399E+03  0.00000000000E+00 0.  1.
         -2   -1    0    0    0  501 -0.00000000000E+00 -0.00000000000E+00 -0.11856253647E+04  0.11856253647E+04  0.00000000000E+00 0. -1.
         23    2    1    2    0    0  0.60531624625E+03 -0.38384292666E+03 -0.58511235411E+03  0.92956298007E+03  0.89374026709E+02 0.  0.
        254    2    1    2    0    0 -0.60531624625E+03  0.38384292666E+03  0.36899868345E+03  0.12255740786E+04  0.92310814285E+03 0.  0.
        -24    2    4    4    0    0 -0.64861188736E+03  0.21949107476E+03 -0.12104833734E+03  0.70079735438E+03  0.87123588129E+02 0.  0.
         24    2    4    4    0    0  0.43295641103E+02  0.16435185189E+03  0.49004702078E+03  0.52477672421E+03  0.79740102410E+02 0.  0.
         11    1    3    3    0    0  0.49018504385E+03 -0.29440884346E+03 -0.42113566984E+03  0.71015012267E+03  0.00000000000E+00 0. -1.
        -11    1    3    3    0    0  0.11513120241E+03 -0.89434083196E+02 -0.16397668427E+03  0.21941285739E+03  0.00000000000E+00 0.  1.
          4    1    6    6  502    0  0.65287203052E+01 -0.20262219844E+01  0.10158890250E+01  0.69109908742E+01  0.00000000000E+00 0. -1.
          1    1    5    5  503    0 -0.27560561989E+03  0.49934178412E+02 -0.36937367090E+02  0.28251769675E+03  0.00000000000E+00 0. -1.
         -2    1    5    5    0  503 -0.37300626747E+03  0.16955689635E+03 -0.84110970246E+02  0.41827965763E+03  0.00000000000E+00 0.  1.
         -3    1    6    6    0  502  0.36766920797E+02  0.16637807388E+03  0.48903113176E+03  0.51786573333E+03  0.00000000000E+00 0.  1.
<mgrwt>
<rscale>  0 0.21442739E+04</rscale>
<asrwt>0</asrwt>
<pdfrwt beam="1">  1        2 0.14915565E+00 0.21442739E+04</pdfrwt>
<pdfrwt beam="2">  1       -2 0.18240390E+00 0.21442739E+04</pdfrwt>
<totfact> 0.42238165E+00</totfact>
</mgrwt>
</event>
<event>
12    1  0.1494110E-007  0.3055013E+04  0.7818608E-02  0.8228194E-01
         -2   -1    0    0    0  501 -0.00000000000E+00  0.00000000000E+00  0.94526896276E+03  0.94526896276E+03  0.00000000000E+00 0. -1.
          2   -1    0    0  501    0  0.00000000000E+00 -0.00000000000E+00 -0.24683729507E+04  0.24683729507E+04  0.00000000000E+00 0.  1.
         23    2    1    2    0    0 -0.76092059711E+03  0.41923219250E+02  0.59902735979E+03  0.97272621804E+03  0.81269957934E+02 0.  0.
        254    2    1    2    0    0  0.76092059711E+03 -0.41923219250E+02 -0.21221313478E+04  0.24409156955E+04  0.93481028222E+03 0.  0.
        -24    2    4    4    0    0  0.56971450073E+03  0.41143090327E+03 -0.12325162216E+04  0.14211009998E+04  0.81128382531E+02 0.  0.
         24    2    4    4    0    0  0.19120609638E+03 -0.45335412252E+03 -0.88961512612E+03  0.10198146957E+04  0.80729233873E+02 0.  0.
         11    1    3    3    0    0 -0.73499278697E+03  0.35899027870E+02  0.59386848290E+03  0.94561245343E+03  0.00000000000E+00 0. -1.
        -11    1    3    3    0    0 -0.25927810141E+02  0.60241913805E+01  0.51588768905E+01  0.27113764609E+02  0.00000000000E+00 0.  1.
          2    1    6    6  502    0  0.19772260985E+03 -0.41605990145E+03 -0.82715796411E+03  0.94677894444E+03  0.00000000000E+00 0. -1.
          3    1    5    5  503    0  0.43901991519E+03  0.27338922657E+03 -0.91327027859E+03  0.10495440710E+04  0.00000000000E+00 0. -1.
         -4    1    5    5    0  503  0.13069458554E+03  0.13804167670E+03 -0.31924594305E+03  0.37155692881E+03  0.00000000000E+00 0.  1.
         -1    1    6    6    0  502 -0.65165134689E+01 -0.37294221066E+02 -0.62457162010E+02  0.73035751239E+02  0.00000000000E+00 0.  1.
<mgrwt>
<rscale>  0 0.30550132E+04</rscale>
<asrwt>0</asrwt>
<pdfrwt beam="1">  1        2 0.37974968E+00 0.30550132E+04</pdfrwt>
<pdfrwt beam="2">  1       -2 0.14542600E+00 0.30550132E+04</pdfrwt>
<totfact> 0.10059330E+00</totfact>
</mgrwt>
</event>
<event>
12    1  0.1494110E-007  0.2002681E+04  0.7818608E-02  0.8605368E-01
         -1   -1    0    0    0  501 -0.00000000000E+00  0.00000000000E+00  0.39300337875E+03  0.39300337875E+03  0.00000000000E+00 0. -1.
          1   -1    0    0  501    0  0.00000000000E+00 -0.00000000000E+00 -0.25513344620E+04  0.25513344620E+04  0.00000000000E+00 0.  1.
         23    2    1    2    0    0 -0.57468778239E+03 -0.52818125034E+03 -0.59594042880E+03  0.98599069394E+03  0.88267623809E+02 0.  0.
        254    2    1    2    0    0  0.57468778239E+03  0.52818125034E+03 -0.15623906544E+04  0.19583471468E+04  0.88589926620E+03 0.  0.
        -24    2    4    4    0    0  0.50933758047E+03  0.97977266237E+02 -0.13861288177E+04  0.14821006362E+04  0.79024560959E+02 0.  0.
         24    2    4    4    0    0  0.65350201922E+02  0.43020398410E+03 -0.17626183678E+03  0.47624651056E+03  0.79977414832E+02 0.  0.
         11    1    3    3    0    0 -0.10040615283E+03 -0.50980618577E+02 -0.91126736833E+02  0.14486028152E+03  0.00000000000E+00 0.  1.
        -11    1    3    3    0    0 -0.47428162956E+03 -0.47720063176E+03 -0.50481369197E+03  0.84113041242E+03  0.00000000000E+00 0. -1.
          4    1    6    6  502    0  0.27730778174E+02  0.37217412509E+03 -0.15165749598E+03  0.40284311032E+03  0.00000000000E+00 0. -1.
          1    1    5    5  503    0  0.46732085184E+03  0.74506784346E+02 -0.12997763661E+04  0.13832420762E+04  0.00000000000E+00 0. -1.
         -2    1    5    5    0  503  0.42016728633E+02  0.23470481892E+02 -0.86352451535E+02  0.98858560030E+02  0.00000000000E+00 0.  1.
         -1    1    6    6    0  502  0.37619423748E+02  0.58029859010E+02 -0.24604340803E+02  0.73403400236E+02  0.00000000000E+00 0.  1.
<mgrwt>
<rscale>  0 0.20026813E+04</rscale>
<asrwt>0</asrwt>
<pdfrwt beam="1">  1        1 0.39251297E+00 0.20026813E+04</pdfrwt>
<pdfrwt beam="2">  1       -1 0.60462061E-01 0.20026813E+04</pdfrwt>
<totfact> 0.32120295E+00</totfact>
</mgrwt>
</event>
<event>
12    1  0.1494110E-007  0.2348643E+04  0.7818608E-02  0.8458985E-01
          1   -1    0    0  501    0  0.00000000000E+00  0.00000000000E+00  0.12165419510E+04  0.12165419510E+04  0.00000000000E+00 0. -1.
         -1   -1    0    0    0  501 -0.00000000000E+00 -0.00000000000E+00 -0.11335667092E+04  0.11335667092E+04  0.00000000000E+00 0.  1.
         23    2    1    2    0    0  0.90129344093E+03 -0.14997791930E+03 -0.37221605257E+03  0.99075332333E+03  0.90686906194E+02 0.  0.
        254    2    1    2    0    0 -0.90129344093E+03  0.14997791930E+03  0.45519129436E+03  0.13593553369E+04  0.89767732200E+03 0.  0.
        -24    2    4    4    0    0 -0.51489162356E+03  0.25368174516E+03 -0.17853210794E+03  0.60572602148E+03  0.74582087016E+02 0.  0.
         24    2    4    4    0    0 -0.38640181737E+03 -0.10370382585E+03  0.63372340230E+03  0.75362931537E+03  0.79315486489E+02 0.  0.
         13    1    3    3    0    0  0.89647424356E+03 -0.15424293758E+03 -0.36275286481E+03  0.97930924334E+03  0.00000000000E+00 0.  1.
        -13    1    3    3    0    0  0.48191973662E+01  0.42650182763E+01 -0.94631877628E+01  0.11444079989E+02  0.00000000000E+00 0. -1.
          2    1    6    6  502    0 -0.11718294278E+03 -0.50578887244E+02  0.26363710027E+03  0.29290712957E+03  0.00000000000E+00 0. -1.
          1    1    5    5  503    0 -0.43020115182E+03  0.21348166151E+03 -0.11936528684E+03  0.49486919739E+03  0.00000000000E+00 0. -1.
         -2    1    5    5    0  503 -0.84690471737E+02  0.40200083650E+02 -0.59166821100E+02  0.11085682409E+03  0.00000000000E+00 0.  1.
         -1    1    6    6    0  502 -0.26921887459E+03 -0.53124938611E+02  0.37008630203E+03  0.46072218580E+03  0.00000000000E+00 0.  1.
<mgrwt>
<rscale>  0 0.23486434E+04</rscale>
<asrwt>0</asrwt>
<pdfrwt beam="1">  1        1 0.18716030E+00 0.23486434E+04</pdfrwt>
<pdfrwt beam="2">  1       -1 0.17439488E+00 0.23486434E+04</pdfrwt>
<totfact> 0.21375195E+00</totfact>
</mgrwt>
</event>
<event>
12    1  0.1494110E-007  0.1787948E+04  0.7818608E-02  0.8712735E-01
         -1   -1    0    0    0  501 -0.00000000000E+00  0.00000000000E+00  0.10187287418E+04  0.10187287418E+04  0.00000000000E+00 0.  1.
          1   -1    0    0  501    0  0.00000000000E+00 -0.00000000000E+00 -0.78449650837E+03  0.78449650837E+03  0.00000000000E+00 0. -1.
         23    2    1    2    0    0 -0.15266651693E+03 -0.35558993753E+03  0.62742046135E+03  0.74309211637E+03  0.93691990155E+02 0.  0.
        254    2    1    2    0    0  0.15266651693E+03  0.35558993753E+03 -0.39318822792E+03  0.10601331338E+04  0.90528117718E+03 0.  0.
        -24    2    4    4    0    0  0.47771178374E+03  0.31057178473E+03 -0.47923559080E+02  0.57704157596E+03  0.77568879548E+02 0.  0.
         24    2    4    4    0    0 -0.32504526682E+03  0.45018152799E+02 -0.34526466884E+03  0.48309155784E+03  0.80552480697E+02 0.  0.
         11    1    3    3    0    0  0.36927268242E+01 -0.10396211416E+02  0.11481248070E+01  0.11092142885E+02  0.00000000000E+00 0. -1.
        -11    1    3    3    0    0 -0.15635924375E+03 -0.34519372611E+03  0.62627233655E+03  0.73199997348E+03  0.00000000000E+00 0.  1.
          2    1    6    6  502    0 -0.10910641614E+03  0.67454514211E+01 -0.64845399730E+02  0.12710089309E+03  0.00000000000E+00 0. -1.
          1    1    5    5  503    0  0.32169822705E+03  0.17576430640E+03 -0.55256166322E+02  0.37072373084E+03  0.00000000000E+00 0. -1.
         -2    1    5    5    0  503  0.15601355669E+03  0.13480747833E+03  0.73326072421E+01  0.20631784512E+03  0.00000000000E+00 0.  1.
         -1    1    6    6    0  502 -0.21593885068E+03  0.38272701378E+02 -0.28041926911E+03  0.35599066475E+03  0.00000000000E+00 0.  1.
<mgrwt>
<rscale>  0 0.17879476E+04</rscale>
<asrwt>0</asrwt>
<pdfrwt beam="1">  1        1 0.12069177E+00 0.17879476E+04</pdfrwt>
<pdfrwt beam="2">  1       -1 0.15672750E+00 0.17879476E+04</pdfrwt>
<totfact> 0.66701837E+00</totfact>
</mgrwt>
</event>
<event>
12    1  0.1494110E-007  0.2660130E+04  0.7818608E-02  0.8348058E-01
          2   -1    0    0  501    0  0.00000000000E+00  0.00000000000E+00  0.14675583547E+04  0.14675583547E+04  0.00000000000E+00 0. -1.
         -2   -1    0    0    0  501 -0.00000000000E+00 -0.00000000000E+00 -0.12054536286E+04  0.12054536286E+04  0.00000000000E+00 0.  1.
         23    2    1    2    0    0  0.28840948925E+03  0.10022587907E+04  0.66110042931E+03  0.12382249061E+04  0.91893543657E+02 0.  0.
        254    2    1    2    0    0 -0.28840948925E+03 -0.10022587907E+04 -0.39899570325E+03  0.14347870772E+04  0.90095153517E+03 0.  0.
        -24    2    4    4    0    0 -0.15435533981E+03 -0.11483616766E+04 -0.31084890080E+03  0.12025817814E+04  0.83760316706E+02 0.  0.
         24    2    4    4    0    0 -0.13405414944E+03  0.14610288590E+03 -0.88146802445E+02  0.23220529580E+03  0.82661190198E+02 0.  0.
         11    1    3    3    0    0  0.62414944966E+02  0.17702676116E+03  0.80660414418E+02  0.20430418981E+03  0.00000000000E+00 0.  1.
        -11    1    3    3    0    0  0.22599454428E+03  0.82523202957E+03  0.58044001489E+03  0.10339207163E+04  0.00000000000E+00 0. -1.
          4    1    6    6  502    0 -0.80603007434E+02  0.13859175024E+03 -0.58813717581E+02  0.17077345057E+03  0.00000000000E+00 0. -1.
          1    1    5    5  503    0 -0.53360658058E+02 -0.68979249231E+03 -0.19857306347E+03  0.71978629037E+03  0.00000000000E+00 0. -1.
         -2    1    5    5    0  503 -0.10099468175E+03 -0.45856918432E+03 -0.11227583733E+03  0.48279549107E+03  0.00000000000E+00 0.  1.
         -1    1    6    6    0  502 -0.53451142007E+02  0.75111356545E+01 -0.29333084864E+02  0.61431845230E+02  0.00000000000E+00 0.  1.
<mgrwt>
<rscale>  0 0.26601305E+04</rscale>
<asrwt>0</asrwt>
<pdfrwt beam="1">  1        2 0.22577821E+00 0.26601305E+04</pdfrwt>
<pdfrwt beam="2">  1       -2 0.18545440E+00 0.26601305E+04</pdfrwt>
<totfact> 0.19393173E+00</totfact>
</mgrwt>
</event>
<event>
12    1  0.1494110E-007  0.1947390E+04  0.7818608E-02  0.8631621E-01
          2   -1    0    0  501    0  0.00000000000E+00  0.00000000000E+00  0.14907289383E+04  0.14907289383E+04  0.00000000000E+00 0. -1.
         -2   -1    0    0    0  501 -0.00000000000E+00 -0.00000000000E+00 -0.63598529347E+03  0.63598529347E+03  0.00000000000E+00 0.  1.
         23    2    1    2    0    0  0.22188453181E+03  0.65360851178E+03  0.69518545726E+03  0.98386919977E+03  0.90988736290E+02 0.  0.
        254    2    1    2    0    0 -0.22188453181E+03 -0.65360851178E+03  0.15955818761E+03  0.11428450320E+04  0.89677149816E+03 0.  0.
        -24    2    4    4    0    0  0.15253918630E+02 -0.22983464566E+03 -0.35437021070E+03  0.43105007247E+03  0.84671555805E+02 0.  0.
         24    2    4    4    0    0 -0.23713845044E+03 -0.42377386612E+03  0.51392839832E+03  0.71179495958E+03  0.81919055218E+02 0.  0.
         13    1    3    3    0    0  0.50116529639E+02  0.11991894436E+03  0.85396446083E+02  0.15551454197E+03  0.00000000000E+00 0.  1.
        -13    1    3    3    0    0  0.17176800217E+03  0.53368956742E+03  0.60978901118E+03  0.82835465780E+03  0.00000000000E+00 0. -1.
          4    1    6    6  502    0 -0.99996930310E+02 -0.15288072831E+03  0.24905678188E+03  0.30887082050E+03  0.00000000000E+00 0. -1.
          3    1    5    5  503    0  0.54087132999E+01 -0.90507216995E+02 -0.71119568064E+02  0.11523369069E+03  0.00000000000E+00 0. -1.
         -4    1    5    5    0  503  0.98452053300E+01 -0.13932742867E+03 -0.28325064264E+03  0.31581638178E+03  0.00000000000E+00 0.  1.
         -3    1    6    6    0  502 -0.13714152013E+03 -0.27089313781E+03  0.26487161644E+03  0.40292413908E+03  0.00000000000E+00 0.  1.
<mgrwt>
<rscale>  0 0.19473897E+04</rscale>
<asrwt>0</asrwt>
<pdfrwt beam="1">  1        2 0.22934291E+00 0.19473897E+04</pdfrwt>
<pdfrwt beam="2">  1       -2 0.97843892E-01 0.19473897E+04</pdfrwt>
<totfact> 0.10425914E+01</totfact>
</mgrwt>
</event>
<event>
12    1  0.1494110E-007  0.1396611E+04  0.7818608E-02  0.8956275E-01
         -1   -1    0    0    0  501 -0.00000000000E+00  0.00000000000E+00  0.47714950284E+03  0.47714950284E+03  0.00000000000E+00 0.  1.
          1   -1    0    0  501    0  0.00000000000E+00 -0.00000000000E+00 -0.10219659473E+04  0.10219659473E+04  0.00000000000E+00 0. -1.
         23    2    1    2    0    0  0.86706623273E+02 -0.10210103468E+03  0.24679573157E+03  0.29468523684E+03  0.89378945459E+02 0.  0.
        254    2    1    2    0    0 -0.86706623273E+02  0.10210103468E+03 -0.79161217607E+03  0.12044302133E+04  0.89780824328E+03 0.  0.
        -24    2    4    4    0    0 -0.34422203831E+03  0.34524999485E+03 -0.25223994723E+03  0.55460954503E+03  0.79248885571E+02 0.  0.
         24    2    4    4    0    0  0.25751541504E+03 -0.24314896017E+03 -0.53937222884E+03  0.64982066831E+03  0.76869330045E+02 0.  0.
         11    1    3    3    0    0  0.10408627579E+03 -0.77418830132E+02  0.18548105815E+03  0.22634233144E+03  0.00000000000E+00 0.  1.
        -11    1    3    3    0    0 -0.17379652522E+02 -0.24682204547E+02  0.61314673414E+02  0.68342905403E+02  0.00000000000E+00 0. -1.
          2    1    6    6  502    0  0.25988805088E+03 -0.24580130118E+03 -0.53786544000E+03  0.64595612095E+03  0.00000000000E+00 0. -1.
          3    1    5    5  503    0 -0.34700178206E+03  0.33266687883E+03 -0.24219906919E+03  0.53827305166E+03  0.00000000000E+00 0. -1.
         -4    1    5    5    0  503  0.27797437531E+01  0.12583116016E+02 -0.10040878034E+02  0.16336493372E+02  0.00000000000E+00 0.  1.
         -1    1    6    6    0  502 -0.23726358398E+01  0.26523410081E+01 -0.15067888414E+01  0.38645473557E+01  0.00000000000E+00 0.  1.
<mgrwt>
<rscale>  0 0.13966110E+04</rscale>
<asrwt>0</asrwt>
<pdfrwt beam="1">  1        1 0.15722553E+00 0.13966110E+04</pdfrwt>
<pdfrwt beam="2">  1       -1 0.73407617E-01 0.13966110E+04</pdfrwt>
<totfact> 0.26533031E+01</totfact>
</mgrwt>
</event>
<event>
12    1  0.1494110E-007  0.1384900E+04  0.7818608E-02  0.8964822E-01
          2   -1    0    0  501    0  0.00000000000E+00  0.00000000000E+00  0.15520350213E+04  0.15520350213E+04  0.00000000000E+00 0. -1.
         -2   -1    0    0    0  501 -0.00000000000E+00 -0.00000000000E+00 -0.30894099187E+03  0.30894099187E+03  0.00000000000E+00 0.  1.
         23    2    1    2    0    0 -0.32601112635E+03 -0.51739874445E+02  0.66263026405E+03  0.74578068886E+03  0.90275688424E+02 0.  0.
        254    2    1    2    0    0  0.32601112635E+03  0.51739874445E+02  0.58046376538E+03  0.11151953243E+04  0.89317532397E+03 0.  0.
        -24    2    4    4    0    0  0.16870816133E+03 -0.35371691181E+03  0.18300963054E+02  0.40001634756E+03  0.78102853162E+02 0.  0.
         24    2    4    4    0    0  0.15730296502E+03  0.40545678625E+03  0.56216280233E+03  0.71517897676E+03  0.79463980212E+02 0.  0.
         13    1    3    3    0    0 -0.42870433321E+02 -0.36913826207E+02  0.81986347340E+02  0.99610570566E+02  0.00000000000E+00 0.  1.
        -13    1    3    3    0    0 -0.28314069303E+03 -0.14826048238E+02  0.58064391671E+03  0.64617011829E+03  0.00000000000E+00 0. -1.
          4    1    6    6  502    0  0.10752672572E+03  0.16810671974E+03  0.24934270649E+03  0.31936444894E+03  0.00000000000E+00 0. -1.
          1    1    5    5  503    0  0.95822776527E+02 -0.22590647026E+03  0.47684463631E+02  0.24997909088E+03  0.00000000000E+00 0. -1.
         -2    1    5    5    0  503  0.72885384804E+02 -0.12781044155E+03 -0.29383500577E+02  0.15003725668E+03  0.00000000000E+00 0.  1.
         -3    1    6    6    0  502  0.49776239302E+02  0.23735006651E+03  0.31282009583E+03  0.39581452781E+03  0.00000000000E+00 0.  1.
<mgrwt>
<rscale>  0 0.13849003E+04</rscale>
<asrwt>0</asrwt>
<pdfrwt beam="1">  1        2 0.23877461E+00 0.13849003E+04</pdfrwt>
<pdfrwt beam="2">  1       -2 0.47529384E-01 0.13849003E+04</pdfrwt>
<totfact> 0.48484704E+01</totfact>
</mgrwt>
</event>
<event>
12    1  0.1494110E-007  0.1784051E+04  0.7818608E-02  0.8714827E-01
         -1   -1    0    0    0  501 -0.00000000000E+00  0.00000000000E+00  0.12120068023E+04  0.12120068023E+04  0.00000000000E+00 0.  1.
          1   -1    0    0  501    0  0.00000000000E+00 -0.00000000000E+00 -0.65652237538E+03  0.65652237538E+03  0.00000000000E+00 0. -1.
         23    2    1    2    0    0  0.57182650093E+03  0.33016153110E+03  0.20989721935E+03  0.69882355260E+03  0.91133589775E+02 0.  0.
        254    2    1    2    0    0 -0.57182650093E+03 -0.33016153110E+03  0.34558720762E+03  0.11697056251E+04  0.90154786206E+03 0.  0.
        -24    2    4    4    0    0  0.24341163094E+02  0.96737350759E+02 -0.21015532036E+03  0.24625020118E+03  0.80766921770E+02 0.  0.
         24    2    4    4    0    0 -0.59616766403E+03 -0.42689888186E+03  0.55574252798E+03  0.92345542395E+03  0.79130421814E+02 0.  0.
         11    1    3    3    0    0  0.79461342553E+02  0.42301367763E+02 -0.29342598865E+01  0.90067311251E+02  0.00000000000E+00 0. -1.
        -11    1    3    3    0    0  0.49236515838E+03  0.28786016334E+03  0.21283147924E+03  0.60875624135E+03  0.00000000000E+00 0.  1.
          2    1    6    6  502    0 -0.23508877012E+03 -0.17403567060E+03  0.27048871176E+03  0.39839589314E+03  0.00000000000E+00 0. -1.
          3    1    5    5  503    0  0.16369934547E+02  0.22190588317E+01 -0.95135049793E+00  0.16547025320E+02  0.00000000000E+00 0. -1.
         -4    1    5    5    0  503  0.79712285462E+01  0.94518291927E+02 -0.20920396986E+03  0.22970317585E+03  0.00000000000E+00 0.  1.
         -1    1    6    6    0  502 -0.36107889390E+03 -0.25286321126E+03  0.28525381622E+03  0.52505953082E+03  0.00000000000E+00 0.  1.
<mgrwt>
<rscale>  0 0.17840511E+04</rscale>
<asrwt>0</asrwt>
<pdfrwt beam="1">  1        1 0.10100344E+00 0.17840511E+04</pdfrwt>
<pdfrwt beam="2">  1       -1 0.18646258E+00 0.17840511E+04</pdfrwt>
<totfact> 0.53056213E+00</totfact>
</mgrwt>
</event>
<event>
12    1  0.1494110E-007  0.2895706E+04  0.7818608E-02  0.8274156E-01
         -1   -1    0    0    0  501 -0.00000000000E+00  0.00000000000E+00  0.72594499381E+03  0.72594499381E+03  0.00000000000E+00 0.  1.
          1   -1    0    0  501    0  0.00000000000E+00 -0.00000000000E+00 -0.28876552554E+04  0.28876552554E+04  0.00000000000E+00 0. -1.
         23    2    1    2    0    0 -0.12384927049E+04 -0.41163497840E+03 -0.93851980466E+03  0.16104654829E+04  0.97324777289E+02 0.  0.
        254    2    1    2    0    0  0.12384927049E+04  0.41163497840E+03 -0.12231904570E+04  0.20031347664E+04  0.90169089081E+03 0.  0.
        -24    2    4    4    0    0  0.87802680017E+02  0.13092627979E+03  0.11789109606E+03  0.21208105288E+03  0.78924401184E+02 0.  0.
         24    2    4    4    0    0  0.11506900249E+04  0.28070869861E+03 -0.13410815530E+04  0.17910537135E+04  0.80552875643E+02 0.  0.
         11    1    3    3    0    0 -0.10982116986E+04 -0.36734537011E+03 -0.86866706883E+03  0.14476166732E+04  0.00000000000E+00 0.  1.
        -11    1    3    3    0    0 -0.14028100630E+03 -0.44289608283E+02 -0.69852735834E+02  0.16284880974E+03  0.00000000000E+00 0. -1.
          4    1    6    6  502    0  0.10726230384E+04  0.27033190092E+03 -0.12773713437E+04  0.16897565117E+04  0.00000000000E+00 0. -1.
          3    1    5    5  503    0  0.36235599230E+02  0.11679778850E+03  0.89509419677E+02  0.15154761054E+03  0.00000000000E+00 0. -1.
         -4    1    5    5    0  503  0.51567080787E+02  0.14128491292E+02  0.28381676384E+02  0.60533442339E+02  0.00000000000E+00 0.  1.
         -3    1    6    6    0  502  0.78066986514E+02  0.10376797682E+02 -0.63710209356E+02  0.10129720179E+03  0.00000000000E+00 0.  1.
<mgrwt>
<rscale>  0 0.28957064E+04</rscale>
<asrwt>0</asrwt>
<pdfrwt beam="1">  1        1 0.44425466E+00 0.28957064E+04</pdfrwt>
<pdfrwt beam="2">  1       -1 0.11168384E+00 0.28957064E+04</pdfrwt>
<totfact> 0.45552692E-01</totfact>
</mgrwt>
</event>
<event>
12    1  0.1494110E-007  0.1529444E+04  0.7818608E-02  0.8865106E-01
         -1   -1    0    0    0  501 -0.00000000000E+00  0.00000000000E+00  0.12023339045E+04  0.12023339045E+04  0.00000000000E+00 0.  1.
          1   -1    0    0  501    0  0.00000000000E+00 -0.00000000000E+00 -0.48638730748E+03  0.48638730748E+03  0.00000000000E+00 0. -1.
         23    2    1    2    0    0  0.11842076707E+03  0.38578903668E+03  0.53993355963E+03  0.68009730176E+03  0.90263127332E+02 0.  0.
        254    2    1    2    0    0 -0.11842076707E+03 -0.38578903668E+03  0.17601303738E+03  0.10086239102E+04  0.90746071211E+03 0.  0.
        -24    2    4    4    0    0  0.84084290823E+02 -0.17466719981E+03 -0.34653743709E+03  0.40423340338E+03  0.75747280131E+02 0.  0.
         24    2    4    4    0    0 -0.20250505789E+03 -0.21112183688E+03  0.52255047447E+03  0.60439050683E+03  0.81536236691E+02 0.  0.
         13    1    3    3    0    0 -0.62062642900E+01  0.11659170585E+03  0.16003651029E+03  0.19810055078E+03  0.00000000000E+00 0. -1.
        -13    1    3    3    0    0  0.12462703136E+03  0.26919733083E+03  0.37989704933E+03  0.48199675099E+03  0.00000000000E+00 0.  1.
          4    1    6    6  502    0 -0.16861110881E+03 -0.20780250103E+03  0.48316964692E+03  0.55232643713E+03  0.00000000000E+00 0. -1.
          1    1    5    5  503    0  0.66197902926E+02 -0.12777145303E+03 -0.31117044878E+03  0.34283342129E+03  0.00000000000E+00 0. -1.
         -2    1    5    5    0  503  0.17886387897E+02 -0.46895746775E+02 -0.35366988314E+02  0.61399982084E+02  0.00000000000E+00 0.  1.
         -1    1    6    6    0  502 -0.33893949080E+02 -0.33193358503E+01  0.39380827549E+02  0.52064069694E+02  0.00000000000E+00 0.  1.
<mgrwt>
<rscale>  0 0.15294443E+04</rscale>
<asrwt>0</asrwt>
<pdfrwt beam="1">  1        1 0.74828817E-01 0.15294443E+04</pdfrwt>
<pdfrwt beam="2">  1       -1 0.18497445E+00 0.15294443E+04</pdfrwt>
<totfact> 0.85188391E+00</totfact>
</mgrwt>
</event>
<event>
12    1  0.1494110E-007  0.2010676E+04  0.7818608E-02  0.8601646E-01
         -2   -1    0    0    0  501 -0.00000000000E+00  0.00000000000E+00  0.91753519498E+03  0.91753519498E+03  0.00000000000E+00 0.  1.
          2   -1    0    0  501    0  0.00000000000E+00 -0.00000000000E+00 -0.11015427105E+04  0.11015427105E+04  0.00000000000E+00 0. -1.
         23    2    1    2    0    0  0.43798732466E+03 -0.36158668484E+03  0.48888346176E+03  0.75471447712E+03  0.89493438724E+02 0.  0.
        254    2    1    2    0    0 -0.43798732466E+03  0.36158668484E+03 -0.67289097724E+03  0.12643634283E+04  0.90733388806E+03 0.  0.
        -24    2    4    4    0    0 -0.45739285194E+03 -0.25274051709E+02  0.21183927611E+02  0.46550261525E+03  0.79980793447E+02 0.  0.
         24    2    4    4    0    0  0.19405527277E+02  0.38686073655E+03 -0.69407490485E+03  0.79886081308E+03  0.80005132014E+02 0.  0.
         13    1    3    3    0    0  0.33935261433E+03 -0.26356047119E+03  0.41444666975E+03  0.59698438915E+03  0.00000000000E+00 0.  1.
        -13    1    3    3    0    0  0.98634710327E+02 -0.98026213657E+02  0.74436792007E+02  0.15773008797E+03  0.00000000000E+00 0. -1.
          4    1    6    6  502    0 -0.22938642226E+02  0.52115692874E+02 -0.12332247308E+03  0.13583320329E+03  0.00000000000E+00 0. -1.
          3    1    5    5  503    0 -0.77206350933E+02  0.25286981680E+02 -0.20254651330E+01  0.81267180189E+02  0.00000000000E+00 0. -1.
         -4    1    5    5    0  503 -0.38018650100E+03 -0.50561033389E+02  0.23209392744E+02  0.38423543506E+03  0.00000000000E+00 0.  1.
         -3    1    6    6    0  502  0.42344169503E+02  0.33474504368E+03 -0.57075243178E+03  0.66302760978E+03  0.00000000000E+00 0.  1.
<mgrwt>
<rscale>  0 0.20106757E+04</rscale>
<asrwt>0</asrwt>
<pdfrwt beam="1">  1        2 0.16946811E+00 0.20106757E+04</pdfrwt>
<pdfrwt beam="2">  1       -2 0.14115926E+00 0.20106757E+04</pdfrwt>
<totfact> 0.70937323E+00</totfact>
</mgrwt>
</event>
<event>
12    1  0.1494110E-007  0.1161504E+04  0.7818608E-02  0.9147236E-01
         -2   -1    0    0    0  501 -0.00000000000E+00  0.00000000000E+00  0.39333369856E+03  0.39333369856E+03  0.00000000000E+00 0.  1.
          2   -1    0    0  501    0  0.00000000000E+00 -0.00000000000E+00 -0.85747191066E+03  0.85747191066E+03  0.00000000000E+00 0. -1.
         23    2    1    2    0    0  0.18404700536E+03 -0.10247647627E+03 -0.15132791775E+03  0.27439593118E+03  0.89544737357E+02 0.  0.
        254    2    1    2    0    0 -0.18404700536E+03  0.10247647627E+03 -0.31281029434E+03  0.97640967803E+03  0.90063913458E+03 0.  0.
        -24    2    4    4    0    0 -0.46174219438E+03 -0.16378455809E+02 -0.43638135369E+03  0.64058673797E+03  0.80303020706E+02 0.  0.
         24    2    4    4    0    0  0.27769518902E+03  0.11885493208E+03  0.12357105935E+03  0.33582294006E+03  0.79158874950E+02 0.  0.
         11    1    3    3    0    0  0.11194623755E+03 -0.14188630388E+02 -0.93677188814E+02  0.14665842300E+03  0.00000000000E+00 0. -1.
        -11    1    3    3    0    0  0.72100767811E+02 -0.88287845879E+02 -0.57650728941E+02  0.12773750818E+03  0.00000000000E+00 0.  1.
          2    1    6    6  502    0  0.25437121546E+03  0.12830522066E+03  0.12385452761E+03  0.31065557923E+03  0.00000000000E+00 0. -1.
          3    1    5    5  503    0 -0.44248994573E+03 -0.97776015492E+01 -0.43436651895E+03  0.62013484529E+03  0.00000000000E+00 0. -1.
         -4    1    5    5    0  503 -0.19252248649E+02 -0.66008542600E+01 -0.20148347360E+01  0.20451892676E+02  0.00000000000E+00 0.  1.
         -1    1    6    6    0  502  0.23323973560E+02 -0.94502885802E+01 -0.28346826093E+00  0.25167360829E+02  0.00000000000E+00 0.  1.
<mgrwt>
<rscale>  0 0.11615035E+04</rscale>
<asrwt>0</asrwt>
<pdfrwt beam="1">  1        2 0.13191875E+00 0.11615035E+04</pdfrwt>
<pdfrwt beam="2">  1       -2 0.60512877E-01 0.11615035E+04</pdfrwt>
<totfact> 0.78926603E+01</totfact>
</mgrwt>
</event>
<event>
12    1  0.1494110E-007  0.1845174E+04  0.7818608E-02  0.8682639E-01
          1   -1    0    0  501    0  0.00000000000E+00  0.00000000000E+00  0.20162445156E+04  0.20162445156E+04  0.00000000000E+00 0. -1.
         -1   -1    0    0    0  501 -0.00000000000E+00 -0.00000000000E+00 -0.42215435448E+03  0.42215435448E+03  0.00000000000E+00 0.  1.
         23    2    1    2    0    0 -0.10460254766E+03 -0.53910790740E+03  0.11798133859E+04  0.13045837591E+04  0.91652223656E+02 0.  0.
        254    2    1    2    0    0  0.10460254766E+03  0.53910790740E+03  0.41427677521E+03  0.11338151110E+04  0.90129486331E+03 0.  0.
        -24    2    4    4    0    0  0.31638091660E+03  0.14648198919E+02 -0.12242548896E+03  0.34992127339E+03  0.84530722843E+02 0.  0.
         24    2    4    4    0    0 -0.21177836894E+03  0.52445970848E+03  0.53670226417E+03  0.78389383760E+03  0.80821809527E+02 0.  0.
         13    1    3    3    0    0 -0.10815856614E+03 -0.40105707537E+03  0.82070908073E+03  0.91984153436E+03  0.00000000000E+00 0.  1.
        -13    1    3    3    0    0  0.35560184838E+01 -0.13805083203E+03  0.35910430515E+03  0.38474222470E+03  0.00000000000E+00 0. -1.
          2    1    6    6  502    0  0.54528111757E+01  0.77499183045E+01  0.30187677074E+01  0.99452170372E+01  0.00000000000E+00 0. -1.
          1    1    5    5  503    0  0.75573812495E+02  0.26617932388E+02 -0.62133354116E+02  0.10139264842E+03  0.00000000000E+00 0. -1.
         -2    1    5    5    0  503  0.24080710410E+03 -0.11969733469E+02 -0.60292134842E+02  0.24852862497E+03  0.00000000000E+00 0.  1.
         -1    1    6    6    0  502 -0.21723118012E+03  0.51670979018E+03  0.53368349646E+03  0.77394862057E+03  0.00000000000E+00 0.  1.
<mgrwt>
<rscale>  0 0.18451736E+04</rscale>
<asrwt>0</asrwt>
<pdfrwt beam="1">  1        1 0.31019146E+00 0.18451736E+04</pdfrwt>
<pdfrwt beam="2">  1       -1 0.64946825E-01 0.18451736E+04</pdfrwt>
<totfact> 0.65645612E+00</totfact>
</mgrwt>
</event>
<event>
12    1  0.1494110E-007  0.1502967E+04  0.7818608E-02  0.8882483E-01
         -1   -1    0    0    0  501 -0.00000000000E+00  0.00000000000E+00  0.44751171787E+03  0.44751171787E+03  0.00000000000E+00 0.  1.
          1   -1    0    0  501    0  0.00000000000E+00 -0.00000000000E+00 -0.12619271357E+04  0.12619271357E+04  0.00000000000E+00 0. -1.
         23    2    1    2    0    0  0.22177681215E+03 -0.25626183339E+03 -0.59758692686E+03  0.69296417759E+03  0.90742132526E+02 0.  0.
        254    2    1    2    0    0 -0.22177681215E+03  0.25626183339E+03 -0.21682849099E+03  0.10164746760E+04  0.93346188502E+03 0.  0.
        -24    2    4    4    0    0 -0.52093035180E+03  0.22625019952E+03  0.87193962921E+02  0.58013430669E+03  0.79971510064E+02 0.  0.
         24    2    4    4    0    0  0.29915353965E+03  0.30011633873E+02 -0.30402245392E+03  0.43634036931E+03  0.87004177820E+02 0.  0.
         11    1    3    3    0    0  0.19473564650E+03 -0.25756540822E+03 -0.56323082566E+03  0.64922328555E+03  0.00000000000E+00 0. -1.
        -11    1    3    3    0    0  0.27041165648E+02  0.13035748302E+01 -0.34356101199E+02  0.43740892041E+02  0.00000000000E+00 0.  1.
          2    1    6    6  502    0  0.36031334831E+02 -0.39505989408E+01 -0.84656990678E+02  0.92090555392E+02  0.00000000000E+00 0. -1.
          1    1    5    5  503    0 -0.42913195536E+03  0.15613182214E+03  0.53313300380E+02  0.45975394397E+03  0.00000000000E+00 0. -1.
         -2    1    5    5    0  503 -0.91798396433E+02  0.70118377379E+02  0.33880662541E+02  0.12038036272E+03  0.00000000000E+00 0.  1.
         -1    1    6    6    0  502  0.26312220482E+03  0.33962232813E+02 -0.21936546324E+03  0.34424981392E+03  0.00000000000E+00 0.  1.
<mgrwt>
<rscale>  0 0.15029666E+04</rscale>
<asrwt>0</asrwt>
<pdfrwt beam="1">  1        1 0.19414264E+00 0.15029666E+04</pdfrwt>
<pdfrwt beam="2">  1       -1 0.68847957E-01 0.15029666E+04</pdfrwt>
<totfact> 0.19889654E+01</totfact>
</mgrwt>
</event>
<event>
12    1  0.1494110E-007  0.1633340E+04  0.7818608E-02  0.8800324E-01
         -2   -1    0    0    0  501 -0.00000000000E+00  0.00000000000E+00  0.29448591289E+03  0.29448591289E+03  0.00000000000E+00 0. -1.
          2   -1    0    0  501    0  0.00000000000E+00 -0.00000000000E+00 -0.22647947832E+04  0.22647947832E+04  0.00000000000E+00 0.  1.
         23    2    1    2    0    0  0.49398934897E+03 -0.12378497592E+03 -0.11128702652E+04  0.12273478054E+04  0.92488978123E+02 0.  0.
        254    2    1    2    0    0 -0.49398934897E+03  0.12378497592E+03 -0.85743860513E+03  0.13319328907E+04  0.88289074446E+03 0.  0.
        -24    2    4    4    0    0 -0.29980569315E+03  0.31103127763E+03 -0.94093432014E+03  0.10383542723E+04  0.78729224163E+02 0.  0.
         24    2    4    4    0    0 -0.19418365582E+03 -0.18724630171E+03  0.83495715008E+02  0.29357861839E+03  0.80301936826E+02 0.  0.
         11    1    3    3    0    0  0.11756716106E+03 -0.58834493682E+02 -0.35706850882E+03  0.38050158343E+03  0.00000000000E+00 0.  1.
        -11    1    3    3    0    0  0.37642218791E+03 -0.64950482234E+02 -0.75580175642E+03  0.84684622199E+03  0.00000000000E+00 0. -1.
          4    1    6    6  502    0 -0.17832796578E+03 -0.13849246995E+03  0.87508638983E+02  0.24215447448E+03  0.00000000000E+00 0. -1.
          1    1    5    5  503    0 -0.23516804174E+03  0.25959797039E+03 -0.82227913573E+03  0.89377742819E+03  0.00000000000E+00 0. -1.
         -2    1    5    5    0  503 -0.64637651411E+02  0.51433307237E+02 -0.11865518440E+03  0.14457684413E+03  0.00000000000E+00 0.  1.
         -3    1    6    6    0  502 -0.15855690035E+02 -0.48753831763E+02 -0.40129239751E+01  0.51424143910E+02  0.00000000000E+00 0.  1.
<mgrwt>
<rscale>  0 0.16333403E+04</rscale>
<asrwt>0</asrwt>
<pdfrwt beam="1">  1        2 0.34842997E+00 0.16333403E+04</pdfrwt>
<pdfrwt beam="2">  1       -2 0.45305525E-01 0.16333403E+04</pdfrwt>
<totfact> 0.20995273E+01</totfact>
</mgrwt>
</event>
<event>
12    1  0.1494110E-007  0.1639243E+04  0.7818608E-02  0.8796796E-01
          2   -1    0    0  501    0  0.00000000000E+00  0.00000000000E+00  0.10445175789E+04  0.10445175789E+04  0.00000000000E+00 0. -1.
         -2   -1    0    0    0  501 -0.00000000000E+00 -0.00000000000E+00 -0.64314778271E+03  0.64314778271E+03  0.00000000000E+00 0.  1.
         23    2    1    2    0    0  0.52727488853E+03 -0.18519738062E+03  0.38261592605E+02  0.56769367552E+03  0.92169853446E+02 0.  0.
        254    2    1    2    0    0 -0.52727488853E+03  0.18519738062E+03  0.36310820363E+03  0.11199716861E+04  0.90009562400E+03 0.  0.
        -24    2    4    4    0    0 -0.75792886625E+03  0.75638367792E+02  0.15226791462E+03  0.78079823103E+03  0.79265571240E+02 0.  0.
         24    2    4    4    0    0  0.23065397772E+03  0.10955901283E+03  0.21084028901E+03  0.33917345510E+03  0.73352371783E+02 0.  0.
         11    1    3    3    0    0  0.19856546935E+03 -0.24165579617E+02  0.22900631086E+02  0.20133717928E+03  0.00000000000E+00 0. -1.
        -11    1    3    3    0    0  0.32870941919E+03 -0.16103180101E+03  0.15360961519E+02  0.36635649624E+03  0.00000000000E+00 0.  1.
          2    1    6    6  502    0  0.73885767273E+02  0.29435317379E+01  0.79276785771E+02  0.10840931578E+03  0.00000000000E+00 0. -1.
          1    1    5    5  503    0 -0.44175030175E+03  0.73444774288E+02  0.62786740020E+02  0.45219424885E+03  0.00000000000E+00 0. -1.
         -2    1    5    5    0  503 -0.31617856450E+03  0.21935935042E+01  0.89481174599E+02  0.32860398219E+03  0.00000000000E+00 0.  1.
         -1    1    6    6    0  502  0.15676821044E+03  0.10661548109E+03  0.13156350324E+03  0.23076413933E+03  0.00000000000E+00 0.  1.
<mgrwt>
<rscale>  0 0.16392427E+04</rscale>
<asrwt>0</asrwt>
<pdfrwt beam="1">  1        2 0.16069501E+00 0.16392427E+04</pdfrwt>
<pdfrwt beam="2">  1       -2 0.98945812E-01 0.16392427E+04</pdfrwt>
<totfact> 0.19110276E+01</totfact>
</mgrwt>
</event>
<event>
12    1  0.1494110E-007  0.2667675E+04  0.7818608E-02  0.8345570E-01
          2   -1    0    0  501    0  0.00000000000E+00  0.00000000000E+00  0.37937656313E+04  0.37937656313E+04  0.00000000000E+00 0. -1.
         -2   -1    0    0    0  501 -0.00000000000E+00 -0.00000000000E+00 -0.46895935868E+03  0.46895935868E+03  0.00000000000E+00 0.  1.
         23    2    1    2    0    0  0.52589335694E+02 -0.94360121179E+03  0.38505354959E+03  0.10242370972E+04  0.87444325392E+02 0.  0.
        254    2    1    2    0    0 -0.52589335694E+02  0.94360121179E+03  0.29397527230E+04  0.32384878928E+04  0.97596561120E+03 0.  0.
        -24    2    4    4    0    0 -0.25738594859E+03 -0.31566154424E+02  0.12096956045E+04  0.12404046468E+04  0.89421941695E+02 0.  0.
         24    2    4    4    0    0  0.20479661290E+03  0.97516736621E+03  0.17300571185E+04  0.19980832459E+04  0.79661658163E+02 0.  0.
         13    1    3    3    0    0  0.55189290422E+02 -0.40948733560E+03  0.19924540040E+03  0.45872046540E+03  0.00000000000E+00 0. -1.
        -13    1    3    3    0    0 -0.25999547279E+01 -0.53411387619E+03  0.18580814919E+03  0.56551663177E+03  0.00000000000E+00 0.  1.
          4    1    6    6  502    0  0.20416483059E+03  0.97549634268E+03  0.17191054458E+04  0.19871084335E+04  0.00000000000E+00 0. -1.
          1    1    5    5  503    0 -0.22120348875E+03 -0.18909289082E+02  0.84420056248E+03  0.87290499732E+03  0.00000000000E+00 0. -1.
         -2    1    5    5    0  503 -0.36182459845E+02 -0.12656865341E+02  0.36549504204E+03  0.36749964952E+03  0.00000000000E+00 0.  1.
         -3    1    6    6    0  502  0.63178231292E+00 -0.32897646873E+00  0.10951672657E+02  0.10974812454E+02  0.00000000000E+00 0.  1.
<mgrwt>
<rscale>  0 0.26676746E+04</rscale>
<asrwt>0</asrwt>
<pdfrwt beam="1">  1        2 0.58365623E+00 0.26676746E+04</pdfrwt>
<pdfrwt beam="2">  1       -2 0.72147596E-01 0.26676746E+04</pdfrwt>
<totfact> 0.76061679E-01</totfact>
</mgrwt>
</event>
<event>
12    1  0.1494110E-007  0.2313092E+04  0.7818608E-02  0.8472777E-01
         -1   -1    0    0    0  501 -0.00000000000E+00  0.00000000000E+00  0.97184618443E+03  0.97184618443E+03  0.00000000000E+00 0.  1.
          1   -1    0    0  501    0  0.00000000000E+00 -0.00000000000E+00 -0.13763475648E+04  0.13763475648E+04  0.00000000000E+00 0. -1.
         23    2    1    2    0    0  0.41774784115E+03 -0.21766620970E+02  0.72581812876E+03  0.84276524591E+03  0.91947045071E+02 0.  0.
        254    2    1    2    0    0 -0.41774784115E+03  0.21766620970E+02 -0.11303195091E+04  0.15054285033E+04  0.90205639587E+03 0.  0.
        -24    2    4    4    0    0 -0.23271910240E+03  0.43091152690E+03 -0.80527229177E+03  0.94550815891E+03  0.75361064346E+02 0.  0.
         24    2    4    4    0    0 -0.18502873876E+03 -0.40914490593E+03 -0.32504721736E+03  0.55992034443E+03  0.78866408368E+02 0.  0.
         13    1    3    3    0    0  0.95411652505E+02 -0.50862712874E+01  0.25155070119E+03  0.26908550474E+03  0.00000000000E+00 0. -1.
        -13    1    3    3    0    0  0.32233618865E+03 -0.16680349682E+02  0.47426742756E+03  0.57367974117E+03  0.00000000000E+00 0.  1.
          4    1    6    6  502    0 -0.95518529836E+02 -0.29561218063E+03 -0.23583248247E+03  0.39003501210E+03  0.00000000000E+00 0. -1.
          3    1    5    5  503    0 -0.19021227894E+03  0.35206528695E+03 -0.59605627939E+03  0.71792323095E+03  0.00000000000E+00 0. -1.
         -4    1    5    5    0  503 -0.42506823455E+02  0.78846239952E+02 -0.20921601239E+03  0.22758492796E+03  0.00000000000E+00 0.  1.
         -3    1    6    6    0  502 -0.89510208922E+02 -0.11353272530E+03 -0.89214734891E+02  0.16988533232E+03  0.00000000000E+00 0.  1.
<mgrwt>
<rscale>  0 0.23130915E+04</rscale>
<asrwt>0</asrwt>
<pdfrwt beam="1">  1        1 0.21174578E+00 0.23130915E+04</pdfrwt>
<pdfrwt beam="2">  1       -1 0.14951480E+00 0.23130915E+04</pdfrwt>
<totfact> 0.25370848E+00</totfact>
</mgrwt>
</event>
<event>
12    1  0.1494110E-007  0.1902997E+04  0.7818608E-02  0.8653366E-01
          1   -1    0    0  501    0  0.00000000000E+00  0.00000000000E+00  0.10196862308E+04  0.10196862308E+04  0.00000000000E+00 0. -1.
         -1   -1    0    0    0  501 -0.00000000000E+00 -0.00000000000E+00 -0.88787059409E+03  0.88787059409E+03  0.00000000000E+00 0.  1.
         23    2    1    2    0    0  0.42778439653E+03  0.52328362475E+03  0.35087603833E+03  0.76683493238E+03  0.89980983446E+02 0.  0.
        254    2    1    2    0    0 -0.42778439653E+03 -0.52328362475E+03 -0.21906040158E+03  0.11407218925E+04  0.89243136136E+03 0.  0.
        -24    2    4    4    0    0  0.24909507434E+01 -0.62048493909E+03 -0.28575613128E+03  0.68763834962E+03  0.78626769137E+02 0.  0.
         24    2    4    4    0    0 -0.43027534728E+03  0.97201314338E+02  0.66695729692E+02  0.45308354293E+03  0.79065836712E+02 0.  0.
         11    1    3    3    0    0  0.23621747602E+03  0.22399892474E+03  0.18821658260E+03  0.37603150962E+03  0.00000000000E+00 0.  1.
        -11    1    3    3    0    0  0.19156692051E+03  0.29928470002E+03  0.16265945574E+03  0.39080342276E+03  0.00000000000E+00 0. -1.
          4    1    6    6  502    0 -0.40292239200E+03  0.74258367529E+02  0.47232356526E+02  0.41242169514E+03  0.00000000000E+00 0. -1.
          3    1    5    5  503    0  0.30618158876E+01 -0.52795999256E+03 -0.27257134627E+03  0.59417696629E+03  0.00000000000E+00 0. -1.
         -4    1    5    5    0  503 -0.57086514414E+00 -0.92524946531E+02 -0.13184785005E+02  0.93461383326E+02  0.00000000000E+00 0.  1.
         -3    1    6    6    0  502 -0.27352955279E+02  0.22942946809E+02  0.19463373166E+02  0.40661847791E+02  0.00000000000E+00 0.  1.
<mgrwt>
<rscale>  0 0.19029970E+04</rscale>
<asrwt>0</asrwt>
<pdfrwt beam="1">  1        1 0.15687480E+00 0.19029970E+04</pdfrwt>
<pdfrwt beam="2">  1       -1 0.13659548E+00 0.19029970E+04</pdfrwt>
<totfact> 0.61064198E+00</totfact>
</mgrwt>
</event>
<event>
12    1  0.1494110E-007  0.1574350E+04  0.7818608E-02  0.8836462E-01
          2   -1    0    0  501    0  0.00000000000E+00  0.00000000000E+00  0.33165351702E+04  0.33165351702E+04  0.00000000000E+00 0.  1.
         -2   -1    0    0    0  501 -0.00000000000E+00 -0.00000000000E+00 -0.18683493738E+03  0.18683493738E+03  0.00000000000E+00 0. -1.
         23    2    1    2    0    0  0.26778033479E+03 -0.43544114220E+03  0.75669918667E+03  0.91528950878E+03  0.62015560576E+02 0.  0.
        254    2    1    2    0    0 -0.26778033479E+03  0.43544114220E+03  0.23730010461E+04  0.25880805988E+04  0.89761457477E+03 0.  0.
        -24    2    4    4    0    0 -0.25419274330E+03  0.49577683270E+03  0.64063547378E+03  0.85276437928E+03  0.79904053098E+02 0.  0.
         24    2    4    4    0    0 -0.13587591492E+02 -0.60335690503E+02  0.17323655723E+04  0.17353162195E+04  0.80043033652E+02 0.  0.
         11    1    3    3    0    0  0.22754874210E+03 -0.35642476496E+03  0.58232653863E+03  0.71966745146E+03  0.00000000000E+00 0. -1.
        -11    1    3    3    0    0  0.40231592691E+02 -0.79016377240E+02  0.17437264804E+03  0.19562205732E+03  0.00000000000E+00 0.  1.
          2    1    6    6  502    0 -0.16900790705E+02 -0.18712705490E+02  0.14139267162E+04  0.14141515339E+04  0.00000000000E+00 0. -1.
          3    1    5    5  503    0 -0.21058946172E+03  0.46082758554E+03  0.56842936774E+03  0.76146039365E+03  0.00000000000E+00 0. -1.
         -4    1    5    5    0  503 -0.43603281579E+02  0.34949247157E+02  0.72206106048E+02  0.91303985629E+02  0.00000000000E+00 0.  1.
         -3    1    6    6    0  502  0.33131992135E+01 -0.41622985014E+02  0.31843885617E+03  0.32116468562E+03  0.00000000000E+00 0.  1.
<mgrwt>
<rscale>  0 0.15743502E+04</rscale>
<asrwt>0</asrwt>
<pdfrwt beam="1">  1        2 0.51023613E+00 0.15743502E+04</pdfrwt>
<pdfrwt beam="2">  1       -2 0.28743839E-01 0.15743502E+04</pdfrwt>
<totfact> 0.11700568E+01</totfact>
</mgrwt>
</event>
<event>
12    1  0.1494110E-007  0.1979855E+04  0.7818608E-02  0.8616097E-01
          1   -1    0    0  501    0  0.00000000000E+00  0.00000000000E+00  0.15194525214E+04  0.15194525214E+04  0.00000000000E+00 0. -1.
         -1   -1    0    0    0  501 -0.00000000000E+00 -0.00000000000E+00 -0.64494039376E+03  0.64494039376E+03  0.00000000000E+00 0.  1.
         23    2    1    2    0    0  0.62308507540E+03  0.47449997131E+03  0.31427317390E+03  0.84883423487E+03  0.91469647905E+02 0.  0.
        254    2    1    2    0    0 -0.62308507540E+03 -0.47449997131E+03  0.56023895372E+03  0.13155586803E+04  0.89634910723E+03 0.  0.
        -24    2    4    4    0    0 -0.64569333389E+03 -0.66587068657E+03  0.29524622744E+03  0.97627649952E+03  0.75112023182E+02 0.  0.
         24    2    4    4    0    0  0.22608258492E+02  0.19137071526E+03  0.26499272628E+03  0.33928218076E+03  0.88075928547E+02 0.  0.
         11    1    3    3    0    0  0.31356121718E+03  0.23471240376E+03  0.10805401817E+03  0.40630803615E+03  0.00000000000E+00 0. -1.
        -11    1    3    3    0    0  0.30952385823E+03  0.23978756755E+03  0.20621915573E+03  0.44252619872E+03  0.00000000000E+00 0.  1.
          2    1    6    6  502    0  0.38179243394E+02  0.13051683634E+03  0.23049102988E+03  0.26761616926E+03  0.00000000000E+00 0. -1.
          1    1    5    5  503    0 -0.31498203827E+03 -0.37146141720E+03  0.13492086522E+03  0.50537204985E+03  0.00000000000E+00 0. -1.
         -2    1    5    5    0  503 -0.33071129562E+03 -0.29440926937E+03  0.16032536222E+03  0.47090444966E+03  0.00000000000E+00 0.  1.
         -1    1    6    6    0  502 -0.15570984902E+02  0.60853878915E+02  0.34501696406E+02  0.71666011503E+02  0.00000000000E+00 0.  1.
<mgrwt>
<rscale>  0 0.19798549E+04</rscale>
<asrwt>0</asrwt>
<pdfrwt beam="1">  1        1 0.23376193E+00 0.19798549E+04</pdfrwt>
<pdfrwt beam="2">  1       -1 0.99221599E-01 0.19798549E+04</pdfrwt>
<totfact> 0.57177967E+00</totfact>
</mgrwt>
</event>
<event>
12    1  0.1494110E-007  0.2653881E+04  0.7818608E-02  0.8350126E-01
         -2   -1    0    0    0  501 -0.00000000000E+00  0.00000000000E+00  0.15228303017E+04  0.15228303017E+04  0.00000000000E+00 0. -1.
          2   -1    0    0  501    0  0.00000000000E+00 -0.00000000000E+00 -0.11562490885E+04  0.11562490885E+04  0.00000000000E+00 0.  1.
         23    2    1    2    0    0  0.43060124065E+03 -0.80567913624E+03  0.89703067111E+03  0.12835195246E+04  0.90675499530E+02 0.  0.
        254    2    1    2    0    0 -0.43060124065E+03  0.80567913624E+03 -0.53044945791E+03  0.13955598656E+04  0.91196184795E+03 0.  0.
        -24    2    4    4    0    0 -0.53808653373E+03  0.93795721619E+03 -0.53065663328E+03  0.12071806785E+04  0.79924157922E+02 0.  0.
         24    2    4    4    0    0  0.10748529307E+03 -0.13227807995E+03  0.20717536376E+00  0.18837918708E+03  0.80225286172E+02 0.  0.
         13    1    3    3    0    0  0.39524525921E+03 -0.76260518220E+03  0.86602730849E+03  0.12197494734E+04  0.00000000000E+00 0.  1.
        -13    1    3    3    0    0  0.35355981444E+02 -0.43073954037E+02  0.31003362621E+02  0.63770051231E+02  0.00000000000E+00 0. -1.
          4    1    6    6  502    0  0.11813918147E+03 -0.10568602384E+03  0.79243952073E+01  0.15871105151E+03  0.00000000000E+00 0. -1.
          1    1    5    5  503    0 -0.48629610708E+03  0.81846051837E+03 -0.49009781403E+03  0.10707742018E+04  0.00000000000E+00 0. -1.
         -2    1    5    5    0  503 -0.51790426651E+02  0.11949669782E+03 -0.40558819248E+02  0.13640647676E+03  0.00000000000E+00 0.  1.
         -3    1    6    6    0  502 -0.10653888393E+02 -0.26592056109E+02 -0.77172198435E+01  0.29668135568E+02  0.00000000000E+00 0.  1.
<mgrwt>
<rscale>  0 0.26538810E+04</rscale>
<asrwt>0</asrwt>
<pdfrwt beam="1">  1        2 0.17788448E+00 0.26538810E+04</pdfrwt>
<pdfrwt beam="2">  1       -2 0.23428158E+00 0.26538810E+04</pdfrwt>
<totfact> 0.14247439E+00</totfact>
</mgrwt>
</event>
<event>
12    1  0.1494110E-007  0.1724195E+04  0.7818608E-02  0.8747684E-01
          2   -1    0    0  501    0  0.00000000000E+00  0.00000000000E+00  0.82400432349E+03  0.82400432349E+03  0.00000000000E+00 0.  1.
         -2   -1    0    0    0  501 -0.00000000000E+00 -0.00000000000E+00 -0.90195195133E+03  0.90195195133E+03  0.00000000000E+00 0. -1.
         23    2    1    2    0    0 -0.43626034393E+03 -0.42545651157E+03 -0.13394058916E+03  0.63060331560E+03  0.91564891173E+02 0.  0.
        254    2    1    2    0    0  0.43626034393E+03  0.42545651157E+03  0.55992961320E+02  0.10953529592E+04  0.90847485525E+03 0.  0.
        -24    2    4    4    0    0  0.56505107703E+03  0.34990891762E+03 -0.27487691427E+03  0.72377567884E+03  0.81086034585E+02 0.  0.
         24    2    4    4    0    0 -0.12879073309E+03  0.75547593952E+02  0.33086987559E+03  0.37157728037E+03  0.79374484766E+02 0.  0.
         11    1    3    3    0    0 -0.55808471361E+02 -0.28032392733E+02  0.64955925604E+01  0.62790072788E+02  0.00000000000E+00 0.  1.
        -11    1    3    3    0    0 -0.38045187257E+03 -0.39742411884E+03 -0.14043618172E+03  0.56781324282E+03  0.00000000000E+00 0. -1.
          4    1    6    6  502    0 -0.53782879614E+02  0.89933237027E+00  0.17576190207E+03  0.18380874070E+03  0.00000000000E+00 0. -1.
          1    1    5    5  503    0  0.45232279729E+03  0.31580527141E+03 -0.22141509028E+03  0.59443546715E+03  0.00000000000E+00 0. -1.
         -2    1    5    5    0  503  0.11272827974E+03  0.34103646216E+02 -0.53461823991E+02  0.12934021170E+03  0.00000000000E+00 0.  1.
         -3    1    6    6    0  502 -0.75007853480E+02  0.74648261582E+02  0.15510797352E+03  0.18776853967E+03  0.00000000000E+00 0.  1.
<mgrwt>
<rscale>  0 0.17241952E+04</rscale>
<asrwt>0</asrwt>
<pdfrwt beam="1">  1        2 0.12676990E+00 0.17241952E+04</pdfrwt>
<pdfrwt beam="2">  1       -2 0.13876184E+00 0.17241952E+04</pdfrwt>
<totfact> 0.11553806E+01</totfact>
</mgrwt>
</event>
<event>
12    1  0.1494110E-007  0.1369475E+04  0.7818608E-02  0.8976215E-01
          2   -1    0    0  501    0  0.00000000000E+00  0.00000000000E+00  0.13832277642E+04  0.13832277642E+04  0.00000000000E+00 0.  1.
         -2   -1    0    0    0  501 -0.00000000000E+00 -0.00000000000E+00 -0.33896475052E+03  0.33896475052E+03  0.00000000000E+00 0. -1.
         23    2    1    2    0    0 -0.66618042961E+02  0.21804581064E+03  0.69281308127E+03  0.73503046706E+03  0.91092715155E+02 0.  0.
        254    2    1    2    0    0  0.66618042961E+02 -0.21804581064E+03  0.35144993246E+03  0.98716204770E+03  0.89386235752E+03 0.  0.
        -24    2    4    4    0    0  0.19649417324E+03 -0.52953747783E+03  0.26946551858E+03  0.63100290621E+03  0.80827602963E+02 0.  0.
         24    2    4    4    0    0 -0.12987613027E+03  0.31149166719E+03  0.81984413882E+02  0.35615914148E+03  0.78949490153E+02 0.  0.
         13    1    3    3    0    0 -0.50400316785E+02  0.66163727458E+02  0.15448913264E+03  0.17545575758E+03  0.00000000000E+00 0. -1.
        -13    1    3    3    0    0 -0.16217726176E+02  0.15188208318E+03  0.53832394862E+03  0.55957470948E+03  0.00000000000E+00 0.  1.
          4    1    6    6  502    0 -0.94519843138E+02  0.28193943017E+03  0.86947175151E+02  0.30981228881E+03  0.00000000000E+00 0. -1.
          1    1    5    5  503    0  0.10003334781E+03 -0.37308783204E+03  0.17002868160E+03  0.42203193440E+03  0.00000000000E+00 0. -1.
         -2    1    5    5    0  503  0.96460825422E+02 -0.15644964579E+03  0.99436836981E+02  0.20897097181E+03  0.00000000000E+00 0.  1.
         -3    1    6    6    0  502 -0.35356287136E+02  0.29552237026E+02 -0.49627612691E+01  0.46346852673E+02  0.00000000000E+00 0.  1.
<mgrwt>
<rscale>  0 0.13694750E+04</rscale>
<asrwt>0</asrwt>
<pdfrwt beam="1">  1        2 0.21280427E+00 0.13694750E+04</pdfrwt>
<pdfrwt beam="2">  1       -2 0.52148424E-01 0.13694750E+04</pdfrwt>
<totfact> 0.50085635E+01</totfact>
</mgrwt>
</event>
<event>
12    1  0.1494110E-007  0.2011305E+04  0.7818608E-02  0.8601354E-01
          1   -1    0    0  501    0  0.00000000000E+00  0.00000000000E+00  0.26672048315E+04  0.26672048315E+04  0.00000000000E+00 0. -1.
         -1   -1    0    0    0  501 -0.00000000000E+00 -0.00000000000E+00 -0.37917468524E+03  0.37917468524E+03  0.00000000000E+00 0.  1.
         23    2    1    2    0    0  0.24676609831E+03 -0.67398378355E+03  0.14332687785E+04  0.16055992800E+04  0.92422988874E+02 0.  0.
        254    2    1    2    0    0 -0.24676609831E+03  0.67398378355E+03  0.85476136777E+03  0.14407802367E+04  0.91108893468E+03 0.  0.
        -24    2    4    4    0    0 -0.33645296468E+03  0.73689893699E+03  0.96897079701E+03  0.12655280482E+04  0.80225896748E+02 0.  0.
         24    2    4    4    0    0  0.89686866374E+02 -0.62915153442E+02 -0.11420942924E+03  0.17525218852E+03  0.75282702670E+02 0.  0.
         13    1    3    3    0    0  0.85031330270E+02 -0.27281743156E+03  0.66786177402E+03  0.72642895543E+03  0.00000000000E+00 0. -1.
        -13    1    3    3    0    0  0.16173476804E+03 -0.40116635199E+03  0.76540700443E+03  0.87917032456E+03  0.00000000000E+00 0.  1.
          4    1    6    6  502    0  0.67910411802E+02 -0.12146756009E+02 -0.31616146795E+02  0.75887735839E+02  0.00000000000E+00 0. -1.
          3    1    5    5  503    0 -0.15614916786E+02  0.39277706286E+02  0.26640361973E+02  0.49962713330E+02  0.00000000000E+00 0. -1.
         -4    1    5    5    0  503 -0.32083804790E+03  0.69762123070E+03  0.94233043503E+03  0.12155653349E+04  0.00000000000E+00 0.  1.
         -1    1    6    6    0  502  0.21776454572E+02 -0.50768397433E+02 -0.82593282444E+02  0.99364452681E+02  0.00000000000E+00 0.  1.
<mgrwt>
<rscale>  0 0.20113046E+04</rscale>
<asrwt>0</asrwt>
<pdfrwt beam="1">  1        1 0.41033919E+00 0.20113046E+04</pdfrwt>
<pdfrwt beam="2">  1       -1 0.58334569E-01 0.20113046E+04</pdfrwt>
<totfact> 0.28586246E+00</totfact>
</mgrwt>
</event>
<event>
12    1  0.1494110E-007  0.1287008E+04  0.7818608E-02  0.9039932E-01
         -2   -1    0    0    0  501 -0.00000000000E+00  0.00000000000E+00  0.10686345213E+04  0.10686345213E+04  0.00000000000E+00 0.  1.
          2   -1    0    0  501    0  0.00000000000E+00 -0.00000000000E+00 -0.38750158217E+03  0.38750158217E+03  0.00000000000E+00 0. -1.
         23    2    1    2    0    0 -0.24427673139E+03 -0.14210018847E+03 -0.84251631109E+02  0.30765156803E+03  0.87678759696E+02 0.  0.
        254    2    1    2    0    0  0.24427673139E+03  0.14210018847E+03  0.76538457022E+03  0.11484845354E+04  0.80829425504E+03 0.  0.
        -24    2    4    4    0    0 -0.17215305399E+03 -0.13784281755E+03  0.54765003623E+03  0.59556990197E+03  0.78394066117E+02 0.  0.
         24    2    4    4    0    0  0.41642978538E+03  0.27994300602E+03  0.21773453399E+03  0.55291463346E+03  0.80773831359E+02 0.  0.
         11    1    3    3    0    0 -0.12869997139E+03 -0.48259110956E+02 -0.79315902960E+02  0.15869353133E+03  0.00000000000E+00 0. -1.
        -11    1    3    3    0    0 -0.11557676001E+03 -0.93841077519E+02 -0.49357281490E+01  0.14895803669E+03  0.00000000000E+00 0.  1.
          2    1    6    6  502    0  0.30766941032E+03  0.23521815662E+03  0.19314633801E+03  0.43277425424E+03  0.00000000000E+00 0. -1.
          3    1    5    5  503    0 -0.17578011545E+03 -0.14026512429E+03  0.54664314757E+03  0.59109363460E+03  0.00000000000E+00 0. -1.
         -4    1    5    5    0  503  0.36270614610E+01  0.24223067434E+01  0.10068886622E+01  0.44762673713E+01  0.00000000000E+00 0.  1.
         -1    1    6    6    0  502  0.10876037506E+03  0.44724849406E+02  0.24588195980E+02  0.12014037922E+03  0.00000000000E+00 0.  1.
<mgrwt>
<rscale>  0 0.12870083E+04</rscale>
<asrwt>0</asrwt>
<pdfrwt beam="1">  1        2 0.59615628E-01 0.12870083E+04</pdfrwt>
<pdfrwt beam="2">  1       -2 0.16440531E+00 0.12870083E+04</pdfrwt>
<totfact> 0.18884773E+01</totfact>
</mgrwt>
</event>
<event>
12    1  0.1494110E-007  0.2077988E+04  0.7818608E-02  0.8571002E-01
          2   -1    0    0  501    0  0.00000000000E+00  0.00000000000E+00  0.17276775990E+04  0.17276775990E+04  0.00000000000E+00 0. -1.
         -2   -1    0    0    0  501 -0.00000000000E+00 -0.00000000000E+00 -0.62483209325E+03  0.62483209325E+03  0.00000000000E+00 0.  1.
         23    2    1    2    0    0  0.12197721617E+02 -0.21626718402E+03  0.13612599166E+04  0.13814003139E+04  0.91203000739E+02 0.  0.
        254    2    1    2    0    0 -0.12197721617E+02  0.21626718402E+03 -0.25841441083E+03  0.97110937839E+03  0.91068937503E+03 0.  0.
        -24    2    4    4    0    0 -0.28536430239E+03  0.38158868720E+02  0.23097665666E+03  0.37768053214E+03  0.80021772646E+02 0.  0.
         24    2    4    4    0    0  0.27316658078E+03  0.17810831530E+03 -0.48939106749E+03  0.59342884625E+03  0.79445741184E+02 0.  0.
         11    1    3    3    0    0  0.13049576752E+02 -0.20065495415E+03  0.13400387027E+04  0.13550411163E+04  0.00000000000E+00 0. -1.
        -11    1    3    3    0    0 -0.85185513515E+00 -0.15612229871E+02  0.21221213914E+02  0.26359197611E+02  0.00000000000E+00 0.  1.
          4    1    6    6  502    0  0.19932661691E+02  0.40271384470E+02 -0.44187751026E+02  0.63021050054E+02  0.00000000000E+00 0. -1.
          1    1    5    5  503    0 -0.18716227149E+02  0.28443918147E+00 -0.52456150332E+01  0.19439509804E+02  0.00000000000E+00 0. -1.
         -2    1    5    5    0  503 -0.26664807524E+03  0.37874429539E+02  0.23622227169E+03  0.35824102234E+03  0.00000000000E+00 0.  1.
         -3    1    6    6    0  502  0.25323391908E+03  0.13783693083E+03 -0.44520331646E+03  0.53040779620E+03  0.00000000000E+00 0.  1.
<mgrwt>
<rscale>  0 0.20779879E+04</rscale>
<asrwt>0</asrwt>
<pdfrwt beam="1">  1        2 0.26579655E+00 0.20779879E+04</pdfrwt>
<pdfrwt beam="2">  1       -2 0.96128015E-01 0.20779879E+04</pdfrwt>
<totfact> 0.79222212E+00</totfact>
</mgrwt>
</event>
<event>
12    1  0.1494110E-007  0.1612605E+04  0.7818608E-02  0.8812841E-01
          2   -1    0    0  501    0  0.00000000000E+00  0.00000000000E+00  0.45053352039E+03  0.45053352039E+03  0.00000000000E+00 0. -1.
         -2   -1    0    0    0  501 -0.00000000000E+00 -0.00000000000E+00 -0.14430089987E+04  0.14430089987E+04  0.00000000000E+00 0.  1.
         23    2    1    2    0    0  0.29651274188E+03  0.33955848970E+03  0.40402690590E+02  0.46171723799E+03  0.91272429715E+02 0.  0.
        254    2    1    2    0    0 -0.29651274188E+03 -0.33955848970E+03 -0.10328781689E+04  0.14318252811E+04  0.88321376223E+03 0.  0.
        -24    2    4    4    0    0 -0.53677731724E+03 -0.34818750894E+02 -0.81365094646E+03  0.97864250303E+03  0.79818872122E+02 0.  0.
         24    2    4    4    0    0  0.24026457536E+03 -0.30473973881E+03 -0.21922722244E+03  0.45318277807E+03  0.81979757883E+02 0.  0.
         11    1    3    3    0    0 -0.28628933669E+01  0.90162033901E-01 -0.60761770530E+01  0.67174560067E+01  0.00000000000E+00 0. -1.
        -11    1    3    3    0    0  0.29937563525E+03  0.33946832767E+03  0.46478867643E+02  0.45499978198E+03  0.00000000000E+00 0.  1.
          4    1    6    6  502    0  0.10160171420E+03 -0.68132194966E+02 -0.71020598546E+02  0.14145257063E+03  0.00000000000E+00 0. -1.
          1    1    5    5  503    0 -0.44531561376E+03 -0.52622990149E+02 -0.63819646106E+03  0.77998070352E+03  0.00000000000E+00 0. -1.
         -2    1    5    5    0  503 -0.91461703476E+02  0.17804239255E+02 -0.17545448540E+03  0.19866179951E+03  0.00000000000E+00 0.  1.
         -3    1    6    6    0  502  0.13866286115E+03 -0.23660754384E+03 -0.14820662389E+03  0.31173020744E+03  0.00000000000E+00 0.  1.
<mgrwt>
<rscale>  0 0.16126053E+04</rscale>
<asrwt>0</asrwt>
<pdfrwt beam="1">  1        2 0.69312850E-01 0.16126053E+04</pdfrwt>
<pdfrwt beam="2">  1       -2 0.22200138E+00 0.16126053E+04</pdfrwt>
<totfact> 0.63830751E+00</totfact>
</mgrwt>
</event>
<event>
12    1  0.1494110E-007  0.1806562E+04  0.7818608E-02  0.8702817E-01
          2   -1    0    0  501    0  0.00000000000E+00  0.00000000000E+00  0.11978964753E+04  0.11978964753E+04  0.00000000000E+00 0. -1.
         -2   -1    0    0    0  501 -0.00000000000E+00 -0.00000000000E+00 -0.68112474185E+03  0.68112474185E+03  0.00000000000E+00 0.  1.
         23    2    1    2    0    0 -0.25796323378E+03 -0.27990952279E+03  0.77816786260E+03  0.87147004490E+03  0.94976027709E+02 0.  0.
        254    2    1    2    0    0  0.25796323378E+03  0.27990952279E+03 -0.26139612920E+03  0.10075511722E+04  0.89550938428E+03 0.  0.
        -24    2    4    4    0    0 -0.22950178213E+03 -0.12060034185E+01 -0.35645426383E+03  0.43126973267E+03  0.79129120253E+02 0.  0.
         24    2    4    4    0    0  0.48746501592E+03  0.28111552621E+03  0.95058134627E+02  0.57628143954E+03  0.80100984899E+02 0.  0.
         13    1    3    3    0    0 -0.20157251342E+03 -0.15647302821E+03  0.47166263973E+03  0.53626572931E+03  0.00000000000E+00 0. -1.
        -13    1    3    3    0    0 -0.56390720363E+02 -0.12343649458E+03  0.30650522287E+03  0.33520431558E+03  0.00000000000E+00 0.  1.
          4    1    6    6  502    0  0.25962579870E+03  0.14954658863E+03  0.91074718386E+02  0.31315226624E+03  0.00000000000E+00 0. -1.
          3    1    5    5  503    0 -0.93021784833E+02  0.30125943465E+02 -0.19052126686E+03  0.21414709442E+03  0.00000000000E+00 0. -1.
         -4    1    5    5    0  503 -0.13647999730E+03 -0.31331946883E+02 -0.16593299697E+03  0.21712263825E+03  0.00000000000E+00 0.  1.
         -3    1    6    6    0  502  0.22783921721E+03  0.13156893757E+03  0.39834162417E+01  0.26312917330E+03  0.00000000000E+00 0.  1.
<mgrwt>
<rscale>  0 0.18065624E+04</rscale>
<asrwt>0</asrwt>
<pdfrwt beam="1">  1        2 0.18429176E+00 0.18065624E+04</pdfrwt>
<pdfrwt beam="2">  1       -2 0.10478842E+00 0.18065624E+04</pdfrwt>
<totfact> 0.13241984E+01</totfact>
</mgrwt>
</event>
<event>
12    1  0.1494110E-007  0.1093930E+04  0.7818608E-02  0.9211129E-01
          1   -1    0    0  501    0  0.00000000000E+00  0.00000000000E+00  0.18528250530E+04  0.18528250530E+04  0.00000000000E+00 0. -1.
         -1   -1    0    0    0  501 -0.00000000000E+00 -0.00000000000E+00 -0.16146718151E+03  0.16146718151E+03  0.00000000000E+00 0.  1.
         23    2    1    2    0    0  0.17833009898E+02 -0.51107964021E+02  0.66584282659E+03  0.67396451103E+03  0.89170915562E+02 0.  0.
        254    2    1    2    0    0 -0.17833009898E+02  0.51107964021E+02  0.10255150449E+04  0.13403277235E+04  0.86131716504E+03 0.  0.
        -24    2    4    4    0    0  0.28358635676E+03 -0.10082443952E+03  0.64902408771E+02  0.31869306037E+03  0.82256639395E+02 0.  0.
         24    2    4    4    0    0 -0.30141936665E+03  0.15193240354E+03  0.96061263613E+03  0.10216346631E+04  0.83807268957E+02 0.  0.
         13    1    3    3    0    0 -0.15212620369E+02  0.17823745017E+02  0.87182730087E+02  0.90277007762E+02  0.00000000000E+00 0.  1.
        -13    1    3    3    0    0  0.33045630268E+02 -0.68931709038E+02  0.57866009650E+03  0.58368750327E+03  0.00000000000E+00 0. -1.
          4    1    6    6  502    0 -0.66651292011E+02  0.25664110175E+02  0.11872263890E+03  0.13855001359E+03  0.00000000000E+00 0. -1.
          1    1    5    5  503    0 -0.30952699714E+01 -0.10542826103E+02 -0.86014042208E+00  0.11021420960E+02  0.00000000000E+00 0. -1.
         -2    1    5    5    0  503  0.28668162673E+03 -0.90281613414E+02  0.65762549193E+02  0.30767163941E+03  0.00000000000E+00 0.  1.
         -1    1    6    6    0  502 -0.23476807464E+03  0.12626829336E+03  0.84188999723E+03  0.88308464952E+03  0.00000000000E+00 0.  1.
<mgrwt>
<rscale>  0 0.10939295E+04</rscale>
<asrwt>0</asrwt>
<pdfrwt beam="1">  1        1 0.28504999E+00 0.10939295E+04</pdfrwt>
<pdfrwt beam="2">  1       -1 0.24841106E-01 0.10939295E+04</pdfrwt>
<totfact> 0.53043022E+01</totfact>
</mgrwt>
</event>
<event>
12    1  0.1494110E-007  0.2731061E+04  0.7818608E-02  0.8324997E-01
         -1   -1    0    0    0  501 -0.00000000000E+00  0.00000000000E+00  0.11041817503E+04  0.11041817503E+04  0.00000000000E+00 0.  1.
          1   -1    0    0  501    0  0.00000000000E+00 -0.00000000000E+00 -0.16887377298E+04  0.16887377298E+04  0.00000000000E+00 0. -1.
         23    2    1    2    0    0 -0.37221270232E+03 -0.22946712314E+03 -0.14224838587E+04  0.14907913423E+04  0.88323504520E+02 0.  0.
        254    2    1    2    0    0  0.37221270232E+03  0.22946712314E+03  0.83792787921E+03  0.13021281379E+04  0.89566573024E+03 0.  0.
        -24    2    4    4    0    0 -0.59038965901E+02 -0.10293934399E+03  0.72537783915E+03  0.74053673630E+03  0.90219400657E+02 0.  0.
         24    2    4    4    0    0  0.43125166822E+03  0.33240646713E+03  0.11255004007E+03  0.56159140158E+03  0.79027400800E+02 0.  0.
         11    1    3    3    0    0 -0.23352267892E+03 -0.19151174931E+03 -0.93806848275E+03  0.98548570260E+03  0.00000000000E+00 0. -1.
        -11    1    3    3    0    0 -0.13869002340E+03 -0.37955373827E+02 -0.48441537598E+03  0.50530563966E+03  0.00000000000E+00 0.  1.
          2    1    6    6  502    0  0.79387823434E+02  0.67891485854E+02  0.53764555883E+02  0.11748322361E+03  0.00000000000E+00 0. -1.
          1    1    5    5  503    0 -0.43437859659E+01 -0.17027103742E+02  0.38124408443E+03  0.38164884731E+03  0.00000000000E+00 0. -1.
         -2    1    5    5    0  503 -0.54695179935E+02 -0.85912240250E+02  0.34413375471E+03  0.35888788899E+03  0.00000000000E+00 0.  1.
         -1    1    6    6    0  502  0.35186384478E+03  0.26451498127E+03  0.58785484182E+02  0.44410817796E+03  0.00000000000E+00 0.  1.
<mgrwt>
<rscale>  0 0.27310609E+04</rscale>
<asrwt>0</asrwt>
<pdfrwt beam="1">  1        1 0.25980581E+00 0.27310609E+04</pdfrwt>
<pdfrwt beam="2">  1       -1 0.16987411E+00 0.27310609E+04</pdfrwt>
<totfact> 0.10417673E+00</totfact>
</mgrwt>
</event>
<event>
12    1  0.1494110E-007  0.1940920E+04  0.7818608E-02  0.8634752E-01
          2   -1    0    0  501    0  0.00000000000E+00  0.00000000000E+00  0.16328658146E+04  0.16328658146E+04  0.00000000000E+00 0. -1.
         -2   -1    0    0    0  501 -0.00000000000E+00 -0.00000000000E+00 -0.57677301452E+03  0.57677301452E+03  0.00000000000E+00 0.  1.
         23    2    1    2    0    0  0.25664010394E+03 -0.58297730249E+03  0.88319631069E+03  0.10927202059E+04  0.90967285724E+02 0.  0.
        254    2    1    2    0    0 -0.25664010394E+03  0.58297730249E+03  0.17289648939E+03  0.11169186232E+04  0.90104791027E+03 0.  0.
        -24    2    4    4    0    0  0.72877393527E+02  0.70955375016E+03  0.22270514565E+03  0.75165486547E+03  0.81300775089E+02 0.  0.
         24    2    4    4    0    0 -0.32951749746E+03 -0.12657644768E+03 -0.49808656262E+02  0.36526375771E+03  0.79582235565E+02 0.  0.
         11    1    3    3    0    0  0.77035337475E+02 -0.19771529539E+03  0.22568477162E+03  0.30977313859E+03  0.00000000000E+00 0.  1.
        -11    1    3    3    0    0  0.17960476646E+03 -0.38526200710E+03  0.65751153907E+03  0.78294706734E+03  0.00000000000E+00 0. -1.
          2    1    6    6  502    0 -0.75264567179E+02 -0.96780511301E+01  0.16542344810E+02  0.77666395037E+02  0.00000000000E+00 0. -1.
          3    1    5    5  503    0  0.84507943103E+02  0.43961737213E+03  0.13450080093E+03  0.46743501342E+03  0.00000000000E+00 0. -1.
         -2    1    5    5    0  503 -0.11630549576E+02  0.26993637804E+03  0.88204344724E+02  0.28421985205E+03  0.00000000000E+00 0.  1.
         -1    1    6    6    0  502 -0.25425293028E+03 -0.11689839655E+03 -0.66351001073E+02  0.28759736267E+03  0.00000000000E+00 0.  1.
<mgrwt>
<rscale>  0 0.19409203E+04</rscale>
<asrwt>0</asrwt>
<pdfrwt beam="1">  1        2 0.25121012E+00 0.19409203E+04</pdfrwt>
<pdfrwt beam="2">  1       -2 0.88734310E-01 0.19409203E+04</pdfrwt>
<totfact> 0.10895857E+01</totfact>
</mgrwt>
</event>
<event>
12    1  0.1599369E-007  0.2956716E+04  0.7818608E-02  0.8256200E-01
         -1   -1    0    0    0  501 -0.00000000000E+00  0.00000000000E+00  0.14682277258E+04  0.14682277258E+04  0.00000000000E+00 0.  1.
          1   -1    0    0  501    0  0.00000000000E+00 -0.00000000000E+00 -0.14885583214E+04  0.14885583214E+04  0.00000000000E+00 0. -1.
         23    2    1    2    0    0  0.78999869922E+03  0.66183121957E+03 -0.86688956282E+03  0.13500632570E+04  0.95156586283E+02 0.  0.
        254    2    1    2    0    0 -0.78999869922E+03 -0.66183121957E+03  0.84655896727E+03  0.16067227902E+04  0.89597853295E+03 0.  0.
        -24    2    4    4    0    0 -0.83296721101E+03 -0.15836727807E+03  0.57268863018E+03  0.10264132657E+04  0.81469966920E+02 0.  0.
         24    2    4    4    0    0  0.42968511793E+02 -0.50346394150E+03  0.27387033709E+03  0.58030952448E+03  0.80199434342E+02 0.  0.
         11    1    3    3    0    0  0.16049282359E+03  0.10551310458E+03 -0.12406213930E+03  0.22865339724E+03  0.00000000000E+00 0.  1.
        -11    1    3    3    0    0  0.62950587563E+03  0.55631811498E+03 -0.74282742352E+03  0.11214098598E+04  0.00000000000E+00 0. -1.
          4    1    6    6  502    0 -0.10175723196E+02 -0.16894298192E+02  0.23007604451E+02  0.30303671668E+02  0.00000000000E+00 0. -1.
          3    1    5    5  503    0 -0.57467487948E+02 -0.32692879329E+02  0.47760683661E+02  0.81562365302E+02  0.00000000000E+00 0. -1.
         -4    1    5    5    0  503 -0.77549972306E+03 -0.12567439874E+03  0.52492794652E+03  0.94485090041E+03  0.00000000000E+00 0.  1.
         -3    1    6    6    0  502  0.53144234989E+02 -0.48656964331E+03  0.25086273264E+03  0.55000585282E+03  0.00000000000E+00 0.  1.
<mgrwt>
<rscale>  0 0.29567162E+04</rscale>
<asrwt>0</asrwt>
<pdfrwt beam="1">  1        1 0.22900897E+00 0.29567162E+04</pdfrwt>
<pdfrwt beam="2">  1       -1 0.22588119E+00 0.29567162E+04</pdfrwt>
<totfact> 0.57215968E-01</totfact>
</mgrwt>
</event>
<event>
12    1  0.1494110E-007  0.1598189E+04  0.7818608E-02  0.8821661E-01
          2   -1    0    0  501    0  0.00000000000E+00  0.00000000000E+00  0.14641158807E+04  0.14641158807E+04  0.00000000000E+00 0. -1.
         -2   -1    0    0    0  501 -0.00000000000E+00 -0.00000000000E+00 -0.43613507283E+03  0.43613507283E+03  0.00000000000E+00 0.  1.
         23    2    1    2    0    0  0.40305005169E+03  0.33890274077E+03  0.22887208872E+03  0.58131280064E+03  0.90761926654E+02 0.  0.
        254    2    1    2    0    0 -0.40305005169E+03 -0.33890274077E+03  0.79910871914E+03  0.13189381529E+04  0.90758949655E+03 0.  0.
        -24    2    4    4    0    0  0.11031934638E+03  0.21506327671E+03  0.36277384711E+03  0.44306327785E+03  0.79231514315E+02 0.  0.
         24    2    4    4    0    0 -0.51336939806E+03 -0.55396601748E+03  0.43633487203E+03  0.87587487502E+03  0.79637860121E+02 0.  0.
         11    1    3    3    0    0  0.14198558610E+03  0.12746312667E+03  0.13082853365E+03  0.23135008221E+03  0.00000000000E+00 0. -1.
        -11    1    3    3    0    0  0.26106446558E+03  0.21143961410E+03  0.98043555063E+02  0.34996271843E+03  0.00000000000E+00 0.  1.
          2    1    6    6  502    0 -0.92255064929E+02 -0.10482096065E+03  0.11769722439E+03  0.18262274619E+03  0.00000000000E+00 0. -1.
          1    1    5    5  503    0  0.50334137643E+00  0.79962363063E+02  0.12425162683E+03  0.14775892402E+03  0.00000000000E+00 0. -1.
         -2    1    5    5    0  503  0.10981600500E+03  0.13510091364E+03  0.23852222028E+03  0.29530435383E+03  0.00000000000E+00 0.  1.
         -1    1    6    6    0  502 -0.42111433313E+03 -0.44914505682E+03  0.31863764764E+03  0.69325212884E+03  0.00000000000E+00 0.  1.
<mgrwt>
<rscale>  0 0.15981893E+04</rscale>
<asrwt>0</asrwt>
<pdfrwt beam="1">  1        2 0.22524859E+00 0.15981893E+04</pdfrwt>
<pdfrwt beam="2">  1       -2 0.67097704E-01 0.15981893E+04</pdfrwt>
<totfact> 0.26003315E+01</totfact>
</mgrwt>
</event>
<event>
12    1  0.1494110E-007  0.3327665E+04  0.7818608E-02  0.8155891E-01
         -2   -1    0    0    0  501 -0.00000000000E+00  0.00000000000E+00  0.18837656181E+04  0.18837656181E+04  0.00000000000E+00 0.  1.
          2   -1    0    0  501    0  0.00000000000E+00 -0.00000000000E+00 -0.14695773284E+04  0.14695773284E+04  0.00000000000E+00 0. -1.
         23    2    1    2    0    0 -0.92119679896E+03 -0.69790968063E+03  0.12094095653E+04  0.16752265728E+04  0.89616454857E+02 0.  0.
        254    2    1    2    0    0  0.92119679896E+03  0.69790968063E+03 -0.79522127557E+03  0.16781163737E+04  0.92087796246E+03 0.  0.
        -24    2    4    4    0    0  0.78454690396E+02 -0.20569933628E+03 -0.17877565458E+03  0.29504181280E+03  0.81373098997E+02 0.  0.
         24    2    4    4    0    0  0.84274210856E+03  0.90360901692E+03 -0.61644562099E+03  0.13830745609E+04  0.78527194552E+02 0.  0.
         13    1    3    3    0    0 -0.84110554330E+03 -0.63951183646E+03  0.10663024284E+04  0.15011444943E+04  0.00000000000E+00 0.  1.
        -13    1    3    3    0    0 -0.80091255657E+02 -0.58397844176E+02  0.14310713695E+03  0.17408207858E+03  0.00000000000E+00 0. -1.
          2    1    6    6  502    0  0.37282185117E+03  0.35053053679E+03 -0.27641302087E+03  0.58161150955E+03  0.00000000000E+00 0. -1.
          1    1    5    5  503    0 -0.14753025669E+02 -0.39859991304E+02 -0.48417296038E+02  0.64425967038E+02  0.00000000000E+00 0. -1.
         -2    1    5    5    0  503  0.93207716065E+02 -0.16583934498E+03 -0.13035835854E+03  0.23061584577E+03  0.00000000000E+00 0.  1.
         -1    1    6    6    0  502  0.46992025740E+03  0.55307848013E+03 -0.34003260012E+03  0.80146305132E+03  0.00000000000E+00 0.  1.
<mgrwt>
<rscale>  0 0.33276654E+04</rscale>
<asrwt>0</asrwt>
<pdfrwt beam="1">  1        2 0.22608882E+00 0.33276654E+04</pdfrwt>
<pdfrwt beam="2">  1       -2 0.28981010E+00 0.33276654E+04</pdfrwt>
<totfact> 0.40376320E-01</totfact>
</mgrwt>
</event>
<event>
12    1  0.1494110E-007  0.1382625E+04  0.7818608E-02  0.8966493E-01
         -2   -1    0    0    0  501 -0.00000000000E+00  0.00000000000E+00  0.41486645909E+03  0.41486645909E+03  0.00000000000E+00 0.  1.
          2   -1    0    0  501    0  0.00000000000E+00 -0.00000000000E+00 -0.11519676732E+04  0.11519676732E+04  0.00000000000E+00 0. -1.
         23    2    1    2    0    0  0.35723408791E+03 -0.10240518259E+03 -0.35084499408E+03  0.51889088953E+03  0.89735892387E+02 0.  0.
        254    2    1    2    0    0 -0.35723408791E+03  0.10240518259E+03 -0.38625622006E+03  0.10479432428E+04  0.90049328570E+03 0.  0.
        -24    2    4    4    0    0  0.28480811000E+03 -0.70128830179E+02 -0.10596017573E+03  0.32219665272E+03  0.80928436540E+02 0.  0.
         24    2    4    4    0    0 -0.64204219791E+03  0.17253401277E+03 -0.28029604434E+03  0.72574659007E+03  0.78460633875E+02 0.  0.
         13    1    3    3    0    0  0.33571158140E+03 -0.73553416830E+02 -0.29758896137E+03  0.45461143952E+03  0.00000000000E+00 0. -1.
        -13    1    3    3    0    0  0.21522506511E+02 -0.28851765760E+02 -0.53256032708E+02  0.64279450012E+02  0.00000000000E+00 0.  1.
          2    1    6    6  502    0 -0.19985800660E+03  0.24270079001E+02 -0.60865826504E+02  0.21032571972E+03  0.00000000000E+00 0. -1.
          3    1    5    5  503    0  0.12216067787E+03 -0.53541798223E+01 -0.77654126441E+02  0.14485186161E+03  0.00000000000E+00 0. -1.
         -4    1    5    5    0  503  0.16264743213E+03 -0.64774650356E+02 -0.28306049287E+02  0.17734479111E+03  0.00000000000E+00 0.  1.
         -1    1    6    6    0  502 -0.44218419130E+03  0.14826393377E+03 -0.21943021783E+03  0.51542087035E+03  0.00000000000E+00 0.  1.
<mgrwt>
<rscale>  0 0.13826247E+04</rscale>
<asrwt>0</asrwt>
<pdfrwt beam="1">  1        2 0.17722579E+00 0.13826247E+04</pdfrwt>
<pdfrwt beam="2">  1       -2 0.63825610E-01 0.13826247E+04</pdfrwt>
<totfact> 0.44798919E+01</totfact>
</mgrwt>
</event>
<event>
12    1  0.1494110E-007  0.2842718E+04  0.7818608E-02  0.8290127E-01
          2   -1    0    0  501    0  0.00000000000E+00  0.00000000000E+00  0.42655709906E+04  0.42655709906E+04  0.00000000000E+00 0.  1.
         -2   -1    0    0    0  501 -0.00000000000E+00 -0.00000000000E+00 -0.47362043696E+03  0.47362043696E+03  0.00000000000E+00 0. -1.
         23    2    1    2    0    0 -0.85630561498E+03  0.88964089261E+03  0.11600423580E+04  0.16967123610E+04  0.91729708339E+02 0.  0.
        254    2    1    2    0    0  0.85630561498E+03 -0.88964089261E+03  0.26319081956E+04  0.30424790666E+04  0.89722789551E+03 0.  0.
        -24    2    4    4    0    0  0.66439098016E+03 -0.74716055544E+02  0.98050142000E+03  0.11892591623E+04  0.77178086598E+02 0.  0.
         24    2    4    4    0    0  0.19191463483E+03 -0.81492483706E+03  0.16514067756E+04  0.18532199043E+04  0.79661521243E+02 0.  0.
         13    1    3    3    0    0 -0.54969608849E+03  0.59281749778E+03  0.70228570883E+03  0.10708891596E+04  0.00000000000E+00 0. -1.
        -13    1    3    3    0    0 -0.30660952649E+03  0.29682339483E+03  0.45775664922E+03  0.62582320136E+03  0.00000000000E+00 0.  1.
          2    1    6    6  502    0  0.18445753919E+03 -0.74588719486E+03  0.14643583079E+04  0.16536981420E+04  0.00000000000E+00 0. -1.
          1    1    5    5  503    0  0.34294662616E+03 -0.27607097619E+01  0.52647059696E+03  0.62832419926E+03  0.00000000000E+00 0. -1.
         -2    1    5    5    0  503  0.32144435400E+03 -0.71955345782E+02  0.45403082304E+03  0.56093496305E+03  0.00000000000E+00 0.  1.
         -1    1    6    6    0  502  0.74570956381E+01 -0.69037642203E+02  0.18704846773E+03  0.19952176222E+03  0.00000000000E+00 0.  1.
<mgrwt>
<rscale>  0 0.28427181E+04</rscale>
<asrwt>0</asrwt>
<pdfrwt beam="1">  1        2 0.65624166E+00 0.28427181E+04</pdfrwt>
<pdfrwt beam="2">  1       -2 0.72864686E-01 0.28427181E+04</pdfrwt>
<totfact> 0.30078811E-01</totfact>
</mgrwt>
</event>
<event>
12    1  0.1494110E-007  0.2237393E+04  0.7818608E-02  0.8503023E-01
          2   -1    0    0  501    0  0.00000000000E+00  0.00000000000E+00  0.10259503252E+04  0.10259503252E+04  0.00000000000E+00 0.  1.
         -2   -1    0    0    0  501 -0.00000000000E+00 -0.00000000000E+00 -0.12198273374E+04  0.12198273374E+04  0.00000000000E+00 0. -1.
         23    2    1    2    0    0  0.28640424567E+03  0.70100563227E+03 -0.63429420822E+03  0.99200192728E+03  0.91117466652E+02 0.  0.
        254    2    1    2    0    0 -0.28640424567E+03 -0.70100563227E+03  0.44041719606E+03  0.12537757353E+04  0.89696711162E+03 0.  0.
        -24    2    4    4    0    0 -0.38335551371E+03 -0.74898469836E+03  0.56154432364E+02  0.84663380279E+03  0.75471501165E+02 0.  0.
         24    2    4    4    0    0  0.96951268034E+02  0.47979066090E+02  0.38426276370E+03  0.40714193247E+03  0.80032133884E+02 0.  0.
         13    1    3    3    0    0  0.21132527448E+02  0.22041857142E+02 -0.46319445522E+02  0.55478988960E+02  0.00000000000E+00 0.  1.
        -13    1    3    3    0    0  0.26527171822E+03  0.67896377513E+03 -0.58797476270E+03  0.93652293832E+03  0.00000000000E+00 0. -1.
          4    1    6    6  502    0  0.11028249433E+03  0.49979243685E+02  0.34634193258E+03  0.36689629000E+03  0.00000000000E+00 0. -1.
          3    1    5    5  503    0 -0.38565142060E+03 -0.72964575672E+03  0.55042795756E+02  0.82712735288E+03  0.00000000000E+00 0. -1.
         -4    1    5    5    0  503  0.22959068994E+01 -0.19338941643E+02  0.11116366076E+01  0.19506449915E+02  0.00000000000E+00 0.  1.
         -3    1    6    6    0  502 -0.13331226294E+02 -0.20001775949E+01  0.37920831121E+02  0.40245642470E+02  0.00000000000E+00 0.  1.
<mgrwt>
<rscale>  0 0.22373934E+04</rscale>
<asrwt>0</asrwt>
<pdfrwt beam="1">  1        2 0.15783851E+00 0.22373934E+04</pdfrwt>
<pdfrwt beam="2">  1       -2 0.18766574E+00 0.22373934E+04</pdfrwt>
<totfact> 0.35498780E+00</totfact>
</mgrwt>
</event>
<event>
12    1  0.1494110E-007  0.1792719E+04  0.7818608E-02  0.8710181E-01
          2   -1    0    0  501    0  0.00000000000E+00  0.00000000000E+00  0.14291803500E+04  0.14291803500E+04  0.00000000000E+00 0. -1.
         -2   -1    0    0    0  501 -0.00000000000E+00 -0.00000000000E+00 -0.56218263725E+03  0.56218263725E+03  0.00000000000E+00 0.  1.
         23    2    1    2    0    0  0.38858645028E+03 -0.48021573260E+03  0.36432596374E+02  0.62659157726E+03  0.98402700332E+02 0.  0.
        254    2    1    2    0    0 -0.38858645028E+03  0.48021573260E+03  0.83056511636E+03  0.13647714100E+04  0.88946951032E+03 0.  0.
        -24    2    4    4    0    0 -0.67905458443E+02  0.53669861576E+03  0.93307401921E+02  0.55471619725E+03  0.79669522404E+02 0.  0.
         24    2    4    4    0    0 -0.32068099184E+03 -0.56482883152E+02  0.73725771444E+03  0.81005521272E+03  0.81325860254E+02 0.  0.
         11    1    3    3    0    0  0.35721644909E+03 -0.47167639613E+03  0.25268882297E+02  0.59221679356E+03  0.00000000000E+00 0.  1.
        -11    1    3    3    0    0  0.31370001195E+02 -0.85393364754E+01  0.11163714077E+02  0.34374783700E+02  0.00000000000E+00 0. -1.
          2    1    6    6  502    0 -0.11996713166E+03 -0.67345592629E+01  0.18753803058E+03  0.22272848916E+03  0.00000000000E+00 0. -1.
          1    1    5    5  503    0  0.16940847222E+02  0.69384645833E+02  0.47824707610E+01  0.71582773127E+02  0.00000000000E+00 0. -1.
         -2    1    5    5    0  503 -0.84846305665E+02  0.46731396992E+03  0.88524931160E+02  0.48313342412E+03  0.00000000000E+00 0.  1.
         -1    1    6    6    0  502 -0.20071386018E+03 -0.49748323889E+02  0.54971968385E+03  0.58732672356E+03  0.00000000000E+00 0.  1.
<mgrwt>
<rscale>  0 0.17927190E+04</rscale>
<asrwt>0</asrwt>
<pdfrwt beam="1">  1        2 0.21987390E+00 0.17927190E+04</pdfrwt>
<pdfrwt beam="2">  1       -2 0.86489637E-01 0.17927190E+04</pdfrwt>
<totfact> 0.15233620E+01</totfact>
</mgrwt>
</event>
<event>
12    1  0.1494110E-007  0.3692344E+04  0.7818608E-02  0.8069661E-01
         -3   -1    0    0    0  501 -0.00000000000E+00  0.00000000000E+00  0.17704092820E+04  0.17704092820E+04  0.00000000000E+00 0.  1.
          3   -1    0    0  501    0  0.00000000000E+00 -0.00000000000E+00 -0.19251765824E+04  0.19251765824E+04  0.00000000000E+00 0. -1.
         23    2    1    2    0    0  0.31610188767E+03 -0.16752021376E+04  0.26280070809E+03  0.17275111782E+04  0.94910765417E+02 0.  0.
        254    2    1    2    0    0 -0.31610188767E+03  0.16752021376E+04 -0.41756800853E+03  0.19680746861E+04  0.89035516685E+03 0.  0.
        -24    2    4    4    0    0 -0.27422001496E+03  0.16221611839E+04 -0.11855444886E+03  0.16513923477E+04  0.80237183873E+02 0.  0.
         24    2    4    4    0    0 -0.41881872714E+02  0.53040953753E+02 -0.29901355967E+03  0.31668233841E+03  0.79442813122E+02 0.  0.
         13    1    3    3    0    0  0.29399921928E+02 -0.25230282447E+03  0.68374072853E+02  0.26305148637E+03  0.00000000000E+00 0.  1.
        -13    1    3    3    0    0  0.28670196575E+03 -0.14228993132E+04  0.19442663524E+03  0.14644596919E+04  0.00000000000E+00 0. -1.
          4    1    6    6  502    0 -0.46901914685E+02  0.31433152920E+01 -0.87744697021E+02  0.99542965032E+02  0.00000000000E+00 0. -1.
          3    1    5    5  503    0 -0.52165457160E+02  0.16598973476E+03 -0.18974106443E+02  0.17502526584E+03  0.00000000000E+00 0. -1.
         -4    1    5    5    0  503 -0.22205455780E+03  0.14561714491E+04 -0.99580342415E+02  0.14763670819E+04  0.00000000000E+00 0.  1.
         -3    1    6    6    0  502  0.50200419710E+01  0.49897638461E+02 -0.21126886265E+03  0.21713937338E+03  0.00000000000E+00 0.  1.
<mgrwt>
<rscale>  0 0.36923437E+04</rscale>
<asrwt>0</asrwt>
<pdfrwt beam="1">  1        3 0.29618101E+00 0.36923437E+04</pdfrwt>
<pdfrwt beam="2">  1       -3 0.27237066E+00 0.36923437E+04</pdfrwt>
<totfact> 0.46080737E-03</totfact>
</mgrwt>
</event>
<event>
12    1  0.1494110E-007  0.2611178E+04  0.7818608E-02  0.8364414E-01
          1   -1    0    0  501    0  0.00000000000E+00  0.00000000000E+00  0.15071232788E+04  0.15071232788E+04  0.00000000000E+00 0. -1.
         -1   -1    0    0    0  501 -0.00000000000E+00 -0.00000000000E+00 -0.11310044374E+04  0.11310044374E+04  0.00000000000E+00 0.  1.
         23    2    1    2    0    0  0.94022647781E+03  0.21242153513E+03  0.79687662821E+03  0.12539647574E+04  0.90920371429E+02 0.  0.
        254    2    1    2    0    0 -0.94022647781E+03 -0.21242153513E+03 -0.42075778683E+03  0.13841629588E+04  0.89984512179E+03 0.  0.
        -24    2    4    4    0    0 -0.43821157846E+03  0.33340064252E+03 -0.28934575188E+03  0.62691581536E+03  0.78211888441E+02 0.  0.
         24    2    4    4    0    0 -0.50201489936E+03 -0.54582217765E+03 -0.13141203495E+03  0.75724714346E+03  0.78824517430E+02 0.  0.
         11    1    3    3    0    0  0.56603026040E+03  0.15112645736E+03  0.53266800381E+03  0.79181100276E+03  0.00000000000E+00 0. -1.
        -11    1    3    3    0    0  0.37419621741E+03  0.61295077769E+02  0.26420862440E+03  0.46215375460E+03  0.00000000000E+00 0.  1.
          2    1    6    6  502    0 -0.23655007614E+03 -0.23696887130E+03 -0.22030159391E+02  0.33555254791E+03  0.00000000000E+00 0. -1.
          1    1    5    5  503    0 -0.41428693618E+03  0.29930100568E+03 -0.28460565930E+03  0.58499157156E+03  0.00000000000E+00 0. -1.
         -2    1    5    5    0  503 -0.23924642277E+02  0.34099636840E+02 -0.47400925791E+01  0.41924243802E+02  0.00000000000E+00 0.  1.
         -1    1    6    6    0  502 -0.26546482322E+03 -0.30885330635E+03 -0.10938187556E+03  0.42169459555E+03  0.00000000000E+00 0.  1.
<mgrwt>
<rscale>  0 0.26111784E+04</rscale>
<asrwt>0</asrwt>
<pdfrwt beam="1">  1        1 0.23186512E+00 0.26111784E+04</pdfrwt>
<pdfrwt beam="2">  1       -1 0.17400068E+00 0.26111784E+04</pdfrwt>
<totfact> 0.13090409E+00</totfact>
</mgrwt>
</event>
<event>
12    1  0.1494110E-007  0.1127660E+04  0.7818608E-02  0.9178644E-01
          4   -1    0    0  501    0  0.00000000000E+00  0.00000000000E+00  0.14738124201E+03  0.14738124201E+03  0.00000000000E+00 0. -1.
         -4   -1    0    0    0  501 -0.00000000000E+00 -0.00000000000E+00 -0.21570204562E+04  0.21570204562E+04  0.00000000000E+00 0.  1.
         23    2    1    2    0    0 -0.52885737118E+02  0.13497665769E+03 -0.60539766377E+03  0.62952405497E+03  0.93694210955E+02 0.  0.
        254    2    1    2    0    0  0.52885737118E+02 -0.13497665769E+03 -0.14042415504E+04  0.16748776432E+04  0.90127975045E+03 0.  0.
        -24    2    4    4    0    0  0.33272916065E+03 -0.35942548236E+03 -0.53112926054E+03  0.72759061778E+03  0.85990952845E+02 0.  0.
         24    2    4    4    0    0 -0.27984342353E+03  0.22444882467E+03 -0.87311228984E+03  0.94728702542E+03  0.79611690498E+02 0.  0.
         11    1    3    3    0    0 -0.16231287107E+01  0.12696719462E+02 -0.24790336365E+03  0.24823359752E+03  0.00000000000E+00 0. -1.
        -11    1    3    3    0    0 -0.51262608408E+02  0.12227993823E+03 -0.35749430013E+03  0.38129045745E+03  0.00000000000E+00 0.  1.
          2    1    6    6  502    0 -0.23967634282E+03  0.16807915359E+03 -0.76296739498E+03  0.81719923946E+03  0.00000000000E+00 0. -1.
          1    1    5    5  503    0  0.41971112767E+02 -0.80052227955E+02 -0.13402943069E+03  0.16165958617E+03  0.00000000000E+00 0. -1.
         -2    1    5    5    0  503  0.29075804788E+03 -0.27937325440E+03 -0.39709982984E+03  0.56593103162E+03  0.00000000000E+00 0.  1.
         -1    1    6    6    0  502 -0.40167080710E+02  0.56369671077E+02 -0.11014489487E+03  0.13008778596E+03  0.00000000000E+00 0.  1.
<mgrwt>
<rscale>  0 0.11276602E+04</rscale>
<asrwt>0</asrwt>
<pdfrwt beam="1">  1        4 0.22674039E-01 0.11276602E+04</pdfrwt>
<pdfrwt beam="2">  1       -4 0.33184927E+00 0.11276602E+04</pdfrwt>
<totfact> 0.71820870E-01</totfact>
</mgrwt>
</event>
<event>
12    1  0.1494110E-007  0.1327698E+04  0.7818608E-02  0.9007884E-01
         -2   -1    0    0    0  501 -0.00000000000E+00  0.00000000000E+00  0.13834897812E+04  0.13834897812E+04  0.00000000000E+00 0. -1.
          2   -1    0    0  501    0  0.00000000000E+00 -0.00000000000E+00 -0.31853924703E+03  0.31853924703E+03  0.00000000000E+00 0.  1.
         23    2    1    2    0    0  0.20918432933E+03  0.28133384451E+03  0.24035870273E+03  0.43401859943E+03  0.87709879515E+02 0.  0.
        254    2    1    2    0    0 -0.20918432933E+03 -0.28133384451E+03  0.82459183144E+03  0.12680104288E+04  0.89721343244E+03 0.  0.
        -24    2    4    4    0    0 -0.37153143805E+02  0.28334618173E+03  0.66675273575E+02  0.30402695577E+03  0.79507125050E+02 0.  0.
         24    2    4    4    0    0 -0.17203118553E+03 -0.56468002624E+03  0.75791655786E+03  0.96398347303E+03  0.79802047301E+02 0.  0.
         13    1    3    3    0    0 -0.62333446120E+01  0.39590764734E+01  0.15036134334E+02  0.16751543430E+02  0.00000000000E+00 0. -1.
        -13    1    3    3    0    0  0.21541767394E+03  0.27737476804E+03  0.22532256840E+03  0.41726705600E+03  0.00000000000E+00 0.  1.
          2    1    6    6  502    0 -0.20821048549E+01 -0.33910828979E+02  0.76349562724E+02  0.83567548790E+02  0.00000000000E+00 0. -1.
          3    1    5    5  503    0 -0.47278401521E+01  0.51016187532E+02 -0.18482252346E+02  0.54466480651E+02  0.00000000000E+00 0. -1.
         -4    1    5    5    0  503 -0.32425303653E+02  0.23232999420E+03  0.85157525920E+02  0.24956047512E+03  0.00000000000E+00 0.  1.
         -1    1    6    6    0  502 -0.16994908067E+03 -0.53076919726E+03  0.68156699514E+03  0.88041592424E+03  0.00000000000E+00 0.  1.
<mgrwt>
<rscale>  0 0.13276984E+04</rscale>
<asrwt>0</asrwt>
<pdfrwt beam="1">  1        2 0.49006039E-01 0.13276984E+04</pdfrwt>
<pdfrwt beam="2">  1       -2 0.21284458E+00 0.13276984E+04</pdfrwt>
<totfact> 0.11022990E+01</totfact>
</mgrwt>
</event>
<event>
12    1  0.1494110E-007  0.1500789E+04  0.7818608E-02  0.8883928E-01
         -2   -1    0    0    0  501 -0.00000000000E+00  0.00000000000E+00  0.56424095114E+03  0.56424095114E+03  0.00000000000E+00 0.  1.
          2   -1    0    0  501    0  0.00000000000E+00 -0.00000000000E+00 -0.99796347210E+03  0.99796347210E+03  0.00000000000E+00 0. -1.
         23    2    1    2    0    0  0.17773656257E+03 -0.41065562784E+03 -0.25645740840E+03  0.52375724302E+03  0.91230022157E+02 0.  0.
        254    2    1    2    0    0 -0.17773656257E+03  0.41065562784E+03 -0.17726511257E+03  0.10384471802E+04  0.92017460062E+03 0.  0.
        -24    2    4    4    0    0  0.30519191083E+03  0.16783280825E+03 -0.31330118595E+03  0.47524571352E+03  0.79943111907E+02 0.  0.
         24    2    4    4    0    0 -0.48292847340E+03  0.24282281959E+03  0.13603607338E+03  0.56320146670E+03  0.80667507056E+02 0.  0.
         11    1    3    3    0    0  0.18829441008E+03 -0.38468227596E+03 -0.24542120319E+03  0.49362617969E+03  0.00000000000E+00 0. -1.
        -11    1    3    3    0    0 -0.10557847505E+02 -0.25973351881E+02 -0.11036205209E+02  0.30131063328E+02  0.00000000000E+00 0.  1.
          4    1    6    6  502    0 -0.44803297766E+02  0.48722079421E+02  0.28625306645E+02  0.72115079521E+02  0.00000000000E+00 0. -1.
          3    1    5    5  503    0  0.97022012610E+01  0.19514430457E+02 -0.42939160657E+02  0.48153060373E+02  0.00000000000E+00 0. -1.
         -4    1    5    5    0  503  0.29548970957E+03  0.14831837779E+03 -0.27036202529E+03  0.42709265315E+03  0.00000000000E+00 0.  1.
         -3    1    6    6    0  502 -0.43812517564E+03  0.19410074017E+03  0.10741076673E+03  0.49108638718E+03  0.00000000000E+00 0.  1.
<mgrwt>
<rscale>  0 0.15007889E+04</rscale>
<asrwt>0</asrwt>
<pdfrwt beam="1">  1        2 0.15353284E+00 0.15007889E+04</pdfrwt>
<pdfrwt beam="2">  1       -2 0.86806301E-01 0.15007889E+04</pdfrwt>
<totfact> 0.28037877E+01</totfact>
</mgrwt>
</event>
<event>
12    1  0.1494110E-007  0.3386008E+04  0.7818608E-02  0.8141349E-01
         -2   -1    0    0    0  501 -0.00000000000E+00  0.00000000000E+00  0.81637658536E+03  0.81637658536E+03  0.00000000000E+00 0.  1.
          2   -1    0    0  501    0  0.00000000000E+00 -0.00000000000E+00 -0.35109561034E+04  0.35109561034E+04  0.00000000000E+00 0. -1.
         23    2    1    2    0    0 -0.40938104383E+03  0.14297261392E+04 -0.60073373163E+03  0.16065228413E+04  0.91241171043E+02 0.  0.
        254    2    1    2    0    0  0.40938104383E+03 -0.14297261392E+04 -0.20938457864E+04  0.27208098475E+04  0.89827967619E+03 0.  0.
        -24    2    4    4    0    0  0.46736401137E+03 -0.13289345965E+04 -0.13130877251E+04  0.19275245520E+04  0.81579677869E+02 0.  0.
         24    2    4    4    0    0 -0.57982967542E+02 -0.10079154265E+03 -0.78075806134E+03  0.79328529546E+03  0.78723884907E+02 0.  0.
         13    1    3    3    0    0 -0.26122266422E+02  0.69663209504E+02 -0.10357130757E+02  0.75117279763E+02  0.00000000000E+00 0. -1.
        -13    1    3    3    0    0 -0.38325877741E+03  0.13600629297E+04 -0.59037660087E+03  0.15314055616E+04  0.00000000000E+00 0.  1.
          4    1    6    6  502    0 -0.66949436359E+02 -0.38079452427E+02 -0.43902718271E+03  0.44573213804E+03  0.00000000000E+00 0. -1.
          1    1    5    5  503    0  0.41132061099E+03 -0.12332022398E+04 -0.12175836529E+04  0.17811463615E+04  0.00000000000E+00 0. -1.
         -2    1    5    5    0  503  0.56043400388E+02 -0.95732356690E+02 -0.95504072158E+02  0.14637819046E+03  0.00000000000E+00 0.  1.
         -3    1    6    6    0  502  0.89664688173E+01 -0.62712090221E+02 -0.34173087863E+03  0.34755315742E+03  0.00000000000E+00 0.  1.
<mgrwt>
<rscale>  0 0.33860079E+04</rscale>
<asrwt>0</asrwt>
<pdfrwt beam="1">  1        2 0.54014708E+00 0.33860079E+04</pdfrwt>
<pdfrwt beam="2">  1       -2 0.12559640E+00 0.33860079E+04</pdfrwt>
<totfact> 0.31336945E-01</totfact>
</mgrwt>
</event>
<event>
12    1  0.1722840E-007  0.2132358E+04  0.7818608E-02  0.8547122E-01
         -1   -1    0    0    0  501 -0.00000000000E+00  0.00000000000E+00  0.77352226885E+03  0.77352226885E+03  0.00000000000E+00 0.  1.
          1   -1    0    0  501    0  0.00000000000E+00 -0.00000000000E+00 -0.14695610168E+04  0.14695610168E+04  0.00000000000E+00 0. -1.
         23    2    1    2    0    0 -0.38621164963E+03  0.77107208960E+03 -0.13727503584E+03  0.87804392634E+03  0.91679307664E+02 0.  0.
        254    2    1    2    0    0  0.38621164963E+03 -0.77107208960E+03 -0.55876371215E+03  0.13650393594E+04  0.89855659860E+03 0.  0.
        -24    2    4    4    0    0  0.76788469596E+02 -0.88942972761E+03 -0.47492248890E+03  0.10141119834E+04  0.76746563556E+02 0.  0.
         24    2    4    4    0    0  0.30942318003E+03  0.11835763801E+03 -0.83841223252E+02  0.35092737594E+03  0.79808756737E+02 0.  0.
         13    1    3    3    0    0 -0.37392953502E+03  0.74876273495E+03 -0.14884385294E+03  0.85007259864E+03  0.00000000000E+00 0.  1.
        -13    1    3    3    0    0 -0.12282114606E+02  0.22309354657E+02  0.11568817098E+02  0.27971327703E+02  0.00000000000E+00 0. -1.
          4    1    6    6  502    0 -0.37032631981E+01  0.44654001964E+01  0.30968412217E+01  0.65760461358E+01  0.00000000000E+00 0. -1.
          3    1    5    5  503    0  0.33599936032E+02 -0.11395280608E+03 -0.51169562629E+02  0.12935424946E+03  0.00000000000E+00 0. -1.
         -4    1    5    5    0  503  0.43188533565E+02 -0.77547692153E+03 -0.42375292627E+03  0.88475773395E+03  0.00000000000E+00 0.  1.
         -3    1    6    6    0  502  0.31312644323E+03  0.11389223781E+03 -0.86938064474E+02  0.34435132980E+03  0.00000000000E+00 0.  1.
<mgrwt>
<rscale>  0 0.21323585E+04</rscale>
<asrwt>0</asrwt>
<pdfrwt beam="1">  1        1 0.22608631E+00 0.21323585E+04</pdfrwt>
<pdfrwt beam="2">  1       -1 0.11900343E+00 0.21323585E+04</pdfrwt>
<totfact> 0.39800833E+00</totfact>
</mgrwt>
</event>
<event>
12    1  0.1494110E-007  0.1747998E+04  0.7818608E-02  0.8734453E-01
         -2   -1    0    0    0  501 -0.00000000000E+00  0.00000000000E+00  0.65317570778E+03  0.65317570778E+03  0.00000000000E+00 0.  1.
          2   -1    0    0  501    0  0.00000000000E+00 -0.00000000000E+00 -0.11694780992E+04  0.11694780992E+04  0.00000000000E+00 0. -1.
         23    2    1    2    0    0  0.18031330101E+03 -0.47915257780E+03 -0.59555284952E+03  0.79027403327E+03  0.88032787942E+02 0.  0.
        254    2    1    2    0    0 -0.18031330101E+03  0.47915257780E+03  0.79250458057E+02  0.10323797738E+04  0.89298784025E+03 0.  0.
        -24    2    4    4    0    0 -0.97415319720E+02  0.61128619470E+03 -0.24003866839E+03  0.66836173601E+03  0.76995399198E+02 0.  0.
         24    2    4    4    0    0 -0.82897981289E+02 -0.13213361690E+03  0.31928912645E+03  0.36401803775E+03  0.78944395119E+02 0.  0.
         13    1    3    3    0    0 -0.39647064755E+01 -0.65828671178E+02 -0.92790306039E+02  0.11383836674E+03  0.00000000000E+00 0.  1.
        -13    1    3    3    0    0  0.18427800748E+03 -0.41332390662E+03 -0.50276254348E+03  0.67643566653E+03  0.00000000000E+00 0. -1.
          2    1    6    6  502    0 -0.70786248323E+02 -0.11830513252E+03  0.31676086413E+03  0.34546236029E+03  0.00000000000E+00 0. -1.
          3    1    5    5  503    0 -0.91612874614E+02  0.39685908961E+03 -0.13176927305E+03  0.42808083012E+03  0.00000000000E+00 0. -1.
         -4    1    5    5    0  503 -0.58024451063E+01  0.21442710509E+03 -0.10826939535E+03  0.24028090589E+03  0.00000000000E+00 0.  1.
         -1    1    6    6    0  502 -0.12111732966E+02 -0.13828484381E+02  0.25282623224E+01  0.18555677462E+02  0.00000000000E+00 0.  1.
<mgrwt>
<rscale>  0 0.17479985E+04</rscale>
<asrwt>0</asrwt>
<pdfrwt beam="1">  1        2 0.17991971E+00 0.17479985E+04</pdfrwt>
<pdfrwt beam="2">  1       -2 0.10048857E+00 0.17479985E+04</pdfrwt>
<totfact> 0.15295875E+01</totfact>
</mgrwt>
</event>
<event>
12    1  0.1494110E-007  0.2152366E+04  0.7818608E-02  0.8538520E-01
         -2   -1    0    0    0  501 -0.00000000000E+00  0.00000000000E+00  0.10790641604E+04  0.10790641604E+04  0.00000000000E+00 0.  1.
          2   -1    0    0  501    0  0.00000000000E+00 -0.00000000000E+00 -0.10733099616E+04  0.10733099616E+04  0.00000000000E+00 0. -1.
         23    2    1    2    0    0  0.23281392332E+03 -0.70561233079E+02  0.85294937592E+03  0.89153548145E+03  0.90175752239E+02 0.  0.
        254    2    1    2    0    0 -0.23281392332E+03  0.70561233079E+02 -0.84719517714E+03  0.12608386405E+04  0.90155044157E+03 0.  0.
        -24    2    4    4    0    0  0.13565797969E+03  0.31509573485E+03 -0.64693763898E+02  0.35845368629E+03  0.81334817635E+02 0.  0.
         24    2    4    4    0    0 -0.36847190301E+03 -0.24453450177E+03 -0.78250141325E+03  0.90238495421E+03  0.80134124982E+02 0.  0.
         13    1    3    3    0    0  0.19392463812E+03 -0.90492926538E+02  0.74349953454E+03  0.77368423332E+03  0.00000000000E+00 0.  1.
        -13    1    3    3    0    0  0.38889285202E+02  0.19931693459E+02  0.10944984138E+03  0.11785124813E+03  0.00000000000E+00 0. -1.
          4    1    6    6  502    0 -0.43732255804E+02 -0.64876153129E+02 -0.14234807104E+03  0.16243275153E+03  0.00000000000E+00 0. -1.
          3    1    5    5  503    0  0.11369847234E+03  0.17213201166E+03 -0.54947123919E+02  0.21348526524E+03  0.00000000000E+00 0. -1.
         -4    1    5    5    0  503  0.21959507349E+02  0.14296372319E+03 -0.97466399788E+01  0.14496842105E+03  0.00000000000E+00 0.  1.
         -3    1    6    6    0  502 -0.32473964720E+03 -0.17965834864E+03 -0.64015334221E+03  0.73995220267E+03  0.00000000000E+00 0.  1.
<mgrwt>
<rscale>  0 0.21523664E+04</rscale>
<asrwt>0</asrwt>
<pdfrwt beam="1">  1        2 0.16512461E+00 0.21523664E+04</pdfrwt>
<pdfrwt beam="2">  1       -2 0.16600987E+00 0.21523664E+04</pdfrwt>
<totfact> 0.47277496E+00</totfact>
</mgrwt>
</event>
<event>
12    1  0.1494110E-007  0.2036982E+04  0.7818608E-02  0.8589523E-01
          2   -1    0    0  501    0  0.00000000000E+00  0.00000000000E+00  0.73534442547E+03  0.73534442547E+03  0.00000000000E+00 0.  1.
         -2   -1    0    0    0  501 -0.00000000000E+00 -0.00000000000E+00 -0.14106633825E+04  0.14106633825E+04  0.00000000000E+00 0. -1.
         23    2    1    2    0    0 -0.78098530290E+03  0.23964691840E+03 -0.20509799007E+03  0.84721504029E+03  0.91320589728E+02 0.  0.
        254    2    1    2    0    0  0.78098530290E+03 -0.23964691840E+03 -0.47022096697E+03  0.12987927677E+04  0.89352459775E+03 0.  0.
        -24    2    4    4    0    0 -0.35551760923E+02  0.67486023497E+02  0.17751784196E+03  0.20920140658E+03  0.80214420315E+02 0.  0.
         24    2    4    4    0    0  0.81653706383E+03 -0.30713294190E+03 -0.64773880894E+03  0.10895913611E+04  0.81119350424E+02 0.  0.
         11    1    3    3    0    0 -0.38859885889E+03  0.15304158386E+03 -0.13775413211E+03  0.43978062762E+03  0.00000000000E+00 0.  1.
        -11    1    3    3    0    0 -0.39238644402E+03  0.86605334537E+02 -0.67343857964E+02  0.40743441266E+03  0.00000000000E+00 0. -1.
          4    1    6    6  502    0  0.13167805800E+03 -0.22473164611E+02 -0.11718237967E+03  0.17769598812E+03  0.00000000000E+00 0. -1.
          3    1    5    5  503    0 -0.12256624173E+02  0.14450358566E+02  0.13749264037E+03  0.13879216064E+03  0.00000000000E+00 0. -1.
         -4    1    5    5    0  503 -0.23295136750E+02  0.53035664932E+02  0.40025201591E+02  0.70409245937E+02  0.00000000000E+00 0.  1.
         -3    1    6    6    0  502  0.68485900583E+03 -0.28465977729E+03 -0.53055642926E+03  0.91189537300E+03  0.00000000000E+00 0.  1.
<mgrwt>
<rscale>  0 0.20369815E+04</rscale>
<asrwt>0</asrwt>
<pdfrwt beam="1">  1        2 0.11312991E+00 0.20369815E+04</pdfrwt>
<pdfrwt beam="2">  1       -2 0.21702513E+00 0.20369815E+04</pdfrwt>
<totfact> 0.36767724E+00</totfact>
</mgrwt>
</event>
<event>
12    1  0.1494110E-007  0.1527422E+04  0.7818608E-02  0.8866419E-01
          2   -1    0    0  501    0  0.00000000000E+00  0.00000000000E+00  0.18682576358E+04  0.18682576358E+04  0.00000000000E+00 0. -1.
         -2   -1    0    0    0  501 -0.00000000000E+00 -0.00000000000E+00 -0.31219180677E+03  0.31219180677E+03  0.00000000000E+00 0.  1.
         23    2    1    2    0    0 -0.24570534181E+03 -0.74575940895E+02  0.11520059268E+04  0.11838046833E+04  0.91341047394E+02 0.  0.
        254    2    1    2    0    0  0.24570534181E+03  0.74575940895E+02  0.40405990223E+03  0.99664475925E+03  0.87413024521E+03 0.  0.
        -24    2    4    4    0    0  0.41391687384E+03  0.10309622660E+03 -0.11129376118E+03  0.44799829022E+03  0.79750588539E+02 0.  0.
         24    2    4    4    0    0 -0.16821153203E+03 -0.28520285702E+02  0.51535366341E+03  0.54864646903E+03  0.79467121338E+02 0.  0.
         11    1    3    3    0    0 -0.98868721490E+01  0.12022513494E+02  0.14925023954E+03  0.15005973836E+03  0.00000000000E+00 0.  1.
        -11    1    3    3    0    0 -0.23581846966E+03 -0.86598454389E+02  0.10027556872E+04  0.10337449449E+04  0.00000000000E+00 0. -1.
          4    1    6    6  502    0 -0.91720743704E+02 -0.11216764570E+02  0.38988033393E+03  0.40068090224E+03  0.00000000000E+00 0. -1.
          3    1    5    5  503    0  0.39818569884E+03  0.10811074433E+03 -0.11950331678E+03  0.42955887434E+03  0.00000000000E+00 0. -1.
         -4    1    5    5    0  503  0.15731175003E+02 -0.50145177323E+01  0.82095555967E+01  0.18439415884E+02  0.00000000000E+00 0.  1.
         -3    1    6    6    0  502 -0.76490788329E+02 -0.17303521132E+02  0.12547332949E+03  0.14796556679E+03  0.00000000000E+00 0.  1.
<mgrwt>
<rscale>  0 0.15274223E+04</rscale>
<asrwt>0</asrwt>
<pdfrwt beam="1">  1        2 0.28742425E+00 0.15274223E+04</pdfrwt>
<pdfrwt beam="2">  1       -2 0.48029510E-01 0.15274223E+04</pdfrwt>
<totfact> 0.31316522E+01</totfact>
</mgrwt>
</event>
<event>
12    1  0.1494110E-007  0.1428024E+04  0.7818608E-02  0.8933780E-01
          2   -1    0    0  501    0  0.00000000000E+00  0.00000000000E+00  0.55548404375E+03  0.55548404375E+03  0.00000000000E+00 0. -1.
         -2   -1    0    0    0  501 -0.00000000000E+00 -0.00000000000E+00 -0.91778158652E+03  0.91778158652E+03  0.00000000000E+00 0.  1.
         23    2    1    2    0    0  0.39844336136E+03 -0.13797003173E+03 -0.85371850596E+02  0.43867376114E+03  0.85752399229E+02 0.  0.
        254    2    1    2    0    0 -0.39844336136E+03  0.13797003173E+03 -0.27692569217E+03  0.10345918691E+04  0.90327163955E+03 0.  0.
        -24    2    4    4    0    0 -0.36255256510E+02 -0.28678328826E+03  0.14269370882E+03  0.33162581321E+03  0.77814442134E+02 0.  0.
         24    2    4    4    0    0 -0.36218810485E+03  0.42475331998E+03 -0.41961940099E+03  0.70296605591E+03  0.80530912998E+02 0.  0.
         11    1    3    3    0    0  0.21362416124E+02 -0.32092255493E+02 -0.53866012714E+01  0.38926612472E+02  0.00000000000E+00 0.  1.
        -11    1    3    3    0    0  0.37708094524E+03 -0.10587777623E+03 -0.79985249325E+02  0.39974714867E+03  0.00000000000E+00 0. -1.
          2    1    6    6  502    0 -0.19709701145E+03  0.17225210788E+03 -0.17955952167E+03  0.31742659373E+03  0.00000000000E+00 0. -1.
          1    1    5    5  503    0 -0.29746404535E+02 -0.46989707583E+02  0.48915187384E+02  0.74064679560E+02  0.00000000000E+00 0. -1.
         -2    1    5    5    0  503 -0.65088519749E+01 -0.23979358067E+03  0.93778521438E+02  0.25756113365E+03  0.00000000000E+00 0.  1.
         -1    1    6    6    0  502 -0.16509109341E+03  0.25250121211E+03 -0.24005987933E+03  0.38553946218E+03  0.00000000000E+00 0.  1.
<mgrwt>
<rscale>  0 0.14280238E+04</rscale>
<asrwt>0</asrwt>
<pdfrwt beam="1">  1        2 0.85459083E-01 0.14280238E+04</pdfrwt>
<pdfrwt beam="2">  1       -2 0.14119717E+00 0.14280238E+04</pdfrwt>
<totfact> 0.18551703E+01</totfact>
</mgrwt>
</event>
<event>
12    1  0.1494110E-007  0.1915204E+04  0.7818608E-02  0.8647325E-01
          1   -1    0    0  501    0  0.00000000000E+00  0.00000000000E+00  0.14198300810E+04  0.14198300810E+04  0.00000000000E+00 0. -1.
         -1   -1    0    0    0  501 -0.00000000000E+00 -0.00000000000E+00 -0.64585337155E+03  0.64585337155E+03  0.00000000000E+00 0.  1.
         23    2    1    2    0    0  0.37030709083E+03 -0.57867837308E+03  0.62100178895E+03  0.93057565443E+03  0.91278835159E+02 0.  0.
        254    2    1    2    0    0 -0.37030709083E+03  0.57867837308E+03  0.15297492052E+03  0.11351077981E+04  0.89054611678E+03 0.  0.
        -24    2    4    4    0    0 -0.21375246417E+03 -0.15073872856E+03 -0.16614411943E+03  0.31985515246E+03  0.79316895457E+02 0.  0.
         24    2    4    4    0    0 -0.15655462666E+03  0.72941710164E+03  0.31911903995E+03  0.81525264568E+03  0.79001616102E+02 0.  0.
         13    1    3    3    0    0  0.21569272093E+03 -0.30625798154E+03  0.39460205977E+03  0.54408463192E+03  0.00000000000E+00 0. -1.
        -13    1    3    3    0    0  0.15461436990E+03 -0.27242039153E+03  0.22639972918E+03  0.38649102251E+03  0.00000000000E+00 0.  1.
          2    1    6    6  502    0 -0.16309831801E+03  0.72095150285E+03  0.31731858788E+03  0.80440239745E+03  0.00000000000E+00 0. -1.
          3    1    5    5  503    0 -0.21307650084E+03 -0.15071170766E+03 -0.14473557869E+03  0.29843592574E+03  0.00000000000E+00 0. -1.
         -4    1    5    5    0  503 -0.67596333747E+00 -0.27020900684E-01 -0.21408540740E+02  0.21419226718E+02  0.00000000000E+00 0.  1.
         -1    1    6    6    0  502  0.65436913441E+01  0.84655987812E+01  0.18004520714E+01  0.10850248236E+02  0.00000000000E+00 0.  1.
<mgrwt>
<rscale>  0 0.19152045E+04</rscale>
<asrwt>0</asrwt>
<pdfrwt beam="1">  1        1 0.21843540E+00 0.19152045E+04</pdfrwt>
<pdfrwt beam="2">  1       -1 0.99362058E-01 0.19152045E+04</pdfrwt>
<totfact> 0.67241779E+00</totfact>
</mgrwt>
</event>
<event>
12    1  0.1494110E-007  0.2053628E+04  0.7818608E-02  0.8581950E-01
          2   -1    0    0  501    0  0.00000000000E+00  0.00000000000E+00  0.18044472486E+04  0.18044472486E+04  0.00000000000E+00 0. -1.
         -2   -1    0    0    0  501 -0.00000000000E+00 -0.00000000000E+00 -0.58430451429E+03  0.58430451429E+03  0.00000000000E+00 0.  1.
         23    2    1    2    0    0  0.17297889255E+03  0.50227332871E+03 -0.24084931450E+03  0.59005008300E+03  0.89165655643E+02 0.  0.
        254    2    1    2    0    0 -0.17297889255E+03 -0.50227332871E+03  0.14609920488E+04  0.17987016798E+04  0.90478161593E+03 0.  0.
        -24    2    4    4    0    0  0.25928893428E+03 -0.18643922335E+03  0.11665705021E+03  0.34945657787E+03  0.80750832854E+02 0.  0.
         24    2    4    4    0    0 -0.43226782683E+03 -0.31583410536E+03  0.13443349986E+04  0.14492451020E+04  0.80424629663E+02 0.  0.
         11    1    3    3    0    0  0.93159417742E+01  0.10873294973E+03 -0.23574101244E+02  0.11164846339E+03  0.00000000000E+00 0. -1.
        -11    1    3    3    0    0  0.16366295077E+03  0.39354037898E+03 -0.21727521326E+03  0.47840161961E+03  0.00000000000E+00 0.  1.
          4    1    6    6  502    0 -0.31946379324E+03 -0.27207126801E+03  0.10106377065E+04  0.10942890221E+04  0.00000000000E+00 0. -1.
          3    1    5    5  503    0  0.13836129609E+03 -0.57409430267E+02  0.31037705347E+02  0.15298048925E+03  0.00000000000E+00 0. -1.
         -4    1    5    5    0  503  0.12092763819E+03 -0.12902979309E+03  0.85619344861E+02  0.19647608861E+03  0.00000000000E+00 0.  1.
         -3    1    6    6    0  502 -0.11280403358E+03 -0.43762837346E+02  0.33369729201E+03  0.35495607985E+03  0.00000000000E+00 0.  1.
<mgrwt>
<rscale>  0 0.20536277E+04</rscale>
<asrwt>0</asrwt>
<pdfrwt beam="1">  1        2 0.27760727E+00 0.20536277E+04</pdfrwt>
<pdfrwt beam="2">  1       -2 0.89893003E-01 0.20536277E+04</pdfrwt>
<totfact> 0.84103119E+00</totfact>
</mgrwt>
</event>
<event>
12    1  0.1494110E-007  0.1494920E+04  0.7818608E-02  0.8887838E-01
          1   -1    0    0  501    0  0.00000000000E+00  0.00000000000E+00  0.64552322372E+03  0.64552322372E+03  0.00000000000E+00 0. -1.
         -1   -1    0    0    0  501 -0.00000000000E+00 -0.00000000000E+00 -0.86549450305E+03  0.86549450305E+03  0.00000000000E+00 0.  1.
         23    2    1    2    0    0  0.27341849333E+03  0.38100436790E+03 -0.12846339873E+03  0.49401116945E+03  0.87305153758E+02 0.  0.
        254    2    1    2    0    0 -0.27341849333E+03 -0.38100436790E+03 -0.91507880604E+02  0.10170065573E+04  0.89777872806E+03 0.  0.
        -24    2    4    4    0    0 -0.52257824286E+03  0.23885428044E+02 -0.20850292011E+02  0.52955052108E+03  0.79564352048E+02 0.  0.
         24    2    4    4    0    0  0.24915974953E+03 -0.40488979595E+03 -0.70657588592E+02  0.48745603623E+03  0.81268473493E+02 0.  0.
         13    1    3    3    0    0  0.12817809613E+03  0.13909754932E+03 -0.89220044373E+02  0.20913624476E+03  0.00000000000E+00 0. -1.
        -13    1    3    3    0    0  0.14524039719E+03  0.24190681858E+03 -0.39243354353E+02  0.28487492469E+03  0.00000000000E+00 0.  1.
          4    1    6    6  502    0  0.21583822157E+03 -0.37777012893E+03 -0.44970978171E+02  0.43740004239E+03  0.00000000000E+00 0. -1.
          3    1    5    5  503    0 -0.23544390815E+03  0.39666564760E+02 -0.36604768229E+02  0.24155160795E+03  0.00000000000E+00 0. -1.
         -4    1    5    5    0  503 -0.28713433471E+03 -0.15781136716E+02  0.15754476218E+02  0.28799891313E+03  0.00000000000E+00 0.  1.
         -3    1    6    6    0  502  0.33321527961E+02 -0.27119667016E+02 -0.25686610421E+02  0.50055993843E+02  0.00000000000E+00 0.  1.
<mgrwt>
<rscale>  0 0.14949205E+04</rscale>
<asrwt>0</asrwt>
<pdfrwt beam="1">  1        1 0.99311266E-01 0.14949205E+04</pdfrwt>
<pdfrwt beam="2">  1       -1 0.13315300E+00 0.14949205E+04</pdfrwt>
<totfact> 0.14212560E+01</totfact>
</mgrwt>
</event>
<event>
12    1  0.1494110E-007  0.1500218E+04  0.7818608E-02  0.8884308E-01
          2   -1    0    0  501    0  0.00000000000E+00  0.00000000000E+00  0.15702456756E+04  0.15702456756E+04  0.00000000000E+00 0. -1.
         -2   -1    0    0    0  501 -0.00000000000E+00 -0.00000000000E+00 -0.35832826316E+03  0.35832826316E+03  0.00000000000E+00 0.  1.
         23    2    1    2    0    0  0.17222109425E+03 -0.23447138738E+03 -0.91574437845E+02  0.31794688054E+03  0.89818730657E+02 0.  0.
        254    2    1    2    0    0 -0.17222109425E+03  0.23447138738E+03  0.13034918503E+04  0.16106270583E+04  0.90021751823E+03 0.  0.
        -24    2    4    4    0    0  0.35674086195E+03  0.12526481940E+03  0.68420593914E+03  0.78524250689E+03  0.74247625584E+02 0.  0.
         24    2    4    4    0    0 -0.52896195620E+03  0.10920656797E+03  0.61928591119E+03  0.82538455138E+03  0.77574430422E+02 0.  0.
         11    1    3    3    0    0  0.56154975826E+02 -0.12338390047E+03 -0.54802383167E+01  0.13567240403E+03  0.00000000000E+00 0. -1.
        -11    1    3    3    0    0  0.11606611842E+03 -0.11108748691E+03 -0.86094199528E+02  0.18227447650E+03  0.00000000000E+00 0.  1.
          2    1    6    6  502    0 -0.20691489230E+03  0.54694135841E+02  0.19173394491E+03  0.28734496129E+03  0.00000000000E+00 0. -1.
          1    1    5    5  503    0  0.45945064814E+02 -0.58077886129E+01  0.60730944778E+02  0.76373601741E+02  0.00000000000E+00 0. -1.
         -2    1    5    5    0  503  0.31079579714E+03  0.13107260801E+03  0.62347499436E+03  0.70886890515E+03  0.00000000000E+00 0.  1.
         -1    1    6    6    0  502 -0.32204706390E+03  0.54512432133E+02  0.42755196629E+03  0.53803959009E+03  0.00000000000E+00 0.  1.
<mgrwt>
<rscale>  0 0.15002179E+04</rscale>
<asrwt>0</asrwt>
<pdfrwt beam="1">  1        2 0.24157625E+00 0.15002179E+04</pdfrwt>
<pdfrwt beam="2">  1       -2 0.55127426E-01 0.15002179E+04</pdfrwt>
<totfact> 0.34637037E+01</totfact>
</mgrwt>
</event>
<event>
12    1  0.1494110E-007  0.1544140E+04  0.7818608E-02  0.8855620E-01
         -2   -1    0    0    0  501 -0.00000000000E+00  0.00000000000E+00  0.14470824268E+04  0.14470824268E+04  0.00000000000E+00 0. -1.
          2   -1    0    0  501    0  0.00000000000E+00 -0.00000000000E+00 -0.41192666143E+03  0.41192666143E+03  0.00000000000E+00 0.  1.
         23    2    1    2    0    0 -0.21560984354E+03 -0.32441192178E+03  0.72917090708E+03  0.83223870822E+03  0.95918486792E+02 0.  0.
        254    2    1    2    0    0  0.21560984354E+03  0.32441192178E+03  0.30598485831E+03  0.10267703800E+04  0.89938867025E+03 0.  0.
        -24    2    4    4    0    0 -0.21308282499E+03 -0.19383879070E+03  0.53238537718E+02  0.30382815619E+03  0.80619101369E+02 0.  0.
         24    2    4    4    0    0  0.42869266853E+03  0.51825071248E+03  0.25274632060E+03  0.72294222385E+03  0.80022193263E+02 0.  0.
         11    1    3    3    0    0 -0.10263640589E+03 -0.12465761441E+03  0.39623424589E+03  0.42787303053E+03  0.00000000000E+00 0. -1.
        -11    1    3    3    0    0 -0.11297343765E+03 -0.19975430737E+03  0.33293666119E+03  0.40436567769E+03  0.00000000000E+00 0.  1.
          2    1    6    6  502    0  0.38185373596E+03  0.49436503351E+03  0.23018386208E+03  0.66572792670E+03  0.00000000000E+00 0. -1.
          3    1    5    5  503    0 -0.14979705476E+03 -0.87175369134E+02  0.47327663477E+02  0.17966249005E+03  0.00000000000E+00 0. -1.
         -2    1    5    5    0  503 -0.63285770232E+02 -0.10666342156E+03  0.59108742411E+01  0.12416566614E+03  0.00000000000E+00 0.  1.
         -1    1    6    6    0  502  0.46838932573E+02  0.23885678966E+02  0.22562458518E+02  0.57214297152E+02  0.00000000000E+00 0.  1.
<mgrwt>
<rscale>  0 0.15441397E+04</rscale>
<asrwt>0</asrwt>
<pdfrwt beam="1">  1        2 0.63373334E-01 0.15441397E+04</pdfrwt>
<pdfrwt beam="2">  1       -2 0.22262806E+00 0.15441397E+04</pdfrwt>
<totfact> 0.70419218E+00</totfact>
</mgrwt>
</event>
<event>
12    1  0.1494110E-007  0.2667136E+04  0.7818608E-02  0.8345748E-01
         -1   -1    0    0    0  501 -0.00000000000E+00  0.00000000000E+00  0.62847786691E+03  0.62847786691E+03  0.00000000000E+00 0.  1.
          1   -1    0    0  501    0  0.00000000000E+00 -0.00000000000E+00 -0.28296993255E+04  0.28296993255E+04  0.00000000000E+00 0. -1.
         23    2    1    2    0    0  0.45596903659E+03  0.93518526447E+03 -0.25054263108E+03  0.10739902523E+04  0.90577098436E+02 0.  0.
        254    2    1    2    0    0 -0.45596903659E+03 -0.93518526447E+03 -0.19506788275E+04  0.23841869402E+04  0.89259186434E+03 0.  0.
        -24    2    4    4    0    0  0.23531370884E+03 -0.47297701493E+03 -0.71403396694E+03  0.89171396087E+03  0.78927079274E+02 0.  0.
         24    2    4    4    0    0 -0.69128274543E+03 -0.46220824954E+03 -0.12366448606E+04  0.14924729793E+04  0.81711582123E+02 0.  0.
         13    1    3    3    0    0  0.28440918163E+03  0.56440929856E+03 -0.10729059110E+03  0.64105983327E+03  0.00000000000E+00 0. -1.
        -13    1    3    3    0    0  0.17155985496E+03  0.37077596592E+03 -0.14325203998E+03  0.43293041900E+03  0.00000000000E+00 0.  1.
          4    1    6    6  502    0 -0.60819024115E+03 -0.43630653428E+03 -0.11119217864E+04  0.13403838332E+04  0.00000000000E+00 0. -1.
          3    1    5    5  503    0  0.19526849925E+03 -0.33116193627E+03 -0.55212835664E+03  0.67278803277E+03  0.00000000000E+00 0. -1.
         -2    1    5    5    0  503  0.40045209583E+02 -0.14181507866E+03 -0.16190561030E+03  0.21892592810E+03  0.00000000000E+00 0.  1.
         -3    1    6    6    0  502 -0.83092504281E+02 -0.25901715259E+02 -0.12472307423E+03  0.15208914612E+03  0.00000000000E+00 0.  1.
<mgrwt>
<rscale>  0 0.26671358E+04</rscale>
<asrwt>0</asrwt>
<pdfrwt beam="1">  1        1 0.43533835E+00 0.26671358E+04</pdfrwt>
<pdfrwt beam="2">  1       -1 0.96688904E-01 0.26671358E+04</pdfrwt>
<totfact> 0.71477807E-01</totfact>
</mgrwt>
</event>
<event>
12    1  0.1494110E-007  0.1264617E+04  0.7818608E-02  0.9058104E-01
         -2   -1    0    0    0  501 -0.00000000000E+00  0.00000000000E+00  0.16372760386E+03  0.16372760386E+03  0.00000000000E+00 0.  1.
          2   -1    0    0  501    0  0.00000000000E+00 -0.00000000000E+00 -0.24419475095E+04  0.24419475095E+04  0.00000000000E+00 0. -1.
         23    2    1    2    0    0  0.14736114572E+03 -0.98555451370E+02 -0.66364428417E+02  0.20968113974E+03  0.90185690349E+02 0.  0.
        254    2    1    2    0    0 -0.14736114572E+03  0.98555451370E+02 -0.22118554772E+04  0.23959939736E+04  0.90391038561E+03 0.  0.
        -24    2    4    4    0    0  0.16344983090E+03  0.27215018817E+03 -0.18613543973E+04  0.18898706387E+04  0.78671889481E+02 0.  0.
         24    2    4    4    0    0 -0.31081097662E+03 -0.17359473680E+03 -0.35050107985E+03  0.50612333494E+03  0.81063107264E+02 0.  0.
         11    1    3    3    0    0  0.68853904485E+02 -0.73326404092E+02  0.48813369848E+01  0.10070476230E+03  0.00000000000E+00 0.  1.
        -11    1    3    3    0    0  0.78507241231E+02 -0.25229047278E+02 -0.71245765402E+02  0.10897637744E+03  0.00000000000E+00 0. -1.
          4    1    6    6  502    0 -0.19930711836E+03 -0.14399181966E+03 -0.20291330679E+03  0.31879583063E+03  0.00000000000E+00 0. -1.
          1    1    5    5  503    0  0.58292381452E+02  0.14434985396E+03 -0.10816016686E+04  0.10927474785E+04  0.00000000000E+00 0. -1.
         -2    1    5    5    0  503  0.10515744945E+03  0.12780033421E+03 -0.77975272871E+03  0.79712316020E+03  0.00000000000E+00 0.  1.
         -3    1    6    6    0  502 -0.11150385826E+03 -0.29602917134E+02 -0.14758777307E+03  0.18732750430E+03  0.00000000000E+00 0.  1.
<mgrwt>
<rscale>  0 0.12646173E+04</rscale>
<asrwt>0</asrwt>
<pdfrwt beam="1">  1        2 0.37568422E+00 0.12646173E+04</pdfrwt>
<pdfrwt beam="2">  1       -2 0.25188863E-01 0.12646173E+04</pdfrwt>
<totfact> 0.52532361E+01</totfact>
</mgrwt>
</event>
<event>
12    1  0.1494110E-007  0.1269168E+04  0.7818608E-02  0.9054379E-01
          2   -1    0    0  501    0  0.00000000000E+00  0.00000000000E+00  0.58029636379E+03  0.58029636379E+03  0.00000000000E+00 0. -1.
         -2   -1    0    0    0  501 -0.00000000000E+00 -0.00000000000E+00 -0.69394985904E+03  0.69394985904E+03  0.00000000000E+00 0.  1.
         23    2    1    2    0    0  0.28843759828E+03 -0.12483061860E+02 -0.14030084873E+03  0.33309075964E+03  0.88955331878E+02 0.  0.
        254    2    1    2    0    0 -0.28843759828E+03  0.12483061860E+02  0.26647353482E+02  0.94115546319E+03  0.89538340922E+03 0.  0.
        -24    2    4    4    0    0  0.51176310023E+02 -0.95375448785E+02 -0.37500645457E+03  0.39835668250E+03  0.79641161351E+02 0.  0.
         24    2    4    4    0    0 -0.33961390830E+03  0.10785851064E+03  0.40165380806E+03  0.54279878069E+03  0.79584356276E+02 0.  0.
         13    1    3    3    0    0  0.19526782656E+03  0.19747467145E+02 -0.12660770969E+03  0.23355727071E+03  0.00000000000E+00 0.  1.
        -13    1    3    3    0    0  0.93169771724E+02 -0.32230529004E+02 -0.13693139040E+02  0.99533488936E+02  0.00000000000E+00 0. -1.
          4    1    6    6  502    0  0.40135732281E+01  0.36722206604E+01  0.10478962998E+02  0.11806889520E+02  0.00000000000E+00 0. -1.
          3    1    5    5  503    0  0.36913304928E+02 -0.15902855113E+02 -0.53791439890E+02  0.67149176368E+02  0.00000000000E+00 0. -1.
         -4    1    5    5    0  503  0.14263005094E+02 -0.79472593672E+02 -0.32121501468E+03  0.33120750613E+03  0.00000000000E+00 0.  1.
         -3    1    6    6    0  502 -0.34362748153E+03  0.10418628998E+03  0.39117484506E+03  0.53099189117E+03  0.00000000000E+00 0.  1.
<mgrwt>
<rscale>  0 0.12691676E+04</rscale>
<asrwt>0</asrwt>
<pdfrwt beam="1">  1        2 0.89276364E-01 0.12691676E+04</pdfrwt>
<pdfrwt beam="2">  1       -2 0.10676152E+00 0.12691676E+04</pdfrwt>
<totfact> 0.35822750E+01</totfact>
</mgrwt>
</event>
<event>
12    1  0.1494110E-007  0.2222351E+04  0.7818608E-02  0.8509182E-01
          1   -1    0    0  501    0  0.00000000000E+00  0.00000000000E+00  0.90377112675E+03  0.90377112675E+03  0.00000000000E+00 0. -1.
         -1   -1    0    0    0  501 -0.00000000000E+00 -0.00000000000E+00 -0.13661769775E+04  0.13661769775E+04  0.00000000000E+00 0.  1.
         23    2    1    2    0    0 -0.32139468388E+03 -0.17749252368E+03  0.67559699496E+03  0.77398135553E+03  0.88417760179E+02 0.  0.
        254    2    1    2    0    0  0.32139468388E+03  0.17749252368E+03 -0.11380028457E+04  0.14959667487E+04  0.89892596895E+03 0.  0.
        -24    2    4    4    0    0  0.47104500230E+03  0.27953196656E+03 -0.11693589254E+04  0.12936700834E+04  0.78488686460E+02 0.  0.
         24    2    4    4    0    0 -0.14965031842E+03 -0.10203944288E+03  0.31356079719E+02  0.20229666525E+03  0.84459879986E+02 0.  0.
         13    1    3    3    0    0 -0.62866365562E+02 -0.22641445477E+01  0.14898617536E+03  0.16172256094E+03  0.00000000000E+00 0.  1.
        -13    1    3    3    0    0 -0.25852831832E+03 -0.17522837913E+03  0.52661081960E+03  0.61225879458E+03  0.00000000000E+00 0. -1.
          2    1    6    6  502    0 -0.46492660737E+02 -0.74617109947E+02  0.37050713669E+02  0.95404590994E+02  0.00000000000E+00 0. -1.
          1    1    5    5  503    0  0.11019533933E+03  0.95059038472E+02 -0.36612353144E+03  0.39398689557E+03  0.00000000000E+00 0. -1.
         -2    1    5    5    0  503  0.36084966297E+03  0.18447292809E+03 -0.80323539394E+03  0.89968318787E+03  0.00000000000E+00 0.  1.
         -1    1    6    6    0  502 -0.10315765768E+03 -0.27422332937E+02 -0.56946339504E+01  0.10689207425E+03  0.00000000000E+00 0.  1.
<mgrwt>
<rscale>  0 0.22223513E+04</rscale>
<asrwt>0</asrwt>
<pdfrwt beam="1">  1        1 0.13904171E+00 0.22223513E+04</pdfrwt>
<pdfrwt beam="2">  1       -1 0.21018107E+00 0.22223513E+04</pdfrwt>
<totfact> 0.21074592E+00</totfact>
</mgrwt>
</event>
<event>
12    1  0.1494110E-007  0.1150044E+04  0.7818608E-02  0.9157743E-01
         -1   -1    0    0    0  501 -0.00000000000E+00  0.00000000000E+00  0.31692223793E+03  0.31692223793E+03  0.00000000000E+00 0.  1.
          1   -1    0    0  501    0  0.00000000000E+00 -0.00000000000E+00 -0.10433159593E+04  0.10433159593E+04  0.00000000000E+00 0. -1.
         23    2    1    2    0    0  0.14777730543E+03  0.49475953497E+02 -0.26101563037E+03  0.31656741616E+03  0.88316293524E+02 0.  0.
        254    2    1    2    0    0 -0.14777730543E+03 -0.49475953497E+02 -0.46537809103E+03  0.10436707811E+04  0.92107867728E+03 0.  0.
        -24    2    4    4    0    0 -0.38379864031E+03  0.30821768058E+03 -0.25450240378E+03  0.55980105002E+03  0.79411631056E+02 0.  0.
         24    2    4    4    0    0  0.23602133489E+03 -0.35769363408E+03 -0.21087568725E+03  0.48386973108E+03  0.77527767898E+02 0.  0.
         13    1    3    3    0    0  0.13404646486E+03  0.40800650614E+02 -0.26507162603E+03  0.29982680794E+03  0.00000000000E+00 0. -1.
        -13    1    3    3    0    0  0.13730840563E+02  0.86753028837E+01  0.40559956609E+01  0.16740608218E+02  0.00000000000E+00 0.  1.
          4    1    6    6  502    0  0.83386529732E+02 -0.11278879874E+03 -0.30451633805E+02  0.14353371890E+03  0.00000000000E+00 0. -1.
          3    1    5    5  503    0 -0.78121221404E+02  0.50111505955E+02 -0.83027484504E+02  0.12452972113E+03  0.00000000000E+00 0. -1.
         -4    1    5    5    0  503 -0.30567741891E+03  0.25810617463E+03 -0.17147491928E+03  0.43527132889E+03  0.00000000000E+00 0.  1.
         -3    1    6    6    0  502  0.15263480515E+03 -0.24490483534E+03 -0.18042405344E+03  0.34033601217E+03  0.00000000000E+00 0.  1.
<mgrwt>
<rscale>  0 0.11500435E+04</rscale>
<asrwt>0</asrwt>
<pdfrwt beam="1">  1        1 0.16051015E+00 0.11500435E+04</pdfrwt>
<pdfrwt beam="2">  1       -1 0.48757268E-01 0.11500435E+04</pdfrwt>
<totfact> 0.58542206E+01</totfact>
</mgrwt>
</event>
<event>
12    1  0.1494110E-007  0.1399520E+04  0.7818608E-02  0.8954166E-01
         -2   -1    0    0    0  501 -0.00000000000E+00  0.00000000000E+00  0.43450075260E+03  0.43450075260E+03  0.00000000000E+00 0.  1.
          2   -1    0    0  501    0  0.00000000000E+00 -0.00000000000E+00 -0.11269576760E+04  0.11269576760E+04  0.00000000000E+00 0. -1.
         23    2    1    2    0    0  0.19862621755E+03 -0.34640750151E+03 -0.26628594568E+03  0.48850805286E+03  0.91002095823E+02 0.  0.
        254    2    1    2    0    0 -0.19862621755E+03  0.34640750151E+03 -0.42617097768E+03  0.10729503757E+04  0.90008348228E+03 0.  0.
        -24    2    4    4    0    0 -0.37127243576E+03 -0.15241550562E+03 -0.33849478431E+03  0.53172295996E+03  0.84124189367E+02 0.  0.
         24    2    4    4    0    0  0.17264621821E+03  0.49882300714E+03 -0.87676193365E+02  0.54122741573E+03  0.81295089273E+02 0.  0.
         11    1    3    3    0    0  0.11301830254E+03 -0.21006674701E+03 -0.21046979275E+03  0.31811744461E+03  0.00000000000E+00 0. -1.
        -11    1    3    3    0    0  0.85607915008E+02 -0.13634075451E+03 -0.55816152923E+02  0.17039060825E+03  0.00000000000E+00 0.  1.
          4    1    6    6  502    0 -0.73744710016E+01  0.11772268261E+02 -0.75991969372E+01  0.15834042966E+02  0.00000000000E+00 0. -1.
          1    1    5    5  503    0 -0.19357455018E+03 -0.34519275607E+02 -0.15447104389E+03  0.25004797593E+03  0.00000000000E+00 0. -1.
         -2    1    5    5    0  503 -0.17769788557E+03 -0.11789623002E+03 -0.18402374042E+03  0.28167498403E+03  0.00000000000E+00 0.  1.
         -3    1    6    6    0  502  0.18002068921E+03  0.48705073887E+03 -0.80076996428E+02  0.52539337276E+03  0.00000000000E+00 0.  1.
<mgrwt>
<rscale>  0 0.13995199E+04</rscale>
<asrwt>0</asrwt>
<pdfrwt beam="1">  1        2 0.17337810E+00 0.13995199E+04</pdfrwt>
<pdfrwt beam="2">  1       -2 0.66846271E-01 0.13995199E+04</pdfrwt>
<totfact> 0.41950619E+01</totfact>
</mgrwt>
</event>
<event>
12    1  0.1494110E-007  0.2863791E+04  0.7818608E-02  0.8283733E-01
          4   -1    0    0  501    0  0.00000000000E+00  0.00000000000E+00  0.13497774468E+04  0.13497774468E+04  0.00000000000E+00 0. -1.
         -4   -1    0    0    0  501 -0.00000000000E+00 -0.00000000000E+00 -0.15190093442E+04  0.15190093442E+04  0.00000000000E+00 0.  1.
         23    2    1    2    0    0  0.91579572537E+02 -0.15882803313E+02  0.12113265637E+04  0.12183223536E+04  0.91423366325E+02 0.  0.
        254    2    1    2    0    0 -0.91579572537E+02  0.15882803313E+02 -0.13805584611E+04  0.16504644373E+04  0.89969556669E+03 0.  0.
        -24    2    4    4    0    0 -0.21836450492E+03 -0.12080760034E+03 -0.66601723776E+01  0.26175915173E+03  0.78714435204E+02 0.  0.
         24    2    4    4    0    0  0.12678493238E+03  0.13669040366E+03 -0.13738982887E+04  0.13887052856E+04  0.78403934033E+02 0.  0.
         13    1    3    3    0    0  0.81621962540E+02 -0.12615909249E+02  0.12001967012E+04  0.12030350899E+04  0.00000000000E+00 0. -1.
        -13    1    3    3    0    0  0.99576099970E+01 -0.32668940646E+01  0.11129862493E+02  0.15287263744E+02  0.00000000000E+00 0.  1.
          4    1    6    6  502    0  0.40596109514E+02  0.67993378779E+02 -0.82887760563E+03  0.83265192534E+03  0.00000000000E+00 0. -1.
          1    1    5    5  503    0 -0.21944511622E+03 -0.12786322107E+03 -0.92996688648E+01  0.25414886617E+03  0.00000000000E+00 0. -1.
         -2    1    5    5    0  503  0.10806113024E+01  0.70556207243E+01  0.26394964872E+01  0.76102855596E+01  0.00000000000E+00 0.  1.
         -3    1    6    6    0  502  0.86188822867E+02  0.68697024877E+02 -0.54502068312E+03  0.55605336024E+03  0.00000000000E+00 0.  1.
<mgrwt>
<rscale>  0 0.28637909E+04</rscale>
<asrwt>0</asrwt>
<pdfrwt beam="1">  1        4 0.20765807E+00 0.28637909E+04</pdfrwt>
<pdfrwt beam="2">  1       -4 0.23369375E+00 0.28637909E+04</pdfrwt>
<totfact> 0.16103863E-02</totfact>
</mgrwt>
</event>
<event>
12    1  0.1494110E-007  0.2643856E+04  0.7818608E-02  0.8353455E-01
         -2   -1    0    0    0  501 -0.00000000000E+00  0.00000000000E+00  0.90390835924E+03  0.90390835924E+03  0.00000000000E+00 0.  1.
          2   -1    0    0  501    0  0.00000000000E+00 -0.00000000000E+00 -0.19332640119E+04  0.19332640119E+04  0.00000000000E+00 0. -1.
         23    2    1    2    0    0  0.10009113838E+03 -0.92182876317E+03  0.29589651928E+03  0.97760744944E+03  0.91515411242E+02 0.  0.
        254    2    1    2    0    0 -0.10009113838E+03  0.92182876317E+03 -0.13252521720E+04  0.18595649217E+04  0.91755210980E+03 0.  0.
        -24    2    4    4    0    0  0.15311190940E+03  0.44789134665E+03 -0.61138278224E+02  0.48369141826E+03  0.78546698398E+02 0.  0.
         24    2    4    4    0    0 -0.25320304778E+03  0.47393741652E+03 -0.12641138937E+04  0.13758735035E+04  0.79470139073E+02 0.  0.
         13    1    3    3    0    0  0.89796421666E+02 -0.86724552313E+03  0.25429263762E+03  0.90820864358E+03  0.00000000000E+00 0.  1.
        -13    1    3    3    0    0  0.10294716712E+02 -0.54583240037E+02  0.41603881658E+02  0.69398805856E+02  0.00000000000E+00 0. -1.
          2    1    6    6  502    0 -0.54528153869E+02  0.13505763491E+03 -0.42738293573E+03  0.45151972058E+03  0.00000000000E+00 0. -1.
          1    1    5    5  503    0 -0.17027267971E+01  0.83466520801E+02 -0.18003123202E+02  0.85402996541E+02  0.00000000000E+00 0. -1.
         -4    1    5    5    0  503  0.15481463620E+03  0.36442482585E+03 -0.43135155022E+02  0.39828842172E+03  0.00000000000E+00 0.  1.
         -1    1    6    6    0  502 -0.19867489391E+03  0.33887978161E+03 -0.83673095800E+03  0.92435378288E+03  0.00000000000E+00 0.  1.
<mgrwt>
<rscale>  0 0.26438559E+04</rscale>
<asrwt>0</asrwt>
<pdfrwt beam="1">  1        2 0.29742523E+00 0.26438559E+04</pdfrwt>
<pdfrwt beam="2">  1       -2 0.13906283E+00 0.26438559E+04</pdfrwt>
<totfact> 0.23443560E+00</totfact>
</mgrwt>
</event>
<event>
12    1  0.1494110E-007  0.1296565E+04  0.7818608E-02  0.9032293E-01
         -2   -1    0    0    0  501 -0.00000000000E+00  0.00000000000E+00  0.24253105452E+04  0.24253105452E+04  0.00000000000E+00 0.  1.
          2   -1    0    0  501    0  0.00000000000E+00 -0.00000000000E+00 -0.17328514637E+03  0.17328514637E+03  0.00000000000E+00 0. -1.
         23    2    1    2    0    0  0.16894284076E+03  0.25445646427E+03  0.82109976189E+03  0.88090416307E+03  0.92182155964E+02 0.  0.
        254    2    1    2    0    0 -0.16894284076E+03 -0.25445646427E+03  0.14309256369E+04  0.17176915285E+04  0.89979232771E+03 0.  0.
        -24    2    4    4    0    0  0.27647968236E+03 -0.35012427803E+03  0.47933604592E+03  0.65971953531E+03  0.80242105707E+02 0.  0.
         24    2    4    4    0    0 -0.44542252312E+03  0.95667813753E+02  0.95158959103E+03  0.10579719932E+04  0.78920427997E+02 0.  0.
         11    1    3    3    0    0  0.10523220275E+03  0.16284615974E+03  0.38918062905E+03  0.43480369164E+03  0.00000000000E+00 0. -1.
        -11    1    3    3    0    0  0.63710638008E+02  0.91610304535E+02  0.43191913284E+03  0.44610047143E+03  0.00000000000E+00 0.  1.
          2    1    6    6  502    0 -0.30959059510E+02  0.14193726455E+02  0.35520379831E+02  0.49209984960E+02  0.00000000000E+00 0. -1.
          3    1    5    5  503    0  0.68712124108E+02 -0.13034005271E+03  0.11986362661E+03  0.18993992293E+03  0.00000000000E+00 0. -1.
         -4    1    5    5    0  503  0.20776755826E+03 -0.21978422532E+03  0.35947241930E+03  0.46977961237E+03  0.00000000000E+00 0.  1.
         -1    1    6    6    0  502 -0.41446346361E+03  0.81474087298E+02  0.91606921120E+03  0.10087620082E+04  0.00000000000E+00 0.  1.
<mgrwt>
<rscale>  0 0.12965651E+04</rscale>
<asrwt>0</asrwt>
<pdfrwt beam="1">  1        2 0.26659255E-01 0.12965651E+04</pdfrwt>
<pdfrwt beam="2">  1       -2 0.37312468E+00 0.12965651E+04</pdfrwt>
<totfact> 0.22447158E+00</totfact>
</mgrwt>
</event>
<event>
12    1  0.1494110E-007  0.1724361E+04  0.7818608E-02  0.8747591E-01
         -1   -1    0    0    0  501 -0.00000000000E+00  0.00000000000E+00  0.70969444890E+03  0.70969444890E+03  0.00000000000E+00 0.  1.
          1   -1    0    0  501    0  0.00000000000E+00 -0.00000000000E+00 -0.10474295196E+04  0.10474295196E+04  0.00000000000E+00 0. -1.
         23    2    1    2    0    0  0.19723696830E+03  0.17461234911E+03  0.45681264761E+03  0.53512939781E+03  0.91070210570E+02 0.  0.
        254    2    1    2    0    0 -0.19723696830E+03 -0.17461234911E+03 -0.79454771830E+03  0.12219945707E+04  0.89026555590E+03 0.  0.
        -24    2    4    4    0    0 -0.19169771422E+03  0.10289852562E+03 -0.88867137763E+03  0.91835528844E+03  0.79394572639E+02 0.  0.
         24    2    4    4    0    0 -0.55392540828E+01 -0.27751087473E+03  0.94123659333E+02  0.30363928226E+03  0.79338398978E+02 0.  0.
         11    1    3    3    0    0  0.20556464752E+03  0.16107542439E+03  0.41428184673E+03  0.48972601031E+03  0.00000000000E+00 0.  1.
        -11    1    3    3    0    0 -0.83276792141E+01  0.13536924719E+02  0.42530800883E+02  0.45403387491E+02  0.00000000000E+00 0. -1.
          2    1    6    6  502    0  0.29344950756E+02 -0.19546844855E+03  0.80635269216E+02  0.21347385591E+03  0.00000000000E+00 0. -1.
          1    1    5    5  503    0 -0.15047621036E+03  0.10856468694E+03 -0.64508557084E+03  0.67124121956E+03  0.00000000000E+00 0. -1.
         -2    1    5    5    0  503 -0.41221503858E+02 -0.56661613174E+01 -0.24358580680E+03  0.24711406888E+03  0.00000000000E+00 0.  1.
         -1    1    6    6    0  502 -0.34884204839E+02 -0.82042426182E+02  0.13488390117E+02  0.90165426350E+02  0.00000000000E+00 0.  1.
<mgrwt>
<rscale>  0 0.17243607E+04</rscale>
<asrwt>0</asrwt>
<pdfrwt beam="1">  1        1 0.16114300E+00 0.17243607E+04</pdfrwt>
<pdfrwt beam="2">  1       -1 0.10918376E+00 0.17243607E+04</pdfrwt>
<totfact> 0.10256906E+01</totfact>
</mgrwt>
</event>
<event>
12    1  0.2302856E-007  0.2356966E+04  0.7818608E-02  0.8455793E-01
          1   -1    0    0  501    0  0.00000000000E+00  0.00000000000E+00  0.24178602761E+04  0.24178602761E+04  0.00000000000E+00 0. -1.
         -1   -1    0    0    0  501 -0.00000000000E+00 -0.00000000000E+00 -0.57440138828E+03  0.57440138828E+03  0.00000000000E+00 0.  1.
         23    2    1    2    0    0 -0.59846319054E+03 -0.79627383611E+03  0.65340188221E+03  0.11951984477E+04  0.96721751387E+02 0.  0.
        254    2    1    2    0    0  0.59846319054E+03  0.79627383611E+03  0.11900570056E+04  0.17970632167E+04  0.90608515917E+03 0.  0.
        -24    2    4    4    0    0  0.37816463992E+01  0.34072345356E+01 -0.12548982676E+03  0.14801244064E+03  0.78320341339E+02 0.  0.
         24    2    4    4    0    0  0.59468154414E+03  0.79286660157E+03  0.13155468324E+04  0.16490507760E+04  0.80133682019E+02 0.  0.
         13    1    3    3    0    0 -0.76490393197E+02 -0.86666008420E+02  0.42356001863E+02  0.12310892803E+03  0.00000000000E+00 0.  1.
        -13    1    3    3    0    0 -0.52197279734E+03 -0.70960782769E+03  0.61104588035E+03  0.10720895197E+04  0.00000000000E+00 0. -1.
          4    1    6    6  502    0  0.13501601910E+02  0.32398143267E+01  0.17947254186E+02  0.22691266686E+02  0.00000000000E+00 0. -1.
          3    1    5    5  503    0  0.83305551526E+01  0.24168284457E+02 -0.54920490568E+01  0.26147021352E+02  0.00000000000E+00 0. -1.
         -4    1    5    5    0  503 -0.45489087534E+01 -0.20761049921E+02 -0.11999777770E+03  0.12186541929E+03  0.00000000000E+00 0.  1.
         -3    1    6    6    0  502  0.58117994223E+03  0.78962678725E+03  0.12975995782E+04  0.16263595094E+04  0.00000000000E+00 0.  1.
<mgrwt>
<rscale>  0 0.23569661E+04</rscale>
<asrwt>0</asrwt>
<pdfrwt beam="1">  1        1 0.37197850E+00 0.23569661E+04</pdfrwt>
<pdfrwt beam="2">  1       -1 0.88369446E-01 0.23569661E+04</pdfrwt>
<totfact> 0.17464479E+00</totfact>
</mgrwt>
</event>
<event>
12    1  0.1494110E-007  0.1267453E+04  0.7818608E-02  0.9055781E-01
          1   -1    0    0  501    0  0.00000000000E+00  0.00000000000E+00  0.14063187953E+04  0.14063187953E+04  0.00000000000E+00 0. -1.
         -1   -1    0    0    0  501 -0.00000000000E+00 -0.00000000000E+00 -0.28557492817E+03  0.28557492817E+03  0.00000000000E+00 0.  1.
         23    2    1    2    0    0 -0.25474872561E+03  0.16309051394E+03  0.43756085269E+03  0.53965638619E+03  0.90962005313E+02 0.  0.
        254    2    1    2    0    0  0.25474872561E+03 -0.16309051394E+03  0.68318301443E+03  0.11522373373E+04  0.87716385087E+03 0.  0.
        -24    2    4    4    0    0  0.30380000847E+03 -0.38228726736E+03  0.75288773559E+03  0.90090468586E+03  0.79695110717E+02 0.  0.
         24    2    4    4    0    0 -0.49051282852E+02  0.21919675342E+03 -0.69704721162E+02  0.25133265142E+03  0.88634691050E+02 0.  0.
         13    1    3    3    0    0 -0.24537497600E+03  0.15340842523E+03  0.36471744459E+03  0.46557688749E+03  0.00000000000E+00 0.  1.
        -13    1    3    3    0    0 -0.93737496152E+01  0.96820887056E+01  0.72843408106E+02  0.74079498703E+02  0.00000000000E+00 0. -1.
          2    1    6    6  502    0  0.22582115544E+02  0.27515390428E+02 -0.14674076600E+01  0.35625860524E+02  0.00000000000E+00 0. -1.
          1    1    5    5  503    0  0.52470378316E+01 -0.33899466941E+02  0.35663751225E+02  0.49483415568E+02  0.00000000000E+00 0. -1.
         -2    1    5    5    0  503  0.29855297063E+03 -0.34838780042E+03  0.71722398437E+03  0.85142127029E+03  0.00000000000E+00 0.  1.
         -1    1    6    6    0  502 -0.71633398395E+02  0.19168136299E+03 -0.68237313502E+02  0.21570679089E+03  0.00000000000E+00 0.  1.
<mgrwt>
<rscale>  0 0.12674532E+04</rscale>
<asrwt>0</asrwt>
<pdfrwt beam="1">  1        1 0.21635673E+00 0.12674532E+04</pdfrwt>
<pdfrwt beam="2">  1       -1 0.43934605E-01 0.12674532E+04</pdfrwt>
<totfact> 0.38348363E+01</totfact>
</mgrwt>
</event>
<event>
12    1  0.1494110E-007  0.1956512E+04  0.7818608E-02  0.8627227E-01
         -2   -1    0    0    0  501 -0.00000000000E+00  0.00000000000E+00  0.25592705058E+03  0.25592705058E+03  0.00000000000E+00 0. -1.
          2   -1    0    0  501    0  0.00000000000E+00 -0.00000000000E+00 -0.37392865451E+04  0.37392865451E+04  0.00000000000E+00 0.  1.
         23    2    1    2    0    0 -0.21778367164E+02  0.63411358289E+03 -0.48855485704E+03  0.80619086024E+03  0.93185414704E+02 0.  0.
        254    2    1    2    0    0  0.21778367164E+02 -0.63411358289E+03 -0.29948046375E+04  0.31890227355E+04  0.89355294037E+03 0.  0.
        -24    2    4    4    0    0 -0.27788170934E+03 -0.32318471046E+03 -0.24521722382E+04  0.24901310331E+04  0.77053713250E+02 0.  0.
         24    2    4    4    0    0  0.29966007650E+03 -0.31092887243E+03 -0.54263239928E+03  0.69889170235E+03  0.86756934600E+02 0.  0.
         13    1    3    3    0    0 -0.41266414604E+01  0.58643341751E+03 -0.47175441321E+03  0.75264427768E+03  0.00000000000E+00 0. -1.
        -13    1    3    3    0    0 -0.17651725703E+02  0.47680165380E+02 -0.16800443835E+02  0.53546582561E+02  0.00000000000E+00 0.  1.
          4    1    6    6  502    0  0.16994959231E+03 -0.20551312493E+03 -0.27287090456E+03  0.38154559230E+03  0.00000000000E+00 0. -1.
          3    1    5    5  503    0 -0.12630408204E+03 -0.17506343713E+03 -0.14317960904E+04  0.14479778910E+04  0.00000000000E+00 0. -1.
         -4    1    5    5    0  503 -0.15157762730E+03 -0.14812127332E+03 -0.10203761478E+04  0.10421531422E+04  0.00000000000E+00 0.  1.
         -3    1    6    6    0  502  0.12971048419E+03 -0.10541574750E+03 -0.26976149472E+03  0.31734611005E+03  0.00000000000E+00 0.  1.
<mgrwt>
<rscale>  0 0.19565118E+04</rscale>
<asrwt>0</asrwt>
<pdfrwt beam="1">  1        2 0.57527482E+00 0.19565118E+04</pdfrwt>
<pdfrwt beam="2">  1       -2 0.39373395E-01 0.19565118E+04</pdfrwt>
<totfact> 0.31299205E+00</totfact>
</mgrwt>
</event>
<event>
12    1  0.1494110E-007  0.1519449E+04  0.7818608E-02  0.8871621E-01
         -1   -1    0    0    0  501 -0.00000000000E+00  0.00000000000E+00  0.29233472349E+03  0.29233472349E+03  0.00000000000E+00 0.  1.
          1   -1    0    0  501    0  0.00000000000E+00 -0.00000000000E+00 -0.19743860073E+04  0.19743860073E+04  0.00000000000E+00 0. -1.
         23    2    1    2    0    0 -0.51813802939E+03 -0.54843760878E+02 -0.62035083126E+03  0.81495543713E+03  0.88557072256E+02 0.  0.
        254    2    1    2    0    0  0.51813802939E+03  0.54843760878E+02 -0.10617004525E+04  0.14517652936E+04  0.84198560635E+03 0.  0.
        -24    2    4    4    0    0  0.23894346070E+03  0.32771970634E+03 -0.12193430484E+03  0.43090925482E+03  0.79502376435E+02 0.  0.
         24    2    4    4    0    0  0.27919456869E+03 -0.27287594546E+03 -0.93976614767E+03  0.10208560388E+04  0.81091003481E+02 0.  0.
         13    1    3    3    0    0 -0.50202401986E+03 -0.39523043396E+02 -0.60819526936E+03  0.78961488913E+03  0.00000000000E+00 0. -1.
        -13    1    3    3    0    0 -0.16114009529E+02 -0.15320717482E+02 -0.12155561907E+02  0.25340547992E+02  0.00000000000E+00 0.  1.
          2    1    6    6  502    0  0.11272584626E+03 -0.15524823368E+03 -0.39298881552E+03  0.43732063706E+03  0.00000000000E+00 0. -1.
          3    1    5    5  503    0  0.22793057573E+03  0.32608131783E+03 -0.12837701479E+03  0.41804548929E+03  0.00000000000E+00 0. -1.
         -4    1    5    5    0  503  0.11012884962E+02  0.16383885130E+01  0.64427099477E+01  0.12863765528E+02  0.00000000000E+00 0.  1.
         -1    1    6    6    0  502  0.16646872243E+03 -0.11762771178E+03 -0.54677733216E+03  0.58353540174E+03  0.00000000000E+00 0.  1.
<mgrwt>
<rscale>  0 0.15194494E+04</rscale>
<asrwt>0</asrwt>
<pdfrwt beam="1">  1        1 0.30375170E+00 0.15194494E+04</pdfrwt>
<pdfrwt beam="2">  1       -1 0.44974572E-01 0.15194494E+04</pdfrwt>
<totfact> 0.14694445E+01</totfact>
</mgrwt>
</event>
<event>
12    1  0.1494110E-007  0.1422751E+04  0.7818608E-02  0.8937513E-01
         -1   -1    0    0    0  501 -0.00000000000E+00  0.00000000000E+00  0.23123721309E+03  0.23123721309E+03  0.00000000000E+00 0.  1.
          1   -1    0    0  501    0  0.00000000000E+00 -0.00000000000E+00 -0.21884671283E+04  0.21884671283E+04  0.00000000000E+00 0. -1.
         23    2    1    2    0    0 -0.15844586923E+03  0.93682708576E+02  0.49461232556E+02  0.21093649994E+03  0.90367306710E+02 0.  0.
        254    2    1    2    0    0  0.15844586923E+03 -0.93682708576E+02 -0.20066911478E+04  0.22087678415E+04  0.90441388288E+03 0.  0.
        -24    2    4    4    0    0  0.42558795967E+03  0.19187159006E+02 -0.45653966556E+03  0.62964990243E+03  0.80853416207E+02 0.  0.
         24    2    4    4    0    0 -0.26714209045E+03 -0.11286986758E+03 -0.15501514822E+04  0.15791179391E+04  0.80866210810E+02 0.  0.
         11    1    3    3    0    0 -0.14900361432E+03  0.55766199062E+02  0.60691192287E+02  0.17028025975E+03  0.00000000000E+00 0.  1.
        -11    1    3    3    0    0 -0.94422549057E+01  0.37916509514E+02 -0.11229959731E+02  0.40656240197E+02  0.00000000000E+00 0. -1.
          4    1    6    6  502    0 -0.11468281861E+03 -0.24666080519E+02 -0.80068659001E+03  0.80923394630E+03  0.00000000000E+00 0. -1.
          1    1    5    5  503    0  0.29895854635E+03  0.43040697981E+02 -0.35118577202E+03  0.46320639092E+03  0.00000000000E+00 0. -1.
         -2    1    5    5    0  503  0.12662941332E+03 -0.23853538976E+02 -0.10535389353E+03  0.16644351151E+03  0.00000000000E+00 0.  1.
         -3    1    6    6    0  502 -0.15245927183E+03 -0.88203787062E+02 -0.74946489223E+03  0.76988399276E+03  0.00000000000E+00 0.  1.
<mgrwt>
<rscale>  0 0.14227509E+04</rscale>
<asrwt>0</asrwt>
<pdfrwt beam="1">  1        1 0.33668726E+00 0.14227509E+04</pdfrwt>
<pdfrwt beam="2">  1       -1 0.35574955E-01 0.14227509E+04</pdfrwt>
<totfact> 0.16297095E+01</totfact>
</mgrwt>
</event>
<event>
12    1  0.1997403E-007  0.1725397E+04  0.7818608E-02  0.8747011E-01
          2   -1    0    0  501    0  0.00000000000E+00  0.00000000000E+00  0.21703570798E+04  0.21703570798E+04  0.00000000000E+00 0. -1.
         -2   -1    0    0    0  501 -0.00000000000E+00 -0.00000000000E+00 -0.34291532989E+03  0.34291532989E+03  0.00000000000E+00 0.  1.
         23    2    1    2    0    0  0.57100744324E+03  0.13054160153E+03  0.33857473375E+03  0.68271009551E+03  0.91485595644E+02 0.  0.
        254    2    1    2    0    0 -0.57100744324E+03 -0.13054160153E+03  0.14888670161E+04  0.18305623142E+04  0.88946207581E+03 0.  0.
        -24    2    4    4    0    0  0.14754656005E+03 -0.26244858961E+03  0.29687184101E+03  0.43023025306E+03  0.79472832433E+02 0.  0.
         24    2    4    4    0    0 -0.71855400329E+03  0.13190698809E+03  0.11919951751E+04  0.14003320611E+04  0.79737535974E+02 0.  0.
         13    1    3    3    0    0  0.99882672353E+02  0.51727273738E+01  0.94104884283E+02  0.13732820027E+03  0.00000000000E+00 0. -1.
        -13    1    3    3    0    0  0.47112477089E+03  0.12536887415E+03  0.24446984947E+03  0.54538189524E+03  0.00000000000E+00 0.  1.
          2    1    6    6  502    0 -0.67086112199E+03  0.12952900166E+03  0.10724898412E+04  0.12716394405E+04  0.00000000000E+00 0. -1.
          3    1    5    5  503    0  0.14864867973E+03 -0.25907472592E+03  0.30149616208E+03  0.42440084748E+03  0.00000000000E+00 0. -1.
         -4    1    5    5    0  503 -0.11021196824E+01 -0.33738636936E+01 -0.46243210725E+01  0.58294055785E+01  0.00000000000E+00 0.  1.
         -1    1    6    6    0  502 -0.47692881307E+02  0.23779864221E+01  0.11950533395E+03  0.12869262057E+03  0.00000000000E+00 0.  1.
<mgrwt>
<rscale>  0 0.17253970E+04</rscale>
<asrwt>0</asrwt>
<pdfrwt beam="1">  1        2 0.33390108E+00 0.17253970E+04</pdfrwt>
<pdfrwt beam="2">  1       -2 0.52756206E-01 0.17253970E+04</pdfrwt>
<totfact> 0.17277999E+01</totfact>
</mgrwt>
</event>
<event>
12    1  0.1494110E-007  0.1745313E+04  0.7818608E-02  0.8735935E-01
          2   -1    0    0  501    0  0.00000000000E+00  0.00000000000E+00  0.13297324133E+04  0.13297324133E+04  0.00000000000E+00 0. -1.
         -2   -1    0    0    0  501 -0.00000000000E+00 -0.00000000000E+00 -0.57269345384E+03  0.57269345384E+03  0.00000000000E+00 0.  1.
         23    2    1    2    0    0  0.28000655841E+03  0.18728479320E+03  0.89382213343E+03  0.95974626323E+03  0.93357469229E+02 0.  0.
        254    2    1    2    0    0 -0.28000655841E+03 -0.18728479320E+03 -0.13678317392E+03  0.94267960396E+03  0.86974475137E+03 0.  0.
        -24    2    4    4    0    0 -0.10405694025E+03  0.18703939569E+02 -0.48013439561E+03  0.49796558724E+03  0.79139143704E+02 0.  0.
         24    2    4    4    0    0 -0.17594961816E+03 -0.20598873277E+03  0.34335122168E+03  0.44471401672E+03  0.80565930005E+02 0.  0.
         11    1    3    3    0    0  0.24417767410E+02  0.11987094398E+02  0.17291140251E+03  0.17503791280E+03  0.00000000000E+00 0. -1.
        -11    1    3    3    0    0  0.25558879100E+03  0.17529769880E+03  0.72091073091E+03  0.78470835043E+03  0.00000000000E+00 0.  1.
          2    1    6    6  502    0 -0.28812917397E+02 -0.38316159928E+02  0.11918029891E+03  0.12846110684E+03  0.00000000000E+00 0. -1.
          3    1    5    5  503    0 -0.17270967629E+02 -0.17984970732E+02 -0.35033313452E+02  0.43000913322E+02  0.00000000000E+00 0. -1.
         -4    1    5    5    0  503 -0.86785972622E+02  0.36688910301E+02 -0.44510108215E+03  0.45496467392E+03  0.00000000000E+00 0.  1.
         -1    1    6    6    0  502 -0.14713670076E+03 -0.16767257284E+03  0.22417092277E+03  0.31625290988E+03  0.00000000000E+00 0.  1.
<mgrwt>
<rscale>  0 0.17453126E+04</rscale>
<asrwt>0</asrwt>
<pdfrwt beam="1">  1        2 0.20457422E+00 0.17453126E+04</pdfrwt>
<pdfrwt beam="2">  1       -2 0.88106686E-01 0.17453126E+04</pdfrwt>
<totfact> 0.16718773E+01</totfact>
</mgrwt>
</event>
<event>
12    1  0.1494110E-007  0.1508976E+04  0.7818608E-02  0.8878506E-01
          2   -1    0    0  501    0  0.00000000000E+00  0.00000000000E+00  0.65417293109E+03  0.65417293109E+03  0.00000000000E+00 0. -1.
         -2   -1    0    0    0  501 -0.00000000000E+00 -0.00000000000E+00 -0.87018614022E+03  0.87018614022E+03  0.00000000000E+00 0.  1.
         23    2    1    2    0    0  0.16250829814E+03  0.21837524899E+03  0.23363616250E+03  0.37033817867E+03  0.92020724947E+02 0.  0.
        254    2    1    2    0    0 -0.16250829814E+03 -0.21837524899E+03 -0.44964937163E+03  0.11540208926E+04  0.10273670069E+04 0.  0.
        -24    2    4    4    0    0  0.51059117105E+02 -0.18347616008E+03 -0.74814553141E+03  0.77682608586E+03  0.86408892722E+02 0.  0.
         24    2    4    4    0    0 -0.21356741524E+03 -0.34899088905E+02  0.29849615978E+03  0.37719480678E+03  0.79667920778E+02 0.  0.
         13    1    3    3    0    0  0.13756127091E+03  0.15571972604E+03  0.21790457073E+03  0.30108825663E+03  0.00000000000E+00 0. -1.
        -13    1    3    3    0    0  0.24947027224E+02  0.62655522950E+02  0.15731591765E+02  0.69249922042E+02  0.00000000000E+00 0.  1.
          2    1    6    6  502    0 -0.20711566870E+03 -0.25792241896E+02  0.30048357310E+03  0.36585860338E+03  0.00000000000E+00 0. -1.
          3    1    5    5  503    0  0.10926518488E+02 -0.16368958313E+03 -0.60518241004E+03  0.62702425619E+03  0.00000000000E+00 0. -1.
         -4    1    5    5    0  503  0.40132598617E+02 -0.19786576954E+02 -0.14296312137E+03  0.14980182966E+03  0.00000000000E+00 0.  1.
         -1    1    6    6    0  502 -0.64517465481E+01 -0.91068470094E+01 -0.19874133215E+01  0.11336203407E+02  0.00000000000E+00 0.  1.
<mgrwt>
<rscale>  0 0.15089761E+04</rscale>
<asrwt>0</asrwt>
<pdfrwt beam="1">  1        2 0.10064199E+00 0.15089761E+04</pdfrwt>
<pdfrwt beam="2">  1       -2 0.13387479E+00 0.15089761E+04</pdfrwt>
<totfact> 0.17351826E+01</totfact>
</mgrwt>
</event>
<event>
12    1  0.1494110E-007  0.1100248E+04  0.7818608E-02  0.9204951E-01
         -2   -1    0    0    0  501 -0.00000000000E+00  0.00000000000E+00  0.45658406200E+03  0.45658406200E+03  0.00000000000E+00 0.  1.
          2   -1    0    0  501    0  0.00000000000E+00 -0.00000000000E+00 -0.66282689249E+03  0.66282689249E+03  0.00000000000E+00 0. -1.
         23    2    1    2    0    0  0.11865830248E+03  0.51342899970E+02 -0.56440161320E+02  0.16790339523E+03  0.91050382718E+02 0.  0.
        254    2    1    2    0    0 -0.11865830248E+03 -0.51342899970E+02 -0.14980266918E+03  0.95150755927E+03  0.93070398599E+03 0.  0.
        -24    2    4    4    0    0  0.36943545778E+03  0.14716298090E+03 -0.40556954506E+02  0.40749255714E+03  0.79156914756E+02 0.  0.
         24    2    4    4    0    0 -0.48809376027E+03 -0.19850588087E+03 -0.10924571467E+03  0.54401500213E+03  0.79859832313E+02 0.  0.
         11    1    3    3    0    0  0.12241082529E+03  0.40768665317E+02 -0.72741158554E+02  0.14811404514E+03  0.00000000000E+00 0. -1.
        -11    1    3    3    0    0 -0.37525228086E+01  0.10574234653E+02  0.16300997235E+02  0.19789350085E+02  0.00000000000E+00 0.  1.
          2    1    6    6  502    0 -0.14130559609E+03 -0.19462606261E+02 -0.27532658911E+02  0.14527254329E+03  0.00000000000E+00 0. -1.
          1    1    5    5  503    0  0.17808231390E+03  0.32410582501E+02 -0.34628403175E+02  0.18429021322E+03  0.00000000000E+00 0. -1.
         -2    1    5    5    0  503  0.19135314388E+03  0.11475239840E+03 -0.59285513317E+01  0.22320234392E+03  0.00000000000E+00 0.  1.
         -1    1    6    6    0  502 -0.34678816418E+03 -0.17904327461E+03 -0.81713055758E+02  0.39874245883E+03  0.00000000000E+00 0.  1.
<mgrwt>
<rscale>  0 0.11002476E+04</rscale>
<asrwt>0</asrwt>
<pdfrwt beam="1">  1        2 0.10197337E+00 0.11002476E+04</pdfrwt>
<pdfrwt beam="2">  1       -2 0.70243702E-01 0.11002476E+04</pdfrwt>
<totfact> 0.80428722E+01</totfact>
</mgrwt>
</event>
<event>
12    1  0.1494110E-007  0.2009239E+04  0.7818608E-02  0.8602313E-01
          1   -1    0    0  501    0  0.00000000000E+00  0.00000000000E+00  0.20924726492E+04  0.20924726492E+04  0.00000000000E+00 0. -1.
         -1   -1    0    0    0  501 -0.00000000000E+00 -0.00000000000E+00 -0.48232911293E+03  0.48232911293E+03  0.00000000000E+00 0.  1.
         23    2    1    2    0    0 -0.67006693594E+03  0.45004083089E+03  0.75575633935E+03  0.11093452273E+04  0.89178140735E+02 0.  0.
        254    2    1    2    0    0  0.67006693594E+03 -0.45004083089E+03  0.85438719694E+03  0.14654565348E+04  0.87524792208E+03 0.  0.
        -24    2    4    4    0    0  0.67624110863E+02 -0.34359811519E+03  0.76130951814E+03  0.84162303408E+03  0.78131069032E+02 0.  0.
         24    2    4    4    0    0  0.60244282507E+03 -0.10644271569E+03  0.93077678800E+02  0.62383350076E+03  0.78977042042E+02 0.  0.
         13    1    3    3    0    0 -0.15263436487E+03  0.72878969005E+02  0.19574695576E+03  0.25869956350E+03  0.00000000000E+00 0. -1.
        -13    1    3    3    0    0 -0.51743257106E+03  0.37716186188E+03  0.56000938358E+03  0.85064566381E+03  0.00000000000E+00 0.  1.
          2    1    6    6  502    0  0.14463805589E+03 -0.36271448847E+02 -0.96418132468E+01  0.14942807560E+03  0.00000000000E+00 0. -1.
          1    1    5    5  503    0 -0.42790343515E+01 -0.39070626071E+02  0.43772448319E+02  0.58828999553E+02  0.00000000000E+00 0. -1.
         -2    1    5    5    0  503  0.71903145214E+02 -0.30452748912E+03  0.71753706982E+03  0.78279403453E+03  0.00000000000E+00 0.  1.
         -3    1    6    6    0  502  0.45780476918E+03 -0.70171266848E+02  0.10271949205E+03  0.47440542516E+03  0.00000000000E+00 0.  1.
<mgrwt>
<rscale>  0 0.20092391E+04</rscale>
<asrwt>0</asrwt>
<pdfrwt beam="1">  1        1 0.32191886E+00 0.20092391E+04</pdfrwt>
<pdfrwt beam="2">  1       -1 0.74204480E-01 0.20092391E+04</pdfrwt>
<totfact> 0.43697292E+00</totfact>
</mgrwt>
</event>
<event>
12    1  0.1494110E-007  0.1685441E+04  0.7818608E-02  0.8769712E-01
          2   -1    0    0  501    0  0.00000000000E+00  0.00000000000E+00  0.12223434479E+04  0.12223434479E+04  0.00000000000E+00 0. -1.
         -2   -1    0    0    0  501 -0.00000000000E+00 -0.00000000000E+00 -0.58099720883E+03  0.58099720883E+03  0.00000000000E+00 0.  1.
         23    2    1    2    0    0 -0.23097179207E+02 -0.68771821443E+02 -0.41756897908E+03  0.43397137145E+03  0.93296601406E+02 0.  0.
        254    2    1    2    0    0  0.23097179207E+02  0.68771821443E+02  0.10589152182E+04  0.13693692853E+04  0.86522121863E+03 0.  0.
        -24    2    4    4    0    0 -0.30261807422E+03 -0.22511605459E+03  0.29827811147E+03  0.48751291509E+03  0.80274988120E+02 0.  0.
         24    2    4    4    0    0  0.32571525343E+03  0.29388787603E+03  0.76063710673E+03  0.88185637025E+03  0.81494414619E+02 0.  0.
         13    1    3    3    0    0 -0.55974195258E+01 -0.69538886593E+02 -0.40817667404E+03  0.41409562311E+03  0.00000000000E+00 0.  1.
        -13    1    3    3    0    0 -0.17499759681E+02  0.76706514979E+00 -0.93923050442E+01  0.19875748335E+02  0.00000000000E+00 0. -1.
          2    1    6    6  502    0  0.23104767939E+03  0.16018398968E+03  0.51171842918E+03  0.58386444614E+03  0.00000000000E+00 0. -1.
          1    1    5    5  503    0 -0.18626308963E+03 -0.89914551496E+02  0.17133220172E+03  0.26857641087E+03  0.00000000000E+00 0. -1.
         -2    1    5    5    0  503 -0.11635498459E+03 -0.13520150309E+03  0.12694590975E+03  0.21893650422E+03  0.00000000000E+00 0.  1.
         -1    1    6    6    0  502  0.94667574037E+02  0.13370388636E+03  0.24891867755E+03  0.29799192411E+03  0.00000000000E+00 0.  1.
<mgrwt>
<rscale>  0 0.16854413E+04</rscale>
<asrwt>0</asrwt>
<pdfrwt beam="1">  1        2 0.18805284E+00 0.16854413E+04</pdfrwt>
<pdfrwt beam="2">  1       -2 0.89384186E-01 0.16854413E+04</pdfrwt>
<totfact> 0.18790333E+01</totfact>
</mgrwt>
</event>
<event>
12    1  0.1494110E-007  0.1484947E+04  0.7818608E-02  0.8894525E-01
          2   -1    0    0  501    0  0.00000000000E+00  0.00000000000E+00  0.27690205566E+04  0.27690205566E+04  0.00000000000E+00 0. -1.
         -2   -1    0    0    0  501 -0.00000000000E+00 -0.00000000000E+00 -0.19908373737E+03  0.19908373737E+03  0.00000000000E+00 0.  1.
         23    2    1    2    0    0 -0.20956058702E+03  0.22484881791E+03  0.13039853462E+03  0.34639270359E+03  0.92257773240E+02 0.  0.
        254    2    1    2    0    0  0.20956058702E+03 -0.22484881791E+03  0.24395382846E+04  0.26217115904E+04  0.90969884605E+03 0.  0.
        -24    2    4    4    0    0  0.43672314823E+03  0.12821281676E+03  0.76837674851E+03  0.89675902966E+03  0.81291420482E+02 0.  0.
         24    2    4    4    0    0 -0.22716256120E+03 -0.35306163467E+03  0.16711615361E+04  0.17249525607E+04  0.80156783280E+02 0.  0.
         11    1    3    3    0    0 -0.15855925377E+03  0.21709491313E+03  0.10222112438E+03  0.28761153755E+03  0.00000000000E+00 0.  1.
        -11    1    3    3    0    0 -0.51001333254E+02  0.77539047722E+01  0.28177410244E+02  0.58781166039E+02  0.00000000000E+00 0. -1.
          2    1    6    6  502    0 -0.52480920030E+02 -0.11391679205E+03  0.37613449515E+03  0.39649519659E+03  0.00000000000E+00 0. -1.
          1    1    5    5  503    0  0.72316302713E+02 -0.79603746744E+01  0.10527434385E+03  0.12796758448E+03  0.00000000000E+00 0. -1.
         -2    1    5    5    0  503  0.36440684551E+03  0.13617319144E+03  0.66310240466E+03  0.76879144518E+03  0.00000000000E+00 0.  1.
         -1    1    6    6    0  502 -0.17468164117E+03 -0.23914484261E+03  0.12950270409E+04  0.13284573641E+04  0.00000000000E+00 0.  1.
<mgrwt>
<rscale>  0 0.14849471E+04</rscale>
<asrwt>0</asrwt>
<pdfrwt beam="1">  1        2 0.42600314E+00 0.14849471E+04</pdfrwt>
<pdfrwt beam="2">  1       -2 0.30628269E-01 0.14849471E+04</pdfrwt>
<totfact> 0.23154802E+01</totfact>
</mgrwt>
</event>
<event>
12    1  0.1494110E-007  0.2445415E+04  0.7818608E-02  0.8422694E-01
          2   -1    0    0  501    0  0.00000000000E+00  0.00000000000E+00  0.18898624216E+04  0.18898624216E+04  0.00000000000E+00 0. -1.
         -2   -1    0    0    0  501 -0.00000000000E+00 -0.00000000000E+00 -0.79106995676E+03  0.79106995676E+03  0.00000000000E+00 0.  1.
         23    2    1    2    0    0  0.35363318487E+03 -0.20640268375E+03 -0.58800887163E+03  0.72244920532E+03  0.92303433579E+02 0.  0.
        254    2    1    2    0    0 -0.35363318487E+03  0.20640268375E+03  0.16868013365E+04  0.19584831731E+04  0.90702761430E+03 0.  0.
        -24    2    4    4    0    0 -0.19799230812E+03  0.55709217876E+03  0.11278968452E+04  0.12758154749E+04  0.77467301381E+02 0.  0.
         24    2    4    4    0    0 -0.15564087675E+03 -0.35068949501E+03  0.55890449132E+03  0.68266769823E+03  0.80335243596E+02 0.  0.
         11    1    3    3    0    0  0.30784050553E+03 -0.16405919320E+03 -0.43759001366E+03  0.55961255862E+03  0.00000000000E+00 0.  1.
        -11    1    3    3    0    0  0.45792679343E+02 -0.42343490551E+02 -0.15041885797E+03  0.16283664670E+03  0.00000000000E+00 0. -1.
          4    1    6    6  502    0 -0.34682382118E+02 -0.16686351276E+03  0.27394501137E+03  0.32263317990E+03  0.00000000000E+00 0. -1.
          3    1    5    5  503    0 -0.18789955657E+03  0.43716274608E+03  0.89088388897E+03  0.10099958483E+04  0.00000000000E+00 0. -1.
         -4    1    5    5    0  503 -0.10092751557E+02  0.11992943268E+03  0.23701295622E+03  0.26581962658E+03  0.00000000000E+00 0.  1.
         -3    1    6    6    0  502 -0.12095849463E+03 -0.18382598225E+03  0.28495947995E+03  0.36003451833E+03  0.00000000000E+00 0.  1.
<mgrwt>
<rscale>  0 0.24454148E+04</rscale>
<asrwt>0</asrwt>
<pdfrwt beam="1">  1        2 0.29074806E+00 0.24454148E+04</pdfrwt>
<pdfrwt beam="2">  1       -2 0.12170307E+00 0.24454148E+04</pdfrwt>
<totfact> 0.35333548E+00</totfact>
</mgrwt>
</event>
<event>
12    1  0.1494110E-007  0.1334690E+04  0.7818608E-02  0.9002499E-01
         -2   -1    0    0    0  501 -0.00000000000E+00  0.00000000000E+00  0.60960771654E+03  0.60960771654E+03  0.00000000000E+00 0.  1.
          2   -1    0    0  501    0  0.00000000000E+00 -0.00000000000E+00 -0.73055037008E+03  0.73055037008E+03  0.00000000000E+00 0. -1.
         23    2    1    2    0    0  0.66945315444E+02  0.41450607798E+02  0.31054075035E+03  0.33341630936E+03  0.92363681028E+02 0.  0.
        254    2    1    2    0    0 -0.66945315444E+02 -0.41450607798E+02 -0.43148340389E+03  0.10067417773E+04  0.90617396238E+03 0.  0.
        -24    2    4    4    0    0  0.18895588608E+03 -0.15478074849E+03 -0.61228073950E+03  0.66400915084E+03  0.79743598176E+02 0.  0.
         24    2    4    4    0    0 -0.25590120153E+03  0.11333014069E+03  0.18079733561E+03  0.34273262642E+03  0.80304613299E+02 0.  0.
         11    1    3    3    0    0  0.25936643446E+02  0.24631792311E+02  0.27299357846E+03  0.27532694846E+03  0.00000000000E+00 0.  1.
        -11    1    3    3    0    0  0.41008671998E+02  0.16818815487E+02  0.37547171891E+02  0.58089360905E+02  0.00000000000E+00 0. -1.
          4    1    6    6  502    0 -0.86278418245E+02  0.52671547348E+02  0.23968255137E+02  0.10388808695E+03  0.00000000000E+00 0. -1.
          3    1    5    5  503    0  0.35662560345E+01 -0.10882301631E+02 -0.41740172298E+01  0.12188728019E+02  0.00000000000E+00 0. -1.
         -4    1    5    5    0  503  0.18538963005E+03 -0.14389844686E+03 -0.60810672227E+03  0.65182042282E+03  0.00000000000E+00 0.  1.
         -3    1    6    6    0  502 -0.16962278328E+03  0.60658593343E+02  0.15682908047E+03  0.23884453947E+03  0.00000000000E+00 0.  1.
<mgrwt>
<rscale>  0 0.13346897E+04</rscale>
<asrwt>0</asrwt>
<pdfrwt beam="1">  1        2 0.11239236E+00 0.13346897E+04</pdfrwt>
<pdfrwt beam="2">  1       -2 0.93785803E-01 0.13346897E+04</pdfrwt>
<totfact> 0.36446895E+01</totfact>
</mgrwt>
</event>
