<event>
12    1  0.1506149E-007  0.1172306E+04  0.7818608E-02  0.9137448E-01
          4   -1    0    0  501    0  0.00000000000E+00  0.00000000000E+00  0.20908428089E+04  0.20908428089E+04  0.00000000000E+00 0. -1.
         -4   -1    0    0    0  501 -0.00000000000E+00 -0.00000000000E+00 -0.16432387446E+03  0.16432387446E+03  0.00000000000E+00 0.  1.
         23    2    1    2    0    0 -0.52491434211E+02  0.89322972827E+02  0.21236738569E+02  0.14676265550E+03  0.10175624720E+03 0.  0.
        254    2    1    2    0    0  0.52491434211E+02 -0.89322972827E+02  0.19052821959E+04  0.21084040279E+04  0.89695783327E+03 0.  0.
        -24    2    4    4    0    0  0.47517383279E+01  0.37721727474E+03  0.11755798502E+04  0.12372237551E+04  0.80119814076E+02 0.  0.
         24    2    4    4    0    0  0.47739695883E+02 -0.46654024756E+03  0.72970234563E+03  0.87118027272E+03  0.80936229264E+02 0.  0.
         13    1    3    3    0    0 -0.30854958771E+02  0.10585605956E+03 -0.30094910949E+01  0.11030227043E+03  0.00000000000E+00 0.  1.
        -13    1    3    3    0    0 -0.21636475440E+02 -0.16533086732E+02  0.24246229664E+02  0.36460385067E+02  0.00000000000E+00 0. -1.
          4    1    6    6  502    0 -0.14746760755E+01 -0.82632244981E+01  0.45137221883E+02  0.45911048212E+02  0.00000000000E+00 0. -1.
          1    1    5    5  503    0 -0.13094020116E+02  0.39300090193E+02  0.73568588711E+02  0.84429187471E+02  0.00000000000E+00 0. -1.
         -2    1    5    5    0  503  0.17845758444E+02  0.33791718454E+03  0.11020112615E+04  0.11527945677E+04  0.00000000000E+00 0.  1.
         -3    1    6    6    0  502  0.49214371959E+02 -0.45827702306E+03  0.68456512375E+03  0.82526922451E+03  0.00000000000E+00 0.  1.
<mgrwt>
<rscale>  0 0.11723061E+04</rscale>
<asrwt>0</asrwt>
<pdfrwt beam="1">  1        4 0.32166811E+00 0.11723061E+04</pdfrwt>
<pdfrwt beam="2">  1       -4 0.25280598E-01 0.11723061E+04</pdfrwt>
<totfact> 0.67592217E-01</totfact>
</mgrwt>
</event>
<event>
12    1  0.1506149E-007  0.1539443E+04  0.7818608E-02  0.8858639E-01
         -2   -1    0    0    0  501 -0.00000000000E+00  0.00000000000E+00  0.46711827171E+03  0.46711827171E+03  0.00000000000E+00 0.  1.
          2   -1    0    0  501    0  0.00000000000E+00 -0.00000000000E+00 -0.12683540307E+04  0.12683540307E+04  0.00000000000E+00 0. -1.
         23    2    1    2    0    0  0.48242142099E+03  0.30036633398E+02  0.76214204793E+02  0.49769633092E+03  0.90886775851E+02 0.  0.
        254    2    1    2    0    0 -0.48242142099E+03 -0.30036633398E+02 -0.87744996383E+03  0.12377759715E+04  0.72700638918E+03 0.  0.
        -24    2    4    4    0    0 -0.13201576610E+03 -0.52144779655E+02  0.10339562319E+03  0.19298132207E+03  0.80024341480E+02 0.  0.
         24    2    4    4    0    0 -0.35040565489E+03  0.22108146256E+02 -0.98084558702E+03  0.10447946495E+04  0.79151126848E+02 0.  0.
         11    1    3    3    0    0  0.11934440804E+03 -0.51879630285E+01 -0.18346158946E+02  0.12085770244E+03  0.00000000000E+00 0. -1.
        -11    1    3    3    0    0  0.36307701296E+03  0.35224596427E+02  0.94560363739E+02  0.37683862849E+03  0.00000000000E+00 0.  1.
          2    1    6    6  502    0 -0.49500312124E+02  0.89505915097E+00 -0.23691623932E+03  0.24203385401E+03  0.00000000000E+00 0. -1.
          3    1    5    5  503    0  0.20936682171E+01 -0.20309265073E+02  0.31455671767E+02  0.37500786401E+02  0.00000000000E+00 0. -1.
         -4    1    5    5    0  503 -0.13410943431E+03 -0.31835514582E+02  0.71939951419E+02  0.15548053567E+03  0.00000000000E+00 0.  1.
         -1    1    6    6    0  502 -0.30090534277E+03  0.21213087105E+02 -0.74392934769E+03  0.80276079546E+03  0.00000000000E+00 0.  1.
<mgrwt>
<rscale>  0 0.15394432E+04</rscale>
<asrwt>0</asrwt>
<pdfrwt beam="1">  1        2 0.19513139E+00 0.15394432E+04</pdfrwt>
<pdfrwt beam="2">  1       -2 0.71864350E-01 0.15394432E+04</pdfrwt>
<totfact> 0.29166535E+01</totfact>
</mgrwt>
</event>
<event>
12    1  0.1506149E-007  0.1931462E+04  0.7818608E-02  0.8639352E-01
         -2   -1    0    0    0  501 -0.00000000000E+00  0.00000000000E+00  0.86230442698E+03  0.86230442698E+03  0.00000000000E+00 0.  1.
          2   -1    0    0  501    0  0.00000000000E+00 -0.00000000000E+00 -0.10815630202E+04  0.10815630202E+04  0.00000000000E+00 0. -1.
         23    2    1    2    0    0  0.72047808132E+03 -0.10957552736E+02  0.12864939655E+03  0.73752573592E+03  0.90469941361E+02 0.  0.
        254    2    1    2    0    0 -0.72047808132E+03  0.10957552736E+02 -0.34790798979E+03  0.12063417113E+04  0.90277994074E+03 0.  0.
        -24    2    4    4    0    0 -0.19007607076E+03 -0.40027981301E+03 -0.27256169214E+03  0.52626963145E+03  0.79479604859E+02 0.  0.
         24    2    4    4    0    0 -0.53040201056E+03  0.41123736574E+03 -0.75346297650E+02  0.68007207983E+03  0.79865545835E+02 0.  0.
         11    1    3    3    0    0  0.66408203143E+03 -0.16489995121E+02  0.93478739721E+02  0.67083167723E+03  0.00000000000E+00 0. -1.
        -11    1    3    3    0    0  0.56396049892E+02  0.55324423850E+01  0.35170656827E+02  0.66694058684E+02  0.00000000000E+00 0.  1.
          2    1    6    6  502    0 -0.15771590699E+03  0.81839114073E+02 -0.34528325994E+02  0.18100871030E+03  0.00000000000E+00 0. -1.
          3    1    5    5  503    0 -0.44158049490E+01 -0.70090677293E+02 -0.56806868577E+02  0.90328415763E+02  0.00000000000E+00 0. -1.
         -4    1    5    5    0  503 -0.18566026581E+03 -0.33018913571E+03 -0.21575482356E+03  0.43594121569E+03  0.00000000000E+00 0.  1.
         -1    1    6    6    0  502 -0.37268610357E+03  0.32939825167E+03 -0.40817971656E+02  0.49906336953E+03  0.00000000000E+00 0.  1.
<mgrwt>
<rscale>  0 0.19314622E+04</rscale>
<asrwt>0</asrwt>
<pdfrwt beam="1">  1        2 0.16639431E+00 0.19314622E+04</pdfrwt>
<pdfrwt beam="2">  1       -2 0.13266222E+00 0.19314622E+04</pdfrwt>
<totfact> 0.86199484E+00</totfact>
</mgrwt>
</event>
<event>
12    1  0.1506149E-007  0.1926789E+04  0.7818608E-02  0.8641636E-01
         -2   -1    0    0    0  501 -0.00000000000E+00  0.00000000000E+00  0.10606515447E+04  0.10606515447E+04  0.00000000000E+00 0.  1.
          2   -1    0    0  501    0  0.00000000000E+00 -0.00000000000E+00 -0.87505531309E+03  0.87505531309E+03  0.00000000000E+00 0. -1.
         23    2    1    2    0    0  0.46141775035E+03  0.57759736378E+03 -0.57221654742E+02  0.74661758727E+03  0.87398220069E+02 0.  0.
        254    2    1    2    0    0 -0.46141775035E+03 -0.57759736378E+03  0.24281788635E+03  0.11890892705E+04  0.89913720439E+03 0.  0.
        -24    2    4    4    0    0 -0.14220322226E+03 -0.59669762367E+03  0.48106177209E+03  0.78371799403E+03  0.80769146901E+02 0.  0.
         24    2    4    4    0    0 -0.31921452810E+03  0.19100259893E+02 -0.23824388574E+03  0.40537127648E+03  0.72821616448E+02 0.  0.
         11    1    3    3    0    0  0.45110631258E+03  0.57095525694E+03 -0.44609300184E+02  0.72902455400E+03  0.00000000000E+00 0.  1.
        -11    1    3    3    0    0  0.10311437768E+02  0.66421068411E+01 -0.12612354558E+02  0.17593033270E+02  0.00000000000E+00 0. -1.
          4    1    6    6  502    0 -0.28318909765E+03  0.37256591041E+02 -0.19282979449E+03  0.34462653445E+03  0.00000000000E+00 0. -1.
          3    1    5    5  503    0 -0.13822401459E+03 -0.43609329714E+03  0.34100354654E+03  0.57058449048E+03  0.00000000000E+00 0. -1.
         -4    1    5    5    0  503 -0.39792076644E+01 -0.16060432653E+03  0.14005822555E+03  0.21313350356E+03  0.00000000000E+00 0.  1.
         -3    1    6    6    0  502 -0.36025430449E+02 -0.18156331148E+02 -0.45414091252E+02  0.60744742028E+02  0.00000000000E+00 0.  1.
<mgrwt>
<rscale>  0 0.19267888E+04</rscale>
<asrwt>0</asrwt>
<pdfrwt beam="1">  1        2 0.13462389E+00 0.19267888E+04</pdfrwt>
<pdfrwt beam="2">  1       -2 0.16317716E+00 0.19267888E+04</pdfrwt>
<totfact> 0.68003225E+00</totfact>
</mgrwt>
</event>
<event>
12    1  0.1595800E-007  0.2336164E+04  0.7818608E-02  0.8463797E-01
         -2   -1    0    0    0  501 -0.00000000000E+00  0.00000000000E+00  0.85459913864E+03  0.85459913864E+03  0.00000000000E+00 0. -1.
          2   -1    0    0  501    0  0.00000000000E+00 -0.00000000000E+00 -0.15965557785E+04  0.15965557785E+04  0.00000000000E+00 0.  1.
         23    2    1    2    0    0  0.14506611461E+03 -0.12212433549E+03  0.67618918179E+03  0.70774241825E+03  0.87800854782E+02 0.  0.
        254    2    1    2    0    0 -0.14506611461E+03  0.12212433549E+03 -0.14181458216E+04  0.17434124989E+04  0.99618825474E+03 0.  0.
        -24    2    4    4    0    0 -0.49391152361E+03  0.40307484734E+02 -0.12369130831E+04  0.13348774965E+04  0.79816470760E+02 0.  0.
         24    2    4    4    0    0  0.34884540900E+03  0.81816850755E+02 -0.18123273849E+03  0.40853500234E+03  0.75288951280E+02 0.  0.
         11    1    3    3    0    0 -0.88171667954E+01 -0.55561723626E+01  0.89572916255E+02  0.90177163451E+02  0.00000000000E+00 0.  1.
        -11    1    3    3    0    0  0.15388328140E+03 -0.11656816313E+03  0.58661626554E+03  0.61756525480E+03  0.00000000000E+00 0. -1.
          2    1    6    6  502    0  0.83802860474E+02  0.35737113896E+02 -0.15084619790E+02  0.92345040405E+02  0.00000000000E+00 0. -1.
          1    1    5    5  503    0 -0.40019031164E+02 -0.36497576333E+01 -0.16832181273E+03  0.17305223555E+03  0.00000000000E+00 0. -1.
         -2    1    5    5    0  503 -0.45389249245E+03  0.43957242367E+02 -0.10685912704E+04  0.11618252610E+04  0.00000000000E+00 0.  1.
         -1    1    6    6    0  502  0.26504254853E+03  0.46079736858E+02 -0.16614811870E+03  0.31618996193E+03  0.00000000000E+00 0.  1.
<mgrwt>
<rscale>  0 0.23361637E+04</rscale>
<asrwt>0</asrwt>
<pdfrwt beam="1">  1        2 0.24562396E+00 0.23361637E+04</pdfrwt>
<pdfrwt beam="2">  1       -2 0.13147679E+00 0.23361637E+04</pdfrwt>
<totfact> 0.42739462E+00</totfact>
</mgrwt>
</event>
<event>
12    1  0.1506149E-007  0.2820260E+04  0.7818608E-02  0.8297006E-01
         -2   -1    0    0    0  501 -0.00000000000E+00  0.00000000000E+00  0.11928760210E+04  0.11928760210E+04  0.00000000000E+00 0.  1.
          2   -1    0    0  501    0  0.00000000000E+00 -0.00000000000E+00 -0.16669519737E+04  0.16669519737E+04  0.00000000000E+00 0. -1.
         23    2    1    2    0    0  0.56616418542E+03 -0.22733300518E+03 -0.13155876324E+04  0.14535167502E+04  0.98579635067E+02 0.  0.
        254    2    1    2    0    0 -0.56616418542E+03  0.22733300518E+03  0.84151167977E+03  0.14063112445E+04  0.94728413324E+03 0.  0.
        -24    2    4    4    0    0 -0.39554881503E+03 -0.33981923380E+03  0.36150256619E+03  0.63965343528E+03  0.80848223010E+02 0.  0.
         24    2    4    4    0    0 -0.17061537039E+03  0.56715223898E+03  0.48000911357E+03  0.76665780921E+03  0.81142963407E+02 0.  0.
         11    1    3    3    0    0  0.14401048531E+03 -0.17958616558E+02 -0.35691064509E+03  0.38528786688E+03  0.00000000000E+00 0.  1.
        -11    1    3    3    0    0  0.42215370011E+03 -0.20937438862E+03 -0.95867698735E+03  0.10682288833E+04  0.00000000000E+00 0. -1.
          4    1    6    6  502    0 -0.25560610372E+02  0.28354559394E+02  0.45873736573E+02  0.59680193936E+02  0.00000000000E+00 0. -1.
          1    1    5    5  503    0 -0.13312258645E+03 -0.14663405883E+03  0.17441551273E+03  0.26390138559E+03  0.00000000000E+00 0. -1.
         -2    1    5    5    0  503 -0.26242622857E+03 -0.19318517497E+03  0.18708705346E+03  0.37575204969E+03  0.00000000000E+00 0.  1.
         -3    1    6    6    0  502 -0.14505476002E+03  0.53879767959E+03  0.43413537700E+03  0.70697761527E+03  0.00000000000E+00 0.  1.
<mgrwt>
<rscale>  0 0.28202603E+04</rscale>
<asrwt>0</asrwt>
<pdfrwt beam="1">  1        2 0.25645415E+00 0.28202603E+04</pdfrwt>
<pdfrwt beam="2">  1       -2 0.18351939E+00 0.28202603E+04</pdfrwt>
<totfact> 0.15245494E+00</totfact>
</mgrwt>
</event>
<event>
12    1  0.1506149E-007  0.2437433E+04  0.7818608E-02  0.8425621E-01
          1   -1    0    0  501    0  0.00000000000E+00  0.00000000000E+00  0.11921480912E+04  0.11921480912E+04  0.00000000000E+00 0. -1.
         -1   -1    0    0    0  501 -0.00000000000E+00 -0.00000000000E+00 -0.12458771842E+04  0.12458771842E+04  0.00000000000E+00 0.  1.
         23    2    1    2    0    0  0.28701428890E+03 -0.80231668538E+03  0.58551454399E+03  0.10380973488E+04  0.93432106950E+02 0.  0.
        254    2    1    2    0    0 -0.28701428890E+03  0.80231668538E+03 -0.63924363695E+03  0.13999279266E+04  0.90833722083E+03 0.  0.
        -24    2    4    4    0    0 -0.55276070736E+03  0.37920334595E+03 -0.58162579907E+03  0.89101193701E+03  0.79209371706E+02 0.  0.
         24    2    4    4    0    0  0.26574641846E+03  0.42311333943E+03 -0.57617837875E+02  0.50891598963E+03  0.77650578458E+02 0.  0.
         13    1    3    3    0    0  0.23870699660E+03 -0.65548653830E+03  0.52062796972E+03  0.87045799151E+03  0.00000000000E+00 0. -1.
        -13    1    3    3    0    0  0.48307292300E+02 -0.14683014708E+03  0.64886574266E+02  0.16763935725E+03  0.00000000000E+00 0.  1.
          2    1    6    6  502    0  0.72124144350E+02  0.18502903462E+03 -0.16059218221E+02  0.19923738189E+03  0.00000000000E+00 0. -1.
          1    1    5    5  503    0 -0.44031355207E+02  0.30747813185E+02 -0.78801892740E+02  0.95362081335E+02  0.00000000000E+00 0. -1.
         -2    1    5    5    0  503 -0.50872935216E+03  0.34845553277E+03 -0.50282390633E+03  0.79564985568E+03  0.00000000000E+00 0.  1.
         -1    1    6    6    0  502  0.19362227411E+03  0.23808430480E+03 -0.41558619654E+02  0.30967860774E+03  0.00000000000E+00 0.  1.
<mgrwt>
<rscale>  0 0.24374332E+04</rscale>
<asrwt>0</asrwt>
<pdfrwt beam="1">  1        1 0.18340740E+00 0.24374332E+04</pdfrwt>
<pdfrwt beam="2">  1       -1 0.19167341E+00 0.24374332E+04</pdfrwt>
<totfact> 0.16635298E+00</totfact>
</mgrwt>
</event>
<event>
12    1  0.1506149E-007  0.2166706E+04  0.7818608E-02  0.8532415E-01
          2   -1    0    0  501    0  0.00000000000E+00  0.00000000000E+00  0.20998132772E+04  0.20998132772E+04  0.00000000000E+00 0. -1.
         -2   -1    0    0    0  501 -0.00000000000E+00 -0.00000000000E+00 -0.55893228968E+03  0.55893228968E+03  0.00000000000E+00 0.  1.
         23    2    1    2    0    0  0.67298057459E+02  0.86225773488E+03  0.90295518291E+03  0.12537433733E+04  0.92341506524E+02 0.  0.
        254    2    1    2    0    0 -0.67298057459E+02 -0.86225773488E+03  0.63792580456E+03  0.14050021935E+04  0.90502176871E+03 0.  0.
        -24    2    4    4    0    0  0.16786897710E+02 -0.10357498299E+04  0.49395075715E+03  0.11503842968E+04  0.79606343172E+02 0.  0.
         24    2    4    4    0    0 -0.84084955169E+02  0.17349209499E+03  0.14397504741E+03  0.25461789672E+03  0.83256665475E+02 0.  0.
         13    1    3    3    0    0  0.41747478353E+02  0.77577305881E+03  0.77640783167E+03  0.10983514063E+04  0.00000000000E+00 0.  1.
        -13    1    3    3    0    0  0.25550579105E+02  0.86484676072E+02  0.12654735125E+03  0.15539196696E+03  0.00000000000E+00 0. -1.
          4    1    6    6  502    0 -0.81307742080E+02  0.14835366440E+03  0.15266670033E+03  0.22787470253E+03  0.00000000000E+00 0. -1.
          1    1    5    5  503    0  0.91162371449E+01 -0.27176209487E+03  0.91866733879E+02  0.28701435292E+03  0.00000000000E+00 0. -1.
         -2    1    5    5    0  503  0.76706605654E+01 -0.76398773500E+03  0.40208402327E+03  0.86336994390E+03  0.00000000000E+00 0.  1.
         -3    1    6    6    0  502 -0.27772130891E+01  0.25138430589E+02 -0.86916529251E+01  0.26743194192E+02  0.00000000000E+00 0.  1.
<mgrwt>
<rscale>  0 0.21667057E+04</rscale>
<asrwt>0</asrwt>
<pdfrwt beam="1">  1        2 0.32304819E+00 0.21667057E+04</pdfrwt>
<pdfrwt beam="2">  1       -2 0.85989584E-01 0.21667057E+04</pdfrwt>
<totfact> 0.63206325E+00</totfact>
</mgrwt>
</event>
<event>
12    1  0.1506149E-007  0.1506713E+04  0.7818608E-02  0.8880001E-01
         -2   -1    0    0    0  501 -0.00000000000E+00  0.00000000000E+00  0.51738245361E+03  0.51738245361E+03  0.00000000000E+00 0.  1.
          2   -1    0    0  501    0  0.00000000000E+00 -0.00000000000E+00 -0.10969568439E+04  0.10969568439E+04  0.00000000000E+00 0. -1.
         23    2    1    2    0    0  0.19994466441E+03 -0.37861322968E+03 -0.41632349108E+03  0.60371740047E+03  0.88451138447E+02 0.  0.
        254    2    1    2    0    0 -0.19994466441E+03  0.37861322968E+03 -0.16325089918E+03  0.10106218970E+04  0.90076629385E+03 0.  0.
        -24    2    4    4    0    0  0.13883335813E+03  0.26821651183E+03  0.29185062486E+03  0.42701580086E+03  0.77142131214E+02 0.  0.
         24    2    4    4    0    0 -0.33877802254E+03  0.11039671785E+03 -0.45510152403E+03  0.58360609616E+03  0.80750816879E+02 0.  0.
         13    1    3    3    0    0  0.14592809246E+03 -0.18287349306E+03 -0.23172786373E+03  0.32929549869E+03  0.00000000000E+00 0. -1.
        -13    1    3    3    0    0  0.54016571948E+02 -0.19573973662E+03 -0.18459562736E+03  0.27442190178E+03  0.00000000000E+00 0.  1.
          4    1    6    6  502    0 -0.15736040483E+03  0.30480218402E+02 -0.14852799271E+03  0.21852209348E+03  0.00000000000E+00 0. -1.
          3    1    5    5  503    0  0.61861959752E+02  0.15821166250E+03  0.20868049749E+03  0.26908248224E+03  0.00000000000E+00 0. -1.
         -4    1    5    5    0  503  0.76971398383E+02  0.11000484932E+03  0.83170127361E+02  0.15793331862E+03  0.00000000000E+00 0.  1.
         -1    1    6    6    0  502 -0.18141761771E+03  0.79916499448E+02 -0.30657353133E+03  0.36508400268E+03  0.00000000000E+00 0.  1.
<mgrwt>
<rscale>  0 0.15067133E+04</rscale>
<asrwt>0</asrwt>
<pdfrwt beam="1">  1        2 0.16876259E+00 0.15067133E+04</pdfrwt>
<pdfrwt beam="2">  1       -2 0.79597301E-01 0.15067133E+04</pdfrwt>
<totfact> 0.29547735E+01</totfact>
</mgrwt>
</event>
<event>
12    1  0.1506149E-007  0.2126017E+04  0.7818608E-02  0.8549869E-01
         -2   -1    0    0    0  501 -0.00000000000E+00  0.00000000000E+00  0.79503198139E+03  0.79503198139E+03  0.00000000000E+00 0. -1.
          2   -1    0    0  501    0  0.00000000000E+00 -0.00000000000E+00 -0.14213099108E+04  0.14213099108E+04  0.00000000000E+00 0.  1.
         23    2    1    2    0    0 -0.40197040347E+03 -0.56469833192E+03  0.28703707302E+03  0.75575896752E+03  0.91197172975E+02 0.  0.
        254    2    1    2    0    0  0.40197040347E+03  0.56469833192E+03 -0.91331500241E+03  0.14605829247E+04  0.90481698416E+03 0.  0.
        -24    2    4    4    0    0  0.18916910974E+03 -0.23160627780E+03 -0.20510593182E+03  0.37101956384E+03  0.78489830489E+02 0.  0.
         24    2    4    4    0    0  0.21280129372E+03  0.79630460971E+03 -0.70820907058E+03  0.10895633608E+04  0.78757904337E+02 0.  0.
         11    1    3    3    0    0 -0.27236442914E+03 -0.32521573127E+03  0.14266630762E+03  0.44755036527E+03  0.00000000000E+00 0. -1.
        -11    1    3    3    0    0 -0.12960597433E+03 -0.23948260065E+03  0.14437076541E+03  0.30820860225E+03  0.00000000000E+00 0.  1.
          4    1    6    6  502    0  0.11451837606E+03  0.44361139146E+03 -0.34204075217E+03  0.57174942171E+03  0.00000000000E+00 0. -1.
          3    1    5    5  503    0  0.16436923118E+03 -0.23120002562E+03 -0.18143194189E+03  0.33673171152E+03  0.00000000000E+00 0. -1.
         -4    1    5    5    0  503  0.24799878568E+02 -0.40625217764E+00 -0.23673989936E+02  0.34287852328E+02  0.00000000000E+00 0.  1.
         -3    1    6    6    0  502  0.98282917667E+02  0.35269321825E+03 -0.36616831842E+03  0.51781393909E+03  0.00000000000E+00 0.  1.
<mgrwt>
<rscale>  0 0.21260168E+04</rscale>
<asrwt>0</asrwt>
<pdfrwt beam="1">  1        2 0.21866306E+00 0.21260168E+04</pdfrwt>
<pdfrwt beam="2">  1       -2 0.12231261E+00 0.21260168E+04</pdfrwt>
<totfact> 0.65522941E+00</totfact>
</mgrwt>
</event>
<event>
12    1  0.1506149E-007  0.1573090E+04  0.7818608E-02  0.8837253E-01
         -1   -1    0    0    0  501 -0.00000000000E+00  0.00000000000E+00  0.47047546098E+03  0.47047546098E+03  0.00000000000E+00 0.  1.
          1   -1    0    0  501    0  0.00000000000E+00 -0.00000000000E+00 -0.13149527772E+04  0.13149527772E+04  0.00000000000E+00 0. -1.
         23    2    1    2    0    0  0.26678121882E+02  0.42939360915E+02 -0.89597874526E+03  0.90210139985E+03  0.91942986455E+02 0.  0.
        254    2    1    2    0    0 -0.26678121882E+02 -0.42939360915E+02  0.51501429075E+02  0.88332683829E+03  0.88037400867E+03 0.  0.
        -24    2    4    4    0    0  0.39264338476E+03 -0.17137388197E+03  0.31210226587E+02  0.43709280667E+03  0.80859188597E+02 0.  0.
         24    2    4    4    0    0 -0.41932150665E+03  0.12843452105E+03  0.20291202488E+02  0.44623403162E+03  0.79919496620E+02 0.  0.
         13    1    3    3    0    0  0.27296792479E+02 -0.23306480007E+02 -0.22304957884E+03  0.22591905964E+03  0.00000000000E+00 0. -1.
        -13    1    3    3    0    0 -0.61867059623E+00  0.66245840922E+02 -0.67292916642E+03  0.67618234021E+03  0.00000000000E+00 0.  1.
          2    1    6    6  502    0 -0.18863907868E+00  0.98920345398E+01  0.29120806224E+01  0.10313493375E+02  0.00000000000E+00 0. -1.
          3    1    5    5  503    0  0.91520712934E+02 -0.15549428626E+02 -0.17781051824E+02  0.94519793855E+02  0.00000000000E+00 0. -1.
         -4    1    5    5    0  503  0.30112267183E+03 -0.15582445334E+03  0.48991278411E+02  0.34257301281E+03  0.00000000000E+00 0.  1.
         -1    1    6    6    0  502 -0.41913286757E+03  0.11854248651E+03  0.17379121865E+02  0.43592053824E+03  0.00000000000E+00 0.  1.
<mgrwt>
<rscale>  0 0.15730900E+04</rscale>
<asrwt>0</asrwt>
<pdfrwt beam="1">  1        1 0.20230043E+00 0.15730900E+04</pdfrwt>
<pdfrwt beam="2">  1       -1 0.72380840E-01 0.15730900E+04</pdfrwt>
<totfact> 0.16341964E+01</totfact>
</mgrwt>
</event>
<event>
12    1  0.1506149E-007  0.2414425E+04  0.7818608E-02  0.8434123E-01
         -2   -1    0    0    0  501 -0.00000000000E+00  0.00000000000E+00  0.17182000423E+04  0.17182000423E+04  0.00000000000E+00 0.  1.
          2   -1    0    0  501    0  0.00000000000E+00 -0.00000000000E+00 -0.84819136101E+03  0.84819136101E+03  0.00000000000E+00 0. -1.
         23    2    1    2    0    0  0.97158161832E+01  0.99031263232E+03  0.49568989387E+02  0.99584487810E+03  0.91850039266E+02 0.  0.
        254    2    1    2    0    0 -0.97158161832E+01 -0.99031263232E+03  0.82043969189E+03  0.15705465252E+04  0.90148854290E+03 0.  0.
        -24    2    4    4    0    0  0.21177786335E+03 -0.10517942214E+04  0.55479540656E+03  0.12104716718E+04  0.79515895851E+02 0.  0.
         24    2    4    4    0    0 -0.22149367954E+03  0.61481589036E+02  0.26564428532E+03  0.36007485337E+03  0.79041620917E+02 0.  0.
         13    1    3    3    0    0 -0.58827262268E+01  0.49112135789E+02  0.21937375259E+02  0.54109673654E+02  0.00000000000E+00 0.  1.
        -13    1    3    3    0    0  0.15598542410E+02  0.94120049653E+03  0.27631614127E+02  0.94173520445E+03  0.00000000000E+00 0. -1.
          2    1    6    6  502    0 -0.11946138796E+03  0.63233986379E+02  0.11153496834E+03  0.17524157444E+03  0.00000000000E+00 0. -1.
          1    1    5    5  503    0  0.10121083192E+03 -0.49150893594E+03  0.30415732233E+03  0.58680179220E+03  0.00000000000E+00 0. -1.
         -2    1    5    5    0  503  0.11056703144E+03 -0.56028528542E+03  0.25063808423E+03  0.62366987963E+03  0.00000000000E+00 0.  1.
         -1    1    6    6    0  502 -0.10203229157E+03 -0.17523973439E+01  0.15410931698E+03  0.18483327893E+03  0.00000000000E+00 0.  1.
<mgrwt>
<rscale>  0 0.24144253E+04</rscale>
<asrwt>0</asrwt>
<pdfrwt beam="1">  1        2 0.13049098E+00 0.24144253E+04</pdfrwt>
<pdfrwt beam="2">  1       -2 0.26433847E+00 0.24144253E+04</pdfrwt>
<totfact> 0.15004794E+00</totfact>
</mgrwt>
</event>
<event>
12    1  0.1506149E-007  0.1982881E+04  0.7818608E-02  0.8614666E-01
         -1   -1    0    0    0  501 -0.00000000000E+00  0.00000000000E+00  0.78746943368E+03  0.78746943368E+03  0.00000000000E+00 0.  1.
          1   -1    0    0  501    0  0.00000000000E+00 -0.00000000000E+00 -0.12482449052E+04  0.12482449052E+04  0.00000000000E+00 0. -1.
         23    2    1    2    0    0 -0.77908680825E+03 -0.52785213470E+00 -0.19784190309E+03  0.80905033175E+03  0.91893891349E+02 0.  0.
        254    2    1    2    0    0  0.77908680825E+03  0.52785213470E+00 -0.26293356847E+03  0.12266640072E+04  0.91027138349E+03 0.  0.
        -24    2    4    4    0    0 -0.52040221182E+02  0.27196443886E+03  0.55350775730E+02  0.29282458792E+03  0.77522192246E+02 0.  0.
         24    2    4    4    0    0  0.83112702944E+03 -0.27143658672E+03 -0.31828434420E+03  0.93383941924E+03  0.79379956517E+02 0.  0.
         13    1    3    3    0    0 -0.67402771103E+03  0.30726369195E+02 -0.16466984044E+03  0.69453122417E+03  0.00000000000E+00 0. -1.
        -13    1    3    3    0    0 -0.10505909723E+03 -0.31254221330E+02 -0.33172062649E+02  0.11451910758E+03  0.00000000000E+00 0.  1.
          4    1    6    6  502    0  0.58979034308E+03 -0.15418580825E+03 -0.22024001888E+03  0.64817557665E+03  0.00000000000E+00 0. -1.
          3    1    5    5  503    0 -0.48674045764E+02  0.23945118937E+03  0.20753060501E+02  0.24522790286E+03  0.00000000000E+00 0. -1.
         -4    1    5    5    0  503 -0.33661754184E+01  0.32513249489E+02  0.34597715229E+02  0.47596685056E+02  0.00000000000E+00 0.  1.
         -3    1    6    6    0  502  0.24133668636E+03 -0.11725077848E+03 -0.98044325315E+02  0.28566384259E+03  0.00000000000E+00 0.  1.
<mgrwt>
<rscale>  0 0.19828814E+04</rscale>
<asrwt>0</asrwt>
<pdfrwt beam="1">  1        1 0.19203768E+00 0.19828814E+04</pdfrwt>
<pdfrwt beam="2">  1       -1 0.12114914E+00 0.19828814E+04</pdfrwt>
<totfact> 0.55374793E+00</totfact>
</mgrwt>
</event>
<event>
12    1  0.1506149E-007  0.1222569E+04  0.7818608E-02  0.9093328E-01
         -1   -1    0    0    0  501 -0.00000000000E+00  0.00000000000E+00  0.16057084503E+03  0.16057084503E+03  0.00000000000E+00 0.  1.
          1   -1    0    0  501    0  0.00000000000E+00 -0.00000000000E+00 -0.23271282368E+04  0.23271282368E+04  0.00000000000E+00 0. -1.
         23    2    1    2    0    0 -0.24206405222E+02 -0.90596645822E+02  0.14695590795E+02  0.13318084547E+03  0.93420955476E+02 0.  0.
        254    2    1    2    0    0  0.24206405222E+02  0.90596645822E+02 -0.21812529825E+04  0.23545182363E+04  0.88153153607E+03 0.  0.
        -24    2    4    4    0    0 -0.35297069677E+03 -0.90411497103E+02 -0.52680508737E+03  0.64611919247E+03  0.84757649891E+02 0.  0.
         24    2    4    4    0    0  0.37717710200E+03  0.18100814293E+03 -0.16544478952E+04  0.17083990439E+04  0.80018380041E+02 0.  0.
         11    1    3    3    0    0  0.33033090317E+02 -0.30018844185E+02  0.21533182572E+02  0.49557986377E+02  0.00000000000E+00 0.  1.
        -11    1    3    3    0    0 -0.57239495539E+02 -0.60577801637E+02 -0.68375917773E+01  0.83622859088E+02  0.00000000000E+00 0. -1.
          4    1    6    6  502    0  0.86427478124E+02  0.61698481592E+01 -0.34459422299E+03  0.35532091765E+03  0.00000000000E+00 0. -1.
          3    1    5    5  503    0 -0.13501556093E+03 -0.34467674231E+02 -0.27589629552E+03  0.30908896477E+03  0.00000000000E+00 0. -1.
         -4    1    5    5    0  503 -0.21795513585E+03 -0.55943822872E+02 -0.25090879184E+03  0.33703022770E+03  0.00000000000E+00 0.  1.
         -3    1    6    6    0  502  0.29074962387E+03  0.17483829477E+03 -0.13098536722E+04  0.13530781262E+04  0.00000000000E+00 0.  1.
<mgrwt>
<rscale>  0 0.12225693E+04</rscale>
<asrwt>0</asrwt>
<pdfrwt beam="1">  1        1 0.35801975E+00 0.12225693E+04</pdfrwt>
<pdfrwt beam="2">  1       -1 0.24703206E-01 0.12225693E+04</pdfrwt>
<totfact> 0.25297002E+01</totfact>
</mgrwt>
</event>
<event>
12    1  0.1506149E-007  0.1634155E+04  0.7818608E-02  0.8799836E-01
          1   -1    0    0  501    0  0.00000000000E+00  0.00000000000E+00  0.14399206339E+04  0.14399206339E+04  0.00000000000E+00 0. -1.
         -1   -1    0    0    0  501 -0.00000000000E+00 -0.00000000000E+00 -0.46364757053E+03  0.46364757053E+03  0.00000000000E+00 0.  1.
         23    2    1    2    0    0  0.36334637849E+03 -0.21198935387E+03  0.78247414599E+03  0.89332590162E+03  0.93836562410E+02 0.  0.
        254    2    1    2    0    0 -0.36334637849E+03  0.21198935387E+03  0.19379891734E+03  0.10102423028E+04  0.89781479885E+03 0.  0.
        -24    2    4    4    0    0 -0.71292627342E+02  0.31569135996E+03 -0.28301786616E+03  0.43639374885E+03  0.74811215802E+02 0.  0.
         24    2    4    4    0    0 -0.29205375114E+03 -0.10370200609E+03  0.47681678349E+03  0.57384855392E+03  0.76801160095E+02 0.  0.
         13    1    3    3    0    0  0.31722171181E+03 -0.20489016932E+03  0.73725239818E+03  0.82834213616E+03  0.00000000000E+00 0. -1.
        -13    1    3    3    0    0  0.46124666676E+02 -0.70991845509E+01  0.45221747814E+02  0.64983765454E+02  0.00000000000E+00 0.  1.
          4    1    6    6  502    0 -0.94067256205E+02 -0.68167648688E+02  0.14465068664E+03  0.18552438697E+03  0.00000000000E+00 0. -1.
          3    1    5    5  503    0 -0.23046092326E+01 -0.66973756900E+00  0.33574640184E+01  0.41270251709E+01  0.00000000000E+00 0. -1.
         -4    1    5    5    0  503 -0.68988018110E+02  0.31636109753E+03 -0.28637533017E+03  0.43226672368E+03  0.00000000000E+00 0.  1.
         -3    1    6    6    0  502 -0.19798649494E+03 -0.35534357401E+02  0.33216609685E+03  0.38832416694E+03  0.00000000000E+00 0.  1.
<mgrwt>
<rscale>  0 0.16341551E+04</rscale>
<asrwt>0</asrwt>
<pdfrwt beam="1">  1        1 0.22152625E+00 0.16341551E+04</pdfrwt>
<pdfrwt beam="2">  1       -1 0.71330396E-01 0.16341551E+04</pdfrwt>
<totfact> 0.13678628E+01</totfact>
</mgrwt>
</event>
<event>
12    1  0.1572303E-007  0.1423551E+04  0.7818608E-02  0.8936945E-01
          2   -1    0    0  501    0  0.00000000000E+00  0.00000000000E+00  0.18865179499E+04  0.18865179499E+04  0.00000000000E+00 0. -1.
         -2   -1    0    0    0  501 -0.00000000000E+00 -0.00000000000E+00 -0.26855014090E+03  0.26855014090E+03  0.00000000000E+00 0.  1.
         23    2    1    2    0    0  0.33498367581E+03  0.18636231026E+03  0.77451723800E+03  0.86904911943E+03  0.91784782381E+02 0.  0.
        254    2    1    2    0    0 -0.33498367581E+03 -0.18636231026E+03  0.84345057098E+03  0.12860189714E+04  0.89190299655E+03 0.  0.
        -24    2    4    4    0    0 -0.22700061762E+03 -0.77853179416E+02  0.10129309448E+04  0.10439850339E+04  0.79279594836E+02 0.  0.
         24    2    4    4    0    0 -0.10798305818E+03 -0.10850913084E+03 -0.16948037384E+03  0.24203393742E+03  0.80138988094E+02 0.  0.
         11    1    3    3    0    0  0.17674602555E+03  0.72557943262E+02  0.47170775933E+03  0.50893223801E+03  0.00000000000E+00 0. -1.
        -11    1    3    3    0    0  0.15823765026E+03  0.11380436700E+03  0.30280947867E+03  0.36011688142E+03  0.00000000000E+00 0.  1.
          4    1    6    6  502    0 -0.10960089082E+03 -0.10462587136E+03 -0.17725663047E+03  0.23319271274E+03  0.00000000000E+00 0. -1.
          3    1    5    5  503    0 -0.23286696006E+03 -0.75200485810E+02  0.10004315889E+04  0.10299249964E+04  0.00000000000E+00 0. -1.
         -4    1    5    5    0  503  0.58663424370E+01 -0.26526936060E+01  0.12499355963E+02  0.14060037569E+02  0.00000000000E+00 0.  1.
         -3    1    6    6    0  502  0.16178326386E+01 -0.38832594859E+01  0.77762566305E+01  0.88412246813E+01  0.00000000000E+00 0.  1.
<mgrwt>
<rscale>  0 0.14235514E+04</rscale>
<asrwt>0</asrwt>
<pdfrwt beam="1">  1        2 0.29023352E+00 0.14235514E+04</pdfrwt>
<pdfrwt beam="2">  1       -2 0.41315408E-01 0.14235514E+04</pdfrwt>
<totfact> 0.41667502E+01</totfact>
</mgrwt>
</event>
<event>
12    1  0.1506149E-007  0.2401888E+04  0.7818608E-02  0.8438797E-01
         -1   -1    0    0    0  501 -0.00000000000E+00  0.00000000000E+00  0.27061555061E+04  0.27061555061E+04  0.00000000000E+00 0.  1.
          1   -1    0    0  501    0  0.00000000000E+00 -0.00000000000E+00 -0.53295761156E+03  0.53295761156E+03  0.00000000000E+00 0. -1.
         23    2    1    2    0    0 -0.36278787724E+03  0.36757419312E+03 -0.26615515686E+03  0.58811411496E+03  0.91180115032E+02 0.  0.
        254    2    1    2    0    0  0.36278787724E+03 -0.36757419312E+03  0.24393530514E+04  0.26509990027E+04  0.90034802803E+03 0.  0.
        -24    2    4    4    0    0  0.54967363651E+03 -0.52586247712E+03  0.16075437569E+04  0.17802557366E+04  0.80256499873E+02 0.  0.
         24    2    4    4    0    0 -0.18688575927E+03  0.15828828400E+03  0.83180929449E+03  0.87074326610E+03  0.79408218661E+02 0.  0.
         11    1    3    3    0    0 -0.18000670369E+02  0.23621705632E+01  0.28194344358E+01  0.18372620772E+02  0.00000000000E+00 0.  1.
        -11    1    3    3    0    0 -0.34478720687E+03  0.36521202255E+03 -0.26897459129E+03  0.56974149419E+03  0.00000000000E+00 0. -1.
          4    1    6    6  502    0 -0.24187452456E+02 -0.35233977673E+01  0.45669862788E+02  0.51799455163E+02  0.00000000000E+00 0. -1.
          1    1    5    5  503    0  0.22991493310E+03 -0.25711661471E+03  0.79635903800E+03  0.86784649992E+03  0.00000000000E+00 0. -1.
         -2    1    5    5    0  503  0.31975870340E+03 -0.26874586241E+03  0.81118471891E+03  0.91240923667E+03  0.00000000000E+00 0.  1.
         -3    1    6    6    0  502 -0.16269830681E+03  0.16181168177E+03  0.78613943170E+03  0.81894381093E+03  0.00000000000E+00 0.  1.
<mgrwt>
<rscale>  0 0.24018877E+04</rscale>
<asrwt>0</asrwt>
<pdfrwt beam="1">  1        1 0.81993480E-01 0.24018877E+04</pdfrwt>
<pdfrwt beam="2">  1       -1 0.41633161E+00 0.24018877E+04</pdfrwt>
<totfact> 0.20080682E-01</totfact>
</mgrwt>
</event>
<event>
12    1  0.1506149E-007  0.1346757E+04  0.7818608E-02  0.8993286E-01
         -1   -1    0    0    0  501 -0.00000000000E+00  0.00000000000E+00  0.80341290036E+03  0.80341290036E+03  0.00000000000E+00 0.  1.
          1   -1    0    0  501    0  0.00000000000E+00 -0.00000000000E+00 -0.56439086749E+03  0.56439086749E+03  0.00000000000E+00 0. -1.
         23    2    1    2    0    0  0.30413547656E+03 -0.81365287128E+02 -0.12039610937E+03  0.34890141772E+03  0.90101487672E+02 0.  0.
        254    2    1    2    0    0 -0.30413547656E+03  0.81365287128E+02  0.35941814225E+03  0.10189023501E+04  0.89992327456E+03 0.  0.
        -24    2    4    4    0    0  0.17707520050E+03  0.30781596106E+03 -0.14047547474E+02  0.36401751603E+03  0.78772621334E+02 0.  0.
         24    2    4    4    0    0 -0.48121067706E+03 -0.22645067393E+03  0.37346568972E+03  0.65488483411E+03  0.80956167800E+02 0.  0.
         13    1    3    3    0    0  0.30210605706E+03 -0.92172696400E+02 -0.11221491764E+03  0.33519555996E+03  0.00000000000E+00 0. -1.
        -13    1    3    3    0    0  0.20294194963E+01  0.10807409272E+02 -0.81811917341E+01  0.13705857757E+02  0.00000000000E+00 0.  1.
          2    1    6    6  502    0 -0.89951199622E+02 -0.73196351444E+02  0.10345323192E+03  0.15540751389E+03  0.00000000000E+00 0. -1.
          3    1    5    5  503    0  0.37811263052E+01  0.14270273551E+02 -0.17787867423E+02  0.23115922019E+02  0.00000000000E+00 0. -1.
         -4    1    5    5    0  503  0.17329407420E+03  0.29354568751E+03  0.37403199491E+01  0.34090159401E+03  0.00000000000E+00 0.  1.
         -1    1    6    6    0  502 -0.39125947744E+03 -0.15325432249E+03  0.27001245780E+03  0.49947732022E+03  0.00000000000E+00 0.  1.
<mgrwt>
<rscale>  0 0.13467574E+04</rscale>
<asrwt>0</asrwt>
<pdfrwt beam="1">  1        1 0.86829365E-01 0.13467574E+04</pdfrwt>
<pdfrwt beam="2">  1       -1 0.12360198E+00 0.13467574E+04</pdfrwt>
<totfact> 0.21077284E+01</totfact>
</mgrwt>
</event>
<event>
12    1  0.1506149E-007  0.2027681E+04  0.7818608E-02  0.8593787E-01
         -2   -1    0    0    0  501 -0.00000000000E+00  0.00000000000E+00  0.72197784557E+03  0.72197784557E+03  0.00000000000E+00 0.  1.
          2   -1    0    0  501    0  0.00000000000E+00 -0.00000000000E+00 -0.14236897362E+04  0.14236897362E+04  0.00000000000E+00 0. -1.
         23    2    1    2    0    0 -0.32409690793E+03 -0.57855809803E+03  0.18581271474E+03  0.69476519724E+03  0.91673528374E+02 0.  0.
        254    2    1    2    0    0  0.32409690793E+03  0.57855809803E+03 -0.88752460539E+03  0.14509023846E+04  0.93682950734E+03 0.  0.
        -24    2    4    4    0    0  0.60273462004E+03  0.60163821219E+03 -0.69605224858E+03  0.11028145627E+04  0.80334714641E+02 0.  0.
         24    2    4    4    0    0 -0.27863771211E+03 -0.23080114158E+02 -0.19147235681E+03  0.34808782187E+03  0.79572621131E+02 0.  0.
         13    1    3    3    0    0 -0.10003705895E+03 -0.17685510186E+03  0.13684096089E+02  0.20364772207E+03  0.00000000000E+00 0.  1.
        -13    1    3    3    0    0 -0.22405984898E+03 -0.40170299617E+03  0.17212861865E+03  0.49111747517E+03  0.00000000000E+00 0. -1.
          2    1    6    6  502    0 -0.88245270482E+02  0.89361067788E+01 -0.10237907064E+03  0.13545684136E+03  0.00000000000E+00 0. -1.
          1    1    5    5  503    0  0.10407267720E+03  0.90425002633E+02 -0.78261966514E+02  0.15853308375E+03  0.00000000000E+00 0. -1.
         -2    1    5    5    0  503  0.49866194284E+03  0.51121320956E+03 -0.61779028206E+03  0.94428147894E+03  0.00000000000E+00 0.  1.
         -1    1    6    6    0  502 -0.19039244162E+03 -0.32016220937E+02 -0.89093286173E+02  0.21263098051E+03  0.00000000000E+00 0.  1.
<mgrwt>
<rscale>  0 0.20276809E+04</rscale>
<asrwt>0</asrwt>
<pdfrwt beam="1">  1        2 0.21902919E+00 0.20276809E+04</pdfrwt>
<pdfrwt beam="2">  1       -2 0.11107352E+00 0.20276809E+04</pdfrwt>
<totfact> 0.83449525E+00</totfact>
</mgrwt>
</event>
<event>
12    1  0.1506149E-007  0.1380318E+04  0.7818608E-02  0.8968190E-01
          2   -1    0    0  501    0  0.00000000000E+00  0.00000000000E+00  0.14940021448E+04  0.14940021448E+04  0.00000000000E+00 0. -1.
         -2   -1    0    0    0  501 -0.00000000000E+00 -0.00000000000E+00 -0.31882132879E+03  0.31882132879E+03  0.00000000000E+00 0.  1.
         23    2    1    2    0    0  0.14149360000E+03  0.23136417348E+03  0.17918598691E+03  0.33758818900E+03  0.91150138982E+02 0.  0.
        254    2    1    2    0    0 -0.14149360000E+03 -0.23136417348E+03  0.99599482911E+03  0.14752352846E+04  0.10539277137E+04 0.  0.
        -24    2    4    4    0    0 -0.13102744973E+03 -0.60712544803E+03  0.86825979730E+03  0.10703271876E+04  0.77173251557E+02 0.  0.
         24    2    4    4    0    0 -0.10466150276E+02  0.37576127455E+03  0.12773503181E+03  0.40490809695E+03  0.79550316619E+02 0.  0.
         11    1    3    3    0    0  0.30466282756E+02  0.20147835442E+02 -0.40246406515E+01  0.36746801090E+02  0.00000000000E+00 0.  1.
        -11    1    3    3    0    0  0.11102731725E+03  0.21121633804E+03  0.18321062756E+03  0.30084138791E+03  0.00000000000E+00 0. -1.
          4    1    6    6  502    0 -0.42740890375E+01  0.17347250403E+02  0.27317712262E+02  0.32641267391E+02  0.00000000000E+00 0. -1.
          1    1    5    5  503    0 -0.26321862614E+02 -0.54707297546E+02  0.56998337094E+02  0.83273881186E+02  0.00000000000E+00 0. -1.
         -2    1    5    5    0  503 -0.10470558711E+03 -0.55241815049E+03  0.81126146021E+03  0.98705330645E+03  0.00000000000E+00 0.  1.
         -3    1    6    6    0  502 -0.61920612384E+01  0.35841402415E+03  0.10041731955E+03  0.37226682956E+03  0.00000000000E+00 0.  1.
<mgrwt>
<rscale>  0 0.13803184E+04</rscale>
<asrwt>0</asrwt>
<pdfrwt beam="1">  1        2 0.22984648E+00 0.13803184E+04</pdfrwt>
<pdfrwt beam="2">  1       -2 0.49049436E-01 0.13803184E+04</pdfrwt>
<totfact> 0.49058987E+01</totfact>
</mgrwt>
</event>
<event>
12    1  0.1506149E-007  0.1490324E+04  0.7818608E-02  0.8890913E-01
          2   -1    0    0  501    0  0.00000000000E+00  0.00000000000E+00  0.12562036497E+04  0.12562036497E+04  0.00000000000E+00 0. -1.
         -2   -1    0    0    0  501 -0.00000000000E+00 -0.00000000000E+00 -0.44201962111E+03  0.44201962111E+03  0.00000000000E+00 0.  1.
         23    2    1    2    0    0 -0.12605616636E+03 -0.13989785766E+03 -0.22864163728E+03  0.31022367406E+03  0.92196323095E+02 0.  0.
        254    2    1    2    0    0  0.12605616636E+03  0.13989785766E+03  0.10428256659E+04  0.13879995968E+04  0.89643513069E+03 0.  0.
        -24    2    4    4    0    0 -0.26152916783E+03  0.15781709420E+03  0.50575380436E+02  0.31958164345E+03  0.79188489529E+02 0.  0.
         24    2    4    4    0    0  0.38758533419E+03 -0.17919236538E+02  0.99225028543E+03  0.10684179533E+04  0.80079983054E+02 0.  0.
         13    1    3    3    0    0 -0.73534610691E+02 -0.16309108930E+02 -0.85834674660E+02  0.11419683611E+03  0.00000000000E+00 0. -1.
        -13    1    3    3    0    0 -0.52521555671E+02 -0.12358874874E+03 -0.14280696262E+03  0.19602683795E+03  0.00000000000E+00 0.  1.
          2    1    6    6  502    0  0.32902013153E+03 -0.42907022329E+02  0.85464358339E+03  0.91679382314E+03  0.00000000000E+00 0. -1.
          3    1    5    5  503    0 -0.16612221158E+03  0.14175493516E+03  0.27399402250E+02  0.22009492967E+03  0.00000000000E+00 0. -1.
         -4    1    5    5    0  503 -0.95406956245E+02  0.16062159046E+02  0.23175978186E+02  0.99486713777E+02  0.00000000000E+00 0.  1.
         -1    1    6    6    0  502  0.58565202665E+02  0.24987785791E+02  0.13760670204E+03  0.15162413017E+03  0.00000000000E+00 0.  1.
<mgrwt>
<rscale>  0 0.14903243E+04</rscale>
<asrwt>0</asrwt>
<pdfrwt beam="1">  1        2 0.19326210E+00 0.14903243E+04</pdfrwt>
<pdfrwt beam="2">  1       -2 0.68003019E-01 0.14903243E+04</pdfrwt>
<totfact> 0.33578690E+01</totfact>
</mgrwt>
</event>
<event>
12    1  0.1506149E-007  0.1482861E+04  0.7818608E-02  0.8895931E-01
         -2   -1    0    0    0  501 -0.00000000000E+00  0.00000000000E+00  0.52061301441E+03  0.52061301441E+03  0.00000000000E+00 0.  1.
          2   -1    0    0  501    0  0.00000000000E+00 -0.00000000000E+00 -0.10559072100E+04  0.10559072100E+04  0.00000000000E+00 0. -1.
         23    2    1    2    0    0 -0.83765315679E+02  0.67643515617E+02  0.30784723790E+03  0.33834040778E+03  0.90066843751E+02 0.  0.
        254    2    1    2    0    0  0.83765315679E+02 -0.67643515617E+02 -0.84314143352E+03  0.12381798167E+04  0.90033855196E+03 0.  0.
        -24    2    4    4    0    0  0.60587333936E+02 -0.42703088496E+03 -0.73215393919E+03  0.85353835580E+03  0.80325166707E+02 0.  0.
         24    2    4    4    0    0  0.23177981743E+02  0.35938736935E+03 -0.11098749433E+03  0.38464146086E+03  0.77034598909E+02 0.  0.
         11    1    3    3    0    0  0.12874484376E+02  0.36660938631E+02  0.88463966648E+02  0.96621168304E+02  0.00000000000E+00 0. -1.
        -11    1    3    3    0    0 -0.96639800055E+02  0.30982576985E+02  0.21938327125E+03  0.24171923948E+03  0.00000000000E+00 0.  1.
          4    1    6    6  502    0  0.81457210660E+01  0.25547660895E+03 -0.42056331471E+02  0.25904321166E+03  0.00000000000E+00 0. -1.
          1    1    5    5  503    0 -0.36688362797E+01 -0.25063231769E+03 -0.43484500947E+03  0.50191652821E+03  0.00000000000E+00 0. -1.
         -2    1    5    5    0  503  0.64256170215E+02 -0.17639856727E+03 -0.29730892972E+03  0.35162182759E+03  0.00000000000E+00 0.  1.
         -3    1    6    6    0  502  0.15032260677E+02  0.10391076040E+03 -0.68931162861E+02  0.12559824920E+03  0.00000000000E+00 0.  1.
<mgrwt>
<rscale>  0 0.14828608E+04</rscale>
<asrwt>0</asrwt>
<pdfrwt beam="1">  1        2 0.16244726E+00 0.14828608E+04</pdfrwt>
<pdfrwt beam="2">  1       -2 0.80094310E-01 0.14828608E+04</pdfrwt>
<totfact> 0.30961183E+01</totfact>
</mgrwt>
</event>
<event>
12    1  0.1506149E-007  0.2152887E+04  0.7818608E-02  0.8538297E-01
          2   -1    0    0  501    0  0.00000000000E+00  0.00000000000E+00  0.12128488232E+04  0.12128488232E+04  0.00000000000E+00 0.  1.
         -2   -1    0    0    0  501 -0.00000000000E+00 -0.00000000000E+00 -0.95537967699E+03  0.95537967699E+03  0.00000000000E+00 0. -1.
         23    2    1    2    0    0  0.61974895159E+03  0.16498681463E+03  0.70935041982E+03  0.96053622184E+03  0.90235266697E+02 0.  0.
        254    2    1    2    0    0 -0.61974895159E+03 -0.16498681463E+03 -0.45188127359E+03  0.12076922784E+04  0.91815823355E+03 0.  0.
        -24    2    4    4    0    0 -0.14848300270E+03 -0.25744447675E+03 -0.62034266566E+03  0.69246683912E+03  0.79752365147E+02 0.  0.
         24    2    4    4    0    0 -0.47126594889E+03  0.92457662123E+02  0.16846139207E+03  0.51522543926E+03  0.80237140864E+02 0.  0.
         11    1    3    3    0    0  0.48291463134E+03  0.97610423331E+02  0.57574949551E+03  0.75777425233E+03  0.00000000000E+00 0. -1.
        -11    1    3    3    0    0  0.13683432025E+03  0.67376391297E+02  0.13360092431E+03  0.20276196951E+03  0.00000000000E+00 0.  1.
          4    1    6    6  502    0 -0.38093172310E+03  0.44575581246E+02  0.11842333184E+03  0.40139761537E+03  0.00000000000E+00 0. -1.
          3    1    5    5  503    0 -0.33440549853E+02 -0.85109857009E+02 -0.27419494130E+03  0.28904121500E+03  0.00000000000E+00 0. -1.
         -4    1    5    5    0  503 -0.11504245285E+03 -0.17233461974E+03 -0.34614772436E+03  0.40342562412E+03  0.00000000000E+00 0.  1.
         -1    1    6    6    0  502 -0.90334225795E+02  0.47882080877E+02  0.50038060231E+02  0.11382782389E+03  0.00000000000E+00 0.  1.
<mgrwt>
<rscale>  0 0.21528875E+04</rscale>
<asrwt>0</asrwt>
<pdfrwt beam="1">  1        2 0.18659213E+00 0.21528875E+04</pdfrwt>
<pdfrwt beam="2">  1       -2 0.14698149E+00 0.21528875E+04</pdfrwt>
<totfact> 0.53992668E+00</totfact>
</mgrwt>
</event>
<event>
12    1  0.1506149E-007  0.2671104E+04  0.7818608E-02  0.8344442E-01
          1   -1    0    0  501    0  0.00000000000E+00  0.00000000000E+00  0.16083981108E+04  0.16083981108E+04  0.00000000000E+00 0. -1.
         -1   -1    0    0    0  501 -0.00000000000E+00 -0.00000000000E+00 -0.11089910370E+04  0.11089910370E+04  0.00000000000E+00 0.  1.
         23    2    1    2    0    0  0.94186163257E+03 -0.22114402942E+03 -0.46653651104E+03  0.10780915532E+04  0.92828143299E+02 0.  0.
        254    2    1    2    0    0 -0.94186163257E+03  0.22114402942E+03  0.96594358478E+03  0.16392975946E+04  0.90456706670E+03 0.  0.
        -24    2    4    4    0    0 -0.83540109736E+03 -0.21686741355E+03  0.64301399862E+03  0.10790712252E+04  0.77467658246E+02 0.  0.
         24    2    4    4    0    0 -0.10646053522E+03  0.43801144297E+03  0.32292958615E+03  0.56022636945E+03  0.79888658056E+02 0.  0.
         11    1    3    3    0    0  0.72736062026E+03 -0.14049620022E+03 -0.38485150198E+03  0.83480736266E+03  0.00000000000E+00 0. -1.
        -11    1    3    3    0    0  0.21450101232E+03 -0.80647829199E+02 -0.81685009065E+02  0.24328419050E+03  0.00000000000E+00 0.  1.
          2    1    6    6  502    0 -0.38174176298E+02  0.30493218876E+03  0.20051466176E+03  0.36694282533E+03  0.00000000000E+00 0. -1.
          3    1    5    5  503    0 -0.74916797562E+03 -0.17255463294E+03  0.58539657813E+03  0.96629028285E+03  0.00000000000E+00 0. -1.
         -4    1    5    5    0  503 -0.86233121732E+02 -0.44312780611E+02  0.57617420493E+02  0.11278094233E+03  0.00000000000E+00 0.  1.
         -1    1    6    6    0  502 -0.68286358921E+02  0.13307925421E+03  0.12241492439E+03  0.19328354412E+03  0.00000000000E+00 0.  1.
<mgrwt>
<rscale>  0 0.26711040E+04</rscale>
<asrwt>0</asrwt>
<pdfrwt beam="1">  1        1 0.24744586E+00 0.26711040E+04</pdfrwt>
<pdfrwt beam="2">  1       -1 0.17061401E+00 0.26711040E+04</pdfrwt>
<totfact> 0.11737989E+00</totfact>
</mgrwt>
</event>
<event>
12    1  0.1506149E-007  0.1072889E+04  0.7818608E-02  0.9232027E-01
         -2   -1    0    0    0  501 -0.00000000000E+00  0.00000000000E+00  0.19850708167E+03  0.19850708167E+03  0.00000000000E+00 0.  1.
          2   -1    0    0  501    0  0.00000000000E+00 -0.00000000000E+00 -0.14496837639E+04  0.14496837639E+04  0.00000000000E+00 0. -1.
         23    2    1    2    0    0 -0.13246527010E+03 -0.17169044072E+02 -0.15174893423E+03  0.22266440590E+03  0.93326709772E+02 0.  0.
        254    2    1    2    0    0  0.13246527010E+03  0.17169044072E+02 -0.10994277480E+04  0.14255264396E+04  0.89752015757E+03 0.  0.
        -24    2    4    4    0    0  0.18070097164E+03  0.41820648745E+03 -0.38795140122E+03  0.60368568863E+03  0.79878743408E+02 0.  0.
         24    2    4    4    0    0 -0.48235701537E+02 -0.40103744338E+03 -0.71147634673E+03  0.82184075100E+03  0.77883978794E+02 0.  0.
         11    1    3    3    0    0 -0.49041205075E+02  0.31862913054E+02 -0.26022973714E+02  0.64011562896E+02  0.00000000000E+00 0. -1.
        -11    1    3    3    0    0 -0.83424065025E+02 -0.49031957126E+02 -0.12572596051E+03  0.15865284300E+03  0.00000000000E+00 0.  1.
          4    1    6    6  502    0 -0.59325488867E+02 -0.28874865686E+03 -0.46197545247E+03  0.54801151371E+03  0.00000000000E+00 0. -1.
          1    1    5    5  503    0  0.18495008689E+03  0.36535039563E+03 -0.34411967844E+03  0.53488858589E+03  0.00000000000E+00 0. -1.
         -2    1    5    5    0  503 -0.42491152513E+01  0.52856091824E+02 -0.43831722778E+02  0.68797102737E+02  0.00000000000E+00 0.  1.
         -1    1    6    6    0  502  0.11089787331E+02 -0.11228878651E+03 -0.24950089426E+03  0.27382923729E+03  0.00000000000E+00 0.  1.
<mgrwt>
<rscale>  0 0.10728886E+04</rscale>
<asrwt>0</asrwt>
<pdfrwt beam="1">  1        2 0.22302827E+00 0.10728886E+04</pdfrwt>
<pdfrwt beam="2">  1       -2 0.30539551E-01 0.10728886E+04</pdfrwt>
<totfact> 0.13357385E+02</totfact>
</mgrwt>
</event>
<event>
12    1  0.1506149E-007  0.1871751E+04  0.7818608E-02  0.8669047E-01
         -2   -1    0    0    0  501 -0.00000000000E+00  0.00000000000E+00  0.46495062362E+03  0.46495062362E+03  0.00000000000E+00 0.  1.
          2   -1    0    0  501    0  0.00000000000E+00 -0.00000000000E+00 -0.18837759230E+04  0.18837759230E+04  0.00000000000E+00 0. -1.
         23    2    1    2    0    0  0.53124589275E+03  0.38013034997E+03 -0.17050411417E+03  0.68134758454E+03  0.91878161081E+02 0.  0.
        254    2    1    2    0    0 -0.53124589275E+03 -0.38013034997E+03 -0.12483211852E+04  0.16673789621E+04  0.89169812168E+03 0.  0.
        -24    2    4    4    0    0 -0.59136669709E+03  0.29528772375E+02 -0.10353737116E+04  0.11953340939E+04  0.78983254215E+02 0.  0.
         24    2    4    4    0    0  0.60120804339E+02 -0.40965912235E+03 -0.21294747356E+03  0.47204486818E+03  0.77747176431E+02 0.  0.
         13    1    3    3    0    0  0.78923093933E+02  0.30852510001E+02 -0.46156767196E+02  0.96494452107E+02  0.00000000000E+00 0. -1.
        -13    1    3    3    0    0  0.45232279881E+03  0.34927783997E+03 -0.12434734698E+03  0.58485313244E+03  0.00000000000E+00 0.  1.
          4    1    6    6  502    0  0.18637259415E+02 -0.13577648948E+03 -0.11276702742E+03  0.17747959040E+03  0.00000000000E+00 0. -1.
          3    1    5    5  503    0 -0.64689741077E+02 -0.75475133345E+01 -0.16433901066E+03  0.17677397428E+03  0.00000000000E+00 0. -1.
         -4    1    5    5    0  503 -0.52667695601E+03  0.37076285709E+02 -0.87103470098E+03  0.10185601196E+04  0.00000000000E+00 0.  1.
         -3    1    6    6    0  502  0.41483544924E+02 -0.27388263287E+03 -0.10018044613E+03  0.29456527778E+03  0.00000000000E+00 0.  1.
<mgrwt>
<rscale>  0 0.18717508E+04</rscale>
<asrwt>0</asrwt>
<pdfrwt beam="1">  1        2 0.28981168E+00 0.18717508E+04</pdfrwt>
<pdfrwt beam="2">  1       -2 0.71530864E-01 0.18717508E+04</pdfrwt>
<totfact> 0.12900003E+01</totfact>
</mgrwt>
</event>
<event>
12    1  0.1506149E-007  0.1215109E+04  0.7818608E-02  0.9099733E-01
          2   -1    0    0  501    0  0.00000000000E+00  0.00000000000E+00  0.79997333574E+03  0.79997333574E+03  0.00000000000E+00 0. -1.
         -2   -1    0    0    0  501 -0.00000000000E+00 -0.00000000000E+00 -0.46141857555E+03  0.46141857555E+03  0.00000000000E+00 0.  1.
         23    2    1    2    0    0 -0.16862890863E+03  0.16827441945E+02  0.27605126130E+03  0.33638724959E+03  0.90737044223E+02 0.  0.
        254    2    1    2    0    0  0.16862890863E+03 -0.16827441945E+02  0.62503498890E+02  0.92500466169E+03  0.90719791951E+03 0.  0.
        -24    2    4    4    0    0  0.47857185616E+03 -0.23096478976E+03  0.21003092050E+02  0.53758591600E+03  0.78623988650E+02 0.  0.
         24    2    4    4    0    0 -0.30994294753E+03  0.21413734782E+03  0.41500406839E+02  0.38741874569E+03  0.80321642756E+02 0.  0.
         13    1    3    3    0    0 -0.37915110860E+02  0.21090097617E+02  0.17774764088E+02  0.46885926326E+02  0.00000000000E+00 0.  1.
        -13    1    3    3    0    0 -0.13071379777E+03 -0.42626556719E+01  0.25827649721E+03  0.28950132326E+03  0.00000000000E+00 0. -1.
          4    1    6    6  502    0 -0.13765620654E+03  0.87418957188E+02 -0.21459375983E+02  0.16447434479E+03  0.00000000000E+00 0. -1.
          3    1    5    5  503    0  0.74995000345E+02 -0.56680669189E+02  0.27472289659E+02  0.97937097341E+02  0.00000000000E+00 0. -1.
         -4    1    5    5    0  503  0.40357685581E+03 -0.17428412057E+03 -0.64691976090E+01  0.43964881866E+03  0.00000000000E+00 0.  1.
         -3    1    6    6    0  502 -0.17228674099E+03  0.12671839063E+03  0.62959782822E+02  0.22294440091E+03  0.00000000000E+00 0.  1.
<mgrwt>
<rscale>  0 0.12151091E+04</rscale>
<asrwt>0</asrwt>
<pdfrwt beam="1">  1        2 0.12307282E+00 0.12151091E+04</pdfrwt>
<pdfrwt beam="2">  1       -2 0.70987473E-01 0.12151091E+04</pdfrwt>
<totfact> 0.61244645E+01</totfact>
</mgrwt>
</event>
<event>
12    1  0.1506149E-007  0.1156471E+04  0.7818608E-02  0.9151834E-01
         -2   -1    0    0    0  501 -0.00000000000E+00  0.00000000000E+00  0.40792237735E+03  0.40792237735E+03  0.00000000000E+00 0.  1.
          2   -1    0    0  501    0  0.00000000000E+00 -0.00000000000E+00 -0.81965711264E+03  0.81965711264E+03  0.00000000000E+00 0. -1.
         23    2    1    2    0    0 -0.10258441969E+03  0.65925961176E+02 -0.25521727805E+03  0.29737888542E+03  0.91807118246E+02 0.  0.
        254    2    1    2    0    0  0.10258441969E+03 -0.65925961176E+02 -0.15651745724E+03  0.93020060458E+03  0.90879351605E+03 0.  0.
        -24    2    4    4    0    0  0.29071625771E+03  0.42809962937E+02  0.29412041117E+03  0.42350237087E+03  0.80615175030E+02 0.  0.
         24    2    4    4    0    0 -0.18813183802E+03 -0.10873592411E+03 -0.45063786841E+03  0.50669823370E+03  0.80321366524E+02 0.  0.
         13    1    3    3    0    0  0.83100499194E+01  0.60299558290E+01 -0.84796264847E+02  0.85415594764E+02  0.00000000000E+00 0.  1.
        -13    1    3    3    0    0 -0.11089446960E+03  0.59896005348E+02 -0.17042101320E+03  0.21196329066E+03  0.00000000000E+00 0. -1.
          4    1    6    6  502    0 -0.83428770414E+02 -0.51951965405E+02 -0.29350740272E+03  0.30952538166E+03  0.00000000000E+00 0. -1.
          1    1    5    5  503    0  0.25377439154E+03  0.17390489367E+02  0.27542979363E+03  0.37492058111E+03  0.00000000000E+00 0. -1.
         -2    1    5    5    0  503  0.36941866163E+02  0.25419473570E+02  0.18690617545E+02  0.48581789761E+02  0.00000000000E+00 0.  1.
         -3    1    6    6    0  502 -0.10470306761E+03 -0.56783958708E+02 -0.15713046570E+03  0.19717285204E+03  0.00000000000E+00 0.  1.
<mgrwt>
<rscale>  0 0.11564713E+04</rscale>
<asrwt>0</asrwt>
<pdfrwt beam="1">  1        2 0.12610109E+00 0.11564713E+04</pdfrwt>
<pdfrwt beam="2">  1       -2 0.62757289E-01 0.11564713E+04</pdfrwt>
<totfact> 0.77689401E+01</totfact>
</mgrwt>
</event>
<event>
12    1  0.1506149E-007  0.4433036E+04  0.7818608E-02  0.7922466E-01
         -1   -1    0    0    0  501 -0.00000000000E+00  0.00000000000E+00  0.15729294810E+04  0.15729294810E+04  0.00000000000E+00 0.  1.
          1   -1    0    0  501    0  0.00000000000E+00 -0.00000000000E+00 -0.31234401995E+04  0.31234401995E+04  0.00000000000E+00 0. -1.
         23    2    1    2    0    0 -0.18602012671E+04 -0.68311808915E+03  0.64034320656E+02  0.19850881076E+04  0.97341268981E+02 0.  0.
        254    2    1    2    0    0  0.18602012671E+04  0.68311808915E+03 -0.16145450391E+04  0.27112815729E+04  0.90404259111E+03 0.  0.
        -24    2    4    4    0    0  0.10159334352E+04 -0.87212445132E+02 -0.63460088525E+03  0.12036907652E+04  0.80164949972E+02 0.  0.
         24    2    4    4    0    0  0.84426783191E+03  0.77033053428E+03 -0.97994415386E+03  0.15075908078E+04  0.79637899148E+02 0.  0.
         13    1    3    3    0    0 -0.11110797171E+04 -0.42451242072E+03  0.83542219311E+02  0.11923456862E+04  0.00000000000E+00 0. -1.
        -13    1    3    3    0    0 -0.74912155006E+03 -0.25860566843E+03 -0.19507898655E+02  0.79274242136E+03  0.00000000000E+00 0.  1.
          2    1    6    6  502    0  0.63499976957E+03  0.62384304738E+03 -0.76702873606E+03  0.11750480573E+04  0.00000000000E+00 0. -1.
          1    1    5    5  503    0  0.83008015166E+03 -0.47586642725E+02 -0.54003193870E+03  0.99142929226E+03  0.00000000000E+00 0. -1.
         -2    1    5    5    0  503  0.18585328356E+03 -0.39625802407E+02 -0.94568946543E+02  0.21226147290E+03  0.00000000000E+00 0.  1.
         -1    1    6    6    0  502  0.20926806234E+03  0.14648748690E+03 -0.21291541781E+03  0.33254275045E+03  0.00000000000E+00 0.  1.
<mgrwt>
<rscale>  0 0.44330356E+04</rscale>
<asrwt>0</asrwt>
<pdfrwt beam="1">  1        1 0.48052926E+00 0.44330356E+04</pdfrwt>
<pdfrwt beam="2">  1       -1 0.24198915E+00 0.44330356E+04</pdfrwt>
<totfact> 0.28805462E-02</totfact>
</mgrwt>
</event>
<event>
12    1  0.2309619E-007  0.2008743E+04  0.7818608E-02  0.8602544E-01
          2   -1    0    0  501    0  0.00000000000E+00  0.00000000000E+00  0.15197136207E+04  0.15197136207E+04  0.00000000000E+00 0. -1.
         -2   -1    0    0    0  501 -0.00000000000E+00 -0.00000000000E+00 -0.66378428849E+03  0.66378428849E+03  0.00000000000E+00 0.  1.
         23    2    1    2    0    0  0.78466920057E+03  0.37943962914E+02  0.24048822995E+03  0.82671771845E+03  0.92098309453E+02 0.  0.
        254    2    1    2    0    0 -0.78466920057E+03 -0.37943962914E+02  0.61544110226E+03  0.13567801907E+04  0.91920576421E+03 0.  0.
        -24    2    4    4    0    0 -0.64099295389E+03 -0.18199241641E+03  0.81795912985E+03  0.10579170753E+04  0.78346623979E+02 0.  0.
         24    2    4    4    0    0 -0.14367624669E+03  0.14404845350E+03 -0.20251802759E+03  0.29886311546E+03  0.83143186513E+02 0.  0.
         13    1    3    3    0    0  0.62829782844E+03  0.35055456494E+02  0.15338078781E+03  0.64769801013E+03  0.00000000000E+00 0. -1.
        -13    1    3    3    0    0  0.15637137213E+03  0.28885064200E+01  0.87107442138E+02  0.17901970832E+03  0.00000000000E+00 0.  1.
          2    1    6    6  502    0 -0.84042378826E+02  0.11077672611E+03 -0.17895096578E+03  0.22662315116E+03  0.00000000000E+00 0. -1.
          1    1    5    5  503    0 -0.52617195098E+03 -0.11718165800E+03  0.65539622824E+03  0.84860631565E+03  0.00000000000E+00 0. -1.
         -2    1    5    5    0  503 -0.11482100290E+03 -0.64810758416E+02  0.16256290161E+03  0.20931075962E+03  0.00000000000E+00 0.  1.
         -1    1    6    6    0  502 -0.59633867862E+02  0.33271727384E+02 -0.23567061810E+02  0.72239964298E+02  0.00000000000E+00 0.  1.
<mgrwt>
<rscale>  0 0.20087429E+04</rscale>
<asrwt>0</asrwt>
<pdfrwt beam="1">  1        2 0.23380209E+00 0.20087429E+04</pdfrwt>
<pdfrwt beam="2">  1       -2 0.10212066E+00 0.20087429E+04</pdfrwt>
<totfact> 0.90264105E+00</totfact>
</mgrwt>
</event>
<event>
12    1  0.1506149E-007  0.3399026E+04  0.7818608E-02  0.8138145E-01
         -1   -1    0    0    0  501 -0.00000000000E+00  0.00000000000E+00  0.17185284747E+04  0.17185284747E+04  0.00000000000E+00 0.  1.
          1   -1    0    0  501    0  0.00000000000E+00 -0.00000000000E+00 -0.16807076254E+04  0.16807076254E+04  0.00000000000E+00 0. -1.
         23    2    1    2    0    0 -0.11049730025E+04 -0.29016084575E+03  0.11121099810E+04  0.15969051389E+04  0.90325855687E+02 0.  0.
        254    2    1    2    0    0  0.11049730025E+04  0.29016084575E+03 -0.10742891317E+04  0.18023309612E+04  0.88833614285E+03 0.  0.
        -24    2    4    4    0    0  0.36755896397E+03 -0.26667274248E+03 -0.13024047360E+03  0.47891250778E+03  0.78617209067E+02 0.  0.
         24    2    4    4    0    0  0.73741403852E+03  0.55683358824E+03 -0.94404865805E+03  0.13234184534E+04  0.79783613097E+02 0.  0.
         13    1    3    3    0    0 -0.86899881282E+03 -0.24840102433E+03  0.92102890343E+03  0.12904093329E+04  0.00000000000E+00 0.  1.
        -13    1    3    3    0    0 -0.23597418968E+03 -0.41759821420E+02  0.19108107755E+03  0.30649580597E+03  0.00000000000E+00 0. -1.
          2    1    6    6  502    0  0.17264749618E+01  0.21138413328E+01 -0.13923685402E+02  0.14188659421E+02  0.00000000000E+00 0. -1.
          3    1    5    5  503    0  0.28879696745E+03 -0.23894490536E+03 -0.12548042999E+03  0.39527673157E+03  0.00000000000E+00 0. -1.
         -4    1    5    5    0  503  0.78761996521E+02 -0.27727837122E+02 -0.47600436177E+01  0.83635776213E+02  0.00000000000E+00 0.  1.
         -1    1    6    6    0  502  0.73568756356E+03  0.55471974690E+03 -0.93012497265E+03  0.13092297940E+04  0.00000000000E+00 0.  1.
<mgrwt>
<rscale>  0 0.33990257E+04</rscale>
<asrwt>0</asrwt>
<pdfrwt beam="1">  1        1 0.25857040E+00 0.33990257E+04</pdfrwt>
<pdfrwt beam="2">  1       -1 0.26438900E+00 0.33990257E+04</pdfrwt>
<totfact> 0.22712288E-01</totfact>
</mgrwt>
</event>
<event>
12    1  0.1506149E-007  0.1931109E+04  0.7818608E-02  0.8639524E-01
          2   -1    0    0  501    0  0.00000000000E+00  0.00000000000E+00  0.33115278743E+04  0.33115278743E+04  0.00000000000E+00 0. -1.
         -2   -1    0    0    0  501 -0.00000000000E+00 -0.00000000000E+00 -0.28153046020E+03  0.28153046020E+03  0.00000000000E+00 0.  1.
         23    2    1    2    0    0 -0.25620591252E+02  0.29375773523E+03  0.24716525435E+04  0.24908909326E+04  0.92310999393E+02 0.  0.
        254    2    1    2    0    0  0.25620591252E+02 -0.29375773523E+03  0.55834487054E+03  0.11021674018E+04  0.90336812294E+03 0.  0.
        -24    2    4    4    0    0 -0.35783493483E+03  0.84528924086E+02  0.97388204914E+02  0.38871493548E+03  0.80148980132E+02 0.  0.
         24    2    4    4    0    0  0.38345552608E+03 -0.37828665932E+03  0.46095666562E+03  0.71345246637E+03  0.79965224221E+02 0.  0.
         13    1    3    3    0    0 -0.58626430380E+02  0.19343839898E+03  0.17265154064E+04  0.17383069122E+04  0.00000000000E+00 0. -1.
        -13    1    3    3    0    0  0.33005839129E+02  0.10031933625E+03  0.74513713715E+03  0.75258402043E+03  0.00000000000E+00 0.  1.
          4    1    6    6  502    0  0.29847665463E+03 -0.33201910413E+03  0.35900711838E+03  0.57289711983E+03  0.00000000000E+00 0. -1.
          1    1    5    5  503    0 -0.24164337398E+03  0.85025317479E+02  0.40514100581E+02  0.25934960410E+03  0.00000000000E+00 0. -1.
         -2    1    5    5    0  503 -0.11619156085E+03 -0.49639339313E+00  0.56874104333E+02  0.12936533138E+03  0.00000000000E+00 0.  1.
         -3    1    6    6    0  502  0.84978871457E+02 -0.46267555189E+02  0.10194954725E+03  0.14055534654E+03  0.00000000000E+00 0.  1.
<mgrwt>
<rscale>  0 0.19311095E+04</rscale>
<asrwt>0</asrwt>
<pdfrwt beam="1">  1        2 0.50946580E+00 0.19311095E+04</pdfrwt>
<pdfrwt beam="2">  1       -2 0.43312381E-01 0.19311095E+04</pdfrwt>
<totfact> 0.51925367E+00</totfact>
</mgrwt>
</event>
<event>
12    1  0.1506149E-007  0.2356776E+04  0.7818608E-02  0.8455865E-01
          1   -1    0    0  501    0  0.00000000000E+00  0.00000000000E+00  0.20518239271E+04  0.20518239271E+04  0.00000000000E+00 0. -1.
         -1   -1    0    0    0  501 -0.00000000000E+00 -0.00000000000E+00 -0.67676316973E+03  0.67676316973E+03  0.00000000000E+00 0.  1.
         23    2    1    2    0    0 -0.46928402276E+03 -0.81671572728E+01 -0.43881201885E+03  0.65136699732E+03  0.10690547618E+03 0.  0.
        254    2    1    2    0    0  0.46928402276E+03  0.81671572728E+01  0.18138727762E+04  0.20772200995E+04  0.89689168633E+03 0.  0.
        -24    2    4    4    0    0  0.67490988024E+03  0.18152970255E+03  0.14968373536E+04  0.16537962855E+04  0.77869836194E+02 0.  0.
         24    2    4    4    0    0 -0.20562585748E+03 -0.17336254528E+03  0.31703542257E+03  0.42342381398E+03  0.80247752060E+02 0.  0.
         11    1    3    3    0    0 -0.39124726377E+03 -0.47218214703E+02 -0.36192741523E+03  0.53506582315E+03  0.00000000000E+00 0.  1.
        -11    1    3    3    0    0 -0.78036758982E+02  0.39051057431E+02 -0.76884603627E+02  0.11630117417E+03  0.00000000000E+00 0. -1.
          4    1    6    6  502    0 -0.16032690004E+03 -0.14010528036E+03  0.19350812865E+03  0.28771444231E+03  0.00000000000E+00 0. -1.
          1    1    5    5  503    0  0.36277458441E+03  0.81238794473E+02  0.87842498111E+03  0.95385302235E+03  0.00000000000E+00 0. -1.
         -2    1    5    5    0  503  0.31213529583E+03  0.10029090808E+03  0.61841237250E+03  0.69994326313E+03  0.00000000000E+00 0.  1.
         -3    1    6    6    0  502 -0.45298957437E+02 -0.33257264920E+02  0.12352729392E+03  0.13570937167E+03  0.00000000000E+00 0.  1.
<mgrwt>
<rscale>  0 0.23567765E+04</rscale>
<asrwt>0</asrwt>
<pdfrwt beam="1">  1        1 0.31566522E+00 0.23567765E+04</pdfrwt>
<pdfrwt beam="2">  1       -1 0.10411741E+00 0.23567765E+04</pdfrwt>
<totfact> 0.21457242E+00</totfact>
</mgrwt>
</event>
<event>
12    1  0.1506149E-007  0.1554345E+04  0.7818608E-02  0.8849097E-01
         -1   -1    0    0    0  501 -0.00000000000E+00  0.00000000000E+00  0.48373282216E+03  0.48373282216E+03  0.00000000000E+00 0.  1.
          1   -1    0    0  501    0  0.00000000000E+00 -0.00000000000E+00 -0.12486164229E+04  0.12486164229E+04  0.00000000000E+00 0. -1.
         23    2    1    2    0    0 -0.18886694181E+03 -0.43031563282E+02  0.27261180479E+03  0.34667012268E+03  0.91326560755E+02 0.  0.
        254    2    1    2    0    0  0.18886694181E+03  0.43031563282E+02 -0.10374954056E+04  0.13856791224E+04  0.89787943319E+03 0.  0.
        -24    2    4    4    0    0  0.81791396865E+02 -0.19618391867E+03 -0.10853771977E+04  0.11088180338E+04  0.79093667775E+02 0.  0.
         24    2    4    4    0    0  0.10707554495E+03  0.23921548196E+03  0.47881792114E+02  0.27686108861E+03  0.75300579247E+02 0.  0.
         13    1    3    3    0    0 -0.17885847400E+03 -0.63432932202E+02  0.22833353283E+03  0.29690114992E+03  0.00000000000E+00 0.  1.
        -13    1    3    3    0    0 -0.10008467816E+02  0.20401368920E+02  0.44278271967E+02  0.49768972767E+02  0.00000000000E+00 0. -1.
          4    1    6    6  502    0  0.78420432575E+02  0.10286140849E+03 -0.56370218936E+00  0.12934663259E+03  0.00000000000E+00 0. -1.
          1    1    5    5  503    0  0.88913225166E+01 -0.10713596083E+03 -0.63107822862E+03  0.64016943098E+03  0.00000000000E+00 0. -1.
         -2    1    5    5    0  503  0.72900074348E+02 -0.89047957843E+02 -0.45429896906E+03  0.46864860282E+03  0.00000000000E+00 0.  1.
         -3    1    6    6    0  502  0.28655112373E+02  0.13635407347E+03  0.48445494304E+02  0.14751445602E+03  0.00000000000E+00 0.  1.
<mgrwt>
<rscale>  0 0.15543446E+04</rscale>
<asrwt>0</asrwt>
<pdfrwt beam="1">  1        1 0.19209483E+00 0.15543446E+04</pdfrwt>
<pdfrwt beam="2">  1       -1 0.74420435E-01 0.15543446E+04</pdfrwt>
<totfact> 0.17238700E+01</totfact>
</mgrwt>
</event>
<event>
12    1  0.1506149E-007  0.1876291E+04  0.7818608E-02  0.8666749E-01
         -2   -1    0    0    0  501 -0.00000000000E+00  0.00000000000E+00  0.11627474201E+04  0.11627474201E+04  0.00000000000E+00 0.  1.
          2   -1    0    0  501    0  0.00000000000E+00 -0.00000000000E+00 -0.75692888376E+03  0.75692888376E+03  0.00000000000E+00 0. -1.
         23    2    1    2    0    0  0.23950802374E+03 -0.40273861871E+03 -0.39226256136E+03  0.61808063932E+03  0.92689110604E+02 0.  0.
        254    2    1    2    0    0 -0.23950802374E+03  0.40273861871E+03  0.79808109773E+03  0.13015956646E+04  0.91523513210E+03 0.  0.
        -24    2    4    4    0    0 -0.44154186524E+03  0.17571647148E+03  0.43505063902E+02  0.48443249928E+03  0.83346617635E+02 0.  0.
         24    2    4    4    0    0  0.20203384150E+03  0.22702214722E+03  0.75457603383E+03  0.81716316528E+03  0.77549464372E+02 0.  0.
         11    1    3    3    0    0 -0.81245909958E+01 -0.18189690322E+02 -0.21378047745E+02  0.29221477346E+02  0.00000000000E+00 0.  1.
        -11    1    3    3    0    0  0.24763261473E+03 -0.38454892838E+03 -0.37088451362E+03  0.58885916198E+03  0.00000000000E+00 0. -1.
          2    1    6    6  502    0  0.83833905728E+02  0.90468643912E+02  0.40964653322E+03  0.42781185288E+03  0.00000000000E+00 0. -1.
          3    1    5    5  503    0 -0.13113449121E+01  0.11107457971E+02 -0.43559810833E+01  0.12002908783E+02  0.00000000000E+00 0. -1.
         -4    1    5    5    0  503 -0.44023052032E+03  0.16460901351E+03  0.47861044985E+02  0.47242959050E+03  0.00000000000E+00 0.  1.
         -1    1    6    6    0  502  0.11819993577E+03  0.13655350331E+03  0.34492950060E+03  0.38935131240E+03  0.00000000000E+00 0.  1.
<mgrwt>
<rscale>  0 0.18762911E+04</rscale>
<asrwt>0</asrwt>
<pdfrwt beam="1">  1        2 0.11645060E+00 0.18762911E+04</pdfrwt>
<pdfrwt beam="2">  1       -2 0.17888422E+00 0.18762911E+04</pdfrwt>
<totfact> 0.64139212E+00</totfact>
</mgrwt>
</event>
<event>
12    1  0.1506149E-007  0.3942563E+04  0.7818608E-02  0.8016235E-01
         -2   -1    0    0    0  501 -0.00000000000E+00  0.00000000000E+00  0.15120312181E+04  0.15120312181E+04  0.00000000000E+00 0.  1.
          2   -1    0    0  501    0  0.00000000000E+00 -0.00000000000E+00 -0.25700196885E+04  0.25700196885E+04  0.00000000000E+00 0. -1.
         23    2    1    2    0    0  0.10399060657E+04 -0.11625129303E+04 -0.15674171826E+04  0.22131234065E+04  0.90981588497E+02 0.  0.
        254    2    1    2    0    0 -0.10399060657E+04  0.11625129303E+04  0.50942871220E+03  0.18689275001E+04  0.89472423088E+03 0.  0.
        -24    2    4    4    0    0 -0.36089390073E+03  0.10344474553E+04  0.25077659997E+03  0.11267376570E+04  0.79516660271E+02 0.  0.
         24    2    4    4    0    0 -0.67901216494E+03  0.12806547501E+03  0.25865211223E+03  0.74218984310E+03  0.80539195573E+02 0.  0.
         13    1    3    3    0    0  0.97933264160E+03 -0.11168832804E+04 -0.14720645695E+04  0.20912902194E+04  0.00000000000E+00 0. -1.
        -13    1    3    3    0    0  0.60573424066E+02 -0.45629649972E+02 -0.95352613065E+02  0.12183318710E+03  0.00000000000E+00 0.  1.
          4    1    6    6  502    0 -0.58053411519E+03  0.80131954020E+02  0.21334115322E+03  0.62366291907E+03  0.00000000000E+00 0. -1.
          1    1    5    5  503    0 -0.17362002254E+03  0.43085996520E+03  0.13970141959E+03  0.48507804370E+03  0.00000000000E+00 0. -1.
         -2    1    5    5    0  503 -0.18727387819E+03  0.60358749012E+03  0.11107518038E+03  0.64165961333E+03  0.00000000000E+00 0.  1.
         -1    1    6    6    0  502 -0.98478049744E+02  0.47933520993E+02  0.45310959004E+02  0.11852692404E+03  0.00000000000E+00 0.  1.
<mgrwt>
<rscale>  0 0.39425626E+04</rscale>
<asrwt>0</asrwt>
<pdfrwt beam="1">  1        2 0.39538764E+00 0.39425626E+04</pdfrwt>
<pdfrwt beam="2">  1       -2 0.23262019E+00 0.39425626E+04</pdfrwt>
<totfact> 0.20677225E-01</totfact>
</mgrwt>
</event>
<event>
12    1  0.1506149E-007  0.1454795E+04  0.7818608E-02  0.8915083E-01
          2   -1    0    0  501    0  0.00000000000E+00  0.00000000000E+00  0.33650652725E+04  0.33650652725E+04  0.00000000000E+00 0. -1.
         -2   -1    0    0    0  501 -0.00000000000E+00 -0.00000000000E+00 -0.15723525620E+03  0.15723525620E+03  0.00000000000E+00 0.  1.
         23    2    1    2    0    0 -0.22703288177E+03  0.11905126165E+03  0.12276530130E+03  0.29853836791E+03  0.91305561727E+02 0.  0.
        254    2    1    2    0    0  0.22703288177E+03 -0.11905126165E+03  0.30850647150E+04  0.32237621608E+04  0.89961160580E+03 0.  0.
        -24    2    4    4    0    0  0.24489031477E+03 -0.34150647507E+03  0.65613424691E+03  0.78332182187E+03  0.80517003540E+02 0.  0.
         24    2    4    4    0    0 -0.17857432996E+02  0.22245521342E+03  0.24289304681E+04  0.24404403389E+04  0.78997589551E+02 0.  0.
         13    1    3    3    0    0 -0.23452906044E+03  0.11798073114E+03  0.11211361751E+03  0.28546943154E+03  0.00000000000E+00 0.  1.
        -13    1    3    3    0    0  0.74961786670E+01  0.10705305074E+01  0.10651683794E+02  0.13068936369E+02  0.00000000000E+00 0. -1.
          4    1    6    6  502    0 -0.39755451967E+02  0.12023228059E+03  0.15869661734E+04  0.15920106572E+04  0.00000000000E+00 0. -1.
          1    1    5    5  503    0  0.12151264256E+03 -0.23010975205E+03  0.36867933461E+03  0.45126519039E+03  0.00000000000E+00 0. -1.
         -4    1    5    5    0  503  0.12337767221E+03 -0.11139672302E+03  0.28745491231E+03  0.33205663148E+03  0.00000000000E+00 0.  1.
         -3    1    6    6    0  502  0.21898018972E+02  0.10222293283E+03  0.84196429471E+03  0.84842968170E+03  0.00000000000E+00 0.  1.
<mgrwt>
<rscale>  0 0.14547947E+04</rscale>
<asrwt>0</asrwt>
<pdfrwt beam="1">  1        2 0.51770230E+00 0.14547947E+04</pdfrwt>
<pdfrwt beam="2">  1       -2 0.24190042E-01 0.14547947E+04</pdfrwt>
<totfact> 0.15065202E+01</totfact>
</mgrwt>
</event>
<event>
12    1  0.1506149E-007  0.1725114E+04  0.7818608E-02  0.8747169E-01
          3   -1    0    0  501    0  0.00000000000E+00  0.00000000000E+00  0.12425917218E+04  0.12425917218E+04  0.00000000000E+00 0. -1.
         -3   -1    0    0    0  501 -0.00000000000E+00 -0.00000000000E+00 -0.59875248707E+03  0.59875248707E+03  0.00000000000E+00 0.  1.
         23    2    1    2    0    0  0.38615034588E+03 -0.39824338908E+03  0.55019518796E+03  0.78641281106E+03  0.89557121291E+02 0.  0.
        254    2    1    2    0    0 -0.38615034588E+03  0.39824338908E+03  0.93644046811E+02  0.10549313979E+04  0.89241311069E+03 0.  0.
        -24    2    4    4    0    0 -0.53831126155E+03  0.50632316302E+03 -0.12884214480E+03  0.75424670866E+03  0.78394129349E+02 0.  0.
         24    2    4    4    0    0  0.15216091568E+03 -0.10807977395E+03  0.22248619161E+03  0.30068468920E+03  0.77955083671E+02 0.  0.
         13    1    3    3    0    0  0.99382389556E+02 -0.16285300712E+03  0.17945563929E+03  0.26192038438E+03  0.00000000000E+00 0.  1.
        -13    1    3    3    0    0  0.28676795632E+03 -0.23539038196E+03  0.37073954867E+03  0.52449242667E+03  0.00000000000E+00 0. -1.
          2    1    6    6  502    0  0.10842178933E+03 -0.82641529402E+02  0.10279799381E+03  0.17074054678E+03  0.00000000000E+00 0. -1.
          3    1    5    5  503    0 -0.28173375129E+03  0.30844998953E+03 -0.49617459486E+02  0.42068657566E+03  0.00000000000E+00 0. -1.
         -4    1    5    5    0  503 -0.25657751026E+03  0.19787317349E+03 -0.79224685311E+02  0.33356013300E+03  0.00000000000E+00 0.  1.
         -1    1    6    6    0  502  0.43739126350E+02 -0.25438244544E+02  0.11968819779E+03  0.12994414242E+03  0.00000000000E+00 0.  1.
<mgrwt>
<rscale>  0 0.17251144E+04</rscale>
<asrwt>0</asrwt>
<pdfrwt beam="1">  1        3 0.19116796E+00 0.17251144E+04</pdfrwt>
<pdfrwt beam="2">  1       -3 0.92115767E-01 0.17251144E+04</pdfrwt>
<totfact> 0.44058643E-01</totfact>
</mgrwt>
</event>
<event>
12    1  0.1506149E-007  0.2858802E+04  0.7818608E-02  0.8285242E-01
         -1   -1    0    0    0  501 -0.00000000000E+00  0.00000000000E+00  0.17286160299E+04  0.17286160299E+04  0.00000000000E+00 0.  1.
          1   -1    0    0  501    0  0.00000000000E+00 -0.00000000000E+00 -0.11819788289E+04  0.11819788289E+04  0.00000000000E+00 0. -1.
         23    2    1    2    0    0  0.88352036740E+02 -0.12511705928E+04 -0.49461870543E+02  0.12586482618E+04  0.92276951390E+02 0.  0.
        254    2    1    2    0    0 -0.88352036740E+02  0.12511705928E+04  0.59609907159E+03  0.16519465970E+04  0.89462814707E+03 0.  0.
        -24    2    4    4    0    0  0.38142742740E+03  0.68786671517E+03  0.41167249126E+03  0.89126768273E+03  0.78970513555E+02 0.  0.
         24    2    4    4    0    0 -0.46977946414E+03  0.56330387761E+03  0.18442658033E+03  0.76067891426E+03  0.81334147888E+02 0.  0.
         13    1    3    3    0    0  0.56380207194E+02 -0.11532796546E+04 -0.48138476763E+02  0.11556599856E+04  0.00000000000E+00 0.  1.
        -13    1    3    3    0    0  0.31971829546E+02 -0.97890938203E+02 -0.13233937801E+01  0.10298827622E+03  0.00000000000E+00 0. -1.
          4    1    6    6  502    0 -0.44955693529E+03  0.54671644787E+03  0.19210520854E+03  0.73341988219E+03  0.00000000000E+00 0. -1.
          3    1    5    5  503    0  0.20743978303E+03  0.45257666103E+03  0.25687123340E+03  0.56021400218E+03  0.00000000000E+00 0. -1.
         -2    1    5    5    0  503  0.17398764437E+03  0.23529005414E+03  0.15480125786E+03  0.33105368055E+03  0.00000000000E+00 0.  1.
         -3    1    6    6    0  502 -0.20222528847E+02  0.16587429740E+02 -0.76786282115E+01  0.27259032073E+02  0.00000000000E+00 0.  1.
<mgrwt>
<rscale>  0 0.28588022E+04</rscale>
<asrwt>0</asrwt>
<pdfrwt beam="1">  1        1 0.18184290E+00 0.28588022E+04</pdfrwt>
<pdfrwt beam="2">  1       -1 0.26594093E+00 0.28588022E+04</pdfrwt>
<totfact> 0.52093165E-01</totfact>
</mgrwt>
</event>
<event>
12    1  0.1506149E-007  0.2727557E+04  0.7818608E-02  0.8326119E-01
         -1   -1    0    0    0  501 -0.00000000000E+00  0.00000000000E+00  0.10125461140E+04  0.10125461140E+04  0.00000000000E+00 0.  1.
          1   -1    0    0  501    0  0.00000000000E+00 -0.00000000000E+00 -0.18368460486E+04  0.18368460486E+04  0.00000000000E+00 0. -1.
         23    2    1    2    0    0 -0.48812654974E+02 -0.52651804064E+03  0.76990748727E+03  0.93855393148E+03  0.92314792652E+02 0.  0.
        254    2    1    2    0    0  0.48812654974E+02  0.52651804064E+03 -0.15942074219E+04  0.19108382311E+04  0.91115394914E+03 0.  0.
        -24    2    4    4    0    0  0.43758151014E+02  0.68472771021E+03 -0.64656588433E+03  0.94682953315E+03  0.87589435213E+02 0.  0.
         24    2    4    4    0    0  0.50545039601E+01 -0.15820966958E+03 -0.94764153759E+03  0.96400869797E+03  0.78945794345E+02 0.  0.
         13    1    3    3    0    0 -0.27761967669E+02 -0.33989878788E+03  0.41614570029E+03  0.53803267254E+03  0.00000000000E+00 0. -1.
        -13    1    3    3    0    0 -0.21050687305E+02 -0.18661925275E+03  0.35376178698E+03  0.40052125894E+03  0.00000000000E+00 0.  1.
          2    1    6    6  502    0  0.10497865532E+02 -0.12917493528E+03 -0.88847469882E+03  0.89787730761E+03  0.00000000000E+00 0. -1.
          1    1    5    5  503    0 -0.89503115828E+01  0.48326162310E+03 -0.44440683606E+03  0.65659678676E+03  0.00000000000E+00 0. -1.
         -2    1    5    5    0  503  0.52708462597E+02  0.20146608711E+03 -0.20215904826E+03  0.29023274639E+03  0.00000000000E+00 0.  1.
         -1    1    6    6    0  502 -0.54433615721E+01 -0.29034734295E+02 -0.59166838771E+02  0.66131390360E+02  0.00000000000E+00 0.  1.
<mgrwt>
<rscale>  0 0.27275567E+04</rscale>
<asrwt>0</asrwt>
<pdfrwt beam="1">  1        1 0.28259170E+00 0.27275567E+04</pdfrwt>
<pdfrwt beam="2">  1       -1 0.15577633E+00 0.27275567E+04</pdfrwt>
<totfact> 0.10544443E+00</totfact>
</mgrwt>
</event>
<event>
12    1  0.1506149E-007  0.1539823E+04  0.7818608E-02  0.8858394E-01
          2   -1    0    0  501    0  0.00000000000E+00  0.00000000000E+00  0.10899205129E+04  0.10899205129E+04  0.00000000000E+00 0. -1.
         -2   -1    0    0    0  501 -0.00000000000E+00 -0.00000000000E+00 -0.54385987046E+03  0.54385987046E+03  0.00000000000E+00 0.  1.
         23    2    1    2    0    0 -0.18872541371E+03  0.23052585089E+03  0.62060973563E+03  0.69449505768E+03  0.91692374131E+02 0.  0.
        254    2    1    2    0    0  0.18872541371E+03 -0.23052585089E+03 -0.74549093162E+02  0.93928532570E+03  0.88765979186E+03 0.  0.
        -24    2    4    4    0    0  0.40006066829E+03 -0.20519609135E+03  0.26651582142E+03  0.52938425785E+03  0.84041865590E+02 0.  0.
         24    2    4    4    0    0 -0.21133525458E+03 -0.25329759537E+02 -0.34106491459E+03  0.40990106786E+03  0.79933865929E+02 0.  0.
         13    1    3    3    0    0 -0.86996505024E+02  0.41392414015E+02  0.21288053256E+03  0.23366609717E+03  0.00000000000E+00 0.  1.
        -13    1    3    3    0    0 -0.10172890869E+03  0.18913343687E+03  0.40772920307E+03  0.46082896051E+03  0.00000000000E+00 0. -1.
          4    1    6    6  502    0 -0.66233948375E+02 -0.42908481725E+02 -0.14827078953E+03  0.16796517719E+03  0.00000000000E+00 0. -1.
          3    1    5    5  503    0  0.60162980377E+02 -0.14924073569E+01  0.47154045770E+02  0.76454663167E+02  0.00000000000E+00 0. -1.
         -4    1    5    5    0  503  0.33989768791E+03 -0.20370368399E+03  0.21936177565E+03  0.45292959468E+03  0.00000000000E+00 0.  1.
         -3    1    6    6    0  502 -0.14510130620E+03  0.17578722188E+02 -0.19279412506E+03  0.24193589067E+03  0.00000000000E+00 0.  1.
<mgrwt>
<rscale>  0 0.15398234E+04</rscale>
<asrwt>0</asrwt>
<pdfrwt beam="1">  1        2 0.16768008E+00 0.15398234E+04</pdfrwt>
<pdfrwt beam="2">  1       -2 0.83670749E-01 0.15398234E+04</pdfrwt>
<totfact> 0.26595319E+01</totfact>
</mgrwt>
</event>
<event>
12    1  0.1506149E-007  0.1542643E+04  0.7818608E-02  0.8856581E-01
         -2   -1    0    0    0  501 -0.00000000000E+00  0.00000000000E+00  0.54455138708E+03  0.54455138708E+03  0.00000000000E+00 0.  1.
          2   -1    0    0  501    0  0.00000000000E+00 -0.00000000000E+00 -0.10925259283E+04  0.10925259283E+04  0.00000000000E+00 0. -1.
         23    2    1    2    0    0  0.14335160891E+02  0.35261004129E+02 -0.71368546174E+03  0.72059445361E+03  0.91981481944E+02 0.  0.
        254    2    1    2    0    0 -0.14335160891E+02 -0.35261004129E+02  0.16571092056E+03  0.91648286174E+03  0.90057309055E+03 0.  0.
        -24    2    4    4    0    0 -0.27416270598E+03  0.96659840461E+02 -0.25813883539E+03  0.39616703133E+03  0.76186247230E+02 0.  0.
         24    2    4    4    0    0  0.25982754509E+03 -0.13192084459E+03  0.42384975595E+03  0.52031583041E+03  0.78526971968E+02 0.  0.
         13    1    3    3    0    0 -0.27907774485E+02 -0.26595553780E+01 -0.44977615430E+03  0.45064898323E+03  0.00000000000E+00 0. -1.
        -13    1    3    3    0    0  0.42242935375E+02  0.37920559507E+02 -0.26390930744E+03  0.26994547037E+03  0.00000000000E+00 0.  1.
          2    1    6    6  502    0  0.17722950717E+03 -0.69126433309E+02  0.21476501055E+03  0.28690202466E+03  0.00000000000E+00 0. -1.
          3    1    5    5  503    0 -0.53766520427E+01  0.11950266464E+02  0.12287157040E+01  0.13161572779E+02  0.00000000000E+00 0. -1.
         -4    1    5    5    0  503 -0.26878605394E+03  0.84709573997E+02 -0.25936755109E+03  0.38300545855E+03  0.00000000000E+00 0.  1.
         -1    1    6    6    0  502  0.82598037919E+02 -0.62794411281E+02  0.20908474540E+03  0.23341380575E+03  0.00000000000E+00 0.  1.
<mgrwt>
<rscale>  0 0.15426426E+04</rscale>
<asrwt>0</asrwt>
<pdfrwt beam="1">  1        2 0.16808091E+00 0.15426426E+04</pdfrwt>
<pdfrwt beam="2">  1       -2 0.83777137E-01 0.15426426E+04</pdfrwt>
<totfact> 0.26414579E+01</totfact>
</mgrwt>
</event>
<event>
12    1  0.1506149E-007  0.1066290E+04  0.7818608E-02  0.9238685E-01
          2   -1    0    0  501    0  0.00000000000E+00  0.00000000000E+00  0.89652376948E+03  0.89652376948E+03  0.00000000000E+00 0. -1.
         -2   -1    0    0    0  501 -0.00000000000E+00 -0.00000000000E+00 -0.31705082456E+03  0.31705082456E+03  0.00000000000E+00 0.  1.
         23    2    1    2    0    0  0.25081367992E+02  0.16764990173E+02 -0.50920405258E+02  0.10822919482E+03  0.90611980578E+02 0.  0.
        254    2    1    2    0    0 -0.25081367992E+02 -0.16764990173E+02  0.63039335018E+03  0.11053453992E+04  0.90745938515E+03 0.  0.
        -24    2    4    4    0    0 -0.39423548177E+03  0.24545700201E+02  0.42465788989E+02  0.40532653438E+03  0.80387497456E+02 0.  0.
         24    2    4    4    0    0  0.36915411378E+03 -0.41310690374E+02  0.58792756119E+03  0.70001886484E+03  0.79914085501E+02 0.  0.
         11    1    3    3    0    0 -0.27325584727E+02  0.20548616823E+02  0.12127311473E+01  0.34211167049E+02  0.00000000000E+00 0. -1.
        -11    1    3    3    0    0  0.52406952719E+02 -0.37836266504E+01 -0.52133136406E+02  0.74018027773E+02  0.00000000000E+00 0.  1.
          2    1    6    6  502    0  0.11285643533E+02 -0.14683760532E+02  0.14336562121E+02  0.23420409620E+02  0.00000000000E+00 0. -1.
          1    1    5    5  503    0 -0.51798397196E+02  0.28369876790E+02  0.19106297646E+02  0.62072332572E+02  0.00000000000E+00 0. -1.
         -2    1    5    5    0  503 -0.34243708458E+03 -0.38241765886E+01  0.23359491343E+02  0.34325420181E+03  0.00000000000E+00 0.  1.
         -1    1    6    6    0  502  0.35786847025E+03 -0.26626929842E+02  0.57359099907E+03  0.67659845522E+03  0.00000000000E+00 0.  1.
<mgrwt>
<rscale>  0 0.10662900E+04</rscale>
<asrwt>0</asrwt>
<pdfrwt beam="1">  1        2 0.13792673E+00 0.10662900E+04</pdfrwt>
<pdfrwt beam="2">  1       -2 0.48777050E-01 0.10662900E+04</pdfrwt>
<totfact> 0.11670946E+02</totfact>
</mgrwt>
</event>
<event>
12    1  0.1506149E-007  0.2109733E+04  0.7818608E-02  0.8556968E-01
          1   -1    0    0  501    0  0.00000000000E+00  0.00000000000E+00  0.14072209087E+04  0.14072209087E+04  0.00000000000E+00 0. -1.
         -1   -1    0    0    0  501 -0.00000000000E+00 -0.00000000000E+00 -0.79073821159E+03  0.79073821159E+03  0.00000000000E+00 0.  1.
         23    2    1    2    0    0  0.20668773628E+03  0.53516993149E+03 -0.41886986125E+03  0.71594600637E+03  0.89442984476E+02 0.  0.
        254    2    1    2    0    0 -0.20668773628E+03 -0.53516993149E+03  0.10353525584E+04  0.14820131140E+04  0.89178544160E+03 0.  0.
        -24    2    4    4    0    0 -0.53221989089E+01  0.63272405398E+02  0.79629069842E+03  0.80290692104E+03  0.80925424871E+02 0.  0.
         24    2    4    4    0    0 -0.20136553737E+03 -0.59844233689E+03  0.23906186000E+03  0.67910619292E+03  0.73166509711E+02 0.  0.
         13    1    3    3    0    0  0.12593750682E+03  0.39208035109E+03 -0.25771733758E+03  0.48580395575E+03  0.00000000000E+00 0.  1.
        -13    1    3    3    0    0  0.80750229455E+02  0.14308958040E+03 -0.16115252368E+03  0.23014205062E+03  0.00000000000E+00 0. -1.
          2    1    6    6  502    0 -0.10499995609E+02 -0.16953120364E+02 -0.44428830786E+01  0.20430306114E+02  0.00000000000E+00 0. -1.
          3    1    5    5  503    0 -0.36346304233E+02  0.33825495237E+02  0.24625526809E+03  0.25121081789E+03  0.00000000000E+00 0. -1.
         -4    1    5    5    0  503  0.31024105324E+02  0.29446910161E+02  0.55003543032E+03  0.55169610316E+03  0.00000000000E+00 0.  1.
         -3    1    6    6    0  502 -0.19086554176E+03 -0.58148921652E+03  0.24350474308E+03  0.65867588681E+03  0.00000000000E+00 0.  1.
<mgrwt>
<rscale>  0 0.21097330E+04</rscale>
<asrwt>0</asrwt>
<pdfrwt beam="1">  1        1 0.21649552E+00 0.21097330E+04</pdfrwt>
<pdfrwt beam="2">  1       -1 0.12165203E+00 0.21097330E+04</pdfrwt>
<totfact> 0.41770246E+00</totfact>
</mgrwt>
</event>
<event>
12    1  0.1506149E-007  0.1079045E+04  0.7818608E-02  0.9225860E-01
         -2   -1    0    0    0  501 -0.00000000000E+00  0.00000000000E+00  0.63229323919E+03  0.63229323919E+03  0.00000000000E+00 0.  1.
          2   -1    0    0  501    0  0.00000000000E+00 -0.00000000000E+00 -0.46036328246E+03  0.46036328246E+03  0.00000000000E+00 0. -1.
         23    2    1    2    0    0  0.48206460117E+02 -0.13516810139E+03  0.40644373623E+02  0.17612497857E+03  0.93668375346E+02 0.  0.
        254    2    1    2    0    0 -0.48206460117E+02  0.13516810139E+03  0.13128558311E+03  0.91653154308E+03  0.89565612079E+03 0.  0.
        -24    2    4    4    0    0  0.16718132383E+03 -0.33063804778E+03  0.12108841247E+03  0.39698658091E+03  0.75265052421E+02 0.  0.
         24    2    4    4    0    0 -0.21538778394E+03  0.46580614917E+03  0.10197170638E+02  0.51954496217E+03  0.80347491276E+02 0.  0.
         11    1    3    3    0    0  0.39152273858E+02 -0.23677580505E+02 -0.18783895460E+02  0.49460722755E+02  0.00000000000E+00 0. -1.
        -11    1    3    3    0    0  0.90541862595E+01 -0.11149052088E+03  0.59428269083E+02  0.12666425582E+03  0.00000000000E+00 0.  1.
          4    1    6    6  502    0 -0.92179349350E+02  0.27887079382E+03 -0.15911300925E+02  0.29414132928E+03  0.00000000000E+00 0. -1.
          3    1    5    5  503    0  0.18491015284E+02 -0.11249948225E+03  0.39906163330E+02  0.12079136155E+03  0.00000000000E+00 0. -1.
         -4    1    5    5    0  503  0.14869030854E+03 -0.21813856553E+03  0.81182249141E+02  0.27619521936E+03  0.00000000000E+00 0.  1.
         -3    1    6    6    0  502 -0.12320843459E+03  0.18693535534E+03  0.26108471564E+02  0.22540363289E+03  0.00000000000E+00 0.  1.
<mgrwt>
<rscale>  0 0.10790451E+04</rscale>
<asrwt>0</asrwt>
<pdfrwt beam="1">  1        2 0.70825120E-01 0.10790451E+04</pdfrwt>
<pdfrwt beam="2">  1       -2 0.97275883E-01 0.10790451E+04</pdfrwt>
<totfact> 0.59401962E+01</totfact>
</mgrwt>
</event>
<event>
12    1  0.1506149E-007  0.1390362E+04  0.7818608E-02  0.8960825E-01
          1   -1    0    0  501    0  0.00000000000E+00  0.00000000000E+00  0.81529902345E+03  0.81529902345E+03  0.00000000000E+00 0. -1.
         -1   -1    0    0    0  501 -0.00000000000E+00 -0.00000000000E+00 -0.59276001149E+03  0.59276001149E+03  0.00000000000E+00 0.  1.
         23    2    1    2    0    0 -0.29080895324E+02  0.29041964505E+03 -0.20791459903E+03  0.36943224142E+03  0.89791045273E+02 0.  0.
        254    2    1    2    0    0  0.29080895324E+02 -0.29041964505E+03  0.43045361098E+03  0.10386267935E+04  0.89903617075E+03 0.  0.
        -24    2    4    4    0    0  0.29332439802E+03  0.89197878928E+02  0.47139467293E+03  0.56766207295E+03  0.77664839672E+02 0.  0.
         24    2    4    4    0    0 -0.26424350269E+03 -0.37961752397E+03 -0.40941061947E+02  0.47096472058E+03  0.78724229131E+02 0.  0.
         11    1    3    3    0    0 -0.15461555749E+02  0.98650153993E+02 -0.22543249162E+02  0.10236752743E+03  0.00000000000E+00 0. -1.
        -11    1    3    3    0    0 -0.13619339575E+02  0.19176949105E+03 -0.18537134986E+03  0.26706471399E+03  0.00000000000E+00 0.  1.
          4    1    6    6  502    0 -0.19523558598E+03 -0.32861585562E+03 -0.46061833226E+02  0.38500260658E+03  0.00000000000E+00 0. -1.
          3    1    5    5  503    0  0.19534132230E+03  0.46064101369E+02  0.36608789425E+03  0.41749308970E+03  0.00000000000E+00 0. -1.
         -4    1    5    5    0  503  0.97983075716E+02  0.43133777559E+02  0.10530677868E+03  0.15016898324E+03  0.00000000000E+00 0.  1.
         -3    1    6    6    0  502 -0.69007916708E+02 -0.51001668359E+02  0.51207712796E+01  0.85962113994E+02  0.00000000000E+00 0.  1.
<mgrwt>
<rscale>  0 0.13903621E+04</rscale>
<asrwt>0</asrwt>
<pdfrwt beam="1">  1        1 0.12543062E+00 0.13903621E+04</pdfrwt>
<pdfrwt beam="2">  1       -1 0.91193848E-01 0.13903621E+04</pdfrwt>
<totfact> 0.24557799E+01</totfact>
</mgrwt>
</event>
<event>
12    1  0.1506149E-007  0.1496488E+04  0.7818608E-02  0.8886792E-01
         -1   -1    0    0    0  501 -0.00000000000E+00  0.00000000000E+00  0.34841304813E+03  0.34841304813E+03  0.00000000000E+00 0.  1.
          1   -1    0    0  501    0  0.00000000000E+00 -0.00000000000E+00 -0.16069123465E+04  0.16069123465E+04  0.00000000000E+00 0. -1.
         23    2    1    2    0    0  0.31839205763E+03 -0.25203628324E+03 -0.66451871622E+03  0.78431805240E+03  0.93133735410E+02 0.  0.
        254    2    1    2    0    0 -0.31839205763E+03  0.25203628324E+03 -0.59398058216E+03  0.11710073423E+04  0.92387741243E+03 0.  0.
        -24    2    4    4    0    0  0.17527653790E+03 -0.23651214243E+03 -0.23841708824E+03  0.38675016233E+03  0.77930237011E+02 0.  0.
         24    2    4    4    0    0 -0.49366859553E+03  0.48854842567E+03 -0.35556349392E+03  0.78425717993E+03  0.79029612293E+02 0.  0.
         11    1    3    3    0    0  0.18818841948E+03 -0.11918804203E+03 -0.28556140520E+03  0.36216845076E+03  0.00000000000E+00 0.  1.
        -11    1    3    3    0    0  0.13020363816E+03 -0.13284824121E+03 -0.37895731102E+03  0.42214960164E+03  0.00000000000E+00 0. -1.
          2    1    6    6  502    0 -0.14049629902E+03  0.97733637256E+02 -0.68333151238E+02  0.18428373083E+03  0.00000000000E+00 0. -1.
          1    1    5    5  503    0  0.24654287901E+02 -0.47765333709E+02 -0.85280776523E+02  0.10080759823E+03  0.00000000000E+00 0. -1.
         -2    1    5    5    0  503  0.15062225000E+03 -0.18874680872E+03 -0.15313631171E+03  0.28594256410E+03  0.00000000000E+00 0.  1.
         -1    1    6    6    0  502 -0.35317229651E+03  0.39081478841E+03 -0.28723034268E+03  0.59997344910E+03  0.00000000000E+00 0.  1.
<mgrwt>
<rscale>  0 0.14964882E+04</rscale>
<asrwt>0</asrwt>
<pdfrwt beam="1">  1        1 0.24721729E+00 0.14964882E+04</pdfrwt>
<pdfrwt beam="2">  1       -1 0.53602007E-01 0.14964882E+04</pdfrwt>
<totfact> 0.18756682E+01</totfact>
</mgrwt>
</event>
<event>
12    1  0.1506149E-007  0.1244999E+04  0.7818608E-02  0.9074356E-01
         -2   -1    0    0    0  501 -0.00000000000E+00  0.00000000000E+00  0.94322604450E+03  0.94322604450E+03  0.00000000000E+00 0. -1.
          2   -1    0    0  501    0  0.00000000000E+00 -0.00000000000E+00 -0.41082991898E+03  0.41082991898E+03  0.00000000000E+00 0.  1.
         23    2    1    2    0    0 -0.22910111812E+03  0.84482690114E+02  0.26816650903E+03  0.37385805535E+03  0.90729938452E+02 0.  0.
        254    2    1    2    0    0  0.22910111812E+03 -0.84482690114E+02  0.26422961648E+03  0.98019790813E+03  0.91178177303E+03 0.  0.
        -24    2    4    4    0    0 -0.31063288709E+03  0.14234712227E+03  0.13030365125E+03  0.37437585643E+03  0.80142040114E+02 0.  0.
         24    2    4    4    0    0  0.53973400521E+03 -0.22682981238E+03  0.13392596523E+03  0.60582205170E+03  0.79496125692E+02 0.  0.
         11    1    3    3    0    0 -0.23456465301E+03  0.71263115880E+02  0.24471008858E+03  0.34638423113E+03  0.00000000000E+00 0. -1.
        -11    1    3    3    0    0  0.54635348924E+01  0.13219574234E+02  0.23456420459E+02  0.27473824218E+02  0.00000000000E+00 0.  1.
          4    1    6    6  502    0  0.14110650428E+03 -0.98268585530E+02  0.35995573628E+02  0.17567994130E+03  0.00000000000E+00 0. -1.
          1    1    5    5  503    0 -0.16367206856E+03  0.10277704392E+03  0.39853691266E+02  0.19733216537E+03  0.00000000000E+00 0. -1.
         -2    1    5    5    0  503 -0.14696081853E+03  0.39570078344E+02  0.90449959985E+02  0.17704369106E+03  0.00000000000E+00 0.  1.
         -3    1    6    6    0  502  0.39862750092E+03 -0.12856122685E+03  0.97930391604E+02  0.43014211040E+03  0.00000000000E+00 0.  1.
<mgrwt>
<rscale>  0 0.12449988E+04</rscale>
<asrwt>0</asrwt>
<pdfrwt beam="1">  1        2 0.63204603E-01 0.12449988E+04</pdfrwt>
<pdfrwt beam="2">  1       -2 0.14511170E+00 0.12449988E+04</pdfrwt>
<totfact> 0.24797914E+01</totfact>
</mgrwt>
</event>
<event>
12    1  0.1506149E-007  0.1210247E+04  0.7818608E-02  0.9103934E-01
         -2   -1    0    0    0  501 -0.00000000000E+00  0.00000000000E+00  0.33714544934E+03  0.33714544934E+03  0.00000000000E+00 0.  1.
          2   -1    0    0  501    0  0.00000000000E+00 -0.00000000000E+00 -0.10861021675E+04  0.10861021675E+04  0.00000000000E+00 0. -1.
         23    2    1    2    0    0 -0.90552515437E+02 -0.17352400863E+03 -0.67136984213E+01  0.21582019372E+03  0.90680442479E+02 0.  0.
        254    2    1    2    0    0  0.90552515437E+02  0.17352400863E+03 -0.74224301971E+03  0.12074274231E+04  0.93201177144E+03 0.  0.
        -24    2    4    4    0    0  0.32054675833E+03 -0.27814477120E+03 -0.41557996959E+03  0.59929767605E+03  0.79600599028E+02 0.  0.
         24    2    4    4    0    0 -0.22999424290E+03  0.45166877984E+03 -0.32666305012E+03  0.60812974704E+03  0.78809913576E+02 0.  0.
         11    1    3    3    0    0 -0.22599765513E+02 -0.26757590750E+01 -0.21569203045E+02  0.31355057134E+02  0.00000000000E+00 0. -1.
        -11    1    3    3    0    0 -0.67952749924E+02 -0.17084824956E+03  0.14855504624E+02  0.18446513659E+03  0.00000000000E+00 0.  1.
          2    1    6    6  502    0  0.33194865749E+00 -0.53694240777E+00 -0.98567769725E+01  0.98769706563E+01  0.00000000000E+00 0. -1.
          1    1    5    5  503    0  0.20094617563E+03 -0.14486534505E+03 -0.19552873586E+03  0.31558963900E+03  0.00000000000E+00 0. -1.
         -2    1    5    5    0  503  0.11960058270E+03 -0.13327942616E+03 -0.22005123373E+03  0.28370803705E+03  0.00000000000E+00 0.  1.
         -1    1    6    6    0  502 -0.23032619155E+03  0.45220572225E+03 -0.31680627315E+03  0.59825277639E+03  0.00000000000E+00 0.  1.
<mgrwt>
<rscale>  0 0.12102469E+04</rscale>
<asrwt>0</asrwt>
<pdfrwt beam="1">  1        2 0.16709264E+00 0.12102469E+04</pdfrwt>
<pdfrwt beam="2">  1       -2 0.51868530E-01 0.12102469E+04</pdfrwt>
<totfact> 0.76903256E+01</totfact>
</mgrwt>
</event>
<event>
12    1  0.1506149E-007  0.1562907E+04  0.7818608E-02  0.8843665E-01
          1   -1    0    0  501    0  0.00000000000E+00  0.00000000000E+00  0.11044745614E+04  0.11044745614E+04  0.00000000000E+00 0. -1.
         -1   -1    0    0    0  501 -0.00000000000E+00 -0.00000000000E+00 -0.55290499646E+03  0.55290499646E+03  0.00000000000E+00 0.  1.
         23    2    1    2    0    0 -0.36998666869E+02  0.37434439295E+03 -0.18707649209E+03  0.42930620159E+03  0.88337845508E+02 0.  0.
        254    2    1    2    0    0  0.36998666869E+02 -0.37434439295E+03  0.73864605700E+03  0.12280733562E+04  0.90612556796E+03 0.  0.
        -24    2    4    4    0    0 -0.76573689608E+02 -0.15383073864E+03  0.90089073613E+03  0.92058590819E+03  0.79667244351E+02 0.  0.
         24    2    4    4    0    0  0.11357235648E+03 -0.22051365431E+03 -0.16224467913E+03  0.30748744805E+03  0.81855011543E+02 0.  0.
         11    1    3    3    0    0 -0.77936983142E+01  0.33577662875E+03 -0.17787647265E+03  0.38006147618E+03  0.00000000000E+00 0.  1.
        -11    1    3    3    0    0 -0.29204968555E+02  0.38567764194E+02 -0.92000194350E+01  0.49244725411E+02  0.00000000000E+00 0. -1.
          2    1    6    6  502    0  0.45386804868E+02 -0.25257239631E+02 -0.50347784674E+02  0.72338023414E+02  0.00000000000E+00 0. -1.
          3    1    5    5  503    0 -0.14774190121E+02  0.26423164535E+01  0.16634732962E+03  0.16702303016E+03  0.00000000000E+00 0. -1.
         -4    1    5    5    0  503 -0.61799499487E+02 -0.15647305509E+03  0.73454340650E+03  0.75356287803E+03  0.00000000000E+00 0.  1.
         -1    1    6    6    0  502  0.68185551609E+02 -0.19525641468E+03 -0.11189689445E+03  0.23514942464E+03  0.00000000000E+00 0.  1.
<mgrwt>
<rscale>  0 0.15629069E+04</rscale>
<asrwt>0</asrwt>
<pdfrwt beam="1">  1        1 0.16991916E+00 0.15629069E+04</pdfrwt>
<pdfrwt beam="2">  1       -1 0.85062307E-01 0.15629069E+04</pdfrwt>
<totfact> 0.16553476E+01</totfact>
</mgrwt>
</event>
<event>
12    1  0.1506149E-007  0.1312761E+04  0.7818608E-02  0.9019506E-01
          2   -1    0    0  501    0  0.00000000000E+00  0.00000000000E+00  0.14891275384E+04  0.14891275384E+04  0.00000000000E+00 0. -1.
         -2   -1    0    0    0  501 -0.00000000000E+00 -0.00000000000E+00 -0.28932062003E+03  0.28932062003E+03  0.00000000000E+00 0.  1.
         23    2    1    2    0    0 -0.53238846817E+02 -0.11174626512E+03  0.76461378641E+03  0.77989381521E+03  0.90986361913E+02 0.  0.
        254    2    1    2    0    0  0.53238846817E+02  0.11174626512E+03  0.43519313193E+03  0.99855434318E+03  0.89016633930E+03 0.  0.
        -24    2    4    4    0    0 -0.39427811176E+03  0.15307655440E+03  0.29237002885E+03  0.52032186707E+03  0.79793174298E+02 0.  0.
         24    2    4    4    0    0  0.44751695858E+03 -0.41330289273E+02  0.14282310308E+03  0.47823247611E+03  0.79550244558E+02 0.  0.
         13    1    3    3    0    0 -0.78117846503E+02 -0.97290564000E+02  0.61136522805E+03  0.62396738204E+03  0.00000000000E+00 0. -1.
        -13    1    3    3    0    0  0.24878999686E+02 -0.14455701122E+02  0.15324855836E+03  0.15592643317E+03  0.00000000000E+00 0.  1.
          4    1    6    6  502    0  0.38136085004E+03 -0.21116271926E+02  0.14621162591E+03  0.40897412441E+03  0.00000000000E+00 0. -1.
          3    1    5    5  503    0 -0.34149072038E+03  0.15968816445E+03  0.26168993360E+03  0.45890940643E+03  0.00000000000E+00 0. -1.
         -4    1    5    5    0  503 -0.52787391385E+02 -0.66116100560E+01  0.30680095251E+02  0.61412460636E+02  0.00000000000E+00 0.  1.
         -3    1    6    6    0  502  0.66156108537E+02 -0.20214017348E+02 -0.33885228260E+01  0.69258351706E+02  0.00000000000E+00 0.  1.
<mgrwt>
<rscale>  0 0.13127609E+04</rscale>
<asrwt>0</asrwt>
<pdfrwt beam="1">  1        2 0.22909654E+00 0.13127609E+04</pdfrwt>
<pdfrwt beam="2">  1       -2 0.44510865E-01 0.13127609E+04</pdfrwt>
<totfact> 0.60332229E+01</totfact>
</mgrwt>
</event>
<event>
12    1  0.1506149E-007  0.2728372E+04  0.7818608E-02  0.8325858E-01
          1   -1    0    0  501    0  0.00000000000E+00  0.00000000000E+00  0.13411502577E+04  0.13411502577E+04  0.00000000000E+00 0. -1.
         -1   -1    0    0    0  501 -0.00000000000E+00 -0.00000000000E+00 -0.13876172962E+04  0.13876172962E+04  0.00000000000E+00 0.  1.
         23    2    1    2    0    0 -0.32360692345E+02  0.29981743579E+03  0.11526630942E+04  0.11945501951E+04  0.85908386313E+02 0.  0.
        254    2    1    2    0    0  0.32360692345E+02 -0.29981743579E+03 -0.11991301327E+04  0.15342173587E+04  0.90827975838E+03 0.  0.
        -24    2    4    4    0    0 -0.39040979752E+02 -0.61581722906E+03 -0.78628541084E+03  0.10034821702E+04  0.89312154358E+02 0.  0.
         24    2    4    4    0    0  0.71401672097E+02  0.31599979327E+03 -0.41284472186E+03  0.53073518853E+03  0.79278041406E+02 0.  0.
         11    1    3    3    0    0 -0.19742166009E+01  0.20186597863E+03  0.88924809854E+03  0.91187496490E+03  0.00000000000E+00 0. -1.
        -11    1    3    3    0    0 -0.30386475744E+02  0.97951457161E+02  0.26341499563E+03  0.28267523024E+03  0.00000000000E+00 0.  1.
          4    1    6    6  502    0 -0.15667926992E+01  0.14992195843E+03 -0.21732740367E+03  0.26402698507E+03  0.00000000000E+00 0. -1.
          1    1    5    5  503    0  0.14113687582E-01 -0.77496725082E+01  0.11436830119E+01  0.78336220238E+01  0.00000000000E+00 0. -1.
         -2    1    5    5    0  503 -0.39055093440E+02 -0.60806755655E+03 -0.78742909385E+03  0.99564854818E+03  0.00000000000E+00 0.  1.
         -3    1    6    6    0  502  0.72968464796E+02  0.16607783484E+03 -0.19551731819E+03  0.26670820346E+03  0.00000000000E+00 0.  1.
<mgrwt>
<rscale>  0 0.27283719E+04</rscale>
<asrwt>0</asrwt>
<pdfrwt beam="1">  1        1 0.20633081E+00 0.27283719E+04</pdfrwt>
<pdfrwt beam="2">  1       -1 0.21347958E+00 0.27283719E+04</pdfrwt>
<totfact> 0.89672846E-01</totfact>
</mgrwt>
</event>
<event>
12    1  0.1506149E-007  0.1627522E+04  0.7818608E-02  0.8803816E-01
         -2   -1    0    0    0  501 -0.00000000000E+00  0.00000000000E+00  0.20532912777E+03  0.20532912777E+03  0.00000000000E+00 0. -1.
          2   -1    0    0  501    0  0.00000000000E+00 -0.00000000000E+00 -0.32251013919E+04  0.32251013919E+04  0.00000000000E+00 0.  1.
         23    2    1    2    0    0  0.86722389557E+02 -0.56178612616E+03 -0.12488516789E+04  0.13750782044E+04  0.89917338588E+02 0.  0.
        254    2    1    2    0    0 -0.86722389557E+02  0.56178612616E+03 -0.17709205852E+04  0.20553523153E+04  0.87475081966E+03 0.  0.
        -24    2    4    4    0    0 -0.19836294939E+02 -0.34265916519E+02 -0.12608884668E+04  0.12639957927E+04  0.79233872738E+02 0.  0.
         24    2    4    4    0    0 -0.66886094618E+02  0.59605204268E+03 -0.51003211841E+03  0.79135652262E+03  0.79753350012E+02 0.  0.
         11    1    3    3    0    0  0.26042551536E+02 -0.98477669534E+02 -0.15348670544E+03  0.18421247144E+03  0.00000000000E+00 0. -1.
        -11    1    3    3    0    0  0.60679838021E+02 -0.46330845663E+03 -0.10953649735E+04  0.11908657329E+04  0.00000000000E+00 0.  1.
          4    1    6    6  502    0 -0.26634459254E+02  0.18756052419E+03 -0.21065703512E+03  0.28331030884E+03  0.00000000000E+00 0. -1.
          3    1    5    5  503    0 -0.84669625289E+01  0.25885556394E+02 -0.41978655534E+03  0.42066911406E+03  0.00000000000E+00 0. -1.
         -4    1    5    5    0  503 -0.11369332410E+02 -0.60151472913E+02 -0.84110191146E+03  0.84332667862E+03  0.00000000000E+00 0.  1.
         -3    1    6    6    0  502 -0.40251635365E+02  0.40849151849E+03 -0.29937508330E+03  0.50804621377E+03  0.00000000000E+00 0.  1.
<mgrwt>
<rscale>  0 0.16275224E+04</rscale>
<asrwt>0</asrwt>
<pdfrwt beam="1">  1        2 0.49616945E+00 0.16275224E+04</pdfrwt>
<pdfrwt beam="2">  1       -2 0.31589097E-01 0.16275224E+04</pdfrwt>
<totfact> 0.11209960E+01</totfact>
</mgrwt>
</event>
<event>
12    1  0.1506149E-007  0.1257497E+04  0.7818608E-02  0.9063967E-01
         -2   -1    0    0    0  501 -0.00000000000E+00  0.00000000000E+00  0.20353164093E+03  0.20353164093E+03  0.00000000000E+00 0.  1.
          2   -1    0    0  501    0  0.00000000000E+00 -0.00000000000E+00 -0.19423241580E+04  0.19423241580E+04  0.00000000000E+00 0. -1.
         23    2    1    2    0    0 -0.36953647948E+02 -0.14126798315E+03 -0.82230474021E+03  0.84027071207E+03  0.92453061802E+02 0.  0.
        254    2    1    2    0    0  0.36953647948E+02  0.14126798315E+03 -0.91648777682E+03  0.13055850868E+04  0.91830297760E+03 0.  0.
        -24    2    4    4    0    0  0.43694093761E+03  0.21852255693E+03 -0.36250827699E+03  0.61347554658E+03  0.79186517253E+02 0.  0.
         24    2    4    4    0    0 -0.39998728967E+03 -0.77254573779E+02 -0.55397949983E+03  0.69210954023E+03  0.78512600115E+02 0.  0.
         11    1    3    3    0    0  0.13506321237E+02 -0.28881887552E+02 -0.58774536168E+02  0.66865762867E+02  0.00000000000E+00 0.  1.
        -11    1    3    3    0    0 -0.50459969184E+02 -0.11238609560E+03 -0.76353020404E+03  0.77340494921E+03  0.00000000000E+00 0. -1.
          2    1    6    6  502    0 -0.38226836239E+03 -0.67569271102E+02 -0.49069041816E+03  0.62567706827E+03  0.00000000000E+00 0. -1.
          1    1    5    5  503    0  0.33305046827E+03  0.19904394577E+03 -0.26672735019E+03  0.47083392624E+03  0.00000000000E+00 0. -1.
         -2    1    5    5    0  503  0.10389046934E+03  0.19478611157E+02 -0.95780926797E+02  0.14264162033E+03  0.00000000000E+00 0.  1.
         -1    1    6    6    0  502 -0.17718927272E+02 -0.96853026776E+01 -0.63289081673E+02  0.66432471960E+02  0.00000000000E+00 0.  1.
<mgrwt>
<rscale>  0 0.12574966E+04</rscale>
<asrwt>0</asrwt>
<pdfrwt beam="1">  1        2 0.29881910E+00 0.12574966E+04</pdfrwt>
<pdfrwt beam="2">  1       -2 0.31312560E-01 0.12574966E+04</pdfrwt>
<totfact> 0.66966433E+01</totfact>
</mgrwt>
</event>
<event>
12    1  0.1506149E-007  0.1110915E+04  0.7818608E-02  0.9194618E-01
         -2   -1    0    0    0  501 -0.00000000000E+00  0.00000000000E+00  0.43684943095E+03  0.43684943095E+03  0.00000000000E+00 0.  1.
          2   -1    0    0  501    0  0.00000000000E+00 -0.00000000000E+00 -0.70626910793E+03  0.70626910793E+03  0.00000000000E+00 0. -1.
         23    2    1    2    0    0  0.80573092740E+02 -0.84348302934E+02  0.85278837545E+02  0.17040766948E+03  0.90330693584E+02 0.  0.
        254    2    1    2    0    0 -0.80573092740E+02  0.84348302934E+02 -0.35469851453E+03  0.97271086940E+03  0.89819192813E+03 0.  0.
        -24    2    4    4    0    0 -0.35184672659E+03  0.35479352383E+03 -0.26502546581E+03  0.57119455924E+03  0.79687912604E+02 0.  0.
         24    2    4    4    0    0  0.27127363385E+03 -0.27044522089E+03 -0.89673048718E+02  0.40151631016E+03  0.80275087873E+02 0.  0.
         13    1    3    3    0    0  0.66796397771E+02 -0.99777041556E+02  0.88911059104E+02  0.14940680442E+03  0.00000000000E+00 0.  1.
        -13    1    3    3    0    0  0.13776694969E+02  0.15428738622E+02 -0.36322215591E+01  0.21000865058E+02  0.00000000000E+00 0. -1.
          4    1    6    6  502    0 -0.21043629711E+01  0.25126903092E+01 -0.50792100940E+01  0.60448599060E+01  0.00000000000E+00 0. -1.
          3    1    5    5  503    0 -0.23379803732E+02  0.92198889141E+01 -0.31516832587E+02  0.40310449147E+02  0.00000000000E+00 0. -1.
         -4    1    5    5    0  503 -0.32846692285E+03  0.34557363491E+03 -0.23350863322E+03  0.53088411009E+03  0.00000000000E+00 0.  1.
         -3    1    6    6    0  502  0.27337799682E+03 -0.27295791120E+03 -0.84593838624E+02  0.39547145025E+03  0.00000000000E+00 0.  1.
<mgrwt>
<rscale>  0 0.11109154E+04</rscale>
<asrwt>0</asrwt>
<pdfrwt beam="1">  1        2 0.10865679E+00 0.11109154E+04</pdfrwt>
<pdfrwt beam="2">  1       -2 0.67207605E-01 0.11109154E+04</pdfrwt>
<totfact> 0.81692042E+01</totfact>
</mgrwt>
</event>
<event>
12    1  0.1506149E-007  0.1572302E+04  0.7818608E-02  0.8837747E-01
          2   -1    0    0  501    0  0.00000000000E+00  0.00000000000E+00  0.15154428986E+04  0.15154428986E+04  0.00000000000E+00 0. -1.
         -2   -1    0    0    0  501 -0.00000000000E+00 -0.00000000000E+00 -0.40782385487E+03  0.40782385487E+03  0.00000000000E+00 0.  1.
         23    2    1    2    0    0  0.42326776508E+03  0.29663935087E+03  0.35498019383E+03  0.63383729123E+03  0.92672910289E+02 0.  0.
        254    2    1    2    0    0 -0.42326776508E+03 -0.29663935087E+03  0.75263884986E+03  0.12894294622E+04  0.91050128733E+03 0.  0.
        -24    2    4    4    0    0 -0.41233906234E+03  0.18631109269E+03  0.63730634577E+03  0.78637731875E+03  0.86571262475E+02 0.  0.
         24    2    4    4    0    0 -0.10928702740E+02 -0.48295044357E+03  0.11533250409E+03  0.50305214346E+03  0.79995656462E+02 0.  0.
         11    1    3    3    0    0  0.36776169785E+03  0.21714547049E+03  0.30457120175E+03  0.52456118680E+03  0.00000000000E+00 0. -1.
        -11    1    3    3    0    0  0.55506067229E+02  0.79493880381E+02  0.50408992082E+02  0.10927610443E+03  0.00000000000E+00 0.  1.
          2    1    6    6  502    0  0.15522715648E+02 -0.42149304332E+03  0.11025740823E+03  0.43595187387E+03  0.00000000000E+00 0. -1.
          3    1    5    5  503    0 -0.22735347212E+03  0.83093139660E+02  0.27215009155E+03  0.36422485290E+03  0.00000000000E+00 0. -1.
         -4    1    5    5    0  503 -0.18498559021E+03  0.10321795303E+03  0.36515625423E+03  0.42215246584E+03  0.00000000000E+00 0.  1.
         -1    1    6    6    0  502 -0.26451418387E+02 -0.61457400251E+02  0.50750958649E+01  0.67100269585E+02  0.00000000000E+00 0.  1.
<mgrwt>
<rscale>  0 0.15723025E+04</rscale>
<asrwt>0</asrwt>
<pdfrwt beam="1">  1        2 0.23314506E+00 0.15723025E+04</pdfrwt>
<pdfrwt beam="2">  1       -2 0.62742132E-01 0.15723025E+04</pdfrwt>
<totfact> 0.28153678E+01</totfact>
</mgrwt>
</event>
<event>
12    1  0.1596453E-007  0.1639903E+04  0.7818608E-02  0.8796402E-01
         -2   -1    0    0    0  501 -0.00000000000E+00  0.00000000000E+00  0.25813878982E+03  0.25813878982E+03  0.00000000000E+00 0. -1.
          2   -1    0    0  501    0  0.00000000000E+00 -0.00000000000E+00 -0.26044936173E+04  0.26044936173E+04  0.00000000000E+00 0.  1.
         23    2    1    2    0    0  0.10669836665E+02  0.27159639235E+03 -0.17221602294E+04  0.17457989240E+04  0.89997675717E+02 0.  0.
        254    2    1    2    0    0 -0.10669836665E+02 -0.27159639235E+03 -0.62419459812E+03  0.11168334831E+04  0.88533591759E+03 0.  0.
        -24    2    4    4    0    0 -0.15852246287E+03 -0.28156486954E+03 -0.80410508870E+03  0.87037369308E+03  0.80976693783E+02 0.  0.
         24    2    4    4    0    0  0.14785262621E+03  0.99684771889E+01  0.17991049058E+03  0.24645979005E+03  0.80092907791E+02 0.  0.
         11    1    3    3    0    0  0.13431175660E+02  0.26397484521E+03 -0.17141287130E+04  0.17343876038E+04  0.00000000000E+00 0.  1.
        -11    1    3    3    0    0 -0.27613389950E+01  0.76215471424E+01 -0.80315163554E+01  0.11411320207E+02  0.00000000000E+00 0. -1.
          4    1    6    6  502    0  0.90794941431E+02  0.26709767167E+02  0.15580323150E+03  0.18229585842E+03  0.00000000000E+00 0. -1.
          1    1    5    5  503    0 -0.16288678281E+03 -0.27562168274E+03 -0.80053617505E+03  0.86218187383E+03  0.00000000000E+00 0. -1.
         -2    1    5    5    0  503  0.43643199414E+01 -0.59431867991E+01 -0.35689136574E+01  0.81918192469E+01  0.00000000000E+00 0.  1.
         -3    1    6    6    0  502  0.57057684776E+02 -0.16741289978E+02  0.24107259080E+02  0.64163931632E+02  0.00000000000E+00 0.  1.
<mgrwt>
<rscale>  0 0.16399034E+04</rscale>
<asrwt>0</asrwt>
<pdfrwt beam="1">  1        2 0.40069133E+00 0.16399034E+04</pdfrwt>
<pdfrwt beam="2">  1       -2 0.39713660E-01 0.16399034E+04</pdfrwt>
<totfact> 0.17388586E+01</totfact>
</mgrwt>
</event>
<event>
12    1  0.1506149E-007  0.1054085E+04  0.7818608E-02  0.9251137E-01
          2   -1    0    0  501    0  0.00000000000E+00  0.00000000000E+00  0.36271090360E+03  0.36271090360E+03  0.00000000000E+00 0. -1.
         -2   -1    0    0    0  501 -0.00000000000E+00 -0.00000000000E+00 -0.76582719285E+03  0.76582719285E+03  0.00000000000E+00 0.  1.
         23    2    1    2    0    0 -0.91179021189E+02  0.57802758871E+02 -0.10308798148E+03  0.17464425410E+03  0.90657105218E+02 0.  0.
        254    2    1    2    0    0  0.91179021189E+02 -0.57802758871E+02 -0.30002830777E+03  0.95389384234E+03  0.89902263829E+03 0.  0.
        -24    2    4    4    0    0 -0.17210920119E+02  0.25193855496E+03  0.21206855350E+03  0.34031468046E+03  0.84093751862E+02 0.  0.
         24    2    4    4    0    0  0.10838994131E+03 -0.30974131383E+03 -0.51209686127E+03  0.61357916189E+03  0.80920527109E+02 0.  0.
         13    1    3    3    0    0 -0.95705609574E+02  0.75797389602E+02 -0.93378628727E+02  0.15370223251E+03  0.00000000000E+00 0.  1.
        -13    1    3    3    0    0  0.45265883853E+01 -0.17994630731E+02 -0.97093527567E+01  0.20942021596E+02  0.00000000000E+00 0. -1.
          2    1    6    6  502    0  0.29063731980E+02 -0.10612414453E+03 -0.24431756531E+03  0.26795168834E+03  0.00000000000E+00 0. -1.
          1    1    5    5  503    0 -0.46257758780E+01  0.25150664164E+03  0.20972017722E+03  0.32750502488E+03  0.00000000000E+00 0. -1.
         -2    1    5    5    0  503 -0.12585144241E+02  0.43191331614E+00  0.23483762890E+01  0.12809655572E+02  0.00000000000E+00 0.  1.
         -1    1    6    6    0  502  0.79326209328E+02 -0.20361716930E+03 -0.26777929597E+03  0.34562747355E+03  0.00000000000E+00 0.  1.
<mgrwt>
<rscale>  0 0.10540851E+04</rscale>
<asrwt>0</asrwt>
<pdfrwt beam="1">  1        2 0.55801678E-01 0.10540851E+04</pdfrwt>
<pdfrwt beam="2">  1       -2 0.11781957E+00 0.10540851E+04</pdfrwt>
<totfact> 0.49095269E+01</totfact>
</mgrwt>
</event>
<event>
12    1  0.1506149E-007  0.1232692E+04  0.7818608E-02  0.9084713E-01
          1   -1    0    0  501    0  0.00000000000E+00  0.00000000000E+00  0.92838782690E+03  0.92838782690E+03  0.00000000000E+00 0. -1.
         -1   -1    0    0    0  501 -0.00000000000E+00 -0.00000000000E+00 -0.40918472974E+03  0.40918472974E+03  0.00000000000E+00 0.  1.
         23    2    1    2    0    0 -0.19170001177E+02  0.41300831111E+02  0.42145593234E+03  0.43366699858E+03  0.91480681875E+02 0.  0.
        254    2    1    2    0    0  0.19170001177E+02 -0.41300831111E+02  0.97747164823E+02  0.90390555806E+03  0.89745055689E+03 0.  0.
        -24    2    4    4    0    0  0.38187415002E+03  0.95631855662E+02  0.25747616425E+03  0.47713946668E+03  0.79967351075E+02 0.  0.
         24    2    4    4    0    0 -0.36270414884E+03 -0.13693268677E+03 -0.15972899943E+03  0.42676609138E+03  0.79442326219E+02 0.  0.
         11    1    3    3    0    0 -0.35513838598E+02  0.41142896053E+01  0.59323267250E+02  0.69263339136E+02  0.00000000000E+00 0. -1.
        -11    1    3    3    0    0  0.16343837422E+02  0.37186541506E+02  0.36213266509E+03  0.36440365944E+03  0.00000000000E+00 0.  1.
          4    1    6    6  502    0 -0.45520374086E+02  0.44895589047E+01 -0.32476694312E+01  0.45856383992E+02  0.00000000000E+00 0. -1.
          1    1    5    5  503    0  0.87521703858E+02  0.46392404397E+02  0.35613360959E+02  0.10526450166E+03  0.00000000000E+00 0. -1.
         -2    1    5    5    0  503  0.29435244616E+03  0.49239451265E+02  0.22186280329E+03  0.37187496502E+03  0.00000000000E+00 0.  1.
         -3    1    6    6    0  502 -0.31718377476E+03 -0.14142224568E+03 -0.15648133000E+03  0.38090970738E+03  0.00000000000E+00 0.  1.
<mgrwt>
<rscale>  0 0.12326916E+04</rscale>
<asrwt>0</asrwt>
<pdfrwt beam="1">  1        1 0.14282890E+00 0.12326916E+04</pdfrwt>
<pdfrwt beam="2">  1       -1 0.62951497E-01 0.12326916E+04</pdfrwt>
<totfact> 0.43603607E+01</totfact>
</mgrwt>
</event>
<event>
12    1  0.1506149E-007  0.1111891E+04  0.7818608E-02  0.9193679E-01
         -1   -1    0    0    0  501 -0.00000000000E+00  0.00000000000E+00  0.46784202608E+03  0.46784202608E+03  0.00000000000E+00 0.  1.
          1   -1    0    0  501    0  0.00000000000E+00 -0.00000000000E+00 -0.66064040554E+03  0.66064040554E+03  0.00000000000E+00 0. -1.
         23    2    1    2    0    0  0.79322330987E+02  0.15590750828E+03 -0.69981663840E+02  0.20921150725E+03  0.90955143677E+02 0.  0.
        254    2    1    2    0    0 -0.79322330987E+02 -0.15590750828E+03 -0.12281671562E+03  0.91927092436E+03  0.89407824233E+03 0.  0.
        -24    2    4    4    0    0  0.10758208677E+03 -0.35128222711E+03  0.25050688291E+03  0.45157169065E+03  0.78677728316E+02 0.  0.
         24    2    4    4    0    0 -0.18690441776E+03  0.19537471883E+03 -0.37332359853E+03  0.46769923371E+03  0.79167681914E+02 0.  0.
         13    1    3    3    0    0  0.28099447832E+02  0.89508743518E+02 -0.81866404817E+02  0.12451306105E+03  0.00000000000E+00 0. -1.
        -13    1    3    3    0    0  0.51222883155E+02  0.66398764763E+02  0.11884740977E+02  0.84698446201E+02  0.00000000000E+00 0.  1.
          4    1    6    6  502    0 -0.17772129836E+03  0.19947448477E+03 -0.33723314476E+03  0.43023380143E+03  0.00000000000E+00 0. -1.
          3    1    5    5  503    0  0.11660234586E+03 -0.34384682443E+03  0.23642800287E+03  0.43327236962E+03  0.00000000000E+00 0. -1.
         -4    1    5    5    0  503 -0.90202590914E+01 -0.74354026771E+01  0.14078880037E+02  0.18299321029E+02  0.00000000000E+00 0.  1.
         -3    1    6    6    0  502 -0.91831193948E+01 -0.40997659462E+01 -0.36090453774E+02  0.37465432284E+02  0.00000000000E+00 0.  1.
<mgrwt>
<rscale>  0 0.11118909E+04</rscale>
<asrwt>0</asrwt>
<pdfrwt beam="1">  1        1 0.10163699E+00 0.11118909E+04</pdfrwt>
<pdfrwt beam="2">  1       -1 0.71975696E-01 0.11118909E+04</pdfrwt>
<totfact> 0.57687817E+01</totfact>
</mgrwt>
</event>
<event>
12    1  0.1506149E-007  0.1334058E+04  0.7818608E-02  0.9002984E-01
          1   -1    0    0  501    0  0.00000000000E+00  0.00000000000E+00  0.23899048453E+04  0.23899048453E+04  0.00000000000E+00 0. -1.
         -1   -1    0    0    0  501 -0.00000000000E+00 -0.00000000000E+00 -0.18616973599E+03  0.18616973599E+03  0.00000000000E+00 0.  1.
         23    2    1    2    0    0  0.16528050782E+01  0.51367564928E+02  0.12351296143E+04  0.12396741459E+04  0.92765647020E+02 0.  0.
        254    2    1    2    0    0 -0.16528050782E+01 -0.51367564928E+02  0.96860549493E+03  0.13364004354E+04  0.91930852294E+03 0.  0.
        -24    2    4    4    0    0  0.34041336102E+03  0.88512424178E+02  0.77926801564E+02  0.36884117291E+03  0.79091838020E+02 0.  0.
         24    2    4    4    0    0 -0.34206616610E+03 -0.13987998911E+03  0.89067869337E+03  0.96755926246E+03  0.79288827728E+02 0.  0.
         13    1    3    3    0    0  0.17674868735E+01  0.42507590100E+02  0.12267215642E+04  0.12274590891E+04  0.00000000000E+00 0. -1.
        -13    1    3    3    0    0 -0.11468179522E+00  0.88599748286E+01  0.84080500880E+01  0.12215056781E+02  0.00000000000E+00 0.  1.
          4    1    6    6  502    0 -0.30940434472E+03 -0.11482219559E+03  0.83841363116E+03  0.90102863553E+03  0.00000000000E+00 0. -1.
          3    1    5    5  503    0  0.26664510193E+03  0.98157262612E+02  0.45804060817E+02  0.28780630739E+03  0.00000000000E+00 0. -1.
         -4    1    5    5    0  503  0.73768259090E+02 -0.96448384338E+01  0.32122740747E+02  0.81034865526E+02  0.00000000000E+00 0.  1.
         -3    1    6    6    0  502 -0.32661821373E+02 -0.25057793512E+02  0.52265062208E+02  0.66530626922E+02  0.00000000000E+00 0.  1.
<mgrwt>
<rscale>  0 0.13340584E+04</rscale>
<asrwt>0</asrwt>
<pdfrwt beam="1">  1        1 0.36767765E+00 0.13340584E+04</pdfrwt>
<pdfrwt beam="2">  1       -1 0.28641500E-01 0.13340584E+04</pdfrwt>
<totfact> 0.17568864E+01</totfact>
</mgrwt>
</event>
<event>
12    1  0.1506149E-007  0.1113533E+04  0.7818608E-02  0.9192101E-01
         -2   -1    0    0    0  501 -0.00000000000E+00  0.00000000000E+00  0.25019865966E+03  0.25019865966E+03  0.00000000000E+00 0.  1.
          2   -1    0    0  501    0  0.00000000000E+00 -0.00000000000E+00 -0.12389706635E+04  0.12389706635E+04  0.00000000000E+00 0. -1.
         23    2    1    2    0    0 -0.90630611566E+02  0.10478956427E+03 -0.31820490428E+03  0.36096682084E+03  0.99236707458E+02 0.  0.
        254    2    1    2    0    0  0.90630611566E+02 -0.10478956427E+03 -0.67056709958E+03  0.11282025023E+04  0.89665260314E+03 0.  0.
        -24    2    4    4    0    0  0.22123437877E+03 -0.21632705425E+03  0.98969213391E+02  0.33550906685E+03  0.83841421694E+02 0.  0.
         24    2    4    4    0    0 -0.13060376720E+03  0.11153748997E+03 -0.76953631298E+03  0.79269343550E+03  0.81723864406E+02 0.  0.
         13    1    3    3    0    0 -0.87971382506E+02  0.46263660980E+02 -0.26013719671E+03  0.27847917620E+03  0.00000000000E+00 0. -1.
        -13    1    3    3    0    0 -0.26592290600E+01  0.58525903293E+02 -0.58067707572E+02  0.82487644639E+02  0.00000000000E+00 0.  1.
          2    1    6    6  502    0 -0.61715697956E+02  0.74951413060E+02 -0.26628014976E+03  0.28342840340E+03  0.00000000000E+00 0. -1.
          3    1    5    5  503    0  0.30485999060E+02 -0.53492342321E+02 -0.94282094931E+01  0.62287382028E+02  0.00000000000E+00 0. -1.
         -4    1    5    5    0  503  0.19074837971E+03 -0.16283471193E+03  0.10839742288E+03  0.27322168482E+03  0.00000000000E+00 0.  1.
         -1    1    6    6    0  502 -0.68888069247E+02  0.36586076914E+02 -0.50325616321E+03  0.50926503210E+03  0.00000000000E+00 0.  1.
<mgrwt>
<rscale>  0 0.11135328E+04</rscale>
<asrwt>0</asrwt>
<pdfrwt beam="1">  1        2 0.19061087E+00 0.11135328E+04</pdfrwt>
<pdfrwt beam="2">  1       -2 0.38492101E-01 0.11135328E+04</pdfrwt>
<totfact> 0.11346953E+02</totfact>
</mgrwt>
</event>
<event>
12    1  0.1506149E-007  0.1523803E+04  0.7818608E-02  0.8868777E-01
          2   -1    0    0  501    0  0.00000000000E+00  0.00000000000E+00  0.39485603073E+04  0.39485603073E+04  0.00000000000E+00 0. -1.
         -2   -1    0    0    0  501 -0.00000000000E+00 -0.00000000000E+00 -0.14701408161E+03  0.14701408161E+03  0.00000000000E+00 0.  1.
         23    2    1    2    0    0  0.32026578074E+03 -0.52267387897E+02  0.25124291604E+03  0.42000997494E+03  0.89349460164E+02 0.  0.
        254    2    1    2    0    0 -0.32026578074E+03  0.52267387897E+02  0.35503033097E+04  0.36755644140E+04  0.89432551155E+03 0.  0.
        -24    2    4    4    0    0  0.11647694775E+03 -0.26933770459E+03  0.57596641196E+03  0.65126786591E+03  0.79390471691E+02 0.  0.
         24    2    4    4    0    0 -0.43674272849E+03  0.32160509249E+03  0.29743368977E+04  0.30242965481E+04  0.74266972760E+02 0.  0.
         13    1    3    3    0    0  0.25665204719E+02 -0.32263718604E+02  0.27949630966E+02  0.49807952604E+02  0.00000000000E+00 0. -1.
        -13    1    3    3    0    0  0.29460057602E+03 -0.20003669294E+02  0.22329328508E+03  0.37020202233E+03  0.00000000000E+00 0.  1.
          2    1    6    6  502    0 -0.88686741559E+02  0.36096205837E+02  0.44140051428E+03  0.45166656751E+03  0.00000000000E+00 0. -1.
          3    1    5    5  503    0  0.11086828728E+03 -0.19658520972E+03  0.37762169996E+03  0.43992689175E+03  0.00000000000E+00 0. -1.
         -4    1    5    5    0  503  0.56086604684E+01 -0.72752494873E+02  0.19834471199E+03  0.21134097416E+03  0.00000000000E+00 0.  1.
         -1    1    6    6    0  502 -0.34805598693E+03  0.28550888665E+03  0.25329363834E+04  0.25726299806E+04  0.00000000000E+00 0.  1.
<mgrwt>
<rscale>  0 0.15238031E+04</rscale>
<asrwt>0</asrwt>
<pdfrwt beam="1">  1        2 0.60747074E+00 0.15238031E+04</pdfrwt>
<pdfrwt beam="2">  1       -2 0.22617554E-01 0.15238031E+04</pdfrwt>
<totfact> 0.63735184E+00</totfact>
</mgrwt>
</event>
<event>
12    1  0.1506149E-007  0.1371799E+04  0.7818608E-02  0.8974488E-01
          1   -1    0    0  501    0  0.00000000000E+00  0.00000000000E+00  0.62711526694E+03  0.62711526694E+03  0.00000000000E+00 0. -1.
         -1   -1    0    0    0  501 -0.00000000000E+00 -0.00000000000E+00 -0.75019445349E+03  0.75019445349E+03  0.00000000000E+00 0.  1.
         23    2    1    2    0    0  0.15153154730E+03 -0.29081034051E+03  0.16272557691E+03  0.37721809712E+03  0.91002282583E+02 0.  0.
        254    2    1    2    0    0 -0.15153154730E+03  0.29081034051E+03 -0.28580476346E+03  0.10000916233E+04  0.90053674452E+03 0.  0.
        -24    2    4    4    0    0 -0.19624757026E+03  0.52764750304E+03 -0.42564110763E+03  0.71007091553E+03  0.78136779262E+02 0.  0.
         24    2    4    4    0    0  0.44716022967E+02 -0.23683716252E+03  0.13983634417E+03  0.29002070779E+03  0.80414199830E+02 0.  0.
         13    1    3    3    0    0  0.22757580777E+01 -0.25079848307E+02 -0.97697101992E+01  0.27011573507E+02  0.00000000000E+00 0.  1.
        -13    1    3    3    0    0  0.14925578922E+03 -0.26573049221E+03  0.17249528711E+03  0.35020652361E+03  0.00000000000E+00 0. -1.
          4    1    6    6  502    0  0.67105011943E+02 -0.14869475293E+03  0.88890274092E+02  0.18578130424E+03  0.00000000000E+00 0. -1.
          1    1    5    5  503    0 -0.83940448295E+02  0.32922058850E+03 -0.27060854124E+03  0.43435144450E+03  0.00000000000E+00 0. -1.
         -2    1    5    5    0  503 -0.11230712197E+03  0.19842691454E+03 -0.15503256640E+03  0.27571947102E+03  0.00000000000E+00 0.  1.
         -1    1    6    6    0  502 -0.22388988976E+02 -0.88142409596E+02  0.50946070079E+02  0.10423940355E+03  0.00000000000E+00 0.  1.
<mgrwt>
<rscale>  0 0.13717994E+04</rscale>
<asrwt>0</asrwt>
<pdfrwt beam="1">  1        1 0.96479272E-01 0.13717994E+04</pdfrwt>
<pdfrwt beam="2">  1       -1 0.11541453E+00 0.13717994E+04</pdfrwt>
<totfact> 0.21361566E+01</totfact>
</mgrwt>
</event>
<event>
12    1  0.1506149E-007  0.1691735E+04  0.7818608E-02  0.8766092E-01
          1   -1    0    0  501    0  0.00000000000E+00  0.00000000000E+00  0.17867453398E+04  0.17867453398E+04  0.00000000000E+00 0. -1.
         -1   -1    0    0    0  501 -0.00000000000E+00 -0.00000000000E+00 -0.40044415545E+03  0.40044415545E+03  0.00000000000E+00 0.  1.
         23    2    1    2    0    0  0.58957564795E+03 -0.81008813774E+02  0.37670067466E+03  0.71035404778E+03  0.92399146897E+02 0.  0.
        254    2    1    2    0    0 -0.58957564795E+03  0.81008813774E+02  0.10096005097E+04  0.14768354475E+04  0.89865893261E+03 0.  0.
        -24    2    4    4    0    0 -0.29906555574E+03 -0.38698376937E+03  0.63720111045E+03  0.80724068068E+03  0.80097546745E+02 0.  0.
         24    2    4    4    0    0 -0.29051009221E+03  0.46799258314E+03  0.37239939921E+03  0.66959476677E+03  0.79137017891E+02 0.  0.
         13    1    3    3    0    0  0.94446468114E+02 -0.13624883546E+02  0.23029245389E+02  0.98163735330E+02  0.00000000000E+00 0.  1.
        -13    1    3    3    0    0  0.49512917984E+03 -0.67383930228E+02  0.35367142927E+03  0.61219031245E+03  0.00000000000E+00 0. -1.
          4    1    6    6  502    0 -0.18017380226E+03  0.30298766898E+03  0.19219568134E+03  0.40150131569E+03  0.00000000000E+00 0. -1.
          3    1    5    5  503    0 -0.14623829091E+03 -0.14387829654E+03  0.31202675276E+03  0.37342642700E+03  0.00000000000E+00 0. -1.
         -4    1    5    5    0  503 -0.15282726483E+03 -0.24310547282E+03  0.32517435770E+03  0.43381425368E+03  0.00000000000E+00 0.  1.
         -3    1    6    6    0  502 -0.11033628995E+03  0.16500491416E+03  0.18020371787E+03  0.26809345108E+03  0.00000000000E+00 0.  1.
<mgrwt>
<rscale>  0 0.16917349E+04</rscale>
<asrwt>0</asrwt>
<pdfrwt beam="1">  1        1 0.27488389E+00 0.16917349E+04</pdfrwt>
<pdfrwt beam="2">  1       -1 0.61606794E-01 0.16917349E+04</pdfrwt>
<totfact> 0.10585330E+01</totfact>
</mgrwt>
</event>
<event>
12    1  0.1506149E-007  0.1853319E+04  0.7818608E-02  0.8678448E-01
          1   -1    0    0  501    0  0.00000000000E+00  0.00000000000E+00  0.18897638411E+04  0.18897638411E+04  0.00000000000E+00 0. -1.
         -1   -1    0    0    0  501 -0.00000000000E+00 -0.00000000000E+00 -0.45439421460E+03  0.45439421460E+03  0.00000000000E+00 0.  1.
         23    2    1    2    0    0 -0.35777016014E+03  0.34701956851E+03  0.11760069688E+04  0.12808193260E+04  0.95308378219E+02 0.  0.
        254    2    1    2    0    0  0.35777016014E+03 -0.34701956851E+03  0.25936265780E+03  0.10633387297E+04  0.90277250592E+03 0.  0.
        -24    2    4    4    0    0 -0.20489295007E+03 -0.22852150543E+03  0.35381512929E+03  0.47510667425E+03  0.79611599422E+02 0.  0.
         24    2    4    4    0    0  0.56266311021E+03 -0.11849806308E+03 -0.94452471492E+02  0.58823205547E+03  0.80399721208E+02 0.  0.
         13    1    3    3    0    0 -0.24707604560E+03  0.29407491441E+03  0.91835504375E+03  0.99544091436E+03  0.00000000000E+00 0. -1.
        -13    1    3    3    0    0 -0.11069411453E+03  0.52944654105E+02  0.25765192500E+03  0.28537841167E+03  0.00000000000E+00 0.  1.
          2    1    6    6  502    0  0.11430215122E+02 -0.12817698962E+02  0.56992281561E+01  0.18094872920E+02  0.00000000000E+00 0. -1.
          3    1    5    5  503    0 -0.11894110807E+03 -0.74902816890E+02  0.17029008661E+03  0.22080790920E+03  0.00000000000E+00 0. -1.
         -4    1    5    5    0  503 -0.85951841999E+02 -0.15361868854E+03  0.18352504269E+03  0.25429876505E+03  0.00000000000E+00 0.  1.
         -1    1    6    6    0  502  0.55123289509E+03 -0.10568036412E+03 -0.10015169965E+03  0.57013718255E+03  0.00000000000E+00 0.  1.
<mgrwt>
<rscale>  0 0.18533189E+04</rscale>
<asrwt>0</asrwt>
<pdfrwt beam="1">  1        1 0.29073289E+00 0.18533189E+04</pdfrwt>
<pdfrwt beam="2">  1       -1 0.69906803E-01 0.18533189E+04</pdfrwt>
<totfact> 0.68798967E+00</totfact>
</mgrwt>
</event>
<event>
12    1  0.1506149E-007  0.1391995E+04  0.7818608E-02  0.8959633E-01
          1   -1    0    0  501    0  0.00000000000E+00  0.00000000000E+00  0.80726284260E+03  0.80726284260E+03  0.00000000000E+00 0. -1.
         -1   -1    0    0    0  501 -0.00000000000E+00 -0.00000000000E+00 -0.60006786166E+03  0.60006786166E+03  0.00000000000E+00 0.  1.
         23    2    1    2    0    0  0.17719115014E+03 -0.11534641913E+02 -0.30918240771E+03  0.36804990867E+03  0.91308391627E+02 0.  0.
        254    2    1    2    0    0 -0.17719115014E+03  0.11534641913E+02  0.51637738865E+03  0.10392807956E+04  0.88426761386E+03 0.  0.
        -24    2    4    4    0    0  0.21564751032E+03  0.94054002986E+01 -0.14006411036E+03  0.26989564649E+03  0.81445655042E+02 0.  0.
         24    2    4    4    0    0 -0.39283866045E+03  0.21292416149E+01  0.65644149901E+03  0.76938514910E+03  0.81922641669E+02 0.  0.
         13    1    3    3    0    0  0.16644017213E+03 -0.12815704426E+02 -0.20994116748E+03  0.26821981094E+03  0.00000000000E+00 0.  1.
        -13    1    3    3    0    0  0.10750978006E+02  0.12810625122E+01 -0.99241240236E+02  0.99830097730E+02  0.00000000000E+00 0. -1.
          2    1    6    6  502    0 -0.12343489644E+03 -0.30163028992E+02  0.16802551788E+03  0.21066218606E+03  0.00000000000E+00 0. -1.
          3    1    5    5  503    0  0.40868770987E+01  0.14021304967E+02 -0.25183522905E+02  0.29112014415E+02  0.00000000000E+00 0. -1.
         -4    1    5    5    0  503  0.21156063322E+03 -0.46159046683E+01 -0.11488058745E+03  0.24078363208E+03  0.00000000000E+00 0.  1.
         -1    1    6    6    0  502 -0.26940376401E+03  0.32292270607E+02  0.48841598113E+03  0.55872296304E+03  0.00000000000E+00 0.  1.
<mgrwt>
<rscale>  0 0.13919950E+04</rscale>
<asrwt>0</asrwt>
<pdfrwt beam="1">  1        1 0.12419428E+00 0.13919950E+04</pdfrwt>
<pdfrwt beam="2">  1       -1 0.92318133E-01 0.13919950E+04</pdfrwt>
<totfact> 0.24280971E+01</totfact>
</mgrwt>
</event>
<event>
12    1  0.1506149E-007  0.2440968E+04  0.7818608E-02  0.8424323E-01
          1   -1    0    0  501    0  0.00000000000E+00  0.00000000000E+00  0.33533312773E+04  0.33533312773E+04  0.00000000000E+00 0. -1.
         -1   -1    0    0    0  501 -0.00000000000E+00 -0.00000000000E+00 -0.44420953762E+03  0.44420953762E+03  0.00000000000E+00 0.  1.
         23    2    1    2    0    0 -0.61158108112E+03 -0.78632619305E+03  0.71071483135E+03  0.12271036077E+04  0.91254544521E+02 0.  0.
        254    2    1    2    0    0  0.61158108112E+03  0.78632619305E+03  0.21984069083E+04  0.25704372072E+04  0.88420257914E+03 0.  0.
        -24    2    4    4    0    0  0.42580271888E+03 -0.72636972354E+02  0.58522715184E+03  0.73165624709E+03  0.79031382960E+02 0.  0.
         24    2    4    4    0    0  0.18577836224E+03  0.85896316541E+03  0.16131797565E+04  0.18387809601E+04  0.80219531130E+02 0.  0.
         11    1    3    3    0    0 -0.19199681092E+03 -0.18345468539E+03  0.20141882448E+03  0.33329857463E+03  0.00000000000E+00 0. -1.
        -11    1    3    3    0    0 -0.41958427020E+03 -0.60287150766E+03  0.50929600687E+03  0.89380503308E+03  0.00000000000E+00 0.  1.
          2    1    6    6  502    0  0.26941589231E+02  0.11063263421E+03  0.26995402204E+03  0.29298567029E+03  0.00000000000E+00 0. -1.
          3    1    5    5  503    0  0.20804374359E+03 -0.31120448590E+02  0.21976464240E+03  0.30421567944E+03  0.00000000000E+00 0. -1.
         -4    1    5    5    0  503  0.21775897529E+03 -0.41516523765E+02  0.36546250944E+03  0.42744056765E+03  0.00000000000E+00 0.  1.
         -3    1    6    6    0  502  0.15883677301E+03  0.74833053119E+03  0.13432257345E+04  0.15457952898E+04  0.00000000000E+00 0.  1.
<mgrwt>
<rscale>  0 0.24409684E+04</rscale>
<asrwt>0</asrwt>
<pdfrwt beam="1">  1        1 0.51589710E+00 0.24409684E+04</pdfrwt>
<pdfrwt beam="2">  1       -1 0.68339931E-01 0.24409684E+04</pdfrwt>
<totfact> 0.62965902E-01</totfact>
</mgrwt>
</event>
<event>
12    1  0.1506149E-007  0.1489617E+04  0.7818608E-02  0.8891387E-01
          1   -1    0    0  501    0  0.00000000000E+00  0.00000000000E+00  0.12600551485E+04  0.12600551485E+04  0.00000000000E+00 0. -1.
         -1   -1    0    0    0  501 -0.00000000000E+00 -0.00000000000E+00 -0.44025056960E+03  0.44025056960E+03  0.00000000000E+00 0.  1.
         23    2    1    2    0    0  0.43091450416E+02 -0.45792639793E+03  0.24331901134E+03  0.52811868886E+03  0.90287037987E+02 0.  0.
        254    2    1    2    0    0 -0.43091450416E+02  0.45792639793E+03  0.57648556752E+03  0.11721870292E+04  0.91111654734E+03 0.  0.
        -24    2    4    4    0    0 -0.50150735173E+02 -0.25598214396E+03  0.41010849796E+02  0.27612762457E+03  0.80762745036E+02 0.  0.
         24    2    4    4    0    0  0.70592847573E+01  0.71390854189E+03  0.53547471772E+03  0.89605940462E+03  0.80461441741E+02 0.  0.
         13    1    3    3    0    0 -0.55962972333E+01 -0.18579604601E+03  0.55820007658E+02  0.19408081438E+03  0.00000000000E+00 0. -1.
        -13    1    3    3    0    0  0.48687747649E+02 -0.27213035191E+03  0.18749900369E+03  0.33403787448E+03  0.00000000000E+00 0.  1.
          2    1    6    6  502    0 -0.11717643509E+01  0.45069023419E+03  0.38504973081E+03  0.59277850452E+03  0.00000000000E+00 0. -1.
          1    1    5    5  503    0 -0.59694755690E+02 -0.25032977577E+03  0.49616893568E+02  0.26208833744E+03  0.00000000000E+00 0. -1.
         -2    1    5    5    0  503  0.95440205172E+01 -0.56523681908E+01 -0.86060437726E+01  0.14039287133E+02  0.00000000000E+00 0.  1.
         -1    1    6    6    0  502  0.82310491081E+01  0.26321830770E+03  0.15042498691E+03  0.30328090010E+03  0.00000000000E+00 0.  1.
<mgrwt>
<rscale>  0 0.14896174E+04</rscale>
<asrwt>0</asrwt>
<pdfrwt beam="1">  1        1 0.19385464E+00 0.14896174E+04</pdfrwt>
<pdfrwt beam="2">  1       -1 0.67730857E-01 0.14896174E+04</pdfrwt>
<totfact> 0.20652335E+01</totfact>
</mgrwt>
</event>
<event>
12    1  0.1506149E-007  0.1976546E+04  0.7818608E-02  0.8617666E-01
          2   -1    0    0  501    0  0.00000000000E+00  0.00000000000E+00  0.12359669681E+04  0.12359669681E+04  0.00000000000E+00 0. -1.
         -2   -1    0    0    0  501 -0.00000000000E+00 -0.00000000000E+00 -0.79021775341E+03  0.79021775341E+03  0.00000000000E+00 0.  1.
         23    2    1    2    0    0  0.11768351324E+03 -0.63700358677E+03 -0.26341371157E+03  0.70506263349E+03  0.90019747001E+02 0.  0.
        254    2    1    2    0    0 -0.11768351324E+03  0.63700358677E+03  0.70916292628E+03  0.13211220880E+04  0.90709896740E+03 0.  0.
        -24    2    4    4    0    0  0.11281379558E+03  0.75428890782E+03  0.71849392049E+03  0.10507636135E+04  0.78688936131E+02 0.  0.
         24    2    4    4    0    0 -0.23049730883E+03 -0.11728532105E+03 -0.93309942139E+01  0.27035847457E+03  0.78241813684E+02 0.  0.
         13    1    3    3    0    0  0.42072519202E+02 -0.12482494608E+03 -0.20988608464E+02  0.13338622763E+03  0.00000000000E+00 0. -1.
        -13    1    3    3    0    0  0.75610994042E+02 -0.51217864069E+03 -0.24242510311E+03  0.57167640586E+03  0.00000000000E+00 0.  1.
          4    1    6    6  502    0 -0.16919515739E+03 -0.12136541560E+03 -0.41697150053E-01  0.20822239824E+03  0.00000000000E+00 0. -1.
          1    1    5    5  503    0  0.53755871268E+02  0.42921674138E+03  0.35535504036E+03  0.55981596037E+03  0.00000000000E+00 0. -1.
         -2    1    5    5    0  503  0.59057924317E+02  0.32507216645E+03  0.36313888013E+03  0.49094765310E+03  0.00000000000E+00 0.  1.
         -3    1    6    6    0  502 -0.61302151433E+02  0.40800945510E+01 -0.92892970638E+01  0.62136076331E+02  0.00000000000E+00 0.  1.
<mgrwt>
<rscale>  0 0.19765455E+04</rscale>
<asrwt>0</asrwt>
<pdfrwt beam="1">  1        2 0.19014876E+00 0.19765455E+04</pdfrwt>
<pdfrwt beam="2">  1       -2 0.12157196E+00 0.19765455E+04</pdfrwt>
<totfact> 0.86283120E+00</totfact>
</mgrwt>
</event>
<event>
12    1  0.1506149E-007  0.1675027E+04  0.7818608E-02  0.8775737E-01
          1   -1    0    0  501    0  0.00000000000E+00  0.00000000000E+00  0.12453427277E+04  0.12453427277E+04  0.00000000000E+00 0. -1.
         -1   -1    0    0    0  501 -0.00000000000E+00 -0.00000000000E+00 -0.56324130880E+03  0.56324130880E+03  0.00000000000E+00 0.  1.
         23    2    1    2    0    0  0.23562174139E+03  0.36799034896E+03  0.67292681599E+03  0.80742226835E+03  0.90364361318E+02 0.  0.
        254    2    1    2    0    0 -0.23562174139E+03 -0.36799034896E+03  0.91746028708E+01  0.10011617681E+04  0.90072538026E+03 0.  0.
        -24    2    4    4    0    0  0.25369986440E+03 -0.37016617619E+03  0.16000989238E+03  0.48315625281E+03  0.80313011250E+02 0.  0.
         24    2    4    4    0    0 -0.48932160580E+03  0.21758272220E+01 -0.15083528951E+03  0.51800551531E+03  0.78345779727E+02 0.  0.
         13    1    3    3    0    0  0.98152763683E+00  0.24154296259E+02  0.75496360267E+02  0.79272276603E+02  0.00000000000E+00 0.  1.
        -13    1    3    3    0    0  0.23464021376E+03  0.34383605270E+03  0.59743045573E+03  0.72814999175E+03  0.00000000000E+00 0. -1.
          4    1    6    6  502    0 -0.25784898805E+03 -0.35984610293E+02 -0.92201174570E+02  0.27619205168E+03  0.00000000000E+00 0. -1.
          1    1    5    5  503    0  0.26099228457E+02 -0.95879249940E+02  0.30663902811E+02  0.10399170751E+03  0.00000000000E+00 0. -1.
         -2    1    5    5    0  503  0.22760063595E+03 -0.27428692625E+03  0.12934598957E+03  0.37916454530E+03  0.00000000000E+00 0.  1.
         -3    1    6    6    0  502 -0.23147261775E+03  0.38160437515E+02 -0.58634114939E+02  0.24181346363E+03  0.00000000000E+00 0.  1.
<mgrwt>
<rscale>  0 0.16750265E+04</rscale>
<asrwt>0</asrwt>
<pdfrwt beam="1">  1        1 0.19159119E+00 0.16750265E+04</pdfrwt>
<pdfrwt beam="2">  1       -1 0.86652509E-01 0.16750265E+04</pdfrwt>
<totfact> 0.12399427E+01</totfact>
</mgrwt>
</event>
<event>
12    1  0.1506149E-007  0.2241489E+04  0.7818608E-02  0.8501355E-01
          2   -1    0    0  501    0  0.00000000000E+00  0.00000000000E+00  0.29821261311E+04  0.29821261311E+04  0.00000000000E+00 0. -1.
         -2   -1    0    0    0  501 -0.00000000000E+00 -0.00000000000E+00 -0.42119880292E+03  0.42119880292E+03  0.00000000000E+00 0.  1.
         23    2    1    2    0    0  0.40044127854E+03 -0.25230132793E+03  0.23082239749E+04  0.23579813935E+04  0.90383384379E+02 0.  0.
        254    2    1    2    0    0 -0.40044127854E+03  0.25230132793E+03  0.25270335322E+03  0.10453435405E+04  0.89714823482E+03 0.  0.
        -24    2    4    4    0    0 -0.25784246058E+03  0.43464682695E+03  0.48700659024E+03  0.70646187235E+03  0.80699191355E+02 0.  0.
         24    2    4    4    0    0 -0.14259881796E+03 -0.18234549902E+03 -0.23430323702E+03  0.33888166812E+03  0.79740041482E+02 0.  0.
         13    1    3    3    0    0  0.17984388248E+02 -0.36994570862E+02  0.14724834803E+03  0.15288594603E+03  0.00000000000E+00 0.  1.
        -13    1    3    3    0    0  0.38245689029E+03 -0.21530675707E+03  0.21609756269E+04  0.22050954475E+04  0.00000000000E+00 0. -1.
          2    1    6    6  502    0 -0.10266733643E+03 -0.75753146508E+02 -0.15180683530E+03  0.19830389916E+03  0.00000000000E+00 0. -1.
          3    1    5    5  503    0 -0.17662338858E+03  0.31259821778E+03  0.39294853103E+03  0.53228001578E+03  0.00000000000E+00 0. -1.
         -4    1    5    5    0  503 -0.81219071998E+02  0.12204860917E+03  0.94058059210E+02  0.17418185657E+03  0.00000000000E+00 0.  1.
         -1    1    6    6    0  502 -0.39931481528E+02 -0.10659235251E+03 -0.82496401711E+02  0.14057776896E+03  0.00000000000E+00 0.  1.
<mgrwt>
<rscale>  0 0.22414888E+04</rscale>
<asrwt>0</asrwt>
<pdfrwt beam="1">  1        2 0.45878862E+00 0.22414888E+04</pdfrwt>
<pdfrwt beam="2">  1       -2 0.64799818E-01 0.22414888E+04</pdfrwt>
<totfact> 0.35802793E+00</totfact>
</mgrwt>
</event>
<event>
12    1  0.1506149E-007  0.3409912E+04  0.7818608E-02  0.8135478E-01
         -1   -1    0    0    0  501 -0.00000000000E+00  0.00000000000E+00  0.78405907869E+03  0.78405907869E+03  0.00000000000E+00 0.  1.
          1   -1    0    0  501    0  0.00000000000E+00 -0.00000000000E+00 -0.37074693958E+04  0.37074693958E+04  0.00000000000E+00 0. -1.
         23    2    1    2    0    0  0.10209936570E+04  0.37743130979E+03 -0.28770234243E+04  0.30773876840E+04  0.90381038402E+02 0.  0.
        254    2    1    2    0    0 -0.10209936570E+04 -0.37743130979E+03 -0.46386892787E+02  0.14141407905E+04  0.90153202403E+03 0.  0.
        -24    2    4    4    0    0 -0.84747861928E+03 -0.47995823647E+02  0.29545952117E+03  0.90239646198E+03  0.80619084132E+02 0.  0.
         24    2    4    4    0    0 -0.17351503772E+03 -0.32943548614E+03 -0.34184641395E+03  0.51174432854E+03  0.79925460364E+02 0.  0.
         11    1    3    3    0    0  0.49187394301E+03  0.18121986929E+03 -0.12586129382E+04  0.13634101162E+04  0.00000000000E+00 0. -1.
        -11    1    3    3    0    0  0.52911971398E+03  0.19621144050E+03 -0.16184104861E+04  0.17139775677E+04  0.00000000000E+00 0.  1.
          2    1    6    6  502    0 -0.10772141491E+01 -0.18829900217E+01 -0.23246843636E+02  0.23347843172E+02  0.00000000000E+00 0. -1.
          1    1    5    5  503    0 -0.10598574707E+03  0.17809145526E+02  0.24666986771E+02  0.11026606225E+03  0.00000000000E+00 0. -1.
         -2    1    5    5    0  503 -0.74149287220E+03 -0.65804969173E+02  0.27079253440E+03  0.79213039973E+03  0.00000000000E+00 0.  1.
         -1    1    6    6    0  502 -0.17243782357E+03 -0.32755249612E+03 -0.31859957032E+03  0.48839648536E+03  0.00000000000E+00 0.  1.
<mgrwt>
<rscale>  0 0.34099120E+04</rscale>
<asrwt>0</asrwt>
<pdfrwt beam="1">  1        1 0.57037991E+00 0.34099120E+04</pdfrwt>
<pdfrwt beam="2">  1       -1 0.12062447E+00 0.34099120E+04</pdfrwt>
<totfact> 0.85318786E-02</totfact>
</mgrwt>
</event>
<event>
12    1  0.1506149E-007  0.2286136E+04  0.7818608E-02  0.8483408E-01
         -2   -1    0    0    0  501 -0.00000000000E+00  0.00000000000E+00  0.10030943697E+04  0.10030943697E+04  0.00000000000E+00 0.  1.
          2   -1    0    0  501    0  0.00000000000E+00 -0.00000000000E+00 -0.13025739233E+04  0.13025739233E+04  0.00000000000E+00 0. -1.
         23    2    1    2    0    0  0.12880433530E+03  0.87271184280E+03 -0.51942802889E+03  0.10272901818E+04  0.85458312356E+02 0.  0.
        254    2    1    2    0    0 -0.12880433530E+03 -0.87271184280E+03  0.21994847527E+03  0.12783781112E+04  0.89869724937E+03 0.  0.
        -24    2    4    4    0    0 -0.25868287549E+02 -0.23733607544E+03  0.50934049865E+03  0.56810690095E+03  0.79499222271E+02 0.  0.
         24    2    4    4    0    0 -0.10293604775E+03 -0.63537576736E+03 -0.28939202337E+03  0.71027121023E+03  0.80244957575E+02 0.  0.
         13    1    3    3    0    0  0.90565966446E+02  0.77464356132E+03 -0.47387512102E+03  0.91259655473E+03  0.00000000000E+00 0. -1.
        -13    1    3    3    0    0  0.38238368856E+02  0.98068281471E+02 -0.45552907864E+02  0.11469362710E+03  0.00000000000E+00 0.  1.
          2    1    6    6  502    0 -0.41439865347E+02 -0.42028237918E+03 -0.21912373425E+03  0.47578330319E+03  0.00000000000E+00 0. -1.
          1    1    5    5  503    0  0.11298539851E+02 -0.16131887271E+03  0.38625583369E+03  0.41874216978E+03  0.00000000000E+00 0. -1.
         -2    1    5    5    0  503 -0.37166827400E+02 -0.76017202723E+02  0.12308466496E+03  0.14936473117E+03  0.00000000000E+00 0.  1.
         -1    1    6    6    0  502 -0.61496182407E+02 -0.21509338818E+03 -0.70268289126E+02  0.23448790704E+03  0.00000000000E+00 0.  1.
<mgrwt>
<rscale>  0 0.22861361E+04</rscale>
<asrwt>0</asrwt>
<pdfrwt beam="1">  1        2 0.20039599E+00 0.22861361E+04</pdfrwt>
<pdfrwt beam="2">  1       -2 0.15432221E+00 0.22861361E+04</pdfrwt>
<totfact> 0.41538979E+00</totfact>
</mgrwt>
</event>
<event>
12    1  0.1506149E-007  0.1602389E+04  0.7818608E-02  0.8819082E-01
         -1   -1    0    0    0  501 -0.00000000000E+00  0.00000000000E+00  0.74345346199E+03  0.74345346199E+03  0.00000000000E+00 0.  1.
          1   -1    0    0  501    0  0.00000000000E+00 -0.00000000000E+00 -0.86342033007E+03  0.86342033007E+03  0.00000000000E+00 0. -1.
         23    2    1    2    0    0 -0.32114996706E+03  0.34988455216E+03 -0.30546737635E+03  0.57195304919E+03  0.90903637307E+02 0.  0.
        254    2    1    2    0    0  0.32114996706E+03 -0.34988455216E+03  0.18550050827E+03  0.10349207429E+04  0.90060757507E+03 0.  0.
        -24    2    4    4    0    0  0.41933007297E+03  0.16381984140E+03  0.21444007344E+03  0.50528932801E+03  0.81597238764E+02 0.  0.
         24    2    4    4    0    0 -0.98180105909E+02 -0.51370439356E+03 -0.28939565170E+02  0.52963141487E+03  0.78360704584E+02 0.  0.
         13    1    3    3    0    0 -0.14669060462E+03  0.21049726372E+03 -0.19827580613E+03  0.32425380000E+03  0.00000000000E+00 0.  1.
        -13    1    3    3    0    0 -0.17445936244E+03  0.13938728844E+03 -0.10719157023E+03  0.24769924919E+03  0.00000000000E+00 0. -1.
          4    1    6    6  502    0 -0.10047529920E+03 -0.34054224133E+03 -0.75253890976E+01  0.35513509452E+03  0.00000000000E+00 0. -1.
          1    1    5    5  503    0  0.21449115969E+03  0.50943209380E+02  0.74324724663E+02  0.23264959244E+03  0.00000000000E+00 0. -1.
         -2    1    5    5    0  503  0.20483891328E+03  0.11287663202E+03  0.14011534877E+03  0.27263973557E+03  0.00000000000E+00 0.  1.
         -3    1    6    6    0  502  0.22951932945E+01 -0.17316215223E+03 -0.21414176073E+02  0.17449632034E+03  0.00000000000E+00 0.  1.
<mgrwt>
<rscale>  0 0.16023893E+04</rscale>
<asrwt>0</asrwt>
<pdfrwt beam="1">  1        1 0.13283390E+00 0.16023893E+04</pdfrwt>
<pdfrwt beam="2">  1       -1 0.11437746E+00 0.16023893E+04</pdfrwt>
<totfact> 0.13021735E+01</totfact>
</mgrwt>
</event>
<event>
12    1  0.1506149E-007  0.1701922E+04  0.7818608E-02  0.8760269E-01
          2   -1    0    0  501    0  0.00000000000E+00  0.00000000000E+00  0.20275601709E+04  0.20275601709E+04  0.00000000000E+00 0. -1.
         -2   -1    0    0    0  501 -0.00000000000E+00 -0.00000000000E+00 -0.35714580566E+03  0.35714580566E+03  0.00000000000E+00 0.  1.
         23    2    1    2    0    0 -0.24393225855E+03 -0.39468631383E+03  0.11517565219E+04  0.12450309405E+04  0.90987494184E+02 0.  0.
        254    2    1    2    0    0  0.24393225855E+03  0.39468631383E+03  0.51865784336E+03  0.11396750360E+04  0.90253697773E+03 0.  0.
        -24    2    4    4    0    0  0.22125852412E+03  0.37429464967E+03 -0.14854818505E+03  0.46669075500E+03  0.81742756558E+02 0.  0.
         24    2    4    4    0    0  0.22673734428E+02  0.20391664163E+02  0.66720602841E+03  0.67298428102E+03  0.82547198330E+02 0.  0.
         13    1    3    3    0    0 -0.23120000555E+03 -0.32167132681E+03  0.91855002726E+03  0.10003299644E+04  0.00000000000E+00 0. -1.
        -13    1    3    3    0    0 -0.12732253000E+02 -0.73014987028E+02  0.23320649460E+03  0.24470097613E+03  0.00000000000E+00 0.  1.
          4    1    6    6  502    0  0.49506103570E+01 -0.15748774127E+02  0.27943163605E+02  0.32455397420E+02  0.00000000000E+00 0. -1.
          3    1    5    5  503    0  0.11180409009E+03  0.12005850399E+03 -0.36445200547E+02  0.16805490646E+03  0.00000000000E+00 0. -1.
         -4    1    5    5    0  503  0.10945443403E+03  0.25423614568E+03 -0.11210298451E+03  0.29863584854E+03  0.00000000000E+00 0.  1.
         -3    1    6    6    0  502  0.17723124071E+02  0.36140438290E+02  0.63926286481E+03  0.64052888360E+03  0.00000000000E+00 0.  1.
<mgrwt>
<rscale>  0 0.17019220E+04</rscale>
<asrwt>0</asrwt>
<pdfrwt beam="1">  1        2 0.31193233E+00 0.17019220E+04</pdfrwt>
<pdfrwt beam="2">  1       -2 0.54945510E-01 0.17019220E+04</pdfrwt>
<totfact> 0.19118306E+01</totfact>
</mgrwt>
</event>
<event>
12    1  0.1506149E-007  0.2780986E+04  0.7818608E-02  0.8309196E-01
         -1   -1    0    0    0  501 -0.00000000000E+00  0.00000000000E+00  0.71373112398E+03  0.71373112398E+03  0.00000000000E+00 0.  1.
          1   -1    0    0  501    0  0.00000000000E+00 -0.00000000000E+00 -0.27089633473E+04  0.27089633473E+04  0.00000000000E+00 0. -1.
         23    2    1    2    0    0 -0.90276404496E+03 -0.43073408488E+03 -0.18018690812E+04  0.20631199488E+04  0.96005025084E+02 0.  0.
        254    2    1    2    0    0  0.90276404496E+03  0.43073408488E+03 -0.19336314215E+03  0.13595745225E+04  0.90029928614E+03 0.  0.
        -24    2    4    4    0    0  0.49646599804E+03 -0.14664650951E+03  0.18353670453E+03  0.55501585745E+03  0.79832287653E+02 0.  0.
         24    2    4    4    0    0  0.40629804692E+03  0.57738059440E+03 -0.37689984669E+03  0.80455866500E+03  0.82551179787E+02 0.  0.
         13    1    3    3    0    0 -0.70136940274E+01  0.59104154048E+00 -0.35434672909E+02  0.36126960545E+02  0.00000000000E+00 0.  1.
        -13    1    3    3    0    0 -0.89575035093E+03 -0.43132512642E+03 -0.17664344082E+04  0.20269929883E+04  0.00000000000E+00 0. -1.
          2    1    6    6  502    0  0.32212631602E+03  0.39377487240E+03 -0.26400428886E+03  0.57316862977E+03  0.00000000000E+00 0. -1.
          1    1    5    5  503    0  0.48024046857E+03 -0.13906358977E+03  0.19153380905E+03  0.53540152191E+03  0.00000000000E+00 0. -1.
         -2    1    5    5    0  503  0.16225529469E+02 -0.75829197398E+01 -0.79971045119E+01  0.19614335546E+02  0.00000000000E+00 0.  1.
         -1    1    6    6    0  502  0.84171730896E+02  0.18360572199E+03 -0.11289555783E+03  0.23139003524E+03  0.00000000000E+00 0.  1.
<mgrwt>
<rscale>  0 0.27809865E+04</rscale>
<asrwt>0</asrwt>
<pdfrwt beam="1">  1        1 0.41676359E+00 0.27809865E+04</pdfrwt>
<pdfrwt beam="2">  1       -1 0.10980479E+00 0.27809865E+04</pdfrwt>
<totfact> 0.64240621E-01</totfact>
</mgrwt>
</event>
<event>
12    1  0.1506149E-007  0.1767572E+04  0.7818608E-02  0.8723737E-01
         -2   -1    0    0    0  501 -0.00000000000E+00  0.00000000000E+00  0.34724580669E+03  0.34724580669E+03  0.00000000000E+00 0. -1.
          2   -1    0    0  501    0  0.00000000000E+00 -0.00000000000E+00 -0.22493515428E+04  0.22493515428E+04  0.00000000000E+00 0.  1.
         23    2    1    2    0    0  0.21013978946E+03  0.30548568340E+03 -0.83782435717E+00  0.38247071088E+03  0.93823818147E+02 0.  0.
        254    2    1    2    0    0 -0.21013978946E+03 -0.30548568340E+03 -0.19012679118E+04  0.22141266386E+04  0.10724070429E+04 0.  0.
        -24    2    4    4    0    0 -0.34995472523E+03  0.16014829405E+03 -0.19608976074E+03  0.43915312638E+03  0.79299989560E+02 0.  0.
         24    2    4    4    0    0  0.13981493577E+03 -0.46563397745E+03 -0.17051781510E+04  0.17749735122E+04  0.80840739756E+02 0.  0.
         11    1    3    3    0    0  0.18386519562E+03  0.27239596730E+03  0.30223460039E+02  0.33002943914E+03  0.00000000000E+00 0. -1.
        -11    1    3    3    0    0  0.26274593846E+02  0.33089716096E+02 -0.31061284396E+02  0.52441271737E+02  0.00000000000E+00 0.  1.
          4    1    6    6  502    0  0.11550913169E+03 -0.28417822176E+03 -0.11601067198E+04  0.11999780092E+04  0.00000000000E+00 0. -1.
          1    1    5    5  503    0 -0.32693948599E+03  0.16674335910E+03 -0.17243009563E+03  0.40549341941E+03  0.00000000000E+00 0. -1.
         -2    1    5    5    0  503 -0.23015239239E+02 -0.65950650525E+01 -0.23659665110E+02  0.33659706972E+02  0.00000000000E+00 0.  1.
         -3    1    6    6    0  502  0.24305804076E+02 -0.18145575569E+03 -0.54507143122E+03  0.57499550304E+03  0.00000000000E+00 0.  1.
<mgrwt>
<rscale>  0 0.17675722E+04</rscale>
<asrwt>0</asrwt>
<pdfrwt beam="1">  1        2 0.34605408E+00 0.17675722E+04</pdfrwt>
<pdfrwt beam="2">  1       -2 0.53422432E-01 0.17675722E+04</pdfrwt>
<totfact> 0.15146670E+01</totfact>
</mgrwt>
</event>
<event>
12    1  0.1506149E-007  0.1910556E+04  0.7818608E-02  0.8649620E-01
         -2   -1    0    0    0  501 -0.00000000000E+00  0.00000000000E+00  0.97341352865E+03  0.97341352865E+03  0.00000000000E+00 0.  1.
          2   -1    0    0  501    0  0.00000000000E+00 -0.00000000000E+00 -0.93747999554E+03  0.93747999554E+03  0.00000000000E+00 0. -1.
         23    2    1    2    0    0  0.72649405626E+03 -0.42126186837E+02 -0.16065356711E+03  0.75087710413E+03  0.91862002420E+02 0.  0.
        254    2    1    2    0    0 -0.72649405626E+03  0.42126186837E+02  0.19658710022E+03  0.11600164201E+04  0.88171615468E+03 0.  0.
        -24    2    4    4    0    0 -0.10183372476E+03  0.19663726280E+03  0.41393522267E+03  0.47615276897E+03  0.79641510650E+02 0.  0.
         24    2    4    4    0    0 -0.62466033150E+03 -0.15451107596E+03 -0.21734812245E+03  0.68386365108E+03  0.79718784454E+02 0.  0.
         11    1    3    3    0    0  0.86652591717E+02 -0.16950292810E+02 -0.48676129556E+02  0.10082335873E+03  0.00000000000E+00 0. -1.
        -11    1    3    3    0    0  0.63984146454E+03 -0.25175894026E+02 -0.11197743755E+03  0.65005374540E+03  0.00000000000E+00 0.  1.
          4    1    6    6  502    0 -0.35687605904E+02  0.81030258673E+01 -0.46426095234E+01  0.36889267634E+02  0.00000000000E+00 0. -1.
          1    1    5    5  503    0 -0.26006604796E+02  0.67881897310E+02  0.68925977623E+02  0.10017527573E+03  0.00000000000E+00 0. -1.
         -2    1    5    5    0  503 -0.75827119963E+02  0.12875536549E+03  0.34500924504E+03  0.37597749325E+03  0.00000000000E+00 0.  1.
         -3    1    6    6    0  502 -0.58897272559E+03 -0.16261410183E+03 -0.21270551292E+03  0.64697438345E+03  0.00000000000E+00 0.  1.
<mgrwt>
<rscale>  0 0.19105556E+04</rscale>
<asrwt>0</asrwt>
<pdfrwt beam="1">  1        2 0.14422769E+00 0.19105556E+04</pdfrwt>
<pdfrwt beam="2">  1       -2 0.14975593E+00 0.19105556E+04</pdfrwt>
<totfact> 0.77908904E+00</totfact>
</mgrwt>
</event>
<event>
12    1  0.1506149E-007  0.1758782E+04  0.7818608E-02  0.8728531E-01
          1   -1    0    0  501    0  0.00000000000E+00  0.00000000000E+00  0.15241940177E+04  0.15241940177E+04  0.00000000000E+00 0. -1.
         -1   -1    0    0    0  501 -0.00000000000E+00 -0.00000000000E+00 -0.50736897526E+03  0.50736897526E+03  0.00000000000E+00 0.  1.
         23    2    1    2    0    0 -0.61653053843E+03  0.82424428733E+02  0.17771571272E+03  0.65368892747E+03  0.93928952313E+02 0.  0.
        254    2    1    2    0    0  0.61653053843E+03 -0.82424428733E+02  0.83910932976E+03  0.13778740655E+04  0.89862605233E+03 0.  0.
        -24    2    4    4    0    0  0.25789195864E+03  0.88882287418E+01  0.94627209137E+03  0.98407351230E+03  0.79890823924E+02 0.  0.
         24    2    4    4    0    0  0.35863857978E+03 -0.91312657475E+02 -0.10716276161E+03  0.39380055324E+03  0.81457878258E+02 0.  0.
         13    1    3    3    0    0 -0.43366865073E+03  0.83777243936E+02  0.16077907168E+03  0.47003939741E+03  0.00000000000E+00 0.  1.
        -13    1    3    3    0    0 -0.18286188770E+03 -0.13528152025E+01  0.16936641042E+02  0.18364953006E+03  0.00000000000E+00 0. -1.
          4    1    6    6  502    0  0.93027845861E+02  0.56007945204E+01 -0.55664197746E+01  0.93362380185E+02  0.00000000000E+00 0. -1.
          1    1    5    5  503    0  0.75236778370E+01 -0.37090141132E+01  0.45221368475E+01  0.95295454012E+01  0.00000000000E+00 0. -1.
         -2    1    5    5    0  503  0.25036828081E+03  0.12597242855E+02  0.94174995453E+03  0.97454396690E+03  0.00000000000E+00 0.  1.
         -3    1    6    6    0  502  0.26561073392E+03 -0.96913451996E+02 -0.10159634184E+03  0.30043817305E+03  0.00000000000E+00 0.  1.
<mgrwt>
<rscale>  0 0.17587823E+04</rscale>
<asrwt>0</asrwt>
<pdfrwt beam="1">  1        1 0.23449139E+00 0.17587823E+04</pdfrwt>
<pdfrwt beam="2">  1       -1 0.78056766E-01 0.17587823E+04</pdfrwt>
<totfact> 0.97950762E+00</totfact>
</mgrwt>
</event>
<event>
12    1  0.1506149E-007  0.1518607E+04  0.7818608E-02  0.8872173E-01
         -2   -1    0    0    0  501 -0.00000000000E+00  0.00000000000E+00  0.20706702165E+03  0.20706702165E+03  0.00000000000E+00 0.  1.
          2   -1    0    0  501    0  0.00000000000E+00 -0.00000000000E+00 -0.27843259524E+04  0.27843259524E+04  0.00000000000E+00 0. -1.
         23    2    1    2    0    0  0.11663998133E+03  0.28777450680E+03 -0.10072234472E+03  0.33836797862E+03  0.89044068976E+02 0.  0.
        254    2    1    2    0    0 -0.11663998133E+03 -0.28777450680E+03 -0.24765365860E+04  0.26530249954E+04  0.89938262845E+03 0.  0.
        -24    2    4    4    0    0 -0.21443110248E+03 -0.39072365263E+03 -0.51979966129E+03  0.68946613916E+03  0.80784891738E+02 0.  0.
         24    2    4    4    0    0  0.97791121155E+02  0.10294914582E+03 -0.19567369247E+04  0.19635588562E+04  0.81131740794E+02 0.  0.
         13    1    3    3    0    0  0.52792128650E+02  0.21808398771E+03 -0.95041493996E+02  0.24368118541E+03  0.00000000000E+00 0.  1.
        -13    1    3    3    0    0  0.63847852679E+02  0.69690519094E+02 -0.56808507245E+01  0.94686793210E+02  0.00000000000E+00 0. -1.
          4    1    6    6  502    0 -0.54830714092E+01 -0.94295741172E+01 -0.12778945063E+03  0.12825414080E+03  0.00000000000E+00 0. -1.
          1    1    5    5  503    0 -0.28035889610E+02 -0.93014735521E+02 -0.15598609650E+03  0.18376456250E+03  0.00000000000E+00 0. -1.
         -2    1    5    5    0  503 -0.18639521287E+03 -0.29770891710E+03 -0.36381356479E+03  0.50570157666E+03  0.00000000000E+00 0.  1.
         -3    1    6    6    0  502  0.10327419256E+03  0.11237871994E+03 -0.18289474741E+04  0.18353047154E+04  0.00000000000E+00 0.  1.
<mgrwt>
<rscale>  0 0.15186074E+04</rscale>
<asrwt>0</asrwt>
<pdfrwt beam="1">  1        2 0.42835785E+00 0.15186074E+04</pdfrwt>
<pdfrwt beam="2">  1       -2 0.31856464E-01 0.15186074E+04</pdfrwt>
<totfact> 0.20993711E+01</totfact>
</mgrwt>
</event>
<event>
12    1  0.1506149E-007  0.3205856E+04  0.7818608E-02  0.8187272E-01
          2   -1    0    0  501    0  0.00000000000E+00  0.00000000000E+00  0.83187704263E+03  0.83187704263E+03  0.00000000000E+00 0. -1.
         -2   -1    0    0    0  501 -0.00000000000E+00 -0.00000000000E+00 -0.30886505464E+04  0.30886505464E+04  0.00000000000E+00 0.  1.
         23    2    1    2    0    0  0.64994462561E+03  0.46658528805E+03  0.47400573971E+03  0.93439614403E+03  0.91021235559E+02 0.  0.
        254    2    1    2    0    0 -0.64994462561E+03 -0.46658528805E+03 -0.27307792435E+04  0.29861314450E+04  0.90537057764E+03 0.  0.
        -24    2    4    4    0    0 -0.56563945731E+03 -0.58219295697E+03 -0.12249217713E+04  0.14714377056E+04  0.76150777806E+02 0.  0.
         24    2    4    4    0    0 -0.84305168302E+02  0.11560766892E+03 -0.15058574722E+04  0.15146937394E+04  0.78853681211E+02 0.  0.
         13    1    3    3    0    0  0.56080793319E+03  0.42030676209E+03  0.44374687498E+03  0.82950262280E+03  0.00000000000E+00 0. -1.
        -13    1    3    3    0    0  0.89136692423E+02  0.46278525960E+02  0.30258864729E+02  0.10489352123E+03  0.00000000000E+00 0.  1.
          2    1    6    6  502    0  0.14187173469E+02  0.28466661364E+02 -0.27759990270E+03  0.27941605658E+03  0.00000000000E+00 0. -1.
          1    1    5    5  503    0 -0.17387816467E+03 -0.13321226731E+03 -0.34936740031E+03  0.41235507116E+03  0.00000000000E+00 0. -1.
         -2    1    5    5    0  503 -0.39176129263E+03 -0.44898068966E+03 -0.87555437098E+03  0.10590826345E+04  0.00000000000E+00 0.  1.
         -1    1    6    6    0  502 -0.98492341771E+02  0.87141007556E+02 -0.12282575695E+04  0.12352776828E+04  0.00000000000E+00 0.  1.
<mgrwt>
<rscale>  0 0.32058556E+04</rscale>
<asrwt>0</asrwt>
<pdfrwt beam="1">  1        2 0.12798109E+00 0.32058556E+04</pdfrwt>
<pdfrwt beam="2">  1       -2 0.47517700E+00 0.32058556E+04</pdfrwt>
<totfact> 0.65145498E-02</totfact>
</mgrwt>
</event>
<event>
12    1  0.1506149E-007  0.1138650E+04  0.7818608E-02  0.9168319E-01
         -2   -1    0    0    0  501 -0.00000000000E+00  0.00000000000E+00  0.16950903216E+03  0.16950903216E+03  0.00000000000E+00 0.  1.
          2   -1    0    0  501    0  0.00000000000E+00 -0.00000000000E+00 -0.19121755485E+04  0.19121755485E+04  0.00000000000E+00 0. -1.
         23    2    1    2    0    0 -0.17662881366E+02 -0.80187978899E+02 -0.68586317532E+03  0.69681757280E+03  0.91675215654E+02 0.  0.
        254    2    1    2    0    0  0.17662881366E+02  0.80187978899E+02 -0.10568033410E+04  0.13848670079E+04  0.89122457245E+03 0.  0.
        -24    2    4    4    0    0  0.33391375690E+03 -0.25425890667E+03 -0.52807082529E+03  0.67923324551E+03  0.79705813002E+02 0.  0.
         24    2    4    4    0    0 -0.31625087553E+03  0.33444688557E+03 -0.52873251574E+03  0.70563376235E+03  0.80570452615E+02 0.  0.
         11    1    3    3    0    0  0.19433845335E+02 -0.83346776343E+02 -0.49809042936E+03  0.50538938977E+03  0.00000000000E+00 0. -1.
        -11    1    3    3    0    0 -0.37096726701E+02  0.31587974438E+01 -0.18777274596E+03  0.19142818303E+03  0.00000000000E+00 0.  1.
          2    1    6    6  502    0 -0.46865156193E+02  0.45690931743E+02 -0.37799688593E+02  0.75583202937E+02  0.00000000000E+00 0. -1.
          3    1    5    5  503    0  0.19860888952E+03 -0.19843896997E+03 -0.35319542958E+03  0.45118790684E+03  0.00000000000E+00 0. -1.
         -4    1    5    5    0  503  0.13530486737E+03 -0.55819936698E+02 -0.17487539570E+03  0.22804533867E+03  0.00000000000E+00 0.  1.
         -1    1    6    6    0  502 -0.26938571934E+03  0.28875595382E+03 -0.49093282715E+03  0.63005055942E+03  0.00000000000E+00 0.  1.
<mgrwt>
<rscale>  0 0.11386501E+04</rscale>
<asrwt>0</asrwt>
<pdfrwt beam="1">  1        2 0.29418087E+00 0.11386501E+04</pdfrwt>
<pdfrwt beam="2">  1       -2 0.26078312E-01 0.11386501E+04</pdfrwt>
<totfact> 0.98486505E+01</totfact>
</mgrwt>
</event>
<event>
12    1  0.1506149E-007  0.1313712E+04  0.7818608E-02  0.9018762E-01
         -1   -1    0    0    0  501 -0.00000000000E+00  0.00000000000E+00  0.35571544648E+03  0.35571544648E+03  0.00000000000E+00 0.  1.
          1   -1    0    0  501    0  0.00000000000E+00 -0.00000000000E+00 -0.12129350329E+04  0.12129350329E+04  0.00000000000E+00 0. -1.
         23    2    1    2    0    0 -0.14101517245E+03 -0.30885233475E+03 -0.18294342088E+03  0.39693309609E+03  0.93875151053E+02 0.  0.
        254    2    1    2    0    0  0.14101517245E+03  0.30885233475E+03 -0.67427616552E+03  0.11717173833E+04  0.89610168804E+03 0.  0.
        -24    2    4    4    0    0  0.95431258116E+02  0.40225980254E+03 -0.85243194477E+03  0.95074001312E+03  0.79663531969E+02 0.  0.
         24    2    4    4    0    0  0.45583914338E+02 -0.93407467789E+02  0.17815577925E+03  0.22097737014E+03  0.79301123258E+02 0.  0.
         11    1    3    3    0    0 -0.96555902012E+01 -0.15864262219E+02  0.11226127997E+02  0.21700949004E+02  0.00000000000E+00 0. -1.
        -11    1    3    3    0    0 -0.13135958225E+03 -0.29298807253E+03 -0.19416954888E+03  0.37523214709E+03  0.00000000000E+00 0.  1.
          4    1    6    6  502    0 -0.90368454181E+01 -0.36506392203E+02  0.11162653381E+03  0.11779161387E+03  0.00000000000E+00 0. -1.
          1    1    5    5  503    0  0.66329607552E+02  0.29039163080E+03 -0.68830492782E+03  0.74999372647E+03  0.00000000000E+00 0. -1.
         -4    1    5    5    0  503  0.29101650564E+02  0.11186817174E+03 -0.16412701694E+03  0.20074628665E+03  0.00000000000E+00 0.  1.
         -3    1    6    6    0  502  0.54620759757E+02 -0.56901075586E+02  0.66529245433E+02  0.10318575627E+03  0.00000000000E+00 0.  1.
<mgrwt>
<rscale>  0 0.13137119E+04</rscale>
<asrwt>0</asrwt>
<pdfrwt beam="1">  1        1 0.18660539E+00 0.13137119E+04</pdfrwt>
<pdfrwt beam="2">  1       -1 0.54725453E-01 0.13137119E+04</pdfrwt>
<totfact> 0.34617401E+01</totfact>
</mgrwt>
</event>
<event>
12    1  0.1506149E-007  0.1677130E+04  0.7818608E-02  0.8774516E-01
         -2   -1    0    0    0  501 -0.00000000000E+00  0.00000000000E+00  0.10654073769E+04  0.10654073769E+04  0.00000000000E+00 0.  1.
          2   -1    0    0  501    0  0.00000000000E+00 -0.00000000000E+00 -0.66002117902E+03  0.66002117902E+03  0.00000000000E+00 0. -1.
         23    2    1    2    0    0 -0.57469820530E+03 -0.11723137566E+02 -0.31749945062E+01  0.58201488602E+03  0.91190941559E+02 0.  0.
        254    2    1    2    0    0  0.57469820530E+03  0.11723137566E+02  0.40856119235E+03  0.11434136699E+04  0.90003172912E+03 0.  0.
        -24    2    4    4    0    0 -0.22436810420E+03 -0.27733409363E+02  0.20218941154E+03  0.31330600259E+03  0.78548742470E+02 0.  0.
         24    2    4    4    0    0  0.79906630951E+03  0.39456546929E+02  0.20637178081E+03  0.83010766728E+03  0.80160097757E+02 0.  0.
         13    1    3    3    0    0 -0.32947552411E+03  0.60648258859E+01 -0.45086067319E+02  0.33260134781E+03  0.00000000000E+00 0. -1.
        -13    1    3    3    0    0 -0.24522268119E+03 -0.17787963452E+02  0.41911072813E+02  0.24941353820E+03  0.00000000000E+00 0.  1.
          2    1    6    6  502    0  0.20106932938E+03 -0.16722597121E+02  0.29012906852E+02  0.20383883152E+03  0.00000000000E+00 0. -1.
          3    1    5    5  503    0 -0.56813842812E+02 -0.33582530537E+02  0.89884214775E+02  0.11151130507E+03  0.00000000000E+00 0. -1.
         -4    1    5    5    0  503 -0.16755426139E+03  0.58491211736E+01  0.11230519677E+03  0.20179469753E+03  0.00000000000E+00 0.  1.
         -1    1    6    6    0  502  0.59799698012E+03  0.56179144051E+02  0.17735887396E+03  0.62626883575E+03  0.00000000000E+00 0.  1.
<mgrwt>
<rscale>  0 0.16771302E+04</rscale>
<asrwt>0</asrwt>
<pdfrwt beam="1">  1        2 0.10154172E+00 0.16771302E+04</pdfrwt>
<pdfrwt beam="2">  1       -2 0.16390883E+00 0.16771302E+04</pdfrwt>
<totfact> 0.99082048E+00</totfact>
</mgrwt>
</event>
<event>
12    1  0.1506149E-007  0.1596115E+04  0.7818608E-02  0.8822938E-01
          1   -1    0    0  501    0  0.00000000000E+00  0.00000000000E+00  0.15624300202E+04  0.15624300202E+04  0.00000000000E+00 0. -1.
         -1   -1    0    0    0  501 -0.00000000000E+00 -0.00000000000E+00 -0.40763143102E+03  0.40763143102E+03  0.00000000000E+00 0.  1.
         23    2    1    2    0    0 -0.13975191039E+03 -0.35659150101E+03  0.85803860828E+03  0.94396915484E+03  0.90329490923E+02 0.  0.
        254    2    1    2    0    0  0.13975191039E+03  0.35659150101E+03  0.29675998087E+03  0.10260922964E+04  0.90449478680E+03 0.  0.
        -24    2    4    4    0    0  0.18626633955E+03  0.17774183372E+03  0.60178314350E+03  0.65962811811E+03  0.81725110631E+02 0.  0.
         24    2    4    4    0    0 -0.46514429152E+02  0.17884966729E+03 -0.30502316262E+03  0.36646417825E+03  0.84297500506E+02 0.  0.
         13    1    3    3    0    0 -0.58038604307E+01 -0.70141305707E+01  0.80377010086E+02  0.80890954834E+02  0.00000000000E+00 0.  1.
        -13    1    3    3    0    0 -0.13394804996E+03 -0.34957737044E+03  0.77766159819E+03  0.86307820000E+03  0.00000000000E+00 0. -1.
          2    1    6    6  502    0  0.13804802713E+02  0.93122666065E+02 -0.10783003039E+03  0.14314230321E+03  0.00000000000E+00 0. -1.
          3    1    5    5  503    0  0.16918920441E+03  0.13355616009E+03  0.54242964006E+03  0.58368840078E+03  0.00000000000E+00 0. -1.
         -4    1    5    5    0  503  0.17077135131E+02  0.44185673634E+02  0.59353503437E+02  0.75939717336E+02  0.00000000000E+00 0.  1.
         -1    1    6    6    0  502 -0.60319231864E+02  0.85727001228E+02 -0.19719313223E+03  0.22332187504E+03  0.00000000000E+00 0.  1.
<mgrwt>
<rscale>  0 0.15961148E+04</rscale>
<asrwt>0</asrwt>
<pdfrwt beam="1">  1        1 0.24037385E+00 0.15961148E+04</pdfrwt>
<pdfrwt beam="2">  1       -1 0.62712529E-01 0.15961148E+04</pdfrwt>
<totfact> 0.14660045E+01</totfact>
</mgrwt>
</event>
<event>
12    1  0.1506149E-007  0.3120254E+04  0.7818608E-02  0.8210201E-01
         -2   -1    0    0    0  501 -0.00000000000E+00  0.00000000000E+00  0.15527571942E+04  0.15527571942E+04  0.00000000000E+00 0.  1.
          2   -1    0    0  501    0  0.00000000000E+00 -0.00000000000E+00 -0.15675314291E+04  0.15675314291E+04  0.00000000000E+00 0. -1.
         23    2    1    2    0    0  0.67768165627E+03  0.55833502531E+03 -0.11294997234E+04  0.14342918955E+04  0.10214298158E+03 0.  0.
        254    2    1    2    0    0 -0.67768165627E+03 -0.55833502531E+03  0.11147254886E+04  0.16859967278E+04  0.91048427968E+03 0.  0.
        -24    2    4    4    0    0 -0.58284631625E+03 -0.19892963481E+02  0.93492263207E+03  0.11047980775E+04  0.79955649152E+02 0.  0.
         24    2    4    4    0    0 -0.94835340024E+02 -0.53844206183E+03  0.17980285649E+03  0.58119865025E+03  0.80927178255E+02 0.  0.
         11    1    3    3    0    0  0.17003759384E+02 -0.80861146611E+00 -0.34986411942E+02  0.38907977412E+02  0.00000000000E+00 0.  1.
        -11    1    3    3    0    0  0.66067789689E+03  0.55914363678E+03 -0.10945133114E+04  0.13953839181E+04  0.00000000000E+00 0. -1.
          2    1    6    6  502    0 -0.31424693313E+01 -0.19726411012E+03  0.88979393034E+02  0.21642628454E+03  0.00000000000E+00 0. -1.
          3    1    5    5  503    0 -0.55466407335E+03 -0.18712739984E+02  0.84843163509E+03  0.10138237718E+04  0.00000000000E+00 0. -1.
         -4    1    5    5    0  503 -0.28182242899E+02 -0.11802234967E+01  0.86490996974E+02  0.90974305712E+02  0.00000000000E+00 0.  1.
         -1    1    6    6    0  502 -0.91692870693E+02 -0.34117795171E+03  0.90823463460E+02  0.36477236571E+03  0.00000000000E+00 0.  1.
<mgrwt>
<rscale>  0 0.31202536E+04</rscale>
<asrwt>0</asrwt>
<pdfrwt beam="1">  1        2 0.24115868E+00 0.31202536E+04</pdfrwt>
<pdfrwt beam="2">  1       -2 0.23888572E+00 0.31202536E+04</pdfrwt>
<totfact> 0.74190924E-01</totfact>
</mgrwt>
</event>
<event>
12    1  0.1506149E-007  0.1620999E+04  0.7818608E-02  0.8807750E-01
          1   -1    0    0  501    0  0.00000000000E+00  0.00000000000E+00  0.13323474603E+04  0.13323474603E+04  0.00000000000E+00 0. -1.
         -1   -1    0    0    0  501 -0.00000000000E+00 -0.00000000000E+00 -0.49304691985E+03  0.49304691985E+03  0.00000000000E+00 0.  1.
         23    2    1    2    0    0 -0.23559822352E+03  0.29080785388E+03 -0.17609424736E+03  0.42105098452E+03  0.78733835206E+02 0.  0.
        254    2    1    2    0    0  0.23559822352E+03 -0.29080785388E+03  0.10153947879E+04  0.14043433957E+04  0.89502964586E+03 0.  0.
        -24    2    4    4    0    0 -0.15386023013E+03  0.11992215734E+03  0.74099214840E+03  0.77027245585E+03  0.78714662050E+02 0.  0.
         24    2    4    4    0    0  0.38945845365E+03 -0.41073001121E+03  0.27440263946E+03  0.63407093983E+03  0.79825553304E+02 0.  0.
         13    1    3    3    0    0 -0.22160671009E+02  0.65867826366E+02 -0.13042604758E+02  0.70709090141E+02  0.00000000000E+00 0. -1.
        -13    1    3    3    0    0 -0.21343755251E+03  0.22494002751E+03 -0.16305164261E+03  0.35034189438E+03  0.00000000000E+00 0.  1.
          4    1    6    6  502    0  0.62121082370E+02 -0.29456553656E+02  0.40437303037E+02  0.79761475068E+02  0.00000000000E+00 0. -1.
          1    1    5    5  503    0 -0.51614897720E+02  0.85737647049E+02  0.29818430410E+03  0.31452968222E+03  0.00000000000E+00 0. -1.
         -2    1    5    5    0  503 -0.10224533241E+03  0.34184510288E+02  0.44280784430E+03  0.45574277363E+03  0.00000000000E+00 0.  1.
         -3    1    6    6    0  502  0.32733737128E+03 -0.38127345756E+03  0.23396533643E+03  0.55430946476E+03  0.00000000000E+00 0.  1.
<mgrwt>
<rscale>  0 0.16209995E+04</rscale>
<asrwt>0</asrwt>
<pdfrwt beam="1">  1        1 0.20497653E+00 0.16209995E+04</pdfrwt>
<pdfrwt beam="2">  1       -1 0.75853373E-01 0.16209995E+04</pdfrwt>
<totfact> 0.14345307E+01</totfact>
</mgrwt>
</event>
<event>
12    1  0.1506149E-007  0.1294994E+04  0.7818608E-02  0.9033544E-01
          2   -1    0    0  501    0  0.00000000000E+00  0.00000000000E+00  0.10217084720E+04  0.10217084720E+04  0.00000000000E+00 0. -1.
         -2   -1    0    0    0  501 -0.00000000000E+00 -0.00000000000E+00 -0.41034459922E+03  0.41034459922E+03  0.00000000000E+00 0.  1.
         23    2    1    2    0    0  0.20457435808E+03 -0.18026076524E+03 -0.32418592777E+02  0.28757377725E+03  0.85458181221E+02 0.  0.
        254    2    1    2    0    0 -0.20457435808E+03  0.18026076524E+03  0.64378246554E+03  0.11444792939E+04  0.90610837093E+03 0.  0.
        -24    2    4    4    0    0 -0.45143994061E+03 -0.71220156040E+02  0.63072469678E+03  0.78298412738E+03  0.79875966299E+02 0.  0.
         24    2    4    4    0    0  0.24686558254E+03  0.25148092128E+03  0.13057768752E+02  0.36149516657E+03  0.79517171198E+02 0.  0.
         13    1    3    3    0    0  0.12257361883E+03 -0.10371559112E+03 -0.61087172839E+02  0.17179306901E+03  0.00000000000E+00 0.  1.
        -13    1    3    3    0    0  0.82000739250E+02 -0.76545174126E+02  0.28668580062E+02  0.11578070825E+03  0.00000000000E+00 0. -1.
          4    1    6    6  502    0  0.21421450949E+03  0.18161289724E+03  0.30301553992E+02  0.28246997131E+03  0.00000000000E+00 0. -1.
          3    1    5    5  503    0 -0.41631890920E+03 -0.43234499316E+02  0.57969398507E+03  0.71500753312E+03  0.00000000000E+00 0. -1.
         -4    1    5    5    0  503 -0.35121031411E+02 -0.27985656724E+02  0.51030711714E+02  0.67976594263E+02  0.00000000000E+00 0.  1.
         -3    1    6    6    0  502  0.32651073042E+02  0.69868024047E+02 -0.17243785240E+02  0.79025195251E+02  0.00000000000E+00 0.  1.
<mgrwt>
<rscale>  0 0.12949943E+04</rscale>
<asrwt>0</asrwt>
<pdfrwt beam="1">  1        2 0.15718592E+00 0.12949943E+04</pdfrwt>
<pdfrwt beam="2">  1       -2 0.63129939E-01 0.12949943E+04</pdfrwt>
<totfact> 0.55604091E+01</totfact>
</mgrwt>
</event>
<event>
12    1  0.1506149E-007  0.1590326E+04  0.7818608E-02  0.8826513E-01
         -2   -1    0    0    0  501 -0.00000000000E+00  0.00000000000E+00  0.18281782466E+03  0.18281782466E+03  0.00000000000E+00 0.  1.
          2   -1    0    0  501    0  0.00000000000E+00 -0.00000000000E+00 -0.34585478583E+04  0.34585478583E+04  0.00000000000E+00 0. -1.
         23    2    1    2    0    0  0.35340004193E+03 -0.40023330543E+03 -0.11522775423E+04  0.12733542469E+04  0.92785856634E+02 0.  0.
        254    2    1    2    0    0 -0.35340004193E+03  0.40023330543E+03 -0.21234524913E+04  0.23680114361E+04  0.90185885257E+03 0.  0.
        -24    2    4    4    0    0  0.12337055918E+03  0.20544607473E+03 -0.16329733822E+04  0.16524689452E+04  0.81382820232E+02 0.  0.
         24    2    4    4    0    0 -0.47677060111E+03  0.19478723070E+03 -0.49047910915E+03  0.71554249086E+03  0.78606796073E+02 0.  0.
         11    1    3    3    0    0  0.13376087135E+03 -0.12623454580E+03 -0.49651959145E+03  0.52948922175E+03  0.00000000000E+00 0. -1.
        -11    1    3    3    0    0  0.21963917058E+03 -0.27399875963E+03 -0.65575795087E+03  0.74386502516E+03  0.00000000000E+00 0.  1.
          4    1    6    6  502    0 -0.32269416523E+03  0.14386409326E+03 -0.28640335369E+03  0.45481345913E+03  0.00000000000E+00 0. -1.
          3    1    5    5  503    0  0.12506818393E+03  0.19242654920E+03 -0.16076079631E+04  0.16239068294E+04  0.00000000000E+00 0. -1.
         -4    1    5    5    0  503 -0.16976247419E+01  0.13019525525E+02 -0.25365419027E+02  0.28562115767E+02  0.00000000000E+00 0.  1.
         -3    1    6    6    0  502 -0.15407643589E+03  0.50923137443E+02 -0.20407575546E+03  0.26072903174E+03  0.00000000000E+00 0.  1.
<mgrwt>
<rscale>  0 0.15903260E+04</rscale>
<asrwt>0</asrwt>
<pdfrwt beam="1">  1        2 0.53208423E+00 0.15903260E+04</pdfrwt>
<pdfrwt beam="2">  1       -2 0.28125822E-01 0.15903260E+04</pdfrwt>
<totfact> 0.97513275E+00</totfact>
</mgrwt>
</event>
<event>
12    1  0.1506149E-007  0.1217762E+04  0.7818608E-02  0.9097450E-01
         -2   -1    0    0    0  501 -0.00000000000E+00  0.00000000000E+00  0.23798757488E+03  0.23798757488E+03  0.00000000000E+00 0.  1.
          2   -1    0    0  501    0  0.00000000000E+00 -0.00000000000E+00 -0.15577964352E+04  0.15577964352E+04  0.00000000000E+00 0. -1.
         23    2    1    2    0    0  0.17256992813E+03  0.12707278936E+03 -0.17636252525E+03  0.29330309571E+03  0.94842457536E+02 0.  0.
        254    2    1    2    0    0 -0.17256992813E+03 -0.12707278936E+03 -0.11434463351E+04  0.15024809144E+04  0.95081622986E+03 0.  0.
        -24    2    4    4    0    0 -0.20547644647E+03  0.33519152675E+03 -0.19930043762E+03  0.44790945246E+03  0.79550509154E+02 0.  0.
         24    2    4    4    0    0  0.32906518334E+02 -0.46226431611E+03 -0.94414589743E+03  0.10545714619E+04  0.77060727407E+02 0.  0.
         11    1    3    3    0    0  0.17827067752E+03  0.97347560511E+02 -0.16195776365E+03  0.25978317730E+03  0.00000000000E+00 0.  1.
        -11    1    3    3    0    0 -0.57007493925E+01  0.29725228845E+02 -0.14404761605E+02  0.33519918413E+02  0.00000000000E+00 0. -1.
          4    1    6    6  502    0 -0.10903978322E+02 -0.93990641672E+01 -0.37509602273E+02  0.40177225055E+02  0.00000000000E+00 0. -1.
          3    1    5    5  503    0 -0.16687652015E+03  0.20071868138E+03 -0.13637785290E+03  0.29450752247E+03  0.00000000000E+00 0. -1.
         -4    1    5    5    0  503 -0.38599926311E+02  0.13447284538E+03 -0.62922584721E+02  0.15340192998E+03  0.00000000000E+00 0.  1.
         -3    1    6    6    0  502  0.43810496656E+02 -0.45286525194E+03 -0.90663629516E+03  0.10143942368E+04  0.00000000000E+00 0.  1.
<mgrwt>
<rscale>  0 0.12177622E+04</rscale>
<asrwt>0</asrwt>
<pdfrwt beam="1">  1        2 0.23966099E+00 0.12177622E+04</pdfrwt>
<pdfrwt beam="2">  1       -2 0.36613474E-01 0.12177622E+04</pdfrwt>
<totfact> 0.81499760E+01</totfact>
</mgrwt>
</event>
<event>
12    1  0.1506149E-007  0.1394688E+04  0.7818608E-02  0.8957673E-01
          1   -1    0    0  501    0  0.00000000000E+00  0.00000000000E+00  0.22696824803E+04  0.22696824803E+04  0.00000000000E+00 0. -1.
         -1   -1    0    0    0  501 -0.00000000000E+00 -0.00000000000E+00 -0.21425402578E+03  0.21425402578E+03  0.00000000000E+00 0.  1.
         23    2    1    2    0    0  0.39730759102E+03  0.22441054102E+01  0.57654080064E+03  0.70624419984E+03  0.92321271163E+02 0.  0.
        254    2    1    2    0    0 -0.39730759102E+03 -0.22441054102E+01  0.14788876539E+04  0.17776923063E+04  0.90289694042E+03 0.  0.
        -24    2    4    4    0    0 -0.28923308418E+03 -0.52327710655E+02  0.15759367454E+04  0.16052526920E+04  0.82858997141E+02 0.  0.
         24    2    4    4    0    0 -0.10807450684E+03  0.50083605245E+02 -0.97049091447E+02  0.17243961431E+03  0.78284276141E+02 0.  0.
         13    1    3    3    0    0  0.61155920110E+02  0.29590353865E+02  0.12964740563E+03  0.14636968741E+03  0.00000000000E+00 0.  1.
        -13    1    3    3    0    0  0.33615167091E+03 -0.27346248454E+02  0.44689339502E+03  0.55987451243E+03  0.00000000000E+00 0. -1.
          2    1    6    6  502    0 -0.11075834570E+02  0.41478233861E+02 -0.44305636316E+02  0.61693657737E+02  0.00000000000E+00 0. -1.
          1    1    5    5  503    0 -0.14280741059E+03 -0.42317158973E+02  0.59301963612E+03  0.61143845749E+03  0.00000000000E+00 0. -1.
         -2    1    5    5    0  503 -0.14642567359E+03 -0.10010551682E+02  0.98291710923E+03  0.99381423447E+03  0.00000000000E+00 0.  1.
         -1    1    6    6    0  502 -0.96998672270E+02  0.86053713838E+01 -0.52743455131E+02  0.11074595658E+03  0.00000000000E+00 0.  1.
<mgrwt>
<rscale>  0 0.13946879E+04</rscale>
<asrwt>0</asrwt>
<pdfrwt beam="1">  1        1 0.34918190E+00 0.13946879E+04</pdfrwt>
<pdfrwt beam="2">  1       -1 0.32962159E-01 0.13946879E+04</pdfrwt>
<totfact> 0.16486081E+01</totfact>
</mgrwt>
</event>
<event>
12    1  0.1506149E-007  0.2184940E+04  0.7818608E-02  0.8524722E-01
         -2   -1    0    0    0  501 -0.00000000000E+00  0.00000000000E+00  0.54560300748E+03  0.54560300748E+03  0.00000000000E+00 0.  1.
          2   -1    0    0  501    0  0.00000000000E+00 -0.00000000000E+00 -0.21874717047E+04  0.21874717047E+04  0.00000000000E+00 0. -1.
         23    2    1    2    0    0 -0.88832147838E+03 -0.42908667590E+02 -0.47775158956E+03  0.10136517937E+04  0.91033921480E+02 0.  0.
        254    2    1    2    0    0  0.88832147838E+03  0.42908667590E+02 -0.11641171077E+04  0.17194229185E+04  0.90016127972E+03 0.  0.
        -24    2    4    4    0    0  0.28096430662E+03 -0.10321967935E+03  0.84396939278E+02  0.32115903320E+03  0.80156331292E+02 0.  0.
         24    2    4    4    0    0  0.60735717176E+03  0.14612834694E+03 -0.12485140469E+04  0.13982638853E+04  0.78219815821E+02 0.  0.
         11    1    3    3    0    0 -0.82797607979E+02 -0.21773759836E+02 -0.24158027005E+02  0.88955892290E+02  0.00000000000E+00 0. -1.
        -11    1    3    3    0    0 -0.80552387040E+03 -0.21134907754E+02 -0.45359356256E+03  0.92469590142E+03  0.00000000000E+00 0.  1.
          4    1    6    6  502    0  0.10894260096E+03  0.54910952075E+02 -0.27251075450E+03  0.29857296307E+03  0.00000000000E+00 0. -1.
          1    1    5    5  503    0  0.14826511931E+02  0.41685451693E+01  0.22996141593E+02  0.27677152184E+02  0.00000000000E+00 0. -1.
         -2    1    5    5    0  503  0.26613779469E+03 -0.10738822452E+03  0.61400797685E+02  0.29348188101E+03  0.00000000000E+00 0.  1.
         -3    1    6    6    0  502  0.49841457080E+03  0.91217394864E+02 -0.97600329245E+03  0.10996909222E+04  0.00000000000E+00 0.  1.
<mgrwt>
<rscale>  0 0.21849404E+04</rscale>
<asrwt>0</asrwt>
<pdfrwt beam="1">  1        2 0.33653411E+00 0.21849404E+04</pdfrwt>
<pdfrwt beam="2">  1       -2 0.83938924E-01 0.21849404E+04</pdfrwt>
<totfact> 0.59545328E+00</totfact>
</mgrwt>
</event>
<event>
12    1  0.1506149E-007  0.2161087E+04  0.7818608E-02  0.8534801E-01
          4   -1    0    0  501    0  0.00000000000E+00  0.00000000000E+00  0.25013240203E+04  0.25013240203E+04  0.00000000000E+00 0. -1.
         -4   -1    0    0    0  501 -0.00000000000E+00 -0.00000000000E+00 -0.46678252635E+03  0.46678252635E+03  0.00000000000E+00 0.  1.
         23    2    1    2    0    0  0.37182603173E+03  0.59910898317E+02 -0.26023914931E+03  0.46719521301E+03  0.93290077810E+02 0.  0.
        254    2    1    2    0    0 -0.37182603173E+03 -0.59910898317E+02  0.22947806433E+04  0.25009113336E+04  0.92016052102E+03 0.  0.
        -24    2    4    4    0    0 -0.56073184340E+02  0.37908525120E+02 -0.60919897681E+02  0.12077067455E+03  0.79328832209E+02 0.  0.
         24    2    4    4    0    0 -0.31575284739E+03 -0.97819423436E+02  0.23557005410E+04  0.23801406591E+04  0.80473711358E+02 0.  0.
         11    1    3    3    0    0  0.31840895969E+03  0.15985364950E+02 -0.21626273573E+03  0.38523936503E+03  0.00000000000E+00 0.  1.
        -11    1    3    3    0    0  0.53417072037E+02  0.43925533366E+02 -0.43976413575E+02  0.81955847976E+02  0.00000000000E+00 0. -1.
          4    1    6    6  502    0 -0.19800743399E+03 -0.86033999893E+02  0.17226194493E+04  0.17360952048E+04  0.00000000000E+00 0. -1.
          1    1    5    5  503    0 -0.55750099875E+02  0.60135712478E+02 -0.49415313438E+02  0.95740538715E+02  0.00000000000E+00 0. -1.
         -4    1    5    5    0  503 -0.32308446468E+00 -0.22227187358E+02 -0.11504584243E+02  0.25030135837E+02  0.00000000000E+00 0.  1.
         -3    1    6    6    0  502 -0.11774541340E+03 -0.11785423544E+02  0.63308109163E+03  0.64404545427E+03  0.00000000000E+00 0.  1.
<mgrwt>
<rscale>  0 0.21610871E+04</rscale>
<asrwt>0</asrwt>
<pdfrwt beam="1">  1        4 0.38481907E+00 0.21610871E+04</pdfrwt>
<pdfrwt beam="2">  1       -4 0.71812698E-01 0.21610871E+04</pdfrwt>
<totfact> 0.28226370E-02</totfact>
</mgrwt>
</event>
<event>
12    1  0.1506149E-007  0.2712757E+04  0.7818608E-02  0.8330878E-01
          2   -1    0    0  501    0  0.00000000000E+00  0.00000000000E+00  0.36904133771E+04  0.36904133771E+04  0.00000000000E+00 0. -1.
         -2   -1    0    0    0  501 -0.00000000000E+00 -0.00000000000E+00 -0.49852464547E+03  0.49852464547E+03  0.00000000000E+00 0.  1.
         23    2    1    2    0    0  0.93706183128E+03 -0.33520054293E+03  0.37268217472E+03  0.10666110758E+04  0.91229951993E+02 0.  0.
        254    2    1    2    0    0 -0.93706183128E+03  0.33520054293E+03  0.28192065569E+04  0.31223269467E+04  0.90030865376E+03 0.  0.
        -24    2    4    4    0    0 -0.42888972417E+03  0.60176035309E+03  0.18340601867E+04  0.19793765959E+04  0.89961224329E+02 0.  0.
         24    2    4    4    0    0 -0.50817210711E+03 -0.26655981017E+03  0.98514637021E+03  0.11429503508E+04  0.80802913720E+02 0.  0.
         13    1    3    3    0    0  0.10269060946E+03 -0.52316272350E+02  0.71028205626E+02  0.13537857887E+03  0.00000000000E+00 0. -1.
        -13    1    3    3    0    0  0.83437122182E+03 -0.28288427058E+03  0.30165396909E+03  0.93123249697E+03  0.00000000000E+00 0.  1.
          2    1    6    6  502    0 -0.39017594580E+03 -0.19630438451E+03  0.67810276603E+03  0.80659533929E+03  0.00000000000E+00 0. -1.
          3    1    5    5  503    0 -0.42214912024E+03  0.58189610121E+03  0.18095119491E+04  0.19470866560E+04  0.00000000000E+00 0. -1.
         -4    1    5    5    0  503 -0.67406039377E+01  0.19864251888E+02  0.24548237592E+02  0.32289939817E+02  0.00000000000E+00 0.  1.
         -1    1    6    6    0  502 -0.11799616131E+03 -0.70255425659E+02  0.30704360418E+03  0.33635501154E+03  0.00000000000E+00 0.  1.
<mgrwt>
<rscale>  0 0.27127565E+04</rscale>
<asrwt>0</asrwt>
<pdfrwt beam="1">  1        2 0.56775589E+00 0.27127565E+04</pdfrwt>
<pdfrwt beam="2">  1       -2 0.76696102E-01 0.27127565E+04</pdfrwt>
<totfact> 0.79037729E-01</totfact>
</mgrwt>
</event>
<event>
12    1  0.1506149E-007  0.1836063E+04  0.7818608E-02  0.8687353E-01
          2   -1    0    0  501    0  0.00000000000E+00  0.00000000000E+00  0.91001380091E+03  0.91001380091E+03  0.00000000000E+00 0. -1.
         -2   -1    0    0    0  501 -0.00000000000E+00 -0.00000000000E+00 -0.92611974013E+03  0.92611974013E+03  0.00000000000E+00 0.  1.
         23    2    1    2    0    0 -0.21329151059E+02  0.18114850611E+03  0.66296827059E+03  0.69375874238E+03  0.92220121828E+02 0.  0.
        254    2    1    2    0    0  0.21329151059E+02 -0.18114850611E+03 -0.67907420981E+03  0.11423747987E+04  0.90033809441E+03 0.  0.
        -24    2    4    4    0    0 -0.23872526621E+03 -0.40683705376E+02 -0.77947585879E+03  0.82016858676E+03  0.80305539421E+02 0.  0.
         24    2    4    4    0    0  0.26005441727E+03 -0.14046480073E+03  0.10040164898E+03  0.32220621191E+03  0.79860451347E+02 0.  0.
         13    1    3    3    0    0 -0.44604498183E+02  0.83860114893E+02  0.21988262613E+03  0.23952129217E+03  0.00000000000E+00 0.  1.
        -13    1    3    3    0    0  0.23275347125E+02  0.97288391217E+02  0.44308564446E+03  0.45423745021E+03  0.00000000000E+00 0. -1.
          4    1    6    6  502    0  0.42058785295E+02  0.13727694203E+01  0.33163233900E+02  0.53578223179E+02  0.00000000000E+00 0. -1.
          1    1    5    5  503    0 -0.39908591087E+02  0.24425554703E+01 -0.57203760128E+02  0.69792061816E+02  0.00000000000E+00 0. -1.
         -2    1    5    5    0  503 -0.19881667512E+03 -0.43126260846E+02 -0.72227209866E+03  0.75037652494E+03  0.00000000000E+00 0.  1.
         -3    1    6    6    0  502  0.21799563197E+03 -0.14183757015E+03  0.67238415079E+02  0.26862798873E+03  0.00000000000E+00 0.  1.
<mgrwt>
<rscale>  0 0.18360629E+04</rscale>
<asrwt>0</asrwt>
<pdfrwt beam="1">  1        2 0.14000212E+00 0.18360629E+04</pdfrwt>
<pdfrwt beam="2">  1       -2 0.14247996E+00 0.18360629E+04</pdfrwt>
<totfact> 0.93218158E+00</totfact>
</mgrwt>
</event>
<event>
12    1  0.1506149E-007  0.1364517E+04  0.7818608E-02  0.8979911E-01
          1   -1    0    0  501    0  0.00000000000E+00  0.00000000000E+00  0.24582313987E+04  0.24582313987E+04  0.00000000000E+00 0. -1.
         -1   -1    0    0    0  501 -0.00000000000E+00 -0.00000000000E+00 -0.18935433683E+03  0.18935433683E+03  0.00000000000E+00 0.  1.
         23    2    1    2    0    0 -0.13547539589E+03 -0.28177592962E+03  0.12188585698E+04  0.12617010204E+04  0.92314649028E+02 0.  0.
        254    2    1    2    0    0  0.13547539589E+03  0.28177592962E+03  0.10500184921E+04  0.13858847151E+04  0.84875576722E+03 0.  0.
        -24    2    4    4    0    0 -0.30472017025E+03 -0.72985744905E+02  0.48259964491E+03  0.58091739380E+03  0.79883039733E+02 0.  0.
         24    2    4    4    0    0  0.44019556614E+03  0.35476167453E+03  0.56741884718E+03  0.80496732129E+03  0.79876517485E+02 0.  0.
         11    1    3    3    0    0 -0.42908330163E+02 -0.18523805633E+03  0.78469204251E+03  0.80740068360E+03  0.00000000000E+00 0. -1.
        -11    1    3    3    0    0 -0.92567065727E+02 -0.96537873289E+02  0.43416652727E+03  0.45430033682E+03  0.00000000000E+00 0.  1.
          4    1    6    6  502    0  0.18036569669E+03  0.17529169014E+03  0.29725910502E+03  0.38938661596E+03  0.00000000000E+00 0. -1.
          1    1    5    5  503    0 -0.25829205748E+03 -0.90404739956E+02  0.41407334378E+03  0.49633107699E+03  0.00000000000E+00 0. -1.
         -2    1    5    5    0  503 -0.46428112773E+02  0.17418995051E+02  0.68526301131E+02  0.84586316807E+02  0.00000000000E+00 0.  1.
         -3    1    6    6    0  502  0.25982986945E+03  0.17946998439E+03  0.27015974216E+03  0.41558070533E+03  0.00000000000E+00 0.  1.
<mgrwt>
<rscale>  0 0.13645172E+04</rscale>
<asrwt>0</asrwt>
<pdfrwt beam="1">  1        1 0.37818942E+00 0.13645172E+04</pdfrwt>
<pdfrwt beam="2">  1       -1 0.29131438E-01 0.13645172E+04</pdfrwt>
<totfact> 0.15266626E+01</totfact>
</mgrwt>
</event>
<event>
12    1  0.1506149E-007  0.1225700E+04  0.7818608E-02  0.9090654E-01
          2   -1    0    0  501    0  0.00000000000E+00  0.00000000000E+00  0.16693351713E+04  0.16693351713E+04  0.00000000000E+00 0. -1.
         -2   -1    0    0    0  501 -0.00000000000E+00 -0.00000000000E+00 -0.22499070633E+03  0.22499070633E+03  0.00000000000E+00 0.  1.
         23    2    1    2    0    0  0.16905793319E+03  0.14439807770E+03  0.56934129353E+03  0.61823587494E+03  0.92923080680E+02 0.  0.
        254    2    1    2    0    0 -0.16905793319E+03 -0.14439807770E+03  0.87500317148E+03  0.12760900027E+04  0.90185572869E+03 0.  0.
        -24    2    4    4    0    0  0.64361262968E+02  0.31589282613E+03  0.10972616988E+03  0.34972780106E+03  0.79618168176E+02 0.  0.
         24    2    4    4    0    0 -0.23341919616E+03 -0.46029090383E+03  0.76527700160E+03  0.92636220167E+03  0.78395167163E+02 0.  0.
         11    1    3    3    0    0  0.77277363208E+01  0.23878797366E+02  0.16956585586E+02  0.30289283039E+02  0.00000000000E+00 0.  1.
        -11    1    3    3    0    0  0.16133019687E+03  0.12051928033E+03  0.55238470795E+03  0.58794659190E+03  0.00000000000E+00 0. -1.
          2    1    6    6  502    0 -0.13862261387E+03 -0.33766076681E+03  0.49883944165E+03  0.61811957667E+03  0.00000000000E+00 0. -1.
          3    1    5    5  503    0  0.36168082377E+02  0.28612510287E+03  0.11016314117E+03  0.30872580448E+03  0.00000000000E+00 0. -1.
         -4    1    5    5    0  503  0.28193180591E+02  0.29767723259E+02 -0.43697128809E+00  0.41001996583E+02  0.00000000000E+00 0.  1.
         -1    1    6    6    0  502 -0.94796582283E+02 -0.12263013703E+03  0.26643755995E+03  0.30824262500E+03  0.00000000000E+00 0.  1.
<mgrwt>
<rscale>  0 0.12256996E+04</rscale>
<asrwt>0</asrwt>
<pdfrwt beam="1">  1        2 0.25682079E+00 0.12256996E+04</pdfrwt>
<pdfrwt beam="2">  1       -2 0.34613956E-01 0.12256996E+04</pdfrwt>
<totfact> 0.78610133E+01</totfact>
</mgrwt>
</event>
<event>
12    1  0.1506149E-007  0.1845847E+04  0.7818608E-02  0.8682291E-01
          3   -1    0    0  501    0  0.00000000000E+00  0.00000000000E+00  0.10628668762E+04  0.10628668762E+04  0.00000000000E+00 0. -1.
         -3   -1    0    0    0  501 -0.00000000000E+00 -0.00000000000E+00 -0.80140602703E+03  0.80140602703E+03  0.00000000000E+00 0.  1.
         23    2    1    2    0    0  0.11661000165E+02  0.39350501550E+03  0.68637790288E+03  0.79658509635E+03  0.91929396906E+02 0.  0.
        254    2    1    2    0    0 -0.11661000165E+02 -0.39350501550E+03 -0.42491705367E+03  0.10676878069E+04  0.89689496286E+03 0.  0.
        -24    2    4    4    0    0 -0.99106713694E+02  0.12319789446E+03  0.18710533804E+03  0.25789978952E+03  0.80647579078E+02 0.  0.
         24    2    4    4    0    0  0.87445713529E+02 -0.51670290996E+03 -0.61202239171E+03  0.80978801740E+03  0.80972681853E+02 0.  0.
         13    1    3    3    0    0  0.17253170981E+02  0.37082197465E+03  0.67556865787E+03  0.77084344733E+03  0.00000000000E+00 0. -1.
        -13    1    3    3    0    0 -0.55921708160E+01  0.22683040847E+02  0.10809245007E+02  0.25741649017E+02  0.00000000000E+00 0.  1.
          4    1    6    6  502    0  0.45559326252E+02 -0.26395733274E+03 -0.37446371579E+03  0.46040438764E+03  0.00000000000E+00 0. -1.
          1    1    5    5  503    0 -0.11269106903E+03  0.10319625509E+03  0.15440839433E+03  0.21723419700E+03  0.00000000000E+00 0. -1.
         -2    1    5    5    0  503  0.13584355336E+02  0.20001639368E+02  0.32696943707E+02  0.40665592521E+02  0.00000000000E+00 0.  1.
         -3    1    6    6    0  502  0.41886387276E+02 -0.25274557722E+03 -0.23755867592E+03  0.34938362976E+03  0.00000000000E+00 0.  1.
<mgrwt>
<rscale>  0 0.18458471E+04</rscale>
<asrwt>0</asrwt>
<pdfrwt beam="1">  1        3 0.16351798E+00 0.18458471E+04</pdfrwt>
<pdfrwt beam="2">  1       -3 0.12329324E+00 0.18458471E+04</pdfrwt>
<totfact> 0.33557914E-01</totfact>
</mgrwt>
</event>
<event>
12    1  0.1506149E-007  0.1653862E+04  0.7818608E-02  0.8788125E-01
         -2   -1    0    0    0  501 -0.00000000000E+00  0.00000000000E+00  0.37683396805E+03  0.37683396805E+03  0.00000000000E+00 0. -1.
          2   -1    0    0  501    0  0.00000000000E+00 -0.00000000000E+00 -0.18146323315E+04  0.18146323315E+04  0.00000000000E+00 0.  1.
         23    2    1    2    0    0 -0.79874085710E+02 -0.57228673920E+03 -0.56432493115E+03  0.81109284419E+03  0.74276460136E+02 0.  0.
        254    2    1    2    0    0  0.79874085710E+02  0.57228673920E+03 -0.87347343232E+03  0.13803734554E+04  0.89921246540E+03 0.  0.
        -24    2    4    4    0    0  0.87376903649E+02  0.33257143025E+03  0.10661831509E+03  0.36854522688E+03  0.78864691917E+02 0.  0.
         24    2    4    4    0    0 -0.75028179381E+01  0.23971530895E+03 -0.98009174741E+03  0.10118282285E+04  0.75477208807E+02 0.  0.
         13    1    3    3    0    0 -0.74443315197E+02 -0.41980015119E+03 -0.37388450399E+03  0.56706577788E+03  0.00000000000E+00 0. -1.
        -13    1    3    3    0    0 -0.54307705130E+01 -0.15248658802E+03 -0.19044042716E+03  0.24402706631E+03  0.00000000000E+00 0.  1.
          2    1    6    6  502    0 -0.13893860161E+02  0.10979668784E+03 -0.59928992386E+03  0.60942330515E+03  0.00000000000E+00 0. -1.
          1    1    5    5  503    0  0.66692929150E+02  0.22265166453E+03  0.33279040019E+02  0.23479609243E+03  0.00000000000E+00 0. -1.
         -2    1    5    5    0  503  0.20683974499E+02  0.10991976572E+03  0.73339275070E+02  0.13374913445E+03  0.00000000000E+00 0.  1.
         -1    1    6    6    0  502  0.63910422231E+01  0.12991862112E+03 -0.38080182355E+03  0.40240492337E+03  0.00000000000E+00 0.  1.
<mgrwt>
<rscale>  0 0.16538623E+04</rscale>
<asrwt>0</asrwt>
<pdfrwt beam="1">  1        2 0.27917420E+00 0.16538623E+04</pdfrwt>
<pdfrwt beam="2">  1       -2 0.57974457E-01 0.16538623E+04</pdfrwt>
<totfact> 0.22518822E+01</totfact>
</mgrwt>
</event>
<event>
12    1  0.1506149E-007  0.1144325E+04  0.7818608E-02  0.9163035E-01
          1   -1    0    0  501    0  0.00000000000E+00  0.00000000000E+00  0.18766156960E+03  0.18766156960E+03  0.00000000000E+00 0. -1.
         -1   -1    0    0    0  501 -0.00000000000E+00 -0.00000000000E+00 -0.17444699469E+04  0.17444699469E+04  0.00000000000E+00 0.  1.
         23    2    1    2    0    0  0.48735173346E+02  0.14089319465E+03 -0.58700057337E+02  0.18421438639E+03  0.90902332227E+02 0.  0.
        254    2    1    2    0    0 -0.48735173346E+02 -0.14089319465E+03 -0.14981083200E+04  0.17479171301E+04  0.88806516989E+03 0.  0.
        -24    2    4    4    0    0 -0.39318396296E+03 -0.42474685253E+02 -0.32276469276E+03  0.51665642034E+03  0.79743853541E+02 0.  0.
         24    2    4    4    0    0  0.34444878961E+03 -0.98418509392E+02 -0.11753436272E+04  0.12312607098E+04  0.78988111382E+02 0.  0.
         11    1    3    3    0    0  0.14634813540E+02  0.39774206477E+02  0.24451786374E+02  0.48929082610E+02  0.00000000000E+00 0.  1.
        -11    1    3    3    0    0  0.34100359806E+02  0.10111898817E+03 -0.83151843711E+02  0.13528530378E+03  0.00000000000E+00 0. -1.
          2    1    6    6  502    0  0.14001436759E+03 -0.79830928500E+02 -0.54514810161E+03  0.56847467223E+03  0.00000000000E+00 0. -1.
          3    1    5    5  503    0 -0.24298521261E+03 -0.11850499556E+02 -0.15049679438E+03  0.28606211389E+03  0.00000000000E+00 0. -1.
         -4    1    5    5    0  503 -0.15019875035E+03 -0.30624185697E+02 -0.17226789838E+03  0.23059430645E+03  0.00000000000E+00 0.  1.
         -1    1    6    6    0  502  0.20443442202E+03 -0.18587580891E+02 -0.63019552561E+03  0.66278603755E+03  0.00000000000E+00 0.  1.
<mgrwt>
<rscale>  0 0.11443251E+04</rscale>
<asrwt>0</asrwt>
<pdfrwt beam="1">  1        1 0.28871011E-01 0.11443251E+04</pdfrwt>
<pdfrwt beam="2">  1       -1 0.26837999E+00 0.11443251E+04</pdfrwt>
<totfact> 0.85445327E+00</totfact>
</mgrwt>
</event>
<event>
12    1  0.1506149E-007  0.3015446E+04  0.7818608E-02  0.8239334E-01
          1   -1    0    0  501    0  0.00000000000E+00  0.00000000000E+00  0.30824101611E+04  0.30824101611E+04  0.00000000000E+00 0. -1.
         -1   -1    0    0    0  501 -0.00000000000E+00 -0.00000000000E+00 -0.73748437067E+03  0.73748437067E+03  0.00000000000E+00 0.  1.
         23    2    1    2    0    0 -0.12182808979E+04 -0.45368875044E+03  0.50934507316E+03  0.13991865955E+04  0.90823439787E+02 0.  0.
        254    2    1    2    0    0  0.12182808979E+04  0.45368875044E+03  0.18355807173E+04  0.24207079363E+04  0.89466670585E+03 0.  0.
        -24    2    4    4    0    0  0.79247173414E+03  0.41831710788E+03  0.17638126822E+04  0.19800068059E+04  0.79944489919E+02 0.  0.
         24    2    4    4    0    0  0.42580916372E+03  0.35371642564E+02  0.71768035138E+02  0.44070113036E+03  0.80636458439E+02 0.  0.
         13    1    3    3    0    0 -0.45358360247E+03 -0.21604001925E+03  0.19831252290E+03  0.54012890229E+03  0.00000000000E+00 0. -1.
        -13    1    3    3    0    0 -0.76469729539E+03 -0.23764873120E+03  0.31103255026E+03  0.85905769325E+03  0.00000000000E+00 0.  1.
          4    1    6    6  502    0  0.15136459943E+03  0.31028873775E+02  0.60674011240E+02  0.16599809820E+03  0.00000000000E+00 0. -1.
          3    1    5    5  503    0  0.23564673892E+03  0.15990056743E+03  0.60350101703E+03  0.66731630774E+03  0.00000000000E+00 0. -1.
         -4    1    5    5    0  503  0.55682499522E+03  0.25841654044E+03  0.11603116651E+04  0.13126904981E+04  0.00000000000E+00 0.  1.
         -3    1    6    6    0  502  0.27444456430E+03  0.43427687893E+01  0.11094023898E+02  0.27470303216E+03  0.00000000000E+00 0.  1.
<mgrwt>
<rscale>  0 0.30154464E+04</rscale>
<asrwt>0</asrwt>
<pdfrwt beam="1">  1        1 0.47421694E+00 0.30154464E+04</pdfrwt>
<pdfrwt beam="2">  1       -1 0.11345914E+00 0.30154464E+04</pdfrwt>
<totfact> 0.31308328E-01</totfact>
</mgrwt>
</event>
<event>
12    1  0.1506149E-007  0.1263744E+04  0.7818608E-02  0.9058821E-01
         -1   -1    0    0    0  501 -0.00000000000E+00  0.00000000000E+00  0.31864153655E+03  0.31864153655E+03  0.00000000000E+00 0.  1.
          1   -1    0    0  501    0  0.00000000000E+00 -0.00000000000E+00 -0.12530143385E+04  0.12530143385E+04  0.00000000000E+00 0. -1.
         23    2    1    2    0    0 -0.66050931750E+02  0.91278713513E+02 -0.57392253016E+03  0.59195666876E+03  0.91274848332E+02 0.  0.
        254    2    1    2    0    0  0.66050931750E+02 -0.91278713513E+02 -0.36045027176E+03  0.97969920625E+03  0.90398650830E+03 0.  0.
        -24    2    4    4    0    0  0.35019845022E+03 -0.33257767983E+03 -0.56022646524E+02  0.49273438789E+03  0.80011076876E+02 0.  0.
         24    2    4    4    0    0 -0.28414751847E+03  0.24129896632E+03 -0.30442762523E+03  0.48696481836E+03  0.74118499142E+02 0.  0.
         11    1    3    3    0    0  0.22121783524E+02  0.28307365358E+02 -0.16997092624E+03  0.17372620990E+03  0.00000000000E+00 0.  1.
        -11    1    3    3    0    0 -0.88172715274E+02  0.62971348155E+02 -0.40395160392E+03  0.41823045885E+03  0.00000000000E+00 0. -1.
          4    1    6    6  502    0 -0.28533692726E+03  0.24007787162E+03 -0.30757812940E+03  0.48338271813E+03  0.00000000000E+00 0. -1.
          3    1    5    5  503    0  0.33243171671E+03 -0.33027179820E+03 -0.42975160502E+02  0.47057111193E+03  0.00000000000E+00 0. -1.
         -4    1    5    5    0  503  0.17766733513E+02 -0.23058816339E+01 -0.13047486023E+02  0.22163275961E+02  0.00000000000E+00 0.  1.
         -3    1    6    6    0  502  0.11894087900E+01  0.12210947007E+01  0.31505041693E+01  0.35821002301E+01  0.00000000000E+00 0.  1.
<mgrwt>
<rscale>  0 0.12637443E+04</rscale>
<asrwt>0</asrwt>
<pdfrwt beam="1">  1        1 0.19277144E+00 0.12637443E+04</pdfrwt>
<pdfrwt beam="2">  1       -1 0.49021775E-01 0.12637443E+04</pdfrwt>
<totfact> 0.40135012E+01</totfact>
</mgrwt>
</event>
<event>
12    1  0.1506149E-007  0.2165875E+04  0.7818608E-02  0.8532767E-01
          2   -1    0    0  501    0  0.00000000000E+00  0.00000000000E+00  0.26569342140E+04  0.26569342140E+04  0.00000000000E+00 0. -1.
         -2   -1    0    0    0  501 -0.00000000000E+00 -0.00000000000E+00 -0.44139352056E+03  0.44139352056E+03  0.00000000000E+00 0.  1.
         23    2    1    2    0    0 -0.44177298559E+03  0.76812591972E+03  0.82621525475E+03  0.12150094406E+04  0.91844947090E+02 0.  0.
        254    2    1    2    0    0  0.44177298559E+03 -0.76812591972E+03  0.13893254387E+04  0.18833182939E+04  0.91185625090E+03 0.  0.
        -24    2    4    4    0    0  0.25922919216E+03 -0.85694843903E+03  0.14015884972E+04  0.16650135817E+04  0.79117068303E+02 0.  0.
         24    2    4    4    0    0  0.18254379343E+03  0.88822519309E+02 -0.12263058470E+02  0.21830471227E+03  0.79340332379E+02 0.  0.
         11    1    3    3    0    0 -0.24814517350E+03  0.42740302641E+03  0.52245936771E+03  0.71917533677E+03  0.00000000000E+00 0. -1.
        -11    1    3    3    0    0 -0.19362781209E+03  0.34072289331E+03  0.30375588704E+03  0.49583410386E+03  0.00000000000E+00 0.  1.
          2    1    6    6  502    0  0.47277915090E+01  0.30307989188E+02  0.44182369196E+00  0.30677702478E+02  0.00000000000E+00 0. -1.
          3    1    5    5  503    0  0.54978972918E+02 -0.98093398388E+02  0.19394800869E+03  0.22418927794E+03  0.00000000000E+00 0. -1.
         -4    1    5    5    0  503  0.20425021924E+03 -0.75885504064E+03  0.12076404885E+04  0.14408243037E+04  0.00000000000E+00 0.  1.
         -1    1    6    6    0  502  0.17781600192E+03  0.58514530121E+02 -0.12704882162E+02  0.18762700979E+03  0.00000000000E+00 0.  1.
<mgrwt>
<rscale>  0 0.21658749E+04</rscale>
<asrwt>0</asrwt>
<pdfrwt beam="1">  1        2 0.40875910E+00 0.21658749E+04</pdfrwt>
<pdfrwt beam="2">  1       -2 0.67906697E-01 0.21658749E+04</pdfrwt>
<totfact> 0.51299584E+00</totfact>
</mgrwt>
</event>
<event>
12    1  0.1506149E-007  0.2033260E+04  0.7818608E-02  0.8591226E-01
         -1   -1    0    0    0  501 -0.00000000000E+00  0.00000000000E+00  0.38564994334E+03  0.38564994334E+03  0.00000000000E+00 0.  1.
          1   -1    0    0  501    0  0.00000000000E+00 -0.00000000000E+00 -0.26799874376E+04  0.26799874376E+04  0.00000000000E+00 0. -1.
         23    2    1    2    0    0 -0.75206302405E+03  0.28725442151E+03 -0.11094520997E+04  0.13737355940E+04  0.90286354930E+02 0.  0.
        254    2    1    2    0    0  0.75206302405E+03 -0.28725442151E+03 -0.11848853946E+04  0.16919017869E+04  0.90025794279E+03 0.  0.
        -24    2    4    4    0    0 -0.75827028972E+02 -0.13635364287E+03  0.63177415083E+02  0.18406216322E+03  0.74467710494E+02 0.  0.
         24    2    4    4    0    0  0.82789005302E+03 -0.15090077864E+03 -0.12480628096E+04  0.15078396237E+04  0.88014596087E+02 0.  0.
         11    1    3    3    0    0 -0.37086115026E+03  0.12217037285E+03 -0.46771728133E+03  0.60928076289E+03  0.00000000000E+00 0.  1.
        -11    1    3    3    0    0 -0.38120187379E+03  0.16508404867E+03 -0.64173481839E+03  0.76445483113E+03  0.00000000000E+00 0. -1.
          2    1    6    6  502    0  0.14899303882E+03 -0.11343942768E+02 -0.27803141015E+03  0.31564073831E+03  0.00000000000E+00 0. -1.
          3    1    5    5  503    0 -0.22826715552E+02 -0.30554866887E+02 -0.16342148653E+02  0.41493670071E+02  0.00000000000E+00 0. -1.
         -4    1    5    5    0  503 -0.53000313420E+02 -0.10579877598E+03  0.79519563736E+02  0.14256849315E+03  0.00000000000E+00 0.  1.
         -1    1    6    6    0  502  0.67889701420E+03 -0.13955683587E+03 -0.97003139949E+03  0.11921988854E+04  0.00000000000E+00 0.  1.
<mgrwt>
<rscale>  0 0.20332604E+04</rscale>
<asrwt>0</asrwt>
<pdfrwt beam="1">  1        1 0.41230577E+00 0.20332604E+04</pdfrwt>
<pdfrwt beam="2">  1       -1 0.59330760E-01 0.20332604E+04</pdfrwt>
<totfact> 0.27026842E+00</totfact>
</mgrwt>
</event>
<event>
12    1  0.1506149E-007  0.3918927E+04  0.7818608E-02  0.8021104E-01
         -2   -1    0    0    0  501 -0.00000000000E+00  0.00000000000E+00  0.90249088191E+03  0.90249088191E+03  0.00000000000E+00 0.  1.
          2   -1    0    0  501    0  0.00000000000E+00 -0.00000000000E+00 -0.42543343764E+04  0.42543343764E+04  0.00000000000E+00 0. -1.
         23    2    1    2    0    0  0.12460405401E+04 -0.11942142541E+04 -0.69092225260E+03  0.18614918146E+04  0.94939478126E+02 0.  0.
        254    2    1    2    0    0 -0.12460405401E+04  0.11942142541E+04 -0.26609212418E+04  0.32953334436E+04  0.89440255881E+03 0.  0.
        -24    2    4    4    0    0  0.25342845585E+02  0.22262356524E+03 -0.82414607962E+03  0.85802462829E+03  0.82377124092E+02 0.  0.
         24    2    4    4    0    0 -0.12713833857E+04  0.97159068883E+03 -0.18367751622E+04  0.24373088154E+04  0.79542974196E+02 0.  0.
         11    1    3    3    0    0  0.39447320755E+03 -0.35921966511E+03 -0.16898204319E+03  0.55964525388E+03  0.00000000000E+00 0. -1.
        -11    1    3    3    0    0  0.85156733258E+03 -0.83499458896E+03 -0.52194020941E+03  0.13018465607E+04  0.00000000000E+00 0.  1.
          4    1    6    6  502    0 -0.10936444677E+04  0.82564871657E+03 -0.15306334218E+04  0.20544081135E+04  0.00000000000E+00 0. -1.
          1    1    5    5  503    0 -0.12246017420E+02  0.16964992117E+03 -0.52340136530E+03  0.55034539145E+03  0.00000000000E+00 0. -1.
         -2    1    5    5    0  503  0.37588863005E+02  0.52973644070E+02 -0.30074471432E+03  0.30767923684E+03  0.00000000000E+00 0.  1.
         -3    1    6    6    0  502 -0.17773891800E+03  0.14594197226E+03 -0.30614174045E+03  0.38290070186E+03  0.00000000000E+00 0.  1.
<mgrwt>
<rscale>  0 0.39189274E+04</rscale>
<asrwt>0</asrwt>
<pdfrwt beam="1">  1        2 0.65451298E+00 0.39189274E+04</pdfrwt>
<pdfrwt beam="2">  1       -2 0.13884475E+00 0.39189274E+04</pdfrwt>
<totfact> 0.60413596E-02</totfact>
</mgrwt>
</event>
<event>
12    1  0.1506149E-007  0.2463687E+04  0.7818608E-02  0.8416038E-01
         -1   -1    0    0    0  501 -0.00000000000E+00  0.00000000000E+00  0.48646577149E+03  0.48646577149E+03  0.00000000000E+00 0.  1.
          1   -1    0    0  501    0  0.00000000000E+00 -0.00000000000E+00 -0.31193113067E+04  0.31193113067E+04  0.00000000000E+00 0. -1.
         23    2    1    2    0    0  0.69788082172E+03 -0.93308398170E+01  0.31560614120E+02  0.70680083052E+03  0.10698895155E+03 0.  0.
        254    2    1    2    0    0 -0.69788082172E+03  0.93308398170E+01 -0.26644061493E+04  0.28989762477E+04  0.90436632516E+03 0.  0.
        -24    2    4    4    0    0 -0.99389099207E+02  0.31943116733E+03 -0.36505717263E+03  0.50151401860E+03  0.79593390809E+02 0.  0.
         24    2    4    4    0    0 -0.59849172252E+03 -0.31010032751E+03 -0.22993489767E+04  0.23974622291E+04  0.80404403727E+02 0.  0.
         11    1    3    3    0    0  0.26948925811E+02  0.33790167846E+01  0.23163413313E+02  0.35696023211E+02  0.00000000000E+00 0. -1.
        -11    1    3    3    0    0  0.67093189591E+03 -0.12709856602E+02  0.83972008076E+01  0.67110480731E+03  0.00000000000E+00 0.  1.
          2    1    6    6  502    0 -0.58803809434E+03 -0.30345169538E+03 -0.22829071760E+04  0.23768754503E+04  0.00000000000E+00 0. -1.
          3    1    5    5  503    0 -0.73918489920E+02  0.29435353195E+03 -0.29697930086E+03  0.42462295047E+03  0.00000000000E+00 0. -1.
         -2    1    5    5    0  503 -0.25470609287E+02  0.25077635376E+02 -0.68077871772E+02  0.76891068132E+02  0.00000000000E+00 0.  1.
         -3    1    6    6    0  502 -0.10453628179E+02 -0.66486321377E+01 -0.16441800664E+02  0.20586778778E+02  0.00000000000E+00 0.  1.
<mgrwt>
<rscale>  0 0.24636868E+04</rscale>
<asrwt>0</asrwt>
<pdfrwt beam="1">  1        1 0.47989403E+00 0.24636868E+04</pdfrwt>
<pdfrwt beam="2">  1       -1 0.74840890E-01 0.24636868E+04</pdfrwt>
<totfact> 0.78171899E-01</totfact>
</mgrwt>
</event>
<event>
12    1  0.1506149E-007  0.2265060E+04  0.7818608E-02  0.8491826E-01
          1   -1    0    0  501    0  0.00000000000E+00  0.00000000000E+00  0.15195082160E+04  0.15195082160E+04  0.00000000000E+00 0. -1.
         -1   -1    0    0    0  501 -0.00000000000E+00 -0.00000000000E+00 -0.84410487020E+03  0.84410487020E+03  0.00000000000E+00 0.  1.
         23    2    1    2    0    0  0.33438398147E+03 -0.76205078359E+03 -0.21089574065E+03  0.86332570852E+03  0.91215249442E+02 0.  0.
        254    2    1    2    0    0 -0.33438398147E+03  0.76205078359E+03  0.88629908646E+03  0.15002873777E+04  0.87909163411E+03 0.  0.
        -24    2    4    4    0    0 -0.28265465180E+03 -0.29455525705E+02  0.57098883767E+03  0.64252733782E+03  0.77793617495E+02 0.  0.
         24    2    4    4    0    0 -0.51729329668E+02  0.79150630930E+03  0.31531024879E+03  0.85776003987E+03  0.84696940959E+02 0.  0.
         11    1    3    3    0    0  0.12159345322E+03 -0.19554763475E+03 -0.83285388687E+02  0.24486792622E+03  0.00000000000E+00 0. -1.
        -11    1    3    3    0    0  0.21279052825E+03 -0.56650314884E+03 -0.12761035196E+03  0.61845778230E+03  0.00000000000E+00 0.  1.
          2    1    6    6  502    0 -0.21008479080E+02  0.29234359452E+03  0.73044037587E+02  0.30206218710E+03  0.00000000000E+00 0. -1.
          3    1    5    5  503    0 -0.89637639767E+02  0.20453292985E+02  0.22745883472E+03  0.24533806298E+03  0.00000000000E+00 0. -1.
         -4    1    5    5    0  503 -0.19301701203E+03 -0.49908818690E+02  0.34353000295E+03  0.39718927484E+03  0.00000000000E+00 0.  1.
         -1    1    6    6    0  502 -0.30720850588E+02  0.49916271478E+03  0.24226621120E+03  0.55569785278E+03  0.00000000000E+00 0.  1.
<mgrwt>
<rscale>  0 0.22650601E+04</rscale>
<asrwt>0</asrwt>
<pdfrwt beam="1">  1        1 0.23377049E+00 0.22650601E+04</pdfrwt>
<pdfrwt beam="2">  1       -1 0.12986229E+00 0.22650601E+04</pdfrwt>
<totfact> 0.29233679E+00</totfact>
</mgrwt>
</event>
<event>
12    1  0.1506149E-007  0.1583087E+04  0.7818608E-02  0.8831006E-01
         -2   -1    0    0    0  501 -0.00000000000E+00  0.00000000000E+00  0.32034531539E+03  0.32034531539E+03  0.00000000000E+00 0.  1.
          2   -1    0    0  501    0  0.00000000000E+00 -0.00000000000E+00 -0.19558304400E+04  0.19558304400E+04  0.00000000000E+00 0. -1.
         23    2    1    2    0    0 -0.68334271075E+02 -0.95089822273E+02  0.18479669099E+03  0.24174754762E+03  0.10286113395E+03 0.  0.
        254    2    1    2    0    0  0.68334271075E+02  0.95089822273E+02 -0.18202818156E+04  0.20344282078E+04  0.90097757878E+03 0.  0.
        -24    2    4    4    0    0  0.20310066373E+03 -0.19784894215E+03 -0.16173962217E+04  0.16439126868E+04  0.78001924078E+02 0.  0.
         24    2    4    4    0    0 -0.13476639266E+03  0.29293876442E+03 -0.20288559391E+03  0.39051552103E+03  0.85817874948E+02 0.  0.
         13    1    3    3    0    0 -0.31873789832E+02 -0.55385956125E+00  0.11340188754E+03  0.11779742500E+03  0.00000000000E+00 0.  1.
        -13    1    3    3    0    0 -0.36460481243E+02 -0.94535962712E+02  0.71394803448E+02  0.12395012262E+03  0.00000000000E+00 0. -1.
          4    1    6    6  502    0 -0.95511507352E+02  0.21995775565E+03 -0.19147405196E+03  0.30686507602E+03  0.00000000000E+00 0. -1.
          3    1    5    5  503    0  0.10360283041E+03 -0.12096246678E+03 -0.69686879727E+03  0.71483675441E+03  0.00000000000E+00 0. -1.
         -4    1    5    5    0  503  0.99497833319E+02 -0.76886475368E+02 -0.92052742445E+03  0.92907593236E+03  0.00000000000E+00 0.  1.
         -3    1    6    6    0  502 -0.39254885306E+02  0.72981008768E+02 -0.11411541958E+02  0.83650445014E+02  0.00000000000E+00 0.  1.
<mgrwt>
<rscale>  0 0.15830870E+04</rscale>
<asrwt>0</asrwt>
<pdfrwt beam="1">  1        2 0.30089699E+00 0.15830870E+04</pdfrwt>
<pdfrwt beam="2">  1       -2 0.49283895E-01 0.15830870E+04</pdfrwt>
<totfact> 0.26460786E+01</totfact>
</mgrwt>
</event>
<event>
12    1  0.1506149E-007  0.1411175E+04  0.7818608E-02  0.8945769E-01
         -1   -1    0    0    0  501 -0.00000000000E+00  0.00000000000E+00  0.19642029842E+04  0.19642029842E+04  0.00000000000E+00 0.  1.
          1   -1    0    0  501    0  0.00000000000E+00 -0.00000000000E+00 -0.25346334311E+03  0.25346334311E+03  0.00000000000E+00 0. -1.
         23    2    1    2    0    0 -0.23921196759E+03 -0.78295677084E+02 -0.39620422326E+01  0.26748104750E+03  0.90431380084E+02 0.  0.
        254    2    1    2    0    0  0.23921196759E+03  0.78295677084E+02  0.17147016833E+04  0.19501852798E+04  0.89424168116E+03 0.  0.
        -24    2    4    4    0    0  0.64125826458E+02 -0.38796608128E+03  0.98193111427E+03  0.10606240693E+04  0.78133868416E+02 0.  0.
         24    2    4    4    0    0  0.17508614113E+03  0.46626175837E+03  0.73277056905E+03  0.88956121049E+03  0.79443415205E+02 0.  0.
         11    1    3    3    0    0 -0.63435599261E+02 -0.50708236229E+02  0.29556583270E+02  0.86423330702E+02  0.00000000000E+00 0.  1.
        -11    1    3    3    0    0 -0.17577636833E+03 -0.27587440855E+02 -0.33518625503E+02  0.18105771680E+03  0.00000000000E+00 0. -1.
          4    1    6    6  502    0  0.18064069818E+03  0.45017157080E+03  0.68918900210E+03  0.84277338924E+03  0.00000000000E+00 0. -1.
          1    1    5    5  503    0  0.26929263570E+02 -0.32990327505E+03  0.83887339692E+03  0.90181479927E+03  0.00000000000E+00 0. -1.
         -2    1    5    5    0  503  0.37196562888E+02 -0.58062806231E+02  0.14305771736E+03  0.15880927005E+03  0.00000000000E+00 0.  1.
         -3    1    6    6    0  502 -0.55545570502E+01  0.16090187567E+02  0.43581566945E+02  0.46787821250E+02  0.00000000000E+00 0.  1.
<mgrwt>
<rscale>  0 0.14111746E+04</rscale>
<asrwt>0</asrwt>
<pdfrwt beam="1">  1        1 0.38994362E-01 0.14111746E+04</pdfrwt>
<pdfrwt beam="2">  1       -1 0.30218506E+00 0.14111746E+04</pdfrwt>
<totfact> 0.34135049E+00</totfact>
</mgrwt>
</event>
<event>
12    1  0.1506149E-007  0.2709081E+04  0.7818608E-02  0.8332065E-01
          2   -1    0    0  501    0  0.00000000000E+00  0.00000000000E+00  0.25725672470E+04  0.25725672470E+04  0.00000000000E+00 0. -1.
         -2   -1    0    0    0  501 -0.00000000000E+00 -0.00000000000E+00 -0.71320973347E+03  0.71320973347E+03  0.00000000000E+00 0.  1.
         23    2    1    2    0    0  0.98779133659E+03 -0.45382479818E+03  0.20655510019E+03  0.11115147804E+04  0.10541074657E+03 0.  0.
        254    2    1    2    0    0 -0.98779133659E+03  0.45382479818E+03  0.16528024133E+04  0.21742622001E+04  0.90220376030E+03 0.  0.
        -24    2    4    4    0    0 -0.77989310289E+02 -0.65586689455E+02 -0.77167960360E+02  0.15028971105E+03  0.79045283147E+02 0.  0.
         24    2    4    4    0    0 -0.90980202630E+03  0.51941148763E+03  0.17299703737E+04  0.20239724890E+04  0.78352549249E+02 0.  0.
         11    1    3    3    0    0  0.76700046802E+03 -0.30390784898E+03  0.14559663254E+03  0.83776373640E+03  0.00000000000E+00 0.  1.
        -11    1    3    3    0    0  0.22079086856E+03 -0.14991694919E+03  0.60958467648E+02  0.27375104397E+03  0.00000000000E+00 0. -1.
          2    1    6    6  502    0 -0.61907579981E+03  0.34160366788E+03  0.10978797915E+04  0.13058667422E+04  0.00000000000E+00 0. -1.
          3    1    5    5  503    0 -0.47035639499E+02 -0.71464565818E+02 -0.81891993547E+02  0.11843071459E+03  0.00000000000E+00 0. -1.
         -4    1    5    5    0  503 -0.30953670790E+02  0.58778763638E+01  0.47240331865E+01  0.31858996460E+02  0.00000000000E+00 0.  1.
         -1    1    6    6    0  502 -0.29072622649E+03  0.17780781975E+03  0.63209058212E+03  0.71810574677E+03  0.00000000000E+00 0.  1.
<mgrwt>
<rscale>  0 0.27090810E+04</rscale>
<asrwt>0</asrwt>
<pdfrwt beam="1">  1        2 0.39577957E+00 0.27090810E+04</pdfrwt>
<pdfrwt beam="2">  1       -2 0.10972458E+00 0.27090810E+04</pdfrwt>
<totfact> 0.18295717E+00</totfact>
</mgrwt>
</event>
<event>
12    1  0.1506149E-007  0.1888552E+04  0.7818608E-02  0.8660576E-01
         -2   -1    0    0    0  501 -0.00000000000E+00  0.00000000000E+00  0.68462691062E+03  0.68462691062E+03  0.00000000000E+00 0.  1.
          2   -1    0    0  501    0  0.00000000000E+00 -0.00000000000E+00 -0.13023984301E+04  0.13023984301E+04  0.00000000000E+00 0. -1.
         23    2    1    2    0    0 -0.13977077621E+03  0.31089013699E+03 -0.91033030651E+03  0.97610640206E+03  0.88847588745E+02 0.  0.
        254    2    1    2    0    0  0.13977077621E+03 -0.31089013699E+03  0.29255878707E+03  0.10109189386E+04  0.90563674251E+03 0.  0.
        -24    2    4    4    0    0  0.46262119534E+03 -0.38398614318E+03  0.28530015411E+03  0.67037003710E+03  0.80846027610E+02 0.  0.
         24    2    4    4    0    0 -0.32285041913E+03  0.73096006184E+02  0.72586329660E+01  0.34054890151E+03  0.79658316016E+02 0.  0.
         11    1    3    3    0    0 -0.58114911960E+02  0.43283384608E+02 -0.18902974522E+03  0.20244268066E+03  0.00000000000E+00 0.  1.
        -11    1    3    3    0    0 -0.81655864248E+02  0.26760675239E+03 -0.72130056129E+03  0.77366372139E+03  0.00000000000E+00 0. -1.
          2    1    6    6  502    0 -0.28880551726E+03  0.89357227403E+02  0.10672434720E+01  0.30231519958E+03  0.00000000000E+00 0. -1.
          1    1    5    5  503    0  0.17345396808E+03 -0.19536546991E+03  0.11607412528E+03  0.28587960479E+03  0.00000000000E+00 0. -1.
         -2    1    5    5    0  503  0.28916722727E+03 -0.18862067327E+03  0.16922602883E+03  0.38449043232E+03  0.00000000000E+00 0.  1.
         -1    1    6    6    0  502 -0.34044901873E+02 -0.16261221219E+02  0.61913894940E+01  0.38233701926E+02  0.00000000000E+00 0.  1.
<mgrwt>
<rscale>  0 0.18885518E+04</rscale>
<asrwt>0</asrwt>
<pdfrwt beam="1">  1        2 0.20036899E+00 0.18885518E+04</pdfrwt>
<pdfrwt beam="2">  1       -2 0.10532722E+00 0.18885518E+04</pdfrwt>
<totfact> 0.11272175E+01</totfact>
</mgrwt>
</event>
<event>
12    1  0.1506149E-007  0.1408255E+04  0.7818608E-02  0.8947865E-01
         -2   -1    0    0    0  501 -0.00000000000E+00  0.00000000000E+00  0.13638564130E+04  0.13638564130E+04  0.00000000000E+00 0.  1.
          2   -1    0    0  501    0  0.00000000000E+00 -0.00000000000E+00 -0.36352447857E+03  0.36352447857E+03  0.00000000000E+00 0. -1.
         23    2    1    2    0    0  0.62017627020E+02 -0.28878330247E+03 -0.88408173295E+02  0.32172560888E+03  0.91920511621E+02 0.  0.
        254    2    1    2    0    0 -0.62017627020E+02  0.28878330247E+03  0.10887401078E+04  0.14056552827E+04  0.83861181112E+03 0.  0.
        -24    2    4    4    0    0 -0.33566889072E+03 -0.11689773871E+03  0.29035235038E+03  0.46578853745E+03  0.79471936778E+02 0.  0.
         24    2    4    4    0    0  0.27365126370E+03  0.40568104119E+03  0.79838775739E+03  0.93986674528E+03  0.80401283687E+02 0.  0.
         11    1    3    3    0    0  0.23622798249E+02 -0.15891250628E+03 -0.12276230483E+01  0.16066340064E+03  0.00000000000E+00 0.  1.
        -11    1    3    3    0    0  0.38394828771E+02 -0.12987079620E+03 -0.87180550246E+02  0.16106220824E+03  0.00000000000E+00 0. -1.
          4    1    6    6  502    0  0.27751523590E+03  0.40461468178E+03  0.78347433575E+03  0.92442402698E+03  0.00000000000E+00 0. -1.
          3    1    5    5  503    0 -0.26747007984E+03 -0.11954010805E+03  0.21053494017E+03  0.36077006815E+03  0.00000000000E+00 0. -1.
         -4    1    5    5    0  503 -0.68198810879E+02  0.26423693331E+01  0.79817410213E+02  0.10501846930E+03  0.00000000000E+00 0.  1.
         -3    1    6    6    0  502 -0.38639721934E+01  0.10663594032E+01  0.14913421637E+02  0.15442718297E+02  0.00000000000E+00 0.  1.
<mgrwt>
<rscale>  0 0.14082545E+04</rscale>
<asrwt>0</asrwt>
<pdfrwt beam="1">  1        2 0.55926844E-01 0.14082545E+04</pdfrwt>
<pdfrwt beam="2">  1       -2 0.20982406E+00 0.14082545E+04</pdfrwt>
<totfact> 0.98828168E+00</totfact>
</mgrwt>
</event>
<event>
12    1  0.1506149E-007  0.1519559E+04  0.7818608E-02  0.8871550E-01
         -2   -1    0    0    0  501 -0.00000000000E+00  0.00000000000E+00  0.88581169013E+03  0.88581169013E+03  0.00000000000E+00 0.  1.
          2   -1    0    0  501    0  0.00000000000E+00 -0.00000000000E+00 -0.65167859492E+03  0.65167859492E+03  0.00000000000E+00 0. -1.
         23    2    1    2    0    0  0.19074579830E+03  0.44033920593E+03  0.12748096412E+03  0.50431997558E+03  0.88344019107E+02 0.  0.
        254    2    1    2    0    0 -0.19074579830E+03 -0.44033920593E+03  0.10665213110E+03  0.10331703095E+04  0.90872638096E+03 0.  0.
        -24    2    4    4    0    0  0.20894681591E+02  0.17182624403E+03 -0.22962386880E+03  0.29907159072E+03  0.82193974212E+02 0.  0.
         24    2    4    4    0    0 -0.21164047989E+03 -0.61216544995E+03  0.33627599990E+03  0.73409871875E+03  0.79253706029E+02 0.  0.
         11    1    3    3    0    0  0.13289630347E+03  0.30123653129E+03  0.44261483005E+02  0.33221070744E+03  0.00000000000E+00 0. -1.
        -11    1    3    3    0    0  0.57849494828E+02  0.13910267464E+03  0.83219481115E+02  0.17210926814E+03  0.00000000000E+00 0.  1.
          2    1    6    6  502    0 -0.66533843467E+02 -0.16682240275E+03  0.55402092243E+02  0.18795174437E+03  0.00000000000E+00 0. -1.
          3    1    5    5  503    0  0.31164536597E+02  0.11435167783E+03 -0.93525990540E+02  0.15097895704E+03  0.00000000000E+00 0. -1.
         -4    1    5    5    0  503 -0.10269855006E+02  0.57474566197E+02 -0.13609787826E+03  0.14809263368E+03  0.00000000000E+00 0.  1.
         -3    1    6    6    0  502 -0.14510663642E+03 -0.44534304720E+03  0.28087390766E+03  0.54614697438E+03  0.00000000000E+00 0.  1.
<mgrwt>
<rscale>  0 0.15195585E+04</rscale>
<asrwt>0</asrwt>
<pdfrwt beam="1">  1        2 0.10025824E+00 0.15195585E+04</pdfrwt>
<pdfrwt beam="2">  1       -2 0.13627872E+00 0.15195585E+04</pdfrwt>
<totfact> 0.16644377E+01</totfact>
</mgrwt>
</event>
<event>
12    1  0.1506149E-007  0.1528724E+04  0.7818608E-02  0.8865573E-01
         -1   -1    0    0    0  501 -0.00000000000E+00  0.00000000000E+00  0.20115654881E+03  0.20115654881E+03  0.00000000000E+00 0.  1.
          1   -1    0    0  501    0  0.00000000000E+00 -0.00000000000E+00 -0.29044504069E+04  0.29044504069E+04  0.00000000000E+00 0. -1.
         23    2    1    2    0    0  0.44661091258E+03 -0.18881185800E+03 -0.67734653088E+03  0.83799309162E+03  0.91229785388E+02 0.  0.
        254    2    1    2    0    0 -0.44661091258E+03  0.18881185800E+03 -0.20259473272E+04  0.22676138641E+04  0.89582299535E+03 0.  0.
        -24    2    4    4    0    0 -0.46686584791E+03  0.45020334274E+03 -0.92088225443E+03  0.11291310524E+04  0.79158304202E+02 0.  0.
         24    2    4    4    0    0  0.20254935321E+02 -0.26139148474E+03 -0.11050650728E+04  0.11384828117E+04  0.78984345383E+02 0.  0.
         13    1    3    3    0    0  0.41798657648E+03 -0.15415684337E+03 -0.58534752081E+03  0.73560099959E+03  0.00000000000E+00 0.  1.
        -13    1    3    3    0    0  0.28624336103E+02 -0.34655014624E+02 -0.91999010072E+02  0.10239209203E+03  0.00000000000E+00 0. -1.
          2    1    6    6  502    0  0.10180881504E+02 -0.86136298191E+02 -0.53551113113E+03  0.54248989279E+03  0.00000000000E+00 0. -1.
          3    1    5    5  503    0 -0.29995812586E+02  0.60579446733E+02 -0.83552283107E+02  0.10747372773E+03  0.00000000000E+00 0. -1.
         -4    1    5    5    0  503 -0.43687003532E+03  0.38962389601E+03 -0.83732997132E+03  0.10216573246E+04  0.00000000000E+00 0.  1.
         -1    1    6    6    0  502  0.10074053817E+02 -0.17525518655E+03 -0.56955394165E+03  0.59599291894E+03  0.00000000000E+00 0.  1.
<mgrwt>
<rscale>  0 0.15287239E+04</rscale>
<asrwt>0</asrwt>
<pdfrwt beam="1">  1        1 0.44683851E+00 0.15287239E+04</pdfrwt>
<pdfrwt beam="2">  1       -1 0.30947162E-01 0.15287239E+04</pdfrwt>
<totfact> 0.65710945E+00</totfact>
</mgrwt>
</event>
<event>
12    1  0.1506149E-007  0.2197034E+04  0.7818608E-02  0.8519664E-01
         -1   -1    0    0    0  501 -0.00000000000E+00  0.00000000000E+00  0.45875954374E+03  0.45875954374E+03  0.00000000000E+00 0.  1.
          1   -1    0    0  501    0  0.00000000000E+00 -0.00000000000E+00 -0.26304397082E+04  0.26304397082E+04  0.00000000000E+00 0. -1.
         23    2    1    2    0    0  0.77391484882E+03 -0.35417155924E+03 -0.13566281012E+04  0.16040371848E+04  0.90076626256E+02 0.  0.
        254    2    1    2    0    0 -0.77391484882E+03  0.35417155924E+03 -0.81505206329E+03  0.14851620672E+04  0.90388871734E+03 0.  0.
        -24    2    4    4    0    0 -0.19537176052E+03  0.57838894794E+03 -0.38781056480E+03  0.72759522270E+03  0.79333939929E+02 0.  0.
         24    2    4    4    0    0 -0.57854308830E+03 -0.22421738870E+03 -0.42724149849E+03  0.75756684449E+03  0.79916728011E+02 0.  0.
         13    1    3    3    0    0  0.75672096013E+03 -0.35577625109E+03 -0.13429921937E+04  0.15820339392E+04  0.00000000000E+00 0. -1.
        -13    1    3    3    0    0  0.17193888690E+02  0.16046918453E+01 -0.13635907497E+02  0.22003245612E+02  0.00000000000E+00 0.  1.
          2    1    6    6  502    0 -0.55652951871E+03 -0.22127558643E+03 -0.39158905742E+03  0.71556270182E+03  0.00000000000E+00 0. -1.
          1    1    5    5  503    0 -0.70724847075E+02  0.23925975319E+03 -0.20365600552E+03  0.32206055653E+03  0.00000000000E+00 0. -1.
         -2    1    5    5    0  503 -0.12464691344E+03  0.33912919475E+03 -0.18415455928E+03  0.40553466617E+03  0.00000000000E+00 0.  1.
         -1    1    6    6    0  502 -0.22013569596E+02 -0.29418022661E+01 -0.35652441074E+02  0.42004142670E+02  0.00000000000E+00 0.  1.
<mgrwt>
<rscale>  0 0.21970337E+04</rscale>
<asrwt>0</asrwt>
<pdfrwt beam="1">  1        1 0.40468302E+00 0.21970337E+04</pdfrwt>
<pdfrwt beam="2">  1       -1 0.70578393E-01 0.21970337E+04</pdfrwt>
<totfact> 0.20326368E+00</totfact>
</mgrwt>
</event>
<event>
12    1  0.1506149E-007  0.1442994E+04  0.7818608E-02  0.8923272E-01
          2   -1    0    0  501    0  0.00000000000E+00  0.00000000000E+00  0.32558071335E+03  0.32558071335E+03  0.00000000000E+00 0. -1.
         -2   -1    0    0    0  501 -0.00000000000E+00 -0.00000000000E+00 -0.15988601642E+04  0.15988601642E+04  0.00000000000E+00 0.  1.
         23    2    1    2    0    0  0.57953773630E+02 -0.14005095403E+03 -0.86437474864E+03  0.88228558047E+03  0.91165946516E+02 0.  0.
        254    2    1    2    0    0 -0.57953773630E+02  0.14005095403E+03 -0.40890470216E+03  0.10421552970E+04  0.94652612119E+03 0.  0.
        -24    2    4    4    0    0 -0.12516704762E+02 -0.17190830296E+03 -0.62497200198E+03  0.65371571471E+03  0.83935093153E+02 0.  0.
         24    2    4    4    0    0 -0.45437068868E+02  0.31195925700E+03  0.21606729983E+03  0.38843958233E+03  0.69405517171E+02 0.  0.
         11    1    3    3    0    0  0.43335244227E+02 -0.82893500964E+01 -0.19894871217E+03  0.20378235152E+03  0.00000000000E+00 0. -1.
        -11    1    3    3    0    0  0.14618529403E+02 -0.13176160394E+03 -0.66542603647E+03  0.67850322895E+03  0.00000000000E+00 0.  1.
          2    1    6    6  502    0 -0.63610583473E+02  0.23509878290E+03  0.16987919695E+03  0.29694559368E+03  0.00000000000E+00 0. -1.
          3    1    5    5  503    0  0.35672209197E+02 -0.59400090106E+02 -0.22023283184E+03  0.23087524214E+03  0.00000000000E+00 0. -1.
         -4    1    5    5    0  503 -0.48188913959E+02 -0.11250821286E+03 -0.40473917014E+03  0.42284047256E+03  0.00000000000E+00 0.  1.
         -1    1    6    6    0  502  0.18173514605E+02  0.76860474099E+02  0.46188102875E+02  0.91493988650E+02  0.00000000000E+00 0.  1.
<mgrwt>
<rscale>  0 0.14429942E+04</rscale>
<asrwt>0</asrwt>
<pdfrwt beam="1">  1        2 0.50089341E-01 0.14429942E+04</pdfrwt>
<pdfrwt beam="2">  1       -2 0.24597849E+00 0.14429942E+04</pdfrwt>
<totfact> 0.66189834E+00</totfact>
</mgrwt>
</event>
<event>
12    1  0.1506149E-007  0.2436647E+04  0.7818608E-02  0.8425909E-01
          2   -1    0    0  501    0  0.00000000000E+00  0.00000000000E+00  0.12448032343E+04  0.12448032343E+04  0.00000000000E+00 0.  1.
         -2   -1    0    0    0  501 -0.00000000000E+00 -0.00000000000E+00 -0.11924071961E+04  0.11924071961E+04  0.00000000000E+00 0. -1.
         23    2    1    2    0    0 -0.15088386274E+03 -0.10356428655E+04 -0.20521754686E+02  0.10508643310E+04  0.92588417136E+02 0.  0.
        254    2    1    2    0    0  0.15088386274E+03  0.10356428655E+04  0.72917792859E+02  0.13863460993E+04  0.90626509241E+03 0.  0.
        -24    2    4    4    0    0 -0.31517471553E+03  0.37932992353E+03 -0.19138548409E+03  0.53497123818E+03  0.79621165321E+02 0.  0.
         24    2    4    4    0    0  0.46605857826E+03  0.65631294195E+03  0.26430327695E+03  0.85137486114E+03  0.83819185300E+02 0.  0.
         11    1    3    3    0    0 -0.14386576707E+03 -0.76875261595E+03  0.98451777277E+01  0.78216038699E+03  0.00000000000E+00 0. -1.
        -11    1    3    3    0    0 -0.70180956703E+01 -0.26689024953E+03 -0.30366932414E+02  0.26870394405E+03  0.00000000000E+00 0.  1.
          4    1    6    6  502    0  0.31996064998E+03  0.51017249413E+03  0.18416604792E+03  0.62973639287E+03  0.00000000000E+00 0. -1.
          3    1    5    5  503    0 -0.29449502327E+03  0.31159401029E+03 -0.16359366176E+03  0.45889108964E+03  0.00000000000E+00 0. -1.
         -4    1    5    5    0  503 -0.20679692258E+02  0.67735913234E+02 -0.27791822326E+02  0.76080148539E+02  0.00000000000E+00 0.  1.
         -3    1    6    6    0  502  0.14609792829E+03  0.14614044783E+03  0.80137229030E+02  0.22163846827E+03  0.00000000000E+00 0.  1.
<mgrwt>
<rscale>  0 0.24366472E+04</rscale>
<asrwt>0</asrwt>
<pdfrwt beam="1">  1        2 0.19150819E+00 0.24366472E+04</pdfrwt>
<pdfrwt beam="2">  1       -2 0.18344726E+00 0.24366472E+04</pdfrwt>
<totfact> 0.27420243E+00</totfact>
</mgrwt>
</event>
<event>
12    1  0.1506149E-007  0.1506263E+04  0.7818608E-02  0.8880299E-01
          2   -1    0    0  501    0  0.00000000000E+00  0.00000000000E+00  0.30250609791E+04  0.30250609791E+04  0.00000000000E+00 0. -1.
         -2   -1    0    0    0  501 -0.00000000000E+00 -0.00000000000E+00 -0.18750269376E+03  0.18750269376E+03  0.00000000000E+00 0.  1.
         23    2    1    2    0    0 -0.42467784237E+03 -0.16363160499E+03  0.63447984160E+03  0.78582074618E+03  0.88447746017E+02 0.  0.
        254    2    1    2    0    0  0.42467784237E+03  0.16363160499E+03  0.22030784437E+04  0.24267429267E+04  0.91016483724E+03 0.  0.
        -24    2    4    4    0    0 -0.11934148847E+03  0.20234456659E+03  0.12797632628E+03  0.27962473674E+03  0.81402326802E+02 0.  0.
         24    2    4    4    0    0  0.54401933084E+03 -0.38712961607E+02  0.20751021175E+04  0.21471181899E+04  0.81314192764E+02 0.  0.
         13    1    3    3    0    0 -0.35119155252E+02 -0.40142951996E+02  0.96082996226E+02  0.10989428477E+03  0.00000000000E+00 0. -1.
        -13    1    3    3    0    0 -0.38955868712E+03 -0.12348865299E+03  0.53839684537E+03  0.67592646141E+03  0.00000000000E+00 0.  1.
          2    1    6    6  502    0  0.32540599297E+03  0.12177648402E+02  0.11541802128E+04  0.11992369737E+04  0.00000000000E+00 0. -1.
          1    1    5    5  503    0 -0.12372983930E+03  0.20086080271E+03  0.13454914802E+03  0.27158352018E+03  0.00000000000E+00 0. -1.
         -2    1    5    5    0  503  0.43883508295E+01  0.14837638800E+01 -0.65728217355E+01  0.80412165635E+01  0.00000000000E+00 0.  1.
         -1    1    6    6    0  502  0.21861333787E+03 -0.50890610009E+02  0.92092190463E+03  0.94788121625E+03  0.00000000000E+00 0.  1.
<mgrwt>
<rscale>  0 0.15062630E+04</rscale>
<asrwt>0</asrwt>
<pdfrwt beam="1">  1        2 0.46539396E+00 0.15062630E+04</pdfrwt>
<pdfrwt beam="2">  1       -2 0.28846570E-01 0.15062630E+04</pdfrwt>
<totfact> 0.18023190E+01</totfact>
</mgrwt>
</event>
<event>
12    1  0.1506149E-007  0.3251682E+04  0.7818608E-02  0.8175300E-01
          2   -1    0    0  501    0  0.00000000000E+00  0.00000000000E+00  0.13122588364E+04  0.13122588364E+04  0.00000000000E+00 0. -1.
         -2   -1    0    0    0  501 -0.00000000000E+00 -0.00000000000E+00 -0.20143583772E+04  0.20143583772E+04  0.00000000000E+00 0.  1.
         23    2    1    2    0    0  0.33053609414E+01 -0.12399602265E+04 -0.11882228906E+04  0.17197611417E+04  0.90512198375E+02 0.  0.
        254    2    1    2    0    0 -0.33053609414E+01  0.12399602265E+04  0.48612334978E+03  0.16068560720E+04  0.89897621565E+03 0.  0.
        -24    2    4    4    0    0  0.33510419273E+03  0.98177783497E+03  0.53708073812E+03  0.11708419029E+04  0.78946217225E+02 0.  0.
         24    2    4    4    0    0 -0.33840955367E+03  0.25818239151E+03 -0.50957388347E+02  0.43601416907E+03  0.79577175740E+02 0.  0.
         13    1    3    3    0    0 -0.93050623611E+01 -0.92187844746E+02 -0.60682086292E+02  0.11075874007E+03  0.00000000000E+00 0. -1.
        -13    1    3    3    0    0  0.12610423302E+02 -0.11477723817E+04 -0.11275408043E+04  0.16090024016E+04  0.00000000000E+00 0.  1.
          4    1    6    6  502    0 -0.18915571534E+03  0.19073131317E+03 -0.42913750532E+02  0.27202924191E+03  0.00000000000E+00 0. -1.
          1    1    5    5  503    0  0.43779163976E+02  0.22921431161E+03  0.12530908240E+03  0.26487389825E+03  0.00000000000E+00 0. -1.
         -2    1    5    5    0  503  0.29132502875E+03  0.75256352336E+03  0.41177165572E+03  0.90596800469E+03  0.00000000000E+00 0.  1.
         -3    1    6    6    0  502 -0.14925383833E+03  0.67451078338E+02 -0.80436378148E+01  0.16398492715E+03  0.00000000000E+00 0.  1.
<mgrwt>
<rscale>  0 0.32516824E+04</rscale>
<asrwt>0</asrwt>
<pdfrwt beam="1">  1        2 0.20188597E+00 0.32516824E+04</pdfrwt>
<pdfrwt beam="2">  1       -2 0.30990129E+00 0.32516824E+04</pdfrwt>
<totfact> 0.37673326E-01</totfact>
</mgrwt>
</event>
<event>
12    1  0.1506149E-007  0.1921368E+04  0.7818608E-02  0.8644293E-01
          2   -1    0    0  501    0  0.00000000000E+00  0.00000000000E+00  0.22970811444E+04  0.22970811444E+04  0.00000000000E+00 0. -1.
         -2   -1    0    0    0  501 -0.00000000000E+00 -0.00000000000E+00 -0.40177682949E+03  0.40177682949E+03  0.00000000000E+00 0.  1.
         23    2    1    2    0    0  0.56606198716E+03  0.26310970183E+02  0.14140067848E+04  0.15261907063E+04  0.93404732845E+02 0.  0.
        254    2    1    2    0    0 -0.56606198716E+03 -0.26310970183E+02  0.48129753016E+03  0.11726672676E+04  0.90685322271E+03 0.  0.
        -24    2    4    4    0    0 -0.43520873281E+03 -0.38950577629E+03  0.50735816033E+03  0.77759577491E+03  0.78239986132E+02 0.  0.
         24    2    4    4    0    0 -0.13085325436E+03  0.36319480610E+03 -0.26060630175E+02  0.39507149270E+03  0.79807810052E+02 0.  0.
         11    1    3    3    0    0  0.48241294309E+03  0.23855183061E+02  0.12811577968E+04  0.13691810026E+04  0.00000000000E+00 0. -1.
        -11    1    3    3    0    0  0.83649044075E+02  0.24557871218E+01  0.13284898795E+03  0.15700970372E+03  0.00000000000E+00 0.  1.
          4    1    6    6  502    0 -0.19918437529E+02  0.67637658198E+02 -0.36115609399E+02  0.79220794002E+02  0.00000000000E+00 0. -1.
          3    1    5    5  503    0 -0.21609688520E+03 -0.21976956562E+03  0.31151436874E+03  0.43822109454E+03  0.00000000000E+00 0. -1.
         -4    1    5    5    0  503 -0.21911184761E+03 -0.16973621066E+03  0.19584379160E+03  0.33937468037E+03  0.00000000000E+00 0.  1.
         -3    1    6    6    0  502 -0.11093481683E+03  0.29555714791E+03  0.10054979224E+02  0.31585069870E+03  0.00000000000E+00 0.  1.
<mgrwt>
<rscale>  0 0.19213682E+04</rscale>
<asrwt>0</asrwt>
<pdfrwt beam="1">  1        2 0.35339709E+00 0.19213682E+04</pdfrwt>
<pdfrwt beam="2">  1       -2 0.61811821E-01 0.19213682E+04</pdfrwt>
<totfact> 0.10348203E+01</totfact>
</mgrwt>
</event>
<event>
12    1  0.1506149E-007  0.2181073E+04  0.7818608E-02  0.8526347E-01
          1   -1    0    0  501    0  0.00000000000E+00  0.00000000000E+00  0.17093678392E+04  0.17093678392E+04  0.00000000000E+00 0. -1.
         -1   -1    0    0    0  501 -0.00000000000E+00 -0.00000000000E+00 -0.69573685825E+03  0.69573685825E+03  0.00000000000E+00 0.  1.
         23    2    1    2    0    0  0.90333476350E+03  0.11105992169E+02  0.48140137597E+03  0.10279365527E+04  0.93644186349E+02 0.  0.
        254    2    1    2    0    0 -0.90333476350E+03 -0.11105992169E+02  0.53222960498E+03  0.13771681447E+04  0.89285312814E+03 0.  0.
        -24    2    4    4    0    0 -0.58116065351E+03  0.40793205382E+03  0.17799083640E+03  0.73617422965E+03  0.78201616552E+02 0.  0.
         24    2    4    4    0    0 -0.32217410998E+03 -0.41903804598E+03  0.35423876858E+03  0.64099391508E+03  0.77453553049E+02 0.  0.
         13    1    3    3    0    0  0.94169764490E+02 -0.26346020203E+02  0.61803767244E+02  0.11567957024E+03  0.00000000000E+00 0.  1.
        -13    1    3    3    0    0  0.80916499901E+03  0.37452012372E+02  0.41959760873E+03  0.91225698249E+03  0.00000000000E+00 0. -1.
          4    1    6    6  502    0 -0.12748829427E+03 -0.10928767999E+03  0.99398551532E+02  0.19513363170E+03  0.00000000000E+00 0. -1.
          3    1    5    5  503    0 -0.25444418907E+02  0.18347323456E+01  0.11814115234E+02  0.28113306726E+02  0.00000000000E+00 0. -1.
         -4    1    5    5    0  503 -0.55571623461E+03  0.40609732147E+03  0.16617672117E+03  0.70806092292E+03  0.00000000000E+00 0.  1.
         -3    1    6    6    0  502 -0.19468581572E+03 -0.30975036599E+03  0.25484021705E+03  0.44586028338E+03  0.00000000000E+00 0.  1.
<mgrwt>
<rscale>  0 0.21810733E+04</rscale>
<asrwt>0</asrwt>
<pdfrwt beam="1">  1        1 0.26297967E+00 0.21810733E+04</pdfrwt>
<pdfrwt beam="2">  1       -1 0.10703644E+00 0.21810733E+04</pdfrwt>
<totfact> 0.34904734E+00</totfact>
</mgrwt>
</event>
<event>
12    1  0.1506149E-007  0.1676893E+04  0.7818608E-02  0.8774654E-01
         -2   -1    0    0    0  501 -0.00000000000E+00  0.00000000000E+00  0.57448050467E+03  0.57448050467E+03  0.00000000000E+00 0.  1.
          2   -1    0    0  501    0  0.00000000000E+00 -0.00000000000E+00 -0.12237010700E+04  0.12237010700E+04  0.00000000000E+00 0. -1.
         23    2    1    2    0    0 -0.34008513517E+02  0.51956189378E+03 -0.51613394611E+03  0.73879619334E+03  0.91238284170E+02 0.  0.
        254    2    1    2    0    0  0.34008513517E+02 -0.51956189378E+03 -0.13308661920E+03  0.10593853813E+04  0.91295355712E+03 0.  0.
        -24    2    4    4    0    0 -0.24184654662E+03  0.78935076702E+02 -0.27209428120E+03  0.38113165149E+03  0.80656924432E+02 0.  0.
         24    2    4    4    0    0  0.27585506013E+03 -0.59849697048E+03  0.13900766201E+03  0.67825372982E+03  0.80064686549E+02 0.  0.
         11    1    3    3    0    0 -0.28890957858E+02  0.20113365475E+03 -0.14430539009E+03  0.24922576136E+03  0.00000000000E+00 0. -1.
        -11    1    3    3    0    0 -0.51175556589E+01  0.31842823904E+03 -0.37182855602E+03  0.48957043197E+03  0.00000000000E+00 0.  1.
          4    1    6    6  502    0  0.47211457142E+02 -0.18874809511E+03  0.45176159179E+02  0.19973895576E+03  0.00000000000E+00 0. -1.
          1    1    5    5  503    0 -0.22199968656E+02 -0.16077562372E+02 -0.24127974092E+02  0.36516924213E+02  0.00000000000E+00 0. -1.
         -2    1    5    5    0  503 -0.21964657796E+03  0.95012639073E+02 -0.24796630711E+03  0.34461472728E+03  0.00000000000E+00 0.  1.
         -3    1    6    6    0  502  0.22864360299E+03 -0.40974887538E+03  0.93831502828E+02  0.47851477405E+03  0.00000000000E+00 0.  1.
<mgrwt>
<rscale>  0 0.16768929E+04</rscale>
<asrwt>0</asrwt>
<pdfrwt beam="1">  1        2 0.18826170E+00 0.16768929E+04</pdfrwt>
<pdfrwt beam="2">  1       -2 0.88381617E-01 0.16768929E+04</pdfrwt>
<totfact> 0.19261764E+01</totfact>
</mgrwt>
</event>
<event>
12    1  0.1506149E-007  0.1954434E+04  0.7818608E-02  0.8628226E-01
         -2   -1    0    0    0  501 -0.00000000000E+00  0.00000000000E+00  0.48695114129E+03  0.48695114129E+03  0.00000000000E+00 0. -1.
          2   -1    0    0  501    0  0.00000000000E+00 -0.00000000000E+00 -0.19610852550E+04  0.19610852550E+04  0.00000000000E+00 0.  1.
         23    2    1    2    0    0 -0.43441893815E+01 -0.38848745119E+03 -0.14128330842E+04  0.14683228403E+04  0.94515966306E+02 0.  0.
        254    2    1    2    0    0  0.43441893815E+01  0.38848745119E+03 -0.61301029535E+02  0.97971355598E+03  0.89729563904E+03 0.  0.
        -24    2    4    4    0    0  0.15340933087E+02 -0.38418399256E+02 -0.41124100840E+03  0.42167725601E+03  0.83553716931E+02 0.  0.
         24    2    4    4    0    0 -0.10996743705E+02  0.42690585044E+03  0.34993997887E+03  0.55803629998E+03  0.81098642192E+02 0.  0.
         11    1    3    3    0    0 -0.49814074413E+01  0.15984942688E+01 -0.43020394334E+01  0.67732671075E+01  0.00000000000E+00 0. -1.
        -11    1    3    3    0    0  0.63721805985E+00 -0.39008594546E+03 -0.14085310447E+04  0.14615495732E+04  0.00000000000E+00 0.  1.
          4    1    6    6  502    0  0.15217784226E+02  0.70034246294E+02  0.28832081817E+02  0.77250667004E+02  0.00000000000E+00 0. -1.
          3    1    5    5  503    0  0.15355820358E+02 -0.32254813547E+00 -0.93428801213E+01  0.17977615668E+02  0.00000000000E+00 0. -1.
         -4    1    5    5    0  503 -0.14887271007E-01 -0.38095851121E+02 -0.40189812828E+03  0.40369964034E+03  0.00000000000E+00 0.  1.
         -3    1    6    6    0  502 -0.26214527931E+02  0.35687160415E+03  0.32110789705E+03  0.48078563297E+03  0.00000000000E+00 0.  1.
<mgrwt>
<rscale>  0 0.19544336E+04</rscale>
<asrwt>0</asrwt>
<pdfrwt beam="1">  1        2 0.30170543E+00 0.19544336E+04</pdfrwt>
<pdfrwt beam="2">  1       -2 0.74915559E-01 0.19544336E+04</pdfrwt>
<totfact> 0.10481997E+01</totfact>
</mgrwt>
</event>
<event>
12    1  0.1506149E-007  0.2210011E+04  0.7818608E-02  0.8514273E-01
          2   -1    0    0  501    0  0.00000000000E+00  0.00000000000E+00  0.42949726653E+04  0.42949726653E+04  0.00000000000E+00 0. -1.
         -2   -1    0    0    0  501 -0.00000000000E+00 -0.00000000000E+00 -0.28429455055E+03  0.28429455055E+03  0.00000000000E+00 0.  1.
         23    2    1    2    0    0  0.70382989796E+03  0.11784454681E+03  0.47144550385E+03  0.86034489060E+03  0.93105344730E+02 0.  0.
        254    2    1    2    0    0 -0.70382989796E+03 -0.11784454681E+03  0.35392326109E+04  0.37189223252E+04  0.89160076529E+03 0.  0.
        -24    2    4    4    0    0 -0.37810016979E+03  0.63211952437E+02  0.41206239301E+03  0.56856617918E+03  0.80725429996E+02 0.  0.
         24    2    4    4    0    0 -0.32572972817E+03 -0.18105649924E+03  0.31271702179E+04  0.31503561460E+04  0.81663723123E+02 0.  0.
         11    1    3    3    0    0  0.18063113094E+02  0.13269694257E+02  0.32363044719E+02  0.39366578513E+02  0.00000000000E+00 0. -1.
        -11    1    3    3    0    0  0.68576678486E+03  0.10457485255E+03  0.43908245913E+03  0.82097831209E+03  0.00000000000E+00 0.  1.
          4    1    6    6  502    0 -0.72873253004E+02 -0.46246621938E+02  0.47759991781E+03  0.48533590691E+03  0.00000000000E+00 0. -1.
          1    1    5    5  503    0 -0.21848594863E+03  0.65084622045E+02  0.28226142258E+03  0.36282727082E+03  0.00000000000E+00 0. -1.
         -2    1    5    5    0  503 -0.15961422116E+03 -0.18726696076E+01  0.12980097044E+03  0.20573890836E+03  0.00000000000E+00 0.  1.
         -3    1    6    6    0  502 -0.25285647516E+03 -0.13480987731E+03  0.26495703000E+04  0.26650202391E+04  0.00000000000E+00 0.  1.
<mgrwt>
<rscale>  0 0.22100112E+04</rscale>
<asrwt>0</asrwt>
<pdfrwt beam="1">  1        2 0.66076498E+00 0.22100112E+04</pdfrwt>
<pdfrwt beam="2">  1       -2 0.43737626E-01 0.22100112E+04</pdfrwt>
<totfact> 0.87599013E-01</totfact>
</mgrwt>
</event>
<event>
12    1  0.1506149E-007  0.1613168E+04  0.7818608E-02  0.8812499E-01
          1   -1    0    0  501    0  0.00000000000E+00  0.00000000000E+00  0.97827415702E+03  0.97827415702E+03  0.00000000000E+00 0. -1.
         -1   -1    0    0    0  501 -0.00000000000E+00 -0.00000000000E+00 -0.66502609616E+03  0.66502609616E+03  0.00000000000E+00 0.  1.
         23    2    1    2    0    0  0.26901237528E+03  0.45976127364E+03  0.11854208536E+03  0.55315123360E+03  0.90421095083E+02 0.  0.
        254    2    1    2    0    0 -0.26901237528E+03 -0.45976127364E+03  0.19470597550E+03  0.10901490196E+04  0.93100289001E+03 0.  0.
        -24    2    4    4    0    0  0.19438326642E+03 -0.45116047344E+03  0.33382168290E+03  0.59958226435E+03  0.82044796916E+02 0.  0.
         24    2    4    4    0    0 -0.46339564170E+03 -0.86008002038E+01 -0.13911570740E+03  0.49056675523E+03  0.80579567993E+02 0.  0.
         13    1    3    3    0    0  0.21688980866E+03  0.28659330658E+03  0.82259488093E+02  0.36870521539E+03  0.00000000000E+00 0. -1.
        -13    1    3    3    0    0  0.52122566616E+02  0.17316796706E+03  0.36282597271E+02  0.18444601820E+03  0.00000000000E+00 0.  1.
          4    1    6    6  502    0 -0.63280787715E+02  0.25304824648E+02 -0.29951265125E+02  0.74443740683E+02  0.00000000000E+00 0. -1.
          1    1    5    5  503    0 -0.28387454958E+01 -0.19184400511E+02  0.48654311290E+00  0.19399392340E+02  0.00000000000E+00 0. -1.
         -2    1    5    5    0  503  0.19722201192E+03 -0.43197607292E+03  0.33333513978E+03  0.58018287201E+03  0.00000000000E+00 0.  1.
         -1    1    6    6    0  502 -0.40011485398E+03 -0.33905624852E+02 -0.10916444228E+03  0.41612301454E+03  0.00000000000E+00 0.  1.
<mgrwt>
<rscale>  0 0.16131681E+04</rscale>
<asrwt>0</asrwt>
<pdfrwt beam="1">  1        1 0.15050372E+00 0.16131681E+04</pdfrwt>
<pdfrwt beam="2">  1       -1 0.10231171E+00 0.16131681E+04</pdfrwt>
<totfact> 0.13643692E+01</totfact>
</mgrwt>
</event>
<event>
12    1  0.1506149E-007  0.1931426E+04  0.7818608E-02  0.8639370E-01
         -2   -1    0    0    0  501 -0.00000000000E+00  0.00000000000E+00  0.59531998611E+03  0.59531998611E+03  0.00000000000E+00 0.  1.
          2   -1    0    0  501    0  0.00000000000E+00 -0.00000000000E+00 -0.15665545418E+04  0.15665545418E+04  0.00000000000E+00 0. -1.
         23    2    1    2    0    0 -0.84540352263E+02 -0.49640353035E+03 -0.10073980712E+04  0.11299243697E+04  0.91184818410E+02 0.  0.
        254    2    1    2    0    0  0.84540352263E+02  0.49640353035E+03  0.36163515550E+02  0.10319501582E+04  0.90002766243E+03 0.  0.
        -24    2    4    4    0    0 -0.24258156004E+03  0.39866703756E+03 -0.28825733550E+03  0.55452838535E+03  0.81413872171E+02 0.  0.
         24    2    4    4    0    0  0.32712191230E+03  0.97736492792E+02  0.32442085105E+03  0.47742177290E+03  0.78239971305E+02 0.  0.
         11    1    3    3    0    0  0.46462102493E+01 -0.20490216621E+03 -0.35748424629E+03  0.41206974086E+03  0.00000000000E+00 0.  1.
        -11    1    3    3    0    0 -0.89186562512E+02 -0.29150136415E+03 -0.64991382495E+03  0.71785462880E+03  0.00000000000E+00 0. -1.
          4    1    6    6  502    0  0.27957936855E+03  0.57090378680E+02  0.28605453427E+03  0.40404347692E+03  0.00000000000E+00 0. -1.
          3    1    5    5  503    0 -0.24630192818E+03  0.36828171845E+03 -0.27164698824E+03  0.51970005791E+03  0.00000000000E+00 0. -1.
         -4    1    5    5    0  503  0.37203681377E+01  0.30385319106E+02 -0.16610347260E+02  0.34828327441E+02  0.00000000000E+00 0.  1.
         -3    1    6    6    0  502  0.47542543748E+02  0.40646114112E+02  0.38366316775E+02  0.73378295982E+02  0.00000000000E+00 0.  1.
<mgrwt>
<rscale>  0 0.19314256E+04</rscale>
<asrwt>0</asrwt>
<pdfrwt beam="1">  1        2 0.24100839E+00 0.19314256E+04</pdfrwt>
<pdfrwt beam="2">  1       -2 0.91587692E-01 0.19314256E+04</pdfrwt>
<totfact> 0.11040388E+01</totfact>
</mgrwt>
</event>
<event>
12    1  0.1506149E-007  0.1733130E+04  0.7818608E-02  0.8742691E-01
         -2   -1    0    0    0  501 -0.00000000000E+00  0.00000000000E+00  0.94430350858E+03  0.94430350858E+03  0.00000000000E+00 0.  1.
          2   -1    0    0  501    0  0.00000000000E+00 -0.00000000000E+00 -0.79522650422E+03  0.79522650422E+03  0.00000000000E+00 0. -1.
         23    2    1    2    0    0 -0.47655201794E+03 -0.37116346871E+03 -0.48376647668E+02  0.61280242555E+03  0.91227004839E+02 0.  0.
        254    2    1    2    0    0  0.47655201794E+03  0.37116346871E+03  0.19745365204E+03  0.11267275872E+04  0.93041010573E+03 0.  0.
        -24    2    4    4    0    0  0.26092728448E+03  0.65636438604E+03 -0.10044149838E+01  0.71032903690E+03  0.75293271757E+02 0.  0.
         24    2    4    4    0    0  0.21562473346E+03 -0.28520091733E+03  0.19845806702E+03  0.41639855034E+03  0.78540177216E+02 0.  0.
         11    1    3    3    0    0 -0.47484960165E+03 -0.37604750870E+03 -0.47945814893E+02  0.60761227288E+03  0.00000000000E+00 0.  1.
        -11    1    3    3    0    0 -0.17024162904E+01  0.48840399912E+01 -0.43083277501E+00  0.51901526703E+01  0.00000000000E+00 0. -1.
          4    1    6    6  502    0  0.22216978684E+02 -0.43803533203E+02  0.42743418584E+00  0.49117475127E+02  0.00000000000E+00 0. -1.
          3    1    5    5  503    0  0.20794423615E+03  0.43715193335E+03  0.14147003444E+02  0.48429614482E+03  0.00000000000E+00 0. -1.
         -4    1    5    5    0  503  0.52983048335E+02  0.21921245268E+03 -0.15151418427E+02  0.22603289208E+03  0.00000000000E+00 0.  1.
         -3    1    6    6    0  502  0.19340775478E+03 -0.24139738412E+03  0.19803063283E+03  0.36728107521E+03  0.00000000000E+00 0.  1.
<mgrwt>
<rscale>  0 0.17331303E+04</rscale>
<asrwt>0</asrwt>
<pdfrwt beam="1">  1        2 0.12234254E+00 0.17331303E+04</pdfrwt>
<pdfrwt beam="2">  1       -2 0.14527746E+00 0.17331303E+04</pdfrwt>
<totfact> 0.10740235E+01</totfact>
</mgrwt>
</event>
<event>
12    1  0.1506149E-007  0.1325358E+04  0.7818608E-02  0.9009695E-01
          2   -1    0    0  501    0  0.00000000000E+00  0.00000000000E+00  0.12887144920E+04  0.12887144920E+04  0.00000000000E+00 0. -1.
         -2   -1    0    0    0  501 -0.00000000000E+00 -0.00000000000E+00 -0.34076069500E+03  0.34076069500E+03  0.00000000000E+00 0.  1.
         23    2    1    2    0    0 -0.30818981456E+03  0.85287346972E+02  0.88614092264E+02  0.34412914906E+03  0.91200441533E+02 0.  0.
        254    2    1    2    0    0  0.30818981456E+03 -0.85287346972E+02  0.85933970477E+03  0.12853460380E+04  0.90077456434E+03 0.  0.
        -24    2    4    4    0    0  0.43269333529E+03  0.27668042047E+03  0.67921563660E+03  0.85523832756E+03  0.79518164215E+02 0.  0.
         24    2    4    4    0    0 -0.12450352073E+03 -0.36196776744E+03  0.18012406816E+03  0.43010771040E+03  0.77628417991E+02 0.  0.
         13    1    3    3    0    0 -0.58485133656E+02  0.37635356325E+02 -0.12288037198E+02  0.70625255841E+02  0.00000000000E+00 0. -1.
        -13    1    3    3    0    0 -0.24970468090E+03  0.47651990646E+02  0.10090212946E+03  0.27350389322E+03  0.00000000000E+00 0.  1.
          4    1    6    6  502    0 -0.69044211547E+02 -0.92808202383E+02  0.49249308292E+02  0.12572175605E+03  0.00000000000E+00 0. -1.
          1    1    5    5  503    0  0.11884966241E+03  0.48191438550E+02  0.21217219609E+03  0.24792074902E+03  0.00000000000E+00 0. -1.
         -2    1    5    5    0  503  0.31384367288E+03  0.22848898192E+03  0.46704344052E+03  0.60731757853E+03  0.00000000000E+00 0.  1.
         -3    1    6    6    0  502 -0.55459309186E+02 -0.26915956505E+03  0.13087475987E+03  0.30438595435E+03  0.00000000000E+00 0.  1.
<mgrwt>
<rscale>  0 0.13253577E+04</rscale>
<asrwt>0</asrwt>
<pdfrwt beam="1">  1        2 0.19826377E+00 0.13253577E+04</pdfrwt>
<pdfrwt beam="2">  1       -2 0.52424723E-01 0.13253577E+04</pdfrwt>
<totfact> 0.56380689E+01</totfact>
</mgrwt>
</event>
<event>
12    1  0.1506149E-007  0.1594989E+04  0.7818608E-02  0.8823633E-01
         -1   -1    0    0    0  501 -0.00000000000E+00  0.00000000000E+00  0.50012547299E+03  0.50012547299E+03  0.00000000000E+00 0.  1.
          1   -1    0    0  501    0  0.00000000000E+00 -0.00000000000E+00 -0.12716753153E+04  0.12716753153E+04  0.00000000000E+00 0. -1.
         23    2    1    2    0    0 -0.15699612727E+02 -0.19724931722E+03  0.29428081686E+03  0.36583280032E+03  0.89881408714E+02 0.  0.
        254    2    1    2    0    0  0.15699612727E+02  0.19724931722E+03 -0.10658306592E+04  0.14059679880E+04  0.89531961792E+03 0.  0.
        -24    2    4    4    0    0 -0.94896408869E+02  0.23449223380E+03 -0.11892836571E+04  0.12187611461E+04  0.83613265353E+02 0.  0.
         24    2    4    4    0    0  0.11059602160E+03 -0.37242916574E+02  0.12345299790E+03  0.18720684188E+03  0.78659037157E+02 0.  0.
         13    1    3    3    0    0  0.27149126215E+02 -0.20062983423E+02  0.61630550122E+02  0.70270356954E+02  0.00000000000E+00 0. -1.
        -13    1    3    3    0    0 -0.42848738942E+02 -0.17718633380E+03  0.23265026673E+03  0.29556244336E+03  0.00000000000E+00 0.  1.
          2    1    6    6  502    0  0.10180294865E+03 -0.51234491220E+02  0.76066667417E+02  0.13702171849E+03  0.00000000000E+00 0. -1.
          3    1    5    5  503    0 -0.10409334895E+03  0.18467433210E+03 -0.86825529724E+03  0.89376020018E+03  0.00000000000E+00 0. -1.
         -4    1    5    5    0  503  0.91969400849E+01  0.49817901694E+02 -0.32102835986E+03  0.32500094596E+03  0.00000000000E+00 0.  1.
         -1    1    6    6    0  502  0.87930729445E+01  0.13991574647E+02  0.47386330486E+02  0.50185123391E+02  0.00000000000E+00 0.  1.
<mgrwt>
<rscale>  0 0.15949887E+04</rscale>
<asrwt>0</asrwt>
<pdfrwt beam="1">  1        1 0.19564235E+00 0.15949887E+04</pdfrwt>
<pdfrwt beam="2">  1       -1 0.76942381E-01 0.15949887E+04</pdfrwt>
<totfact> 0.15417903E+01</totfact>
</mgrwt>
</event>
<event>
12    1  0.1506149E-007  0.1622883E+04  0.7818608E-02  0.8806612E-01
          1   -1    0    0  501    0  0.00000000000E+00  0.00000000000E+00  0.21348002930E+04  0.21348002930E+04  0.00000000000E+00 0. -1.
         -1   -1    0    0    0  501 -0.00000000000E+00 -0.00000000000E+00 -0.30843051913E+03  0.30843051913E+03  0.00000000000E+00 0.  1.
         23    2    1    2    0    0  0.10150213155E+03  0.91876630236E+02  0.14429367505E+04  0.14522996471E+04  0.91453818370E+02 0.  0.
        254    2    1    2    0    0 -0.10150213155E+03 -0.91876630236E+02  0.38343302336E+03  0.99093116511E+03  0.90342663935E+03 0.  0.
        -24    2    4    4    0    0 -0.14438264338E+02  0.19303066242E+03  0.58669773782E+03  0.62169546481E+03  0.69438572011E+02 0.  0.
         24    2    4    4    0    0 -0.87063867210E+02 -0.28490729266E+03 -0.20326471446E+03  0.36923570030E+03  0.79159180450E+02 0.  0.
         11    1    3    3    0    0  0.26367308902E+02  0.61807621806E+01  0.77136171062E+02  0.81752221290E+02  0.00000000000E+00 0.  1.
        -11    1    3    3    0    0  0.75134822646E+02  0.85695868055E+02  0.13658005795E+04  0.13705474258E+04  0.00000000000E+00 0. -1.
          2    1    6    6  502    0 -0.21491753908E+02 -0.12680416255E+03 -0.45404062797E+02  0.13639178877E+03  0.00000000000E+00 0. -1.
          1    1    5    5  503    0  0.99142907178E+01  0.47566892478E+02  0.76663425232E+02  0.90764437908E+02  0.00000000000E+00 0. -1.
         -2    1    5    5    0  503 -0.24352555056E+02  0.14546376994E+03  0.51003431259E+03  0.53093102690E+03  0.00000000000E+00 0.  1.
         -1    1    6    6    0  502 -0.65572113302E+02 -0.15810313011E+03 -0.15786065167E+03  0.23284391153E+03  0.00000000000E+00 0.  1.
<mgrwt>
<rscale>  0 0.16228833E+04</rscale>
<asrwt>0</asrwt>
<pdfrwt beam="1">  1        1 0.32843080E+00 0.16228833E+04</pdfrwt>
<pdfrwt beam="2">  1       -1 0.47450851E-01 0.16228833E+04</pdfrwt>
<totfact> 0.10252404E+01</totfact>
</mgrwt>
</event>
<event>
12    1  0.1506149E-007  0.2000607E+04  0.7818608E-02  0.8606337E-01
          1   -1    0    0  501    0  0.00000000000E+00  0.00000000000E+00  0.12544868729E+04  0.12544868729E+04  0.00000000000E+00 0. -1.
         -1   -1    0    0    0  501 -0.00000000000E+00 -0.00000000000E+00 -0.79762228343E+03  0.79762228343E+03  0.00000000000E+00 0.  1.
         23    2    1    2    0    0 -0.12101622834E+03 -0.70186749095E+03 -0.16106159667E+03  0.73561764602E+03  0.89048193880E+02 0.  0.
        254    2    1    2    0    0  0.12101622834E+03  0.70186749095E+03  0.61792618613E+03  0.13164915103E+04  0.91872423655E+03 0.  0.
        -24    2    4    4    0    0  0.20018858095E+03  0.89711837872E+03  0.57460275714E+03  0.10869728938E+04  0.80280072505E+02 0.  0.
         24    2    4    4    0    0 -0.79172352603E+02 -0.19525088776E+03  0.43323428986E+02  0.22951861648E+03  0.80066879678E+02 0.  0.
         11    1    3    3    0    0 -0.63581220437E+02 -0.18874518682E+03 -0.71313857420E+02  0.21154900945E+03  0.00000000000E+00 0. -1.
        -11    1    3    3    0    0 -0.57435007906E+02 -0.51312230414E+03 -0.89747739245E+02  0.52406863657E+03  0.00000000000E+00 0.  1.
          2    1    6    6  502    0 -0.29726360015E+02 -0.77337179064E+02 -0.22297466701E+02  0.85801356438E+02  0.00000000000E+00 0. -1.
          1    1    5    5  503    0  0.30490512184E+02  0.75299165864E+02  0.73697146599E+02  0.10968548277E+03  0.00000000000E+00 0. -1.
         -2    1    5    5    0  503  0.16969806876E+03  0.82181921285E+03  0.50090561054E+03  0.97728741106E+03  0.00000000000E+00 0.  1.
         -1    1    6    6    0  502 -0.49445992588E+02 -0.11791370870E+03  0.65620895688E+02  0.14371726004E+03  0.00000000000E+00 0.  1.
<mgrwt>
<rscale>  0 0.20006066E+04</rscale>
<asrwt>0</asrwt>
<pdfrwt beam="1">  1        1 0.19299798E+00 0.20006066E+04</pdfrwt>
<pdfrwt beam="2">  1       -1 0.12271112E+00 0.20006066E+04</pdfrwt>
<totfact> 0.53014994E+00</totfact>
</mgrwt>
</event>
<event>
12    1  0.1506149E-007  0.1393023E+04  0.7818608E-02  0.8958884E-01
          1   -1    0    0  501    0  0.00000000000E+00  0.00000000000E+00  0.57139935285E+03  0.57139935285E+03  0.00000000000E+00 0. -1.
         -1   -1    0    0    0  501 -0.00000000000E+00 -0.00000000000E+00 -0.84901827126E+03  0.84901827126E+03  0.00000000000E+00 0.  1.
         23    2    1    2    0    0 -0.10121902451E+03  0.20984502723E+03 -0.40512555112E+03  0.47608314131E+03  0.90819705426E+02 0.  0.
        254    2    1    2    0    0  0.10121902451E+03 -0.20984502723E+03  0.12750663271E+03  0.94433448279E+03  0.90621710844E+03 0.  0.
        -24    2    4    4    0    0  0.28522055833E+03  0.21393071341E+03  0.27008691730E+03  0.45421955748E+03  0.79065456874E+02 0.  0.
         24    2    4    4    0    0 -0.18400153381E+03 -0.42377574064E+03 -0.14258028459E+03  0.49011492531E+03  0.80256212589E+02 0.  0.
         13    1    3    3    0    0  0.31198900136E+01  0.55655815644E+02 -0.48948817879E+02  0.74184164755E+02  0.00000000000E+00 0. -1.
        -13    1    3    3    0    0 -0.10433891453E+03  0.15418921159E+03 -0.35617673324E+03  0.40189897656E+03  0.00000000000E+00 0.  1.
          4    1    6    6  502    0 -0.15496643568E+03 -0.29465065898E+03 -0.73956224973E+02  0.34103244749E+03  0.00000000000E+00 0. -1.
          3    1    5    5  503    0  0.24143097557E+03  0.18505515766E+03  0.26134487335E+03  0.40104297795E+03  0.00000000000E+00 0. -1.
         -4    1    5    5    0  503  0.43789582757E+02  0.28875555746E+02  0.87420439518E+01  0.53176579527E+02  0.00000000000E+00 0.  1.
         -3    1    6    6    0  502 -0.29035098137E+02 -0.12912508166E+03 -0.68624059615E+02  0.14908247783E+03  0.00000000000E+00 0.  1.
<mgrwt>
<rscale>  0 0.13930233E+04</rscale>
<asrwt>0</asrwt>
<pdfrwt beam="1">  1        1 0.87907593E-01 0.13930233E+04</pdfrwt>
<pdfrwt beam="2">  1       -1 0.13061819E+00 0.13930233E+04</pdfrwt>
<totfact> 0.17966121E+01</totfact>
</mgrwt>
</event>
<event>
12    1  0.1506149E-007  0.1167789E+04  0.7818608E-02  0.9141528E-01
          1   -1    0    0  501    0  0.00000000000E+00  0.00000000000E+00  0.76588735533E+03  0.76588735533E+03  0.00000000000E+00 0. -1.
         -1   -1    0    0    0  501 -0.00000000000E+00 -0.00000000000E+00 -0.44514710389E+03  0.44514710389E+03  0.00000000000E+00 0.  1.
         23    2    1    2    0    0  0.30366376198E+02 -0.21933607699E+03  0.20134141521E+03  0.31290480974E+03  0.91327011373E+02 0.  0.
        254    2    1    2    0    0 -0.30366376198E+02  0.21933607699E+03  0.11939883622E+03  0.89812964947E+03  0.86217768105E+03 0.  0.
        -24    2    4    4    0    0 -0.40537194107E+03  0.22833482807E+03 -0.54882518770E+02  0.47584056825E+03  0.83360369535E+02 0.  0.
         24    2    4    4    0    0  0.37500556487E+03 -0.89987510740E+01  0.17428135499E+03  0.42228908123E+03  0.85111257888E+02 0.  0.
         13    1    3    3    0    0 -0.13240426036E+00 -0.19423282018E+03  0.13803593100E+03  0.23828622330E+03  0.00000000000E+00 0. -1.
        -13    1    3    3    0    0  0.30498780459E+02 -0.25103256815E+02  0.63305484210E+02  0.74618586447E+02  0.00000000000E+00 0.  1.
          4    1    6    6  502    0  0.37896593319E+02  0.89403751688E+01  0.48117706483E+02  0.61898269528E+02  0.00000000000E+00 0. -1.
          1    1    5    5  503    0 -0.90821707708E+02  0.64576588200E+02 -0.47496886104E+02  0.12113906275E+03  0.00000000000E+00 0. -1.
         -2    1    5    5    0  503 -0.31455023336E+03  0.16375823986E+03 -0.73856326664E+01  0.35470150549E+03  0.00000000000E+00 0.  1.
         -3    1    6    6    0  502  0.33710897155E+03 -0.17939126243E+02  0.12616364851E+03  0.36039081170E+03  0.00000000000E+00 0.  1.
<mgrwt>
<rscale>  0 0.11677886E+04</rscale>
<asrwt>0</asrwt>
<pdfrwt beam="1">  1        1 0.11782882E+00 0.11677886E+04</pdfrwt>
<pdfrwt beam="2">  1       -1 0.68484170E-01 0.11677886E+04</pdfrwt>
<totfact> 0.50747679E+01</totfact>
</mgrwt>
</event>
<event>
12    1  0.1506149E-007  0.2834220E+04  0.7818608E-02  0.8292722E-01
         -2   -1    0    0    0  501 -0.00000000000E+00  0.00000000000E+00  0.12913535660E+04  0.12913535660E+04  0.00000000000E+00 0. -1.
          2   -1    0    0  501    0  0.00000000000E+00 -0.00000000000E+00 -0.15551132730E+04  0.15551132730E+04  0.00000000000E+00 0.  1.
         23    2    1    2    0    0  0.71762963542E+03  0.15570113943E+03  0.89295271737E+03  0.11598731371E+04  0.93305950194E+02 0.  0.
        254    2    1    2    0    0 -0.71762963542E+03 -0.15570113943E+03 -0.11567124244E+04  0.16865937019E+04  0.98355454561E+03 0.  0.
        -24    2    4    4    0    0 -0.72952712287E+03 -0.11630923206E+03 -0.13119227052E+04  0.15077014203E+04  0.79276276306E+02 0.  0.
         24    2    4    4    0    0  0.11897487444E+02 -0.39391907368E+02  0.15521028079E+03  0.17889228162E+03  0.78860285220E+02 0.  0.
         11    1    3    3    0    0  0.21587366701E+03  0.89650290542E+02  0.26465084053E+03  0.35309868606E+03  0.00000000000E+00 0. -1.
        -11    1    3    3    0    0  0.50175596841E+03  0.66050848890E+02  0.62830187684E+03  0.80677445108E+03  0.00000000000E+00 0.  1.
          4    1    6    6  502    0  0.21162671992E+02 -0.55371759523E+02  0.14733350416E+03  0.15881137204E+03  0.00000000000E+00 0. -1.
          3    1    5    5  503    0 -0.50492475476E+03 -0.94625339136E+02 -0.97756723975E+03  0.11043281537E+04  0.00000000000E+00 0. -1.
         -4    1    5    5    0  503 -0.22460236810E+03 -0.21683892927E+02 -0.33435546542E+03  0.40337326662E+03  0.00000000000E+00 0.  1.
         -3    1    6    6    0  502 -0.92651845472E+01  0.15979852155E+02  0.78767766292E+01  0.20080909582E+02  0.00000000000E+00 0.  1.
<mgrwt>
<rscale>  0 0.28342202E+04</rscale>
<asrwt>0</asrwt>
<pdfrwt beam="1">  1        2 0.23924820E+00 0.28342202E+04</pdfrwt>
<pdfrwt beam="2">  1       -2 0.19866978E+00 0.28342202E+04</pdfrwt>
<totfact> 0.13917745E+00</totfact>
</mgrwt>
</event>
<event>
12    1  0.1506149E-007  0.2956291E+04  0.7818608E-02  0.8256324E-01
          2   -1    0    0  501    0  0.00000000000E+00  0.00000000000E+00  0.27996571652E+04  0.27996571652E+04  0.00000000000E+00 0.  1.
         -2   -1    0    0    0  501 -0.00000000000E+00 -0.00000000000E+00 -0.78042196874E+03  0.78042196874E+03  0.00000000000E+00 0. -1.
         23    2    1    2    0    0  0.44696518489E+03  0.82208706449E+03 -0.24386481038E+03  0.97140087392E+03  0.92436973125E+02 0.  0.
        254    2    1    2    0    0 -0.44696518489E+03 -0.82208706449E+03  0.22631000068E+04  0.26086782600E+04  0.89887463262E+03 0.  0.
        -24    2    4    4    0    0 -0.44948486582E+03 -0.41753364329E+03  0.20565860271E+04  0.21476575261E+04  0.80720345984E+02 0.  0.
         24    2    4    4    0    0  0.25196809314E+01 -0.40455342120E+03  0.20651397966E+03  0.46102073393E+03  0.78881391475E+02 0.  0.
         13    1    3    3    0    0  0.23082273240E+03  0.44038207586E+03 -0.17649935794E+03  0.52760546802E+03  0.00000000000E+00 0.  1.
        -13    1    3    3    0    0  0.21614245248E+03  0.38170498863E+03 -0.67365452441E+02  0.44379540590E+03  0.00000000000E+00 0. -1.
          2    1    6    6  502    0 -0.75489132054E+00 -0.34020679978E+03  0.13845655161E+03  0.36730294466E+03  0.00000000000E+00 0. -1.
          1    1    5    5  503    0 -0.35774886699E+03 -0.30969690520E+03  0.16789889488E+04  0.17443911015E+04  0.00000000000E+00 0. -1.
         -2    1    5    5    0  503 -0.91735998830E+02 -0.10783673809E+03  0.37759707835E+03  0.40326642452E+03  0.00000000000E+00 0.  1.
         -1    1    6    6    0  502  0.32745722519E+01 -0.64346621422E+02  0.68057428048E+02  0.93717789263E+02  0.00000000000E+00 0.  1.
<mgrwt>
<rscale>  0 0.29562909E+04</rscale>
<asrwt>0</asrwt>
<pdfrwt beam="1">  1        2 0.43071648E+00 0.29562909E+04</pdfrwt>
<pdfrwt beam="2">  1       -2 0.12006492E+00 0.29562909E+04</pdfrwt>
<totfact> 0.10535037E+00</totfact>
</mgrwt>
</event>
<event>
12    1  0.1506149E-007  0.1335864E+04  0.7818608E-02  0.9001598E-01
          2   -1    0    0  501    0  0.00000000000E+00  0.00000000000E+00  0.58910529988E+03  0.58910529988E+03  0.00000000000E+00 0. -1.
         -2   -1    0    0    0  501 -0.00000000000E+00 -0.00000000000E+00 -0.75730644756E+03  0.75730644756E+03  0.00000000000E+00 0.  1.
         23    2    1    2    0    0 -0.18461200315E+02 -0.20582456129E+03  0.26198103126E+03  0.34608990827E+03  0.91867284300E+02 0.  0.
        254    2    1    2    0    0  0.18461200315E+02  0.20582456129E+03 -0.43018217894E+03  0.10003218392E+04  0.87913736635E+03 0.  0.
        -24    2    4    4    0    0 -0.29613212688E+02 -0.18103267175E+03  0.18196911154E+03  0.27017544439E+03  0.78944553923E+02 0.  0.
         24    2    4    4    0    0  0.48074413002E+02  0.38685723304E+03 -0.61215129047E+03  0.73014639478E+03  0.80092992494E+02 0.  0.
         11    1    3    3    0    0 -0.75769652160E+00 -0.13693594276E+03  0.10118757642E+03  0.17026729617E+03  0.00000000000E+00 0. -1.
        -11    1    3    3    0    0 -0.17703503793E+02 -0.68888618531E+02  0.16079345484E+03  0.17582261211E+03  0.00000000000E+00 0.  1.
          2    1    6    6  502    0  0.95039568448E+01  0.63001667280E+00 -0.10721436523E+02  0.14341245337E+02  0.00000000000E+00 0. -1.
          1    1    5    5  503    0  0.14197976741E+02 -0.27812479960E+01  0.23901824580E+02  0.27939490013E+02  0.00000000000E+00 0. -1.
         -2    1    5    5    0  503 -0.43811189429E+02 -0.17825142375E+03  0.15806728696E+03  0.24223595438E+03  0.00000000000E+00 0.  1.
         -1    1    6    6    0  502  0.38570456158E+02  0.38622721636E+03 -0.60142985395E+03  0.71580514944E+03  0.00000000000E+00 0.  1.
<mgrwt>
<rscale>  0 0.13358641E+04</rscale>
<asrwt>0</asrwt>
<pdfrwt beam="1">  1        2 0.90631585E-01 0.13358641E+04</pdfrwt>
<pdfrwt beam="2">  1       -2 0.11650868E+00 0.13358641E+04</pdfrwt>
<totfact> 0.28312713E+01</totfact>
</mgrwt>
</event>
<event>
12    1  0.1506149E-007  0.2423619E+04  0.7818608E-02  0.8430713E-01
          1   -1    0    0  501    0  0.00000000000E+00  0.00000000000E+00  0.10687419619E+04  0.10687419619E+04  0.00000000000E+00 0. -1.
         -1   -1    0    0    0  501 -0.00000000000E+00 -0.00000000000E+00 -0.13740293390E+04  0.13740293390E+04  0.00000000000E+00 0.  1.
         23    2    1    2    0    0  0.12381211871E+02  0.77314556841E+03  0.57955962516E+03  0.97057913112E+03  0.90703507615E+02 0.  0.
        254    2    1    2    0    0 -0.12381211871E+02 -0.77314556841E+03 -0.88484700227E+03  0.14721921697E+04  0.88684170112E+03 0.  0.
        -24    2    4    4    0    0 -0.59059184505E+01  0.17939561462E+03 -0.49184873312E+02  0.20247271496E+03  0.79739464021E+02 0.  0.
         24    2    4    4    0    0 -0.64752934208E+01 -0.95254118302E+03 -0.83566212896E+03  0.12697194548E+04  0.80496368213E+02 0.  0.
         11    1    3    3    0    0  0.38229255451E+02  0.67991465738E+03  0.49238300686E+03  0.84034900056E+03  0.00000000000E+00 0. -1.
        -11    1    3    3    0    0 -0.25848043580E+02  0.93230911025E+02  0.87176618309E+02  0.13023013057E+03  0.00000000000E+00 0.  1.
          4    1    6    6  502    0  0.34497801550E+02 -0.27298114477E+03 -0.23767117753E+03  0.36358821810E+03  0.00000000000E+00 0. -1.
          3    1    5    5  503    0  0.29178194717E+02  0.31162733815E+02 -0.20933866338E+02  0.47546921937E+02  0.00000000000E+00 0. -1.
         -4    1    5    5    0  503 -0.35084113168E+02  0.14823288080E+03 -0.28251006973E+02  0.15492579302E+03  0.00000000000E+00 0.  1.
         -3    1    6    6    0  502 -0.40973094971E+02 -0.67956003826E+03 -0.59799095143E+03  0.90613123669E+03  0.00000000000E+00 0.  1.
<mgrwt>
<rscale>  0 0.24236195E+04</rscale>
<asrwt>0</asrwt>
<pdfrwt beam="1">  1        1 0.16442184E+00 0.24236195E+04</pdfrwt>
<pdfrwt beam="2">  1       -1 0.21138913E+00 0.24236195E+04</pdfrwt>
<totfact> 0.15063230E+00</totfact>
</mgrwt>
</event>
<event>
12    1  0.1506149E-007  0.1419536E+04  0.7818608E-02  0.8939798E-01
          2   -1    0    0  501    0  0.00000000000E+00  0.00000000000E+00  0.13212890176E+04  0.13212890176E+04  0.00000000000E+00 0. -1.
         -2   -1    0    0    0  501 -0.00000000000E+00 -0.00000000000E+00 -0.38127209012E+03  0.38127209012E+03  0.00000000000E+00 0.  1.
         23    2    1    2    0    0 -0.18151348866E+03 -0.22570926247E+03  0.68073173139E+03  0.74485803851E+03  0.86752462089E+02 0.  0.
        254    2    1    2    0    0  0.18151348866E+03  0.22570926247E+03  0.25928519610E+03  0.95770306922E+03  0.87525684124E+03 0.  0.
        -24    2    4    4    0    0  0.34404843975E+03  0.23006371019E+03 -0.19792416261E+03  0.46584772402E+03  0.80879467046E+02 0.  0.
         24    2    4    4    0    0 -0.16253495109E+03 -0.43544477107E+01  0.45720935871E+03  0.49185534520E+03  0.80278959740E+02 0.  0.
         13    1    3    3    0    0 -0.78337281126E+02 -0.10970466685E+03  0.42319573625E+03  0.44414690669E+03  0.00000000000E+00 0. -1.
        -13    1    3    3    0    0 -0.10317620754E+03 -0.11600459562E+03  0.25753599515E+03  0.30071113182E+03  0.00000000000E+00 0.  1.
          2    1    6    6  502    0 -0.11394146890E+03 -0.32365710839E+01  0.40406473785E+03  0.41983502248E+03  0.00000000000E+00 0. -1.
          1    1    5    5  503    0  0.14780057597E+03  0.10669092867E+03 -0.13132327358E+03  0.22466367463E+03  0.00000000000E+00 0. -1.
         -2    1    5    5    0  503  0.19624786378E+03  0.12337278152E+03 -0.66600889031E+02  0.24118404938E+03  0.00000000000E+00 0.  1.
         -1    1    6    6    0  502 -0.48593482185E+02 -0.11178766268E+01  0.53144620853E+02  0.72020322720E+02  0.00000000000E+00 0.  1.
<mgrwt>
<rscale>  0 0.14195360E+04</rscale>
<asrwt>0</asrwt>
<pdfrwt beam="1">  1        2 0.20327523E+00 0.14195360E+04</pdfrwt>
<pdfrwt beam="2">  1       -2 0.58657245E-01 0.14195360E+04</pdfrwt>
<totfact> 0.42418712E+01</totfact>
</mgrwt>
</event>
<event>
12    1  0.1519928E-007  0.1600022E+04  0.7818608E-02  0.8820535E-01
          1   -1    0    0  501    0  0.00000000000E+00  0.00000000000E+00  0.16860056384E+04  0.16860056384E+04  0.00000000000E+00 0. -1.
         -1   -1    0    0    0  501 -0.00000000000E+00 -0.00000000000E+00 -0.37960565544E+03  0.37960565544E+03  0.00000000000E+00 0.  1.
         23    2    1    2    0    0 -0.35531491485E+01  0.14073644226E+03 -0.23130544725E+03  0.28581732512E+03  0.91487498409E+02 0.  0.
        254    2    1    2    0    0  0.35531491485E+01 -0.14073644226E+03  0.15377054302E+04  0.17797939687E+04  0.88504757499E+03 0.  0.
        -24    2    4    4    0    0  0.15507727328E+03 -0.34360539095E+02 -0.45549614253E+02  0.18373039590E+03  0.80327353263E+02 0.  0.
         24    2    4    4    0    0 -0.15152412414E+03 -0.10637590316E+03  0.15832550445E+04  0.15960635728E+04  0.80293210988E+02 0.  0.
         11    1    3    3    0    0 -0.19488089350E+02 -0.48376521457E+01 -0.17309297063E+02  0.26510380413E+02  0.00000000000E+00 0. -1.
        -11    1    3    3    0    0  0.15934940202E+02  0.14557409440E+03 -0.21399615018E+03  0.25930694471E+03  0.00000000000E+00 0.  1.
          2    1    6    6  502    0 -0.74180849258E+02 -0.38925811546E+02  0.41888607161E+03  0.42718094315E+03  0.00000000000E+00 0. -1.
          3    1    5    5  503    0  0.82604533003E+02 -0.14866911214E+02  0.17471142865E+02  0.85730827330E+02  0.00000000000E+00 0. -1.
         -4    1    5    5    0  503  0.72472740281E+02 -0.19493627881E+02 -0.63020757118E+02  0.97999568568E+02  0.00000000000E+00 0.  1.
         -1    1    6    6    0  502 -0.77343274878E+02 -0.67450091618E+02  0.11643689729E+04  0.11688826297E+04  0.00000000000E+00 0.  1.
<mgrwt>
<rscale>  0 0.16000216E+04</rscale>
<asrwt>0</asrwt>
<pdfrwt beam="1">  1        1 0.25938548E+00 0.16000216E+04</pdfrwt>
<pdfrwt beam="2">  1       -1 0.58400871E-01 0.16000216E+04</pdfrwt>
<totfact> 0.13889239E+01</totfact>
</mgrwt>
</event>
<event>
12    1  0.1506149E-007  0.1952420E+04  0.7818608E-02  0.8629194E-01
          1   -1    0    0  501    0  0.00000000000E+00  0.00000000000E+00  0.28874986998E+04  0.28874986998E+04  0.00000000000E+00 0. -1.
         -1   -1    0    0    0  501 -0.00000000000E+00 -0.00000000000E+00 -0.33003872488E+03  0.33003872488E+03  0.00000000000E+00 0.  1.
         23    2    1    2    0    0  0.25995518693E+03 -0.28634839281E+03 -0.71792514303E+02  0.40369784137E+03  0.90805730763E+02 0.  0.
        254    2    1    2    0    0 -0.25995518693E+03  0.28634839281E+03  0.26292524893E+04  0.28138395834E+04  0.92474453080E+03 0.  0.
        -24    2    4    4    0    0  0.10926867809E+03  0.62317194429E+02  0.72560190445E+00  0.14884976830E+03  0.79577951037E+02 0.  0.
         24    2    4    4    0    0 -0.36922386503E+03  0.22403119838E+03  0.26285268874E+04  0.26649898150E+04  0.80628012387E+02 0.  0.
         11    1    3    3    0    0  0.89509382152E+02 -0.41303996864E+02 -0.12454774867E+02  0.99363328583E+02  0.00000000000E+00 0. -1.
        -11    1    3    3    0    0  0.17044580478E+03 -0.24504439595E+03 -0.59337739436E+02  0.30433451279E+03  0.00000000000E+00 0.  1.
          4    1    6    6  502    0 -0.17952810137E+03  0.13575732824E+03  0.11602176422E+04  0.11818482850E+04  0.00000000000E+00 0. -1.
          3    1    5    5  503    0  0.28869290261E+02 -0.18948078662E+02  0.10050141059E+00  0.34532241539E+02  0.00000000000E+00 0. -1.
         -4    1    5    5    0  503  0.80399387834E+02  0.81265273091E+02  0.62510049386E+00  0.11431752676E+03  0.00000000000E+00 0.  1.
         -3    1    6    6    0  502 -0.18969576366E+03  0.88273870145E+02  0.14683092451E+04  0.14831415301E+04  0.00000000000E+00 0.  1.
<mgrwt>
<rscale>  0 0.19524204E+04</rscale>
<asrwt>0</asrwt>
<pdfrwt beam="1">  1        1 0.44423055E+00 0.19524204E+04</pdfrwt>
<pdfrwt beam="2">  1       -1 0.50775190E-01 0.19524204E+04</pdfrwt>
<totfact> 0.26231528E+00</totfact>
</mgrwt>
</event>
<event>
12    1  0.1506149E-007  0.1584598E+04  0.7818608E-02  0.8830066E-01
         -1   -1    0    0    0  501 -0.00000000000E+00  0.00000000000E+00  0.15423274541E+04  0.15423274541E+04  0.00000000000E+00 0.  1.
          1   -1    0    0  501    0  0.00000000000E+00 -0.00000000000E+00 -0.40700681904E+03  0.40700681904E+03  0.00000000000E+00 0. -1.
         23    2    1    2    0    0  0.19735359723E+03  0.80345412499E+02  0.98698293632E+03  0.10140386026E+04  0.93461989172E+02 0.  0.
        254    2    1    2    0    0 -0.19735359723E+03 -0.80345412499E+02  0.14833769876E+03  0.93529567051E+03  0.89853775144E+03 0.  0.
        -24    2    4    4    0    0  0.17718471769E+03 -0.37942122338E+03 -0.17408873836E+01  0.42685629632E+03  0.82754927853E+02 0.  0.
         24    2    4    4    0    0 -0.37453831493E+03  0.29907581088E+03  0.15007858614E+03  0.50843937420E+03  0.79131063515E+02 0.  0.
         13    1    3    3    0    0  0.24803036679E+02 -0.11635272877E+02  0.25218817364E+03  0.25367192420E+03  0.00000000000E+00 0. -1.
        -13    1    3    3    0    0  0.17255056055E+03  0.91980685376E+02  0.73479476268E+03  0.76036667844E+03  0.00000000000E+00 0.  1.
          4    1    6    6  502    0 -0.24899389491E+03  0.24420431275E+03  0.10609113628E+03  0.36453948382E+03  0.00000000000E+00 0. -1.
          1    1    5    5  503    0  0.13139736360E+03 -0.29729207778E+03 -0.35458594463E+02  0.32696354321E+03  0.00000000000E+00 0. -1.
         -2    1    5    5    0  503  0.45787354096E+02 -0.82129145602E+02  0.33717707079E+02  0.99892753106E+02  0.00000000000E+00 0.  1.
         -3    1    6    6    0  502 -0.12554442002E+03  0.54871498131E+02  0.43987449860E+02  0.14389989037E+03  0.00000000000E+00 0.  1.
<mgrwt>
<rscale>  0 0.15845981E+04</rscale>
<asrwt>0</asrwt>
<pdfrwt beam="1">  1        1 0.62616435E-01 0.15845981E+04</pdfrwt>
<pdfrwt beam="2">  1       -1 0.23728114E+00 0.15845981E+04</pdfrwt>
<totfact> 0.47589075E+00</totfact>
</mgrwt>
</event>
<event>
12    1  0.1506149E-007  0.2578949E+04  0.7818608E-02  0.8375387E-01
         -1   -1    0    0    0  501 -0.00000000000E+00  0.00000000000E+00  0.91700466121E+03  0.91700466121E+03  0.00000000000E+00 0.  1.
          1   -1    0    0  501    0  0.00000000000E+00 -0.00000000000E+00 -0.18132348227E+04  0.18132348227E+04  0.00000000000E+00 0. -1.
         23    2    1    2    0    0 -0.26253111268E+03 -0.91776844336E+03 -0.10299265954E+04  0.14072635537E+04  0.91762829556E+02 0.  0.
        254    2    1    2    0    0  0.26253111268E+03  0.91776844336E+03  0.13369643392E+03  0.13229759302E+04  0.90618379741E+03 0.  0.
        -24    2    4    4    0    0  0.22968406465E+03  0.70156321781E+03 -0.32347532242E+03  0.80982604300E+03  0.78969725629E+02 0.  0.
         24    2    4    4    0    0  0.32847048027E+02  0.21620522555E+03  0.45717175635E+03  0.51314988720E+03  0.80580170102E+02 0.  0.
         11    1    3    3    0    0 -0.23962208721E+03 -0.82600190780E+03 -0.88387807032E+03  0.12332632888E+04  0.00000000000E+00 0. -1.
        -11    1    3    3    0    0 -0.22909025468E+02 -0.91766535564E+02 -0.14604852508E+03  0.17400026487E+03  0.00000000000E+00 0.  1.
          4    1    6    6  502    0 -0.57609518066E+01  0.41209822351E+01  0.67116669178E+02  0.67489394291E+02  0.00000000000E+00 0. -1.
          3    1    5    5  503    0  0.33926107178E+01  0.94192907036E+02 -0.39980545667E+02  0.10238289689E+03  0.00000000000E+00 0. -1.
         -4    1    5    5    0  503  0.22629145393E+03  0.60737031077E+03 -0.28349477675E+03  0.70744314611E+03  0.00000000000E+00 0.  1.
         -3    1    6    6    0  502  0.38607999834E+02  0.21208424332E+03  0.39005508717E+03  0.44566049291E+03  0.00000000000E+00 0.  1.
<mgrwt>
<rscale>  0 0.25789492E+04</rscale>
<asrwt>0</asrwt>
<pdfrwt beam="1">  1        1 0.27895920E+00 0.25789492E+04</pdfrwt>
<pdfrwt beam="2">  1       -1 0.14107764E+00 0.25789492E+04</pdfrwt>
<totfact> 0.14463807E+00</totfact>
</mgrwt>
</event>
<event>
12    1  0.2698061E-007  0.1687914E+04  0.7818608E-02  0.8768288E-01
          1   -1    0    0  501    0  0.00000000000E+00  0.00000000000E+00  0.22174686286E+04  0.22174686286E+04  0.00000000000E+00 0. -1.
         -1   -1    0    0    0  501 -0.00000000000E+00 -0.00000000000E+00 -0.32120552939E+03  0.32120552939E+03  0.00000000000E+00 0.  1.
         23    2    1    2    0    0 -0.40677590888E+03  0.34374848956E+03  0.10833821159E+04  0.12107029167E+04  0.91951504580E+02 0.  0.
        254    2    1    2    0    0  0.40677590888E+03 -0.34374848956E+03  0.81288098325E+03  0.13279712413E+04  0.90504279493E+03 0.  0.
        -24    2    4    4    0    0  0.57872543171E+03 -0.20130838469E+03  0.88534002563E+03  0.10799484119E+04  0.83746165529E+02 0.  0.
         24    2    4    4    0    0 -0.17194952283E+03 -0.14244010486E+03 -0.72459042379E+02  0.24802282943E+03  0.80057412027E+02 0.  0.
         11    1    3    3    0    0 -0.32639766950E+03  0.25933375862E+03  0.75801877281E+03  0.86509068712E+03  0.00000000000E+00 0.  1.
        -11    1    3    3    0    0 -0.80378239382E+02  0.84414730941E+02  0.32536334313E+03  0.34561222956E+03  0.00000000000E+00 0. -1.
          4    1    6    6  502    0 -0.15646435046E+03 -0.10838520630E+03 -0.85153360584E+02  0.20851748303E+03  0.00000000000E+00 0. -1.
          1    1    5    5  503    0  0.57856172929E+03 -0.20295394857E+03  0.88654082911E+03  0.10779047368E+04  0.00000000000E+00 0. -1.
         -2    1    5    5    0  503  0.16370242410E+00  0.16455638724E+01 -0.12008034816E+01  0.20436751070E+01  0.00000000000E+00 0.  1.
         -3    1    6    6    0  502 -0.15485172368E+02 -0.34054898565E+02  0.12694318204E+02  0.39505346401E+02  0.00000000000E+00 0.  1.
<mgrwt>
<rscale>  0 0.16879137E+04</rscale>
<asrwt>0</asrwt>
<pdfrwt beam="1">  1        1 0.34114901E+00 0.16879137E+04</pdfrwt>
<pdfrwt beam="2">  1       -1 0.49416237E-01 0.16879137E+04</pdfrwt>
<totfact> 0.82934104E+00</totfact>
</mgrwt>
</event>
<event>
12    1  0.1506149E-007  0.2206575E+04  0.7818608E-02  0.8515697E-01
         -1   -1    0    0    0  501 -0.00000000000E+00  0.00000000000E+00  0.21595093958E+04  0.21595093958E+04  0.00000000000E+00 0.  1.
          1   -1    0    0  501    0  0.00000000000E+00 -0.00000000000E+00 -0.56366641268E+03  0.56366641268E+03  0.00000000000E+00 0. -1.
         23    2    1    2    0    0 -0.35293933034E+03 -0.34226117248E+03  0.16128467244E+04  0.16886491217E+04  0.92479289232E+02 0.  0.
        254    2    1    2    0    0  0.35293933034E+03  0.34226117248E+03 -0.17003741276E+02  0.10345266867E+04  0.91008101684E+03 0.  0.
        -24    2    4    4    0    0  0.63372691336E+03  0.29788539991E+03 -0.13244872508E+03  0.71723933404E+03  0.80895520994E+02 0.  0.
         24    2    4    4    0    0 -0.28078758302E+03  0.44375772577E+02  0.11544498380E+03  0.31728735268E+03  0.80826010138E+02 0.  0.
         13    1    3    3    0    0 -0.13375431027E+03 -0.18094969192E+03  0.82431607304E+03  0.85447644485E+03  0.00000000000E+00 0.  1.
        -13    1    3    3    0    0 -0.21918502007E+03 -0.16131148056E+03  0.78853065134E+03  0.83417267690E+03  0.00000000000E+00 0. -1.
          2    1    6    6  502    0 -0.40263842956E+02  0.81974653870E+01  0.51327943033E+02  0.65749016908E+02  0.00000000000E+00 0. -1.
          1    1    5    5  503    0  0.98626644016E+02  0.15502063000E+02 -0.16571488839E+02  0.10120347380E+03  0.00000000000E+00 0. -1.
         -2    1    5    5    0  503  0.53510026935E+03  0.28238333691E+03 -0.11587723624E+03  0.61603586023E+03  0.00000000000E+00 0.  1.
         -1    1    6    6    0  502 -0.24052374006E+03  0.36178307190E+02  0.64117040770E+02  0.25153833577E+03  0.00000000000E+00 0.  1.
<mgrwt>
<rscale>  0 0.22065746E+04</rscale>
<asrwt>0</asrwt>
<pdfrwt beam="1">  1        1 0.86717911E-01 0.22065746E+04</pdfrwt>
<pdfrwt beam="2">  1       -1 0.33223221E+00 0.22065746E+04</pdfrwt>
<totfact> 0.69527554E-01</totfact>
</mgrwt>
</event>
<event>
12    1  0.1506149E-007  0.1918128E+04  0.7818608E-02  0.8645885E-01
          2   -1    0    0  501    0  0.00000000000E+00  0.00000000000E+00  0.20457864906E+04  0.20457864906E+04  0.00000000000E+00 0. -1.
         -2   -1    0    0    0  501 -0.00000000000E+00 -0.00000000000E+00 -0.44960884309E+03  0.44960884309E+03  0.00000000000E+00 0.  1.
         23    2    1    2    0    0  0.40665331664E+03 -0.41336847206E+03  0.12138946152E+04  0.13482507974E+04  0.89440830545E+02 0.  0.
        254    2    1    2    0    0 -0.40665331664E+03  0.41336847206E+03  0.38228303229E+03  0.11471445363E+04  0.91299499274E+03 0.  0.
        -24    2    4    4    0    0  0.24727773779E+03  0.31059501585E+03  0.21625702138E+03  0.45952588497E+03  0.82349233080E+02 0.  0.
         24    2    4    4    0    0 -0.65393105443E+03  0.10277345620E+03  0.16602601091E+03  0.68761865133E+03  0.84062869997E+02 0.  0.
         11    1    3    3    0    0  0.23027216809E+03 -0.21459240027E+03  0.55964066889E+03  0.64208476693E+03  0.00000000000E+00 0.  1.
        -11    1    3    3    0    0  0.17638114855E+03 -0.19877607178E+03  0.65425394635E+03  0.70616603047E+03  0.00000000000E+00 0. -1.
          4    1    6    6  502    0 -0.48342697347E+03  0.39933781187E+02  0.10904886651E+03  0.49718004872E+03  0.00000000000E+00 0. -1.
          3    1    5    5  503    0  0.24131811165E+03  0.27498283599E+03  0.21282775313E+03  0.42325600244E+03  0.00000000000E+00 0. -1.
         -4    1    5    5    0  503  0.59596261396E+01  0.35612179862E+02  0.34292682425E+01  0.36269882533E+02  0.00000000000E+00 0.  1.
         -3    1    6    6    0  502 -0.17050408096E+03  0.62839675017E+02  0.56977144408E+02  0.19043860261E+03  0.00000000000E+00 0.  1.
<mgrwt>
<rscale>  0 0.19181279E+04</rscale>
<asrwt>0</asrwt>
<pdfrwt beam="1">  1        2 0.31473638E+00 0.19181279E+04</pdfrwt>
<pdfrwt beam="2">  1       -2 0.69170593E-01 0.19181279E+04</pdfrwt>
<totfact> 0.11240894E+01</totfact>
</mgrwt>
</event>
<event>
12    1  0.1506149E-007  0.1651184E+04  0.7818608E-02  0.8789706E-01
          1   -1    0    0  501    0  0.00000000000E+00  0.00000000000E+00  0.55687999769E+03  0.55687999769E+03  0.00000000000E+00 0. -1.
         -1   -1    0    0    0  501 -0.00000000000E+00 -0.00000000000E+00 -0.12239665982E+04  0.12239665982E+04  0.00000000000E+00 0.  1.
         23    2    1    2    0    0 -0.15171681271E+03  0.49459939860E+03  0.29690038374E+02  0.52703396898E+03  0.96108010706E+02 0.  0.
        254    2    1    2    0    0  0.15171681271E+03 -0.49459939860E+03 -0.69677663891E+03  0.12538126269E+04  0.90493196571E+03 0.  0.
        -24    2    4    4    0    0  0.28543489741E+03 -0.66729127399E+03 -0.71254386708E+03  0.10202687499E+04  0.80491208173E+02 0.  0.
         24    2    4    4    0    0 -0.13371808470E+03  0.17269187539E+03  0.15767228169E+02  0.23354387699E+03  0.81185756121E+02 0.  0.
         11    1    3    3    0    0 -0.10547205367E+03  0.25104240216E+03  0.55130151873E+02  0.27782364089E+03  0.00000000000E+00 0.  1.
        -11    1    3    3    0    0 -0.46244759037E+02  0.24355699644E+03 -0.25440113499E+02  0.24921032809E+03  0.00000000000E+00 0. -1.
          2    1    6    6  502    0 -0.12436351580E+03  0.17543807686E+03  0.29122115057E+02  0.21700898705E+03  0.00000000000E+00 0. -1.
          3    1    5    5  503    0  0.25398482952E+03 -0.63917725746E+03 -0.67739914223E+03  0.96536286337E+03  0.00000000000E+00 0. -1.
         -4    1    5    5    0  503  0.31450067883E+02 -0.28114016530E+02 -0.35144724849E+02  0.54905886570E+02  0.00000000000E+00 0.  1.
         -1    1    6    6    0  502 -0.93545688963E+01 -0.27462014701E+01 -0.13354886888E+02  0.16534889946E+02  0.00000000000E+00 0.  1.
<mgrwt>
<rscale>  0 0.16511844E+04</rscale>
<asrwt>0</asrwt>
<pdfrwt beam="1">  1        1 0.85673846E-01 0.16511844E+04</pdfrwt>
<pdfrwt beam="2">  1       -1 0.18830255E+00 0.16511844E+04</pdfrwt>
<totfact> 0.66132265E+00</totfact>
</mgrwt>
</event>
<event>
12    1  0.1506149E-007  0.1233868E+04  0.7818608E-02  0.9083718E-01
          2   -1    0    0  501    0  0.00000000000E+00  0.00000000000E+00  0.13306280237E+04  0.13306280237E+04  0.00000000000E+00 0. -1.
         -2   -1    0    0    0  501 -0.00000000000E+00 -0.00000000000E+00 -0.28603599616E+03  0.28603599616E+03  0.00000000000E+00 0.  1.
         23    2    1    2    0    0 -0.61328874255E+02 -0.20866126185E+03  0.20224704381E+02  0.23851527012E+03  0.95810972231E+02 0.  0.
        254    2    1    2    0    0  0.61328874255E+02  0.20866126185E+03  0.10243673231E+04  0.13781487497E+04  0.89591562696E+03 0.  0.
        -24    2    4    4    0    0  0.89917474000E+01  0.54119660132E+03  0.78818569184E+03  0.95948400571E+03  0.79989121660E+02 0.  0.
         24    2    4    4    0    0  0.52337126855E+02 -0.33253533946E+03  0.23618163130E+03  0.41866474402E+03  0.78609656411E+02 0.  0.
         11    1    3    3    0    0  0.65707996624E+01  0.50036850814E+00  0.17383050573E+02  0.18590218505E+02  0.00000000000E+00 0. -1.
        -11    1    3    3    0    0 -0.67899673918E+02 -0.20916163036E+03  0.28416538085E+01  0.21992505162E+03  0.00000000000E+00 0.  1.
          4    1    6    6  502    0  0.33958928767E+02 -0.32163319720E+03  0.22833319767E+03  0.39590045661E+03  0.00000000000E+00 0. -1.
          3    1    5    5  503    0  0.23192756964E+02  0.48769297104E+03  0.73723072179E+03  0.88424627516E+03  0.00000000000E+00 0. -1.
         -4    1    5    5    0  503 -0.14201009564E+02  0.53503630273E+02  0.50954970054E+02  0.75237730550E+02  0.00000000000E+00 0.  1.
         -3    1    6    6    0  502  0.18378198088E+02 -0.10902142268E+02  0.78484336281E+01  0.22764287413E+02  0.00000000000E+00 0.  1.
<mgrwt>
<rscale>  0 0.12338679E+04</rscale>
<asrwt>0</asrwt>
<pdfrwt beam="1">  1        2 0.20471200E+00 0.12338679E+04</pdfrwt>
<pdfrwt beam="2">  1       -2 0.44005539E-01 0.12338679E+04</pdfrwt>
<totfact> 0.76463880E+01</totfact>
</mgrwt>
</event>
<event>
12    1  0.1506149E-007  0.1291631E+04  0.7818608E-02  0.9036228E-01
          1   -1    0    0  501    0  0.00000000000E+00  0.00000000000E+00  0.16339366901E+04  0.16339366901E+04  0.00000000000E+00 0. -1.
         -1   -1    0    0    0  501 -0.00000000000E+00 -0.00000000000E+00 -0.25525928101E+03  0.25525928101E+03  0.00000000000E+00 0.  1.
         23    2    1    2    0    0  0.13862387151E+03  0.23153213987E+03  0.93589528664E+03  0.97814628385E+03  0.89702037347E+02 0.  0.
        254    2    1    2    0    0 -0.13862387151E+03 -0.23153213987E+03  0.44278212242E+03  0.91104968723E+03  0.74908732143E+03 0.  0.
        -24    2    4    4    0    0  0.27794063998E+03 -0.65613715018E+02  0.32576109655E+03  0.44049137462E+03  0.79725780883E+02 0.  0.
         24    2    4    4    0    0 -0.41656451148E+03 -0.16591842485E+03  0.11702102587E+03  0.47055831261E+03  0.81708562225E+02 0.  0.
         11    1    3    3    0    0  0.11086921924E+03  0.11028688043E+03  0.44270688659E+03  0.46951524704E+03  0.00000000000E+00 0. -1.
        -11    1    3    3    0    0  0.27754652273E+02  0.12124525944E+03  0.49318840005E+03  0.50863103681E+03  0.00000000000E+00 0.  1.
          2    1    6    6  502    0 -0.77520277572E+02  0.74232168764E+00  0.27948800253E+02  0.82408008785E+02  0.00000000000E+00 0. -1.
          3    1    5    5  503    0  0.12416492207E+03 -0.68811241137E+02  0.14091296058E+03  0.20002094200E+03  0.00000000000E+00 0. -1.
         -2    1    5    5    0  503  0.15377571791E+03  0.31975261185E+01  0.18484813597E+03  0.24047043262E+03  0.00000000000E+00 0.  1.
         -1    1    6    6    0  502 -0.33904423391E+03 -0.16666074654E+03  0.89072225619E+02  0.38815030383E+03  0.00000000000E+00 0.  1.
<mgrwt>
<rscale>  0 0.12916308E+04</rscale>
<asrwt>0</asrwt>
<pdfrwt beam="1">  1        1 0.25137487E+00 0.12916308E+04</pdfrwt>
<pdfrwt beam="2">  1       -1 0.39270660E-01 0.12916308E+04</pdfrwt>
<totfact> 0.32756496E+01</totfact>
</mgrwt>
</event>
<event>
12    1  0.1506149E-007  0.2739571E+04  0.7818608E-02  0.8322279E-01
          2   -1    0    0  501    0  0.00000000000E+00  0.00000000000E+00  0.19938703275E+04  0.19938703275E+04  0.00000000000E+00 0. -1.
         -2   -1    0    0    0  501 -0.00000000000E+00 -0.00000000000E+00 -0.94104007240E+03  0.94104007240E+03  0.00000000000E+00 0.  1.
         23    2    1    2    0    0  0.69684108147E+03  0.47511883369E+01  0.15417366775E+04  0.16943280899E+04  0.90474453601E+02 0.  0.
        254    2    1    2    0    0 -0.69684108147E+03 -0.47511883369E+01 -0.48890642235E+03  0.12405823101E+04  0.90244385512E+03 0.  0.
        -24    2    4    4    0    0 -0.11869626251E+03 -0.39823804524E+03 -0.93569205866E+02  0.43345990501E+03  0.80311577922E+02 0.  0.
         24    2    4    4    0    0 -0.57814481896E+03  0.39348685691E+03 -0.39533721648E+03  0.80712240508E+03  0.77921266573E+02 0.  0.
         11    1    3    3    0    0  0.39995727906E+03  0.47440522017E+02  0.87974304927E+03  0.96755581799E+03  0.00000000000E+00 0. -1.
        -11    1    3    3    0    0  0.29688380242E+03 -0.42689333680E+02  0.66199362822E+03  0.72677227186E+03  0.00000000000E+00 0.  1.
          4    1    6    6  502    0 -0.28785788788E+03  0.18074088867E+03 -0.14979159419E+03  0.37143903153E+03  0.00000000000E+00 0. -1.
          1    1    5    5  503    0 -0.58055003697E+02 -0.23473062081E+03 -0.92992603875E+02  0.25906847006E+03  0.00000000000E+00 0. -1.
         -2    1    5    5    0  503 -0.60641258811E+02 -0.16350742443E+03 -0.57660199138E+00  0.17439143495E+03  0.00000000000E+00 0.  1.
         -3    1    6    6    0  502 -0.29028693109E+03  0.21274596823E+03 -0.24554562229E+03  0.43568337355E+03  0.00000000000E+00 0.  1.
<mgrwt>
<rscale>  0 0.27395707E+04</rscale>
<asrwt>0</asrwt>
<pdfrwt beam="1">  1        2 0.30674928E+00 0.27395707E+04</pdfrwt>
<pdfrwt beam="2">  1       -2 0.14477540E+00 0.27395707E+04</pdfrwt>
<totfact> 0.19375519E+00</totfact>
</mgrwt>
</event>
<event>
12    1  0.1506149E-007  0.1486607E+04  0.7818608E-02  0.8893409E-01
          2   -1    0    0  501    0  0.00000000000E+00  0.00000000000E+00  0.60244328369E+03  0.60244328369E+03  0.00000000000E+00 0. -1.
         -2   -1    0    0    0  501 -0.00000000000E+00 -0.00000000000E+00 -0.91709837444E+03  0.91709837444E+03  0.00000000000E+00 0.  1.
         23    2    1    2    0    0 -0.11601370826E+03  0.17357235812E+03  0.33222179507E+03  0.40287963576E+03  0.91400961597E+02 0.  0.
        254    2    1    2    0    0  0.11601370826E+03 -0.17357235812E+03 -0.64687688582E+03  0.11166620224E+04  0.88594459352E+03 0.  0.
        -24    2    4    4    0    0  0.46636146934E+03 -0.56366880820E+02 -0.16511204498E+03  0.50432004251E+03  0.80040443155E+02 0.  0.
         24    2    4    4    0    0 -0.35034776108E+03 -0.11720547730E+03 -0.48176484084E+03  0.61234197986E+03  0.79904072628E+02 0.  0.
         13    1    3    3    0    0 -0.93345559597E+02  0.63041487067E+02  0.13660919097E+03  0.17705844698E+03  0.00000000000E+00 0.  1.
        -13    1    3    3    0    0 -0.22668148660E+02  0.11053087105E+03  0.19561260410E+03  0.22582118878E+03  0.00000000000E+00 0. -1.
          2    1    6    6  502    0 -0.31622073899E+03 -0.11377428979E+03 -0.39251473790E+03  0.51672813380E+03  0.00000000000E+00 0. -1.
          3    1    5    5  503    0  0.36666464491E+03 -0.61399067914E+02 -0.15889648094E+03  0.40430297925E+03  0.00000000000E+00 0. -1.
         -4    1    5    5    0  503  0.99696824427E+02  0.50321870942E+01 -0.62155640376E+01  0.10001706326E+03  0.00000000000E+00 0.  1.
         -1    1    6    6    0  502 -0.34127022096E+02 -0.34311875051E+01 -0.89250102939E+02  0.95613846065E+02  0.00000000000E+00 0.  1.
<mgrwt>
<rscale>  0 0.14866065E+04</rscale>
<asrwt>0</asrwt>
<pdfrwt beam="1">  1        2 0.92683582E-01 0.14866065E+04</pdfrwt>
<pdfrwt beam="2">  1       -2 0.14109206E+00 0.14866065E+04</pdfrwt>
<totfact> 0.16789841E+01</totfact>
</mgrwt>
</event>
<event>
12    1  0.1555526E-007  0.2874802E+04  0.7818608E-02  0.8280414E-01
         -2   -1    0    0    0  501 -0.00000000000E+00  0.00000000000E+00  0.10133818396E+04  0.10133818396E+04  0.00000000000E+00 0.  1.
          2   -1    0    0  501    0  0.00000000000E+00 -0.00000000000E+00 -0.20388388894E+04  0.20388388894E+04  0.00000000000E+00 0. -1.
         23    2    1    2    0    0 -0.10642224782E+04 -0.54873030315E+03 -0.99383547188E+03  0.15586772048E+04  0.89951402747E+02 0.  0.
        254    2    1    2    0    0  0.10642224782E+04  0.54873030315E+03 -0.31621577919E+02  0.14935435242E+04  0.89218714728E+03 0.  0.
        -24    2    4    4    0    0  0.60983379148E+03  0.56862684492E+03 -0.37559269062E+03  0.91780334598E+03  0.77841959431E+02 0.  0.
         24    2    4    4    0    0  0.45438868667E+03 -0.19896541765E+02  0.34397111270E+03  0.57574017818E+03  0.79345292540E+02 0.  0.
         11    1    3    3    0    0 -0.80214340244E+03 -0.39858005560E+03 -0.78968677144E+03  0.11941127651E+04  0.00000000000E+00 0. -1.
        -11    1    3    3    0    0 -0.26207907571E+03 -0.15015024756E+03 -0.20414870044E+03  0.36456443965E+03  0.00000000000E+00 0.  1.
          2    1    6    6  502    0  0.41798471963E+03 -0.13189659748E+02  0.28485728289E+03  0.50599294915E+03  0.00000000000E+00 0. -1.
          3    1    5    5  503    0  0.52773389317E+03  0.52392735472E+03 -0.34142663408E+03  0.81827567572E+03  0.00000000000E+00 0. -1.
         -4    1    5    5    0  503  0.82099898313E+02  0.44699490202E+02 -0.34166056545E+02  0.99527670259E+02  0.00000000000E+00 0.  1.
         -1    1    6    6    0  502  0.36403967036E+02 -0.67068820169E+01  0.59113829816E+02  0.69747229033E+02  0.00000000000E+00 0.  1.
<mgrwt>
<rscale>  0 0.28748025E+04</rscale>
<asrwt>0</asrwt>
<pdfrwt beam="1">  1        2 0.31366752E+00 0.28748025E+04</pdfrwt>
<pdfrwt beam="2">  1       -2 0.15590490E+00 0.28748025E+04</pdfrwt>
<totfact> 0.14857658E+00</totfact>
</mgrwt>
</event>
<event>
12    1  0.1506149E-007  0.2653733E+04  0.7818608E-02  0.8350175E-01
          1   -1    0    0  501    0  0.00000000000E+00  0.00000000000E+00  0.15031616143E+04  0.15031616143E+04  0.00000000000E+00 0. -1.
         -1   -1    0    0    0  501 -0.00000000000E+00 -0.00000000000E+00 -0.11712475357E+04  0.11712475357E+04  0.00000000000E+00 0.  1.
         23    2    1    2    0    0  0.81922374193E+03  0.72166371833E+03  0.58229324653E+03  0.12405358474E+04  0.89093782426E+02 0.  0.
        254    2    1    2    0    0 -0.81922374193E+03 -0.72166371833E+03 -0.25037916793E+03  0.14338733026E+04  0.89519654733E+03 0.  0.
        -24    2    4    4    0    0 -0.93625498106E+03 -0.76586377573E+03 -0.90019249476E+02  0.12154017557E+04  0.77312676811E+02 0.  0.
         24    2    4    4    0    0  0.11703123914E+03  0.44200057400E+02 -0.16035991846E+03  0.21847154683E+03  0.79778175722E+02 0.  0.
         13    1    3    3    0    0  0.81569064180E+03  0.72438918800E+03  0.57961729219E+03  0.12353327990E+04  0.00000000000E+00 0. -1.
        -13    1    3    3    0    0  0.35331001231E+01 -0.27254696697E+01  0.26759543419E+01  0.52030484373E+01  0.00000000000E+00 0.  1.
          4    1    6    6  502    0  0.69057471193E+02  0.52375053436E+02 -0.55635888833E+02  0.10299239135E+03  0.00000000000E+00 0. -1.
          1    1    5    5  503    0 -0.20065371789E+03 -0.19823556799E+03 -0.40302633244E+02  0.28492728400E+03  0.00000000000E+00 0. -1.
         -2    1    5    5    0  503 -0.73560126317E+03 -0.56762820774E+03 -0.49716616232E+02  0.93047447173E+03  0.00000000000E+00 0.  1.
         -3    1    6    6    0  502  0.47973767943E+02 -0.81749960363E+01 -0.10472402962E+03  0.11547915548E+03  0.00000000000E+00 0.  1.
<mgrwt>
<rscale>  0 0.26537327E+04</rscale>
<asrwt>0</asrwt>
<pdfrwt beam="1">  1        1 0.23125563E+00 0.26537327E+04</pdfrwt>
<pdfrwt beam="2">  1       -1 0.18019193E+00 0.26537327E+04</pdfrwt>
<totfact> 0.11837441E+00</totfact>
</mgrwt>
</event>
<event>
12    1  0.1506149E-007  0.2232910E+04  0.7818608E-02  0.8504854E-01
         -2   -1    0    0    0  501 -0.00000000000E+00  0.00000000000E+00  0.26190448397E+04  0.26190448397E+04  0.00000000000E+00 0.  1.
          2   -1    0    0  501    0  0.00000000000E+00 -0.00000000000E+00 -0.47592594249E+03  0.47592594249E+03  0.00000000000E+00 0. -1.
         23    2    1    2    0    0 -0.25017043835E+02  0.65522279803E+03 -0.16201152446E+02  0.66228548293E+03  0.91743206924E+02 0.  0.
        254    2    1    2    0    0  0.25017043835E+02 -0.65522279803E+03  0.21593200497E+04  0.24326852993E+04  0.90848881163E+03 0.  0.
        -24    2    4    4    0    0 -0.19214618869E+03 -0.14445092803E+03  0.16683689706E+04  0.16874898061E+04  0.79878628810E+02 0.  0.
         24    2    4    4    0    0  0.21716323253E+03 -0.51077187000E+03  0.49095107908E+03  0.74519549314E+03  0.78965740693E+02 0.  0.
         13    1    3    3    0    0  0.21995050864E+02  0.12556935036E+03  0.21217472353E+02  0.12923476756E+03  0.00000000000E+00 0.  1.
        -13    1    3    3    0    0 -0.47012094699E+02  0.52965344767E+03 -0.37418624800E+02  0.53305071537E+03  0.00000000000E+00 0. -1.
          4    1    6    6  502    0  0.18531805397E+03 -0.35191018379E+03  0.32975297504E+03  0.51664357455E+03  0.00000000000E+00 0. -1.
          1    1    5    5  503    0 -0.13685878587E+03 -0.13913973941E+03  0.11886029457E+04  0.12045194713E+04  0.00000000000E+00 0. -1.
         -2    1    5    5    0  503 -0.55287402819E+02 -0.53111886256E+01  0.47976602492E+03  0.48297033481E+03  0.00000000000E+00 0.  1.
         -3    1    6    6    0  502  0.31845178556E+02 -0.15886168621E+03  0.16119810404E+03  0.22855191859E+03  0.00000000000E+00 0.  1.
<mgrwt>
<rscale>  0 0.22329097E+04</rscale>
<asrwt>0</asrwt>
<pdfrwt beam="1">  1        2 0.73219377E-01 0.22329097E+04</pdfrwt>
<pdfrwt beam="2">  1       -2 0.40292997E+00 0.22329097E+04</pdfrwt>
<totfact> 0.42271668E-01</totfact>
</mgrwt>
</event>
<event>
12    1  0.1506149E-007  0.1704425E+04  0.7818608E-02  0.8758844E-01
         -1   -1    0    0    0  501 -0.00000000000E+00  0.00000000000E+00  0.67938185743E+03  0.67938185743E+03  0.00000000000E+00 0.  1.
          1   -1    0    0  501    0  0.00000000000E+00 -0.00000000000E+00 -0.10690107084E+04  0.10690107084E+04  0.00000000000E+00 0. -1.
         23    2    1    2    0    0 -0.41198975556E+03  0.26535920481E+03 -0.51468920034E+03  0.71637013329E+03  0.90167226097E+02 0.  0.
        254    2    1    2    0    0  0.41198975556E+03 -0.26535920481E+03  0.12506034937E+03  0.10320224325E+04  0.89959943532E+03 0.  0.
        -24    2    4    4    0    0  0.15020953441E+03  0.21972466568E+03 -0.23862637428E+03  0.36682521381E+03  0.82318637305E+02 0.  0.
         24    2    4    4    0    0  0.26178022115E+03 -0.48508387049E+03  0.36368672365E+03  0.66519721874E+03  0.79900320791E+02 0.  0.
         13    1    3    3    0    0 -0.23017727702E+03  0.20044670059E+03 -0.31399086370E+03  0.43789350432E+03  0.00000000000E+00 0. -1.
        -13    1    3    3    0    0 -0.18181247853E+03  0.64912504221E+02 -0.20069833663E+03  0.27847662897E+03  0.00000000000E+00 0.  1.
          2    1    6    6  502    0 -0.48587045952E+01 -0.20611208758E+02  0.17645457708E+02  0.27564308707E+02  0.00000000000E+00 0. -1.
          1    1    5    5  503    0  0.30883955238E+02  0.11562113237E+03 -0.11440646078E+03  0.16556238465E+03  0.00000000000E+00 0. -1.
         -2    1    5    5    0  503  0.11932557917E+03  0.10410353331E+03 -0.12421991350E+03  0.20126282916E+03  0.00000000000E+00 0.  1.
         -1    1    6    6    0  502  0.26663892575E+03 -0.46447266173E+03  0.34604126594E+03  0.63763291003E+03  0.00000000000E+00 0.  1.
<mgrwt>
<rscale>  0 0.17044254E+04</rscale>
<asrwt>0</asrwt>
<pdfrwt beam="1">  1        1 0.16446319E+00 0.17044254E+04</pdfrwt>
<pdfrwt beam="2">  1       -1 0.10452029E+00 0.17044254E+04</pdfrwt>
<totfact> 0.10957147E+01</totfact>
</mgrwt>
</event>
<event>
12    1  0.1506149E-007  0.3343869E+04  0.7818608E-02  0.8151822E-01
         -1   -1    0    0    0  501 -0.00000000000E+00  0.00000000000E+00  0.19855551794E+04  0.19855551794E+04  0.00000000000E+00 0.  1.
          1   -1    0    0  501    0  0.00000000000E+00 -0.00000000000E+00 -0.14078509596E+04  0.14078509596E+04  0.00000000000E+00 0. -1.
         23    2    1    2    0    0  0.62673223437E+03  0.52026109461E+03 -0.10638836944E+04  0.13429354408E+04  0.90344799291E+02 0.  0.
        254    2    1    2    0    0 -0.62673223437E+03 -0.52026109461E+03  0.16415879142E+04  0.20504706983E+04  0.91986645996E+03 0.  0.
        -24    2    4    4    0    0 -0.83355619437E+03 -0.25186001600E+03  0.12656049065E+04  0.15382686023E+04  0.79152488671E+02 0.  0.
         24    2    4    4    0    0  0.20682396000E+03 -0.26840107861E+03  0.37598300767E+03  0.51220209598E+03  0.78565104482E+02 0.  0.
         13    1    3    3    0    0  0.37247552792E+03  0.33653752890E+03 -0.59033827319E+03  0.77491599806E+03  0.00000000000E+00 0. -1.
        -13    1    3    3    0    0  0.25425670645E+03  0.18372356570E+03 -0.47354542117E+03  0.56801944270E+03  0.00000000000E+00 0.  1.
          4    1    6    6  502    0  0.70955954778E+02 -0.98581315062E+02  0.82132925586E+02  0.14662482963E+03  0.00000000000E+00 0. -1.
          1    1    5    5  503    0 -0.54779897026E+01  0.28206592402E+01  0.20524882074E+02  0.21429775404E+02  0.00000000000E+00 0. -1.
         -2    1    5    5    0  503 -0.82807820466E+03 -0.25468067524E+03  0.12450800245E+04  0.15168388269E+04  0.00000000000E+00 0.  1.
         -3    1    6    6    0  502  0.13586800522E+03 -0.16981976355E+03  0.29385008208E+03  0.36557726635E+03  0.00000000000E+00 0.  1.
<mgrwt>
<rscale>  0 0.33438695E+04</rscale>
<asrwt>0</asrwt>
<pdfrwt beam="1">  1        1 0.21659246E+00 0.33438695E+04</pdfrwt>
<pdfrwt beam="2">  1       -1 0.30547003E+00 0.33438695E+04</pdfrwt>
<totfact> 0.19078492E-01</totfact>
</mgrwt>
</event>
<event>
12    1  0.1506149E-007  0.2039276E+04  0.7818608E-02  0.8588475E-01
          2   -1    0    0  501    0  0.00000000000E+00  0.00000000000E+00  0.62549814837E+03  0.62549814837E+03  0.00000000000E+00 0. -1.
         -2   -1    0    0    0  501 -0.00000000000E+00 -0.00000000000E+00 -0.16621339394E+04  0.16621339394E+04  0.00000000000E+00 0.  1.
         23    2    1    2    0    0 -0.36454297699E+03 -0.71092736170E+03 -0.92149960220E+02  0.81207308699E+03  0.11252460958E+03 0.  0.
        254    2    1    2    0    0  0.36454297699E+03  0.71092736170E+03 -0.94448583082E+03  0.14755590008E+04  0.80430814028E+03 0.  0.
        -24    2    4    4    0    0 -0.15120857157E+03  0.46817212173E+03 -0.20556262441E+03  0.53879874128E+03  0.77452716994E+02 0.  0.
         24    2    4    4    0    0  0.51575154856E+03  0.24275523996E+03 -0.73892320641E+03  0.93676025951E+03  0.81132684199E+02 0.  0.
         11    1    3    3    0    0 -0.16473399127E+02 -0.10890842959E+03 -0.28455799750E+02  0.11376357701E+03  0.00000000000E+00 0.  1.
        -11    1    3    3    0    0 -0.34806957786E+03 -0.60201893211E+03 -0.63694160470E+02  0.69830950998E+03  0.00000000000E+00 0. -1.
          4    1    6    6  502    0  0.40669036931E+03  0.18209273694E+03 -0.62643037858E+03  0.76874562798E+03  0.00000000000E+00 0. -1.
          3    1    5    5  503    0 -0.14468607754E+03  0.35765656718E+03 -0.14183456267E+03  0.41105878442E+03  0.00000000000E+00 0. -1.
         -4    1    5    5    0  503 -0.65224940327E+01  0.11051555456E+03 -0.63728061737E+02  0.12773995687E+03  0.00000000000E+00 0.  1.
         -1    1    6    6    0  502  0.10906117925E+03  0.60662503024E+02 -0.11249282784E+03  0.16801463153E+03  0.00000000000E+00 0.  1.
<mgrwt>
<rscale>  0 0.20392760E+04</rscale>
<asrwt>0</asrwt>
<pdfrwt beam="1">  1        2 0.96230486E-01 0.20392760E+04</pdfrwt>
<pdfrwt beam="2">  1       -2 0.25571291E+00 0.20392760E+04</pdfrwt>
<totfact> 0.25875326E+00</totfact>
</mgrwt>
</event>
<event>
12    1  0.1506149E-007  0.1924768E+04  0.7818608E-02  0.8642625E-01
         -2   -1    0    0    0  501 -0.00000000000E+00  0.00000000000E+00  0.10427114011E+04  0.10427114011E+04  0.00000000000E+00 0. -1.
          2   -1    0    0  501    0  0.00000000000E+00 -0.00000000000E+00 -0.88824511802E+03  0.88824511802E+03  0.00000000000E+00 0.  1.
         23    2    1    2    0    0 -0.15623784871E+03  0.52575405267E+03  0.56378353772E+03  0.79213961579E+03  0.93838713892E+02 0.  0.
        254    2    1    2    0    0  0.15623784871E+03 -0.52575405267E+03 -0.40931725461E+03  0.11388169034E+04  0.91023938346E+03 0.  0.
        -24    2    4    4    0    0  0.79028795247E+02 -0.15343761722E+03 -0.65312181907E+03  0.68023678929E+03  0.79782993824E+02 0.  0.
         24    2    4    4    0    0  0.77209053460E+02 -0.37231643546E+03  0.24380456446E+03  0.45858011407E+03  0.79210411708E+02 0.  0.
         11    1    3    3    0    0 -0.12313475210E+03  0.33243261172E+03  0.30657195636E+03  0.46867896575E+03  0.00000000000E+00 0. -1.
        -11    1    3    3    0    0 -0.33103096606E+02  0.19332144095E+03  0.25721158136E+03  0.32346065003E+03  0.00000000000E+00 0.  1.
          2    1    6    6  502    0  0.88422306797E+02 -0.35000800034E+03  0.21387308257E+03  0.41960195434E+03  0.00000000000E+00 0. -1.
          1    1    5    5  503    0  0.93601700408E+02 -0.14626527405E+03 -0.58680421793E+03  0.61195914806E+03  0.00000000000E+00 0. -1.
         -2    1    5    5    0  503 -0.14572905160E+02 -0.71723431714E+01 -0.66317601144E+02  0.68277641237E+02  0.00000000000E+00 0.  1.
         -1    1    6    6    0  502 -0.11213253337E+02 -0.22308435121E+02  0.29931481888E+02  0.38978159730E+02  0.00000000000E+00 0.  1.
<mgrwt>
<rscale>  0 0.19247684E+04</rscale>
<asrwt>0</asrwt>
<pdfrwt beam="1">  1        2 0.13665309E+00 0.19247684E+04</pdfrwt>
<pdfrwt beam="2">  1       -2 0.16041714E+00 0.19247684E+04</pdfrwt>
<totfact> 0.69799558E+00</totfact>
</mgrwt>
</event>
<event>
12    1  0.1506149E-007  0.2175130E+04  0.7818608E-02  0.8528851E-01
          2   -1    0    0  501    0  0.00000000000E+00  0.00000000000E+00  0.10687724962E+04  0.10687724962E+04  0.00000000000E+00 0. -1.
         -2   -1    0    0    0  501 -0.00000000000E+00 -0.00000000000E+00 -0.11066880481E+04  0.11066880481E+04  0.00000000000E+00 0.  1.
         23    2    1    2    0    0 -0.46624255459E+03  0.64873242278E+03 -0.42707711093E+03  0.91039365195E+03  0.90475779897E+02 0.  0.
        254    2    1    2    0    0  0.46624255459E+03 -0.64873242278E+03  0.38916155909E+03  0.12650668923E+04  0.90039527260E+03 0.  0.
        -24    2    4    4    0    0 -0.28045690044E+02 -0.68804169603E+03  0.29893965586E+03  0.75505920414E+03  0.81003380756E+02 0.  0.
         24    2    4    4    0    0  0.49428824463E+03  0.39309273250E+02  0.90221903226E+02  0.51000768820E+03  0.78113778894E+02 0.  0.
         11    1    3    3    0    0 -0.37423571446E+03  0.47154840748E+03 -0.28997968833E+03  0.66820542516E+03  0.00000000000E+00 0. -1.
        -11    1    3    3    0    0 -0.92006840128E+02  0.17718401530E+03 -0.13709742260E+03  0.24218822679E+03  0.00000000000E+00 0.  1.
          4    1    6    6  502    0  0.49265151171E+03  0.45597635420E+02  0.92072487935E+02  0.50325142760E+03  0.00000000000E+00 0. -1.
          1    1    5    5  503    0 -0.51725284914E+02 -0.35887992605E+03  0.13882972962E+03  0.38825764673E+03  0.00000000000E+00 0. -1.
         -2    1    5    5    0  503  0.23679594870E+02 -0.32916176999E+03  0.16010992624E+03  0.36680155740E+03  0.00000000000E+00 0.  1.
         -3    1    6    6    0  502  0.16367329165E+01 -0.62883621700E+01 -0.18505847093E+01  0.67562605920E+01  0.00000000000E+00 0.  1.
<mgrwt>
<rscale>  0 0.21751301E+04</rscale>
<asrwt>0</asrwt>
<pdfrwt beam="1">  1        2 0.16442654E+00 0.21751301E+04</pdfrwt>
<pdfrwt beam="2">  1       -2 0.17025970E+00 0.21751301E+04</pdfrwt>
<totfact> 0.44279443E+00</totfact>
</mgrwt>
</event>
<event>
12    1  0.1506149E-007  0.1441588E+04  0.7818608E-02  0.8924253E-01
          2   -1    0    0  501    0  0.00000000000E+00  0.00000000000E+00  0.23642292324E+04  0.23642292324E+04  0.00000000000E+00 0.  1.
         -2   -1    0    0    0  501 -0.00000000000E+00 -0.00000000000E+00 -0.21975197888E+03  0.21975197888E+03  0.00000000000E+00 0. -1.
         23    2    1    2    0    0 -0.27452767213E+01 -0.85281507056E+02  0.14316037153E+04  0.14370126816E+04  0.90751184483E+02 0.  0.
        254    2    1    2    0    0  0.27452767213E+01  0.85281507056E+02  0.71287353823E+03  0.11469685297E+04  0.89446501026E+03 0.  0.
        -24    2    4    4    0    0  0.24379722257E+03 -0.18711769101E+03  0.70476178165E+03  0.77343078878E+03  0.83999405539E+02 0.  0.
         24    2    4    4    0    0 -0.24105194584E+03  0.27239919807E+03  0.81117565745E+01  0.37353774090E+03  0.84600706725E+02 0.  0.
         11    1    3    3    0    0 -0.31606475941E+02 -0.49330240204E+01  0.64427163936E+03  0.64506530625E+03  0.00000000000E+00 0. -1.
        -11    1    3    3    0    0  0.28861199219E+02 -0.80348483036E+02  0.78733207594E+03  0.79194737536E+03  0.00000000000E+00 0.  1.
          2    1    6    6  502    0 -0.11833533385E+03  0.13354291742E+03  0.46286047430E+02  0.18433491318E+03  0.00000000000E+00 0. -1.
          1    1    5    5  503    0  0.19062296792E+03 -0.18115412703E+03  0.54894360313E+03  0.60868137236E+03  0.00000000000E+00 0. -1.
         -2    1    5    5    0  503  0.53174254646E+02 -0.59635639818E+01  0.15581817852E+03  0.16474941642E+03  0.00000000000E+00 0.  1.
         -1    1    6    6    0  502 -0.12271661200E+03  0.13885628065E+03 -0.38174290856E+02  0.18920282772E+03  0.00000000000E+00 0.  1.
<mgrwt>
<rscale>  0 0.14415881E+04</rscale>
<asrwt>0</asrwt>
<pdfrwt beam="1">  1        2 0.36372756E+00 0.14415881E+04</pdfrwt>
<pdfrwt beam="2">  1       -2 0.33807998E-01 0.14415881E+04</pdfrwt>
<totfact> 0.33176219E+01</totfact>
</mgrwt>
</event>
<event>
12    1  0.1506149E-007  0.1422110E+04  0.7818608E-02  0.8937968E-01
         -2   -1    0    0    0  501 -0.00000000000E+00  0.00000000000E+00  0.22402224529E+03  0.22402224529E+03  0.00000000000E+00 0.  1.
          2   -1    0    0  501    0  0.00000000000E+00 -0.00000000000E+00 -0.22569145129E+04  0.22569145129E+04  0.00000000000E+00 0. -1.
         23    2    1    2    0    0 -0.10134329184E+03  0.38755119600E+03 -0.61672227595E+03  0.74115535581E+03  0.92187328175E+02 0.  0.
        254    2    1    2    0    0  0.10134329184E+03 -0.38755119600E+03 -0.14161699917E+04  0.17397814024E+04  0.92781220645E+03 0.  0.
        -24    2    4    4    0    0  0.32253044554E+02 -0.68710276350E+03 -0.99178903186E+03  0.12096123869E+04  0.79788322728E+02 0.  0.
         24    2    4    4    0    0  0.69090247281E+02  0.29955156750E+03 -0.42438095981E+03  0.53016901543E+03  0.80469758381E+02 0.  0.
         11    1    3    3    0    0 -0.91256781896E+02  0.30725559156E+03 -0.54861410677E+03  0.63538274838E+03  0.00000000000E+00 0.  1.
        -11    1    3    3    0    0 -0.10086509939E+02  0.80295604438E+02 -0.68108169182E+02  0.10577260744E+03  0.00000000000E+00 0. -1.
          4    1    6    6  502    0 -0.59430149053E+01  0.10810613622E+03 -0.18728739344E+03  0.21633035815E+03  0.00000000000E+00 0. -1.
          3    1    5    5  503    0 -0.21243772013E+02 -0.10216174881E+03 -0.13029580782E+03  0.16692908166E+03  0.00000000000E+00 0. -1.
         -4    1    5    5    0  503  0.53496816568E+02 -0.58494101469E+03 -0.86149322405E+03  0.10426833053E+04  0.00000000000E+00 0.  1.
         -3    1    6    6    0  502  0.75033262186E+02  0.19144543128E+03 -0.23709356637E+03  0.31383865729E+03  0.00000000000E+00 0.  1.
<mgrwt>
<rscale>  0 0.14221098E+04</rscale>
<asrwt>0</asrwt>
<pdfrwt beam="1">  1        2 0.34721761E+00 0.14221098E+04</pdfrwt>
<pdfrwt beam="2">  1       -2 0.34464961E-01 0.14221098E+04</pdfrwt>
<totfact> 0.36834148E+01</totfact>
</mgrwt>
</event>
<event>
12    1  0.1506149E-007  0.3028875E+04  0.7818608E-02  0.8235533E-01
          2   -1    0    0  501    0  0.00000000000E+00  0.00000000000E+00  0.15049333710E+04  0.15049333710E+04  0.00000000000E+00 0. -1.
         -2   -1    0    0    0  501 -0.00000000000E+00 -0.00000000000E+00 -0.15240014789E+04  0.15240014789E+04  0.00000000000E+00 0.  1.
         23    2    1    2    0    0  0.55004126602E+03 -0.35493564139E+03 -0.12120069279E+04  0.13811953021E+04  0.10106911210E+03 0.  0.
        254    2    1    2    0    0 -0.55004126602E+03  0.35493564139E+03  0.11929388200E+04  0.16477395478E+04  0.92920282242E+03 0.  0.
        -24    2    4    4    0    0 -0.76467132618E+03  0.35694280533E+03  0.11254079548E+04  0.14089272841E+04  0.80016395878E+02 0.  0.
         24    2    4    4    0    0  0.21463006016E+03 -0.20071639431E+01  0.67530865127E+02  0.23881226368E+03  0.80004925528E+02 0.  0.
         13    1    3    3    0    0  0.18580430239E+03 -0.79139891203E+02 -0.30816298211E+03  0.36844373344E+03  0.00000000000E+00 0.  1.
        -13    1    3    3    0    0  0.36423696363E+03 -0.27579575019E+03 -0.90384394575E+03  0.10127515686E+04  0.00000000000E+00 0. -1.
          2    1    6    6  502    0  0.22101892405E+03  0.24363169417E+01  0.67204501935E+02  0.23102325751E+03  0.00000000000E+00 0. -1.
          1    1    5    5  503    0 -0.67960958405E+03  0.31195451017E+03  0.95159004259E+03  0.12102513839E+04  0.00000000000E+00 0. -1.
         -2    1    5    5    0  503 -0.85061742128E+02  0.44988295160E+02  0.17381791225E+03  0.19867590014E+03  0.00000000000E+00 0.  1.
         -1    1    6    6    0  502 -0.63888638935E+01 -0.44434808847E+01  0.32636319240E+00  0.77890061726E+01  0.00000000000E+00 0.  1.
<mgrwt>
<rscale>  0 0.30288748E+04</rscale>
<asrwt>0</asrwt>
<pdfrwt beam="1">  1        2 0.23152821E+00 0.30288748E+04</pdfrwt>
<pdfrwt beam="2">  1       -2 0.23446177E+00 0.30288748E+04</pdfrwt>
<totfact> 0.86370385E-01</totfact>
</mgrwt>
</event>
<event>
12    1  0.1506149E-007  0.2067192E+04  0.7818608E-02  0.8575835E-01
          1   -1    0    0  501    0  0.00000000000E+00  0.00000000000E+00  0.17963704019E+04  0.17963704019E+04  0.00000000000E+00 0. -1.
         -1   -1    0    0    0  501 -0.00000000000E+00 -0.00000000000E+00 -0.59471088740E+03  0.59471088740E+03  0.00000000000E+00 0.  1.
         23    2    1    2    0    0 -0.27132610671E+03 -0.62362913499E+03 -0.71001138230E+02  0.68951174441E+03  0.88623528796E+02 0.  0.
        254    2    1    2    0    0  0.27132610671E+03  0.62362913499E+03  0.12726606527E+04  0.17015695449E+04  0.90174421257E+03 0.  0.
        -24    2    4    4    0    0  0.64901231831E+02  0.69250907872E+03  0.41566821476E+03  0.81378193711E+03  0.75365657990E+02 0.  0.
         24    2    4    4    0    0  0.20642487488E+03 -0.68879943723E+02  0.85699243798E+03  0.88778760779E+03  0.79844362183E+02 0.  0.
         13    1    3    3    0    0 -0.13485849280E+03 -0.26068039140E+03  0.87946056022E+01  0.29362974071E+03  0.00000000000E+00 0. -1.
        -13    1    3    3    0    0 -0.13646761391E+03 -0.36294874359E+03 -0.79795743832E+02  0.39588200370E+03  0.00000000000E+00 0.  1.
          4    1    6    6  502    0  0.19836260260E+03 -0.73261514330E+02  0.71796160549E+03  0.74845429957E+03  0.00000000000E+00 0. -1.
          1    1    5    5  503    0  0.18533760732E+02  0.52249224508E+03  0.32495087534E+03  0.61557673595E+03  0.00000000000E+00 0. -1.
         -2    1    5    5    0  503  0.46367471100E+02  0.17001683363E+03  0.90717339427E+02  0.19820520116E+03  0.00000000000E+00 0.  1.
         -3    1    6    6    0  502  0.80622722786E+01  0.43815706065E+01  0.13903083250E+03  0.13933330822E+03  0.00000000000E+00 0.  1.
<mgrwt>
<rscale>  0 0.20671923E+04</rscale>
<asrwt>0</asrwt>
<pdfrwt beam="1">  1        1 0.27636467E+00 0.20671923E+04</pdfrwt>
<pdfrwt beam="2">  1       -1 0.91493984E-01 0.20671923E+04</pdfrwt>
<totfact> 0.44005698E+00</totfact>
</mgrwt>
</event>
<event>
12    1  0.1506149E-007  0.2041574E+04  0.7818608E-02  0.8587426E-01
         -1   -1    0    0    0  501 -0.00000000000E+00  0.00000000000E+00  0.87852687941E+03  0.87852687941E+03  0.00000000000E+00 0.  1.
          1   -1    0    0  501    0  0.00000000000E+00 -0.00000000000E+00 -0.11860834991E+04  0.11860834991E+04  0.00000000000E+00 0. -1.
         23    2    1    2    0    0 -0.77640277247E+03  0.70272490890E+02 -0.39803733476E+03  0.88009916457E+03  0.91658777721E+02 0.  0.
        254    2    1    2    0    0  0.77640277247E+03 -0.70272490890E+02  0.90480715048E+02  0.11845112140E+04  0.88720942745E+03 0.  0.
        -24    2    4    4    0    0  0.80532807123E+02  0.13551584633E+03 -0.30660758268E+03  0.35345383184E+03  0.77918700292E+02 0.  0.
         24    2    4    4    0    0  0.69586996535E+03 -0.20578833721E+03  0.39708829773E+03  0.83105738213E+03  0.79958788085E+02 0.  0.
         11    1    3    3    0    0 -0.63273057588E+03  0.33870483693E+02 -0.29091657703E+03  0.69722854654E+03  0.00000000000E+00 0. -1.
        -11    1    3    3    0    0 -0.14367219659E+03  0.36402007197E+02 -0.10712075773E+03  0.18287061803E+03  0.00000000000E+00 0.  1.
          4    1    6    6  502    0  0.10005720866E+03 -0.15276516176E+02  0.84086264946E+02  0.13158767763E+03  0.00000000000E+00 0. -1.
          3    1    5    5  503    0  0.73202281948E+02  0.62002537164E+02 -0.12633008417E+03  0.15862590855E+03  0.00000000000E+00 0. -1.
         -4    1    5    5    0  503  0.73305251754E+01  0.73513309161E+02 -0.18027749851E+03  0.19482792329E+03  0.00000000000E+00 0.  1.
         -3    1    6    6    0  502  0.59581275669E+03 -0.19051182104E+03  0.31300203279E+03  0.69946970450E+03  0.00000000000E+00 0.  1.
<mgrwt>
<rscale>  0 0.20415741E+04</rscale>
<asrwt>0</asrwt>
<pdfrwt beam="1">  1        1 0.18247438E+00 0.20415741E+04</pdfrwt>
<pdfrwt beam="2">  1       -1 0.13515798E+00 0.20415741E+04</pdfrwt>
<totfact> 0.46445058E+00</totfact>
</mgrwt>
</event>
<event>
12    1  0.1506149E-007  0.1805917E+04  0.7818608E-02  0.8703159E-01
         -1   -1    0    0    0  501 -0.00000000000E+00  0.00000000000E+00  0.39175061781E+03  0.39175061781E+03  0.00000000000E+00 0.  1.
          1   -1    0    0  501    0  0.00000000000E+00 -0.00000000000E+00 -0.20812576743E+04  0.20812576743E+04  0.00000000000E+00 0. -1.
         23    2    1    2    0    0  0.53599438339E+03  0.34866434981E+03 -0.94395330911E+03  0.11440131860E+04  0.94135605182E+02 0.  0.
        254    2    1    2    0    0 -0.53599438339E+03 -0.34866434981E+03 -0.74555374734E+03  0.13289951061E+04  0.89527693698E+03 0.  0.
        -24    2    4    4    0    0 -0.65210180834E+03 -0.10362301352E+02 -0.70037246395E+03  0.96022600372E+03  0.78538170566E+02 0.  0.
         24    2    4    4    0    0  0.11610742495E+03 -0.33830204846E+03 -0.45181283391E+02  0.36876910233E+03  0.77589254046E+02 0.  0.
         13    1    3    3    0    0  0.10122746029E+03  0.59585483266E+02 -0.11528323525E+03  0.16458327030E+03  0.00000000000E+00 0.  1.
        -13    1    3    3    0    0  0.43476692310E+03  0.28907886655E+03 -0.82867007387E+03  0.97942991573E+03  0.00000000000E+00 0. -1.
          2    1    6    6  502    0  0.37292173632E+02 -0.30321725943E+02 -0.45699307760E+01  0.48280405401E+02  0.00000000000E+00 0. -1.
          3    1    5    5  503    0 -0.10129968846E+03 -0.28434864141E+02 -0.12754593213E+03  0.16534247242E+03  0.00000000000E+00 0. -1.
         -4    1    5    5    0  503 -0.55080211988E+03  0.18072562789E+02 -0.57282653182E+03  0.79488353131E+03  0.00000000000E+00 0.  1.
         -1    1    6    6    0  502  0.78815251319E+02 -0.30798032252E+03 -0.40611352615E+02  0.32048869693E+03  0.00000000000E+00 0.  1.
<mgrwt>
<rscale>  0 0.18059169E+04</rscale>
<asrwt>0</asrwt>
<pdfrwt beam="1">  1        1 0.32019349E+00 0.18059169E+04</pdfrwt>
<pdfrwt beam="2">  1       -1 0.60269325E-01 0.18059169E+04</pdfrwt>
<totfact> 0.69109296E+00</totfact>
</mgrwt>
</event>
<event>
12    1  0.1506149E-007  0.2592748E+04  0.7818608E-02  0.8370669E-01
         -2   -1    0    0    0  501 -0.00000000000E+00  0.00000000000E+00  0.12728197022E+04  0.12728197022E+04  0.00000000000E+00 0. -1.
          2   -1    0    0  501    0  0.00000000000E+00 -0.00000000000E+00 -0.13203643640E+04  0.13203643640E+04  0.00000000000E+00 0.  1.
         23    2    1    2    0    0  0.28534499193E+03 -0.10059647305E+04 -0.45335117617E+03  0.11435070000E+04  0.93242515500E+02 0.  0.
        254    2    1    2    0    0 -0.28534499193E+03  0.10059647305E+04  0.40580651438E+03  0.14496770662E+04  0.91842139882E+03 0.  0.
        -24    2    4    4    0    0 -0.69242551089E+02  0.13646529215E+03 -0.27240430826E+03  0.32312254817E+03  0.82381837380E+02 0.  0.
         24    2    4    4    0    0 -0.21610244084E+03  0.86949943836E+03  0.67821082265E+03  0.11265545181E+04  0.80159989919E+02 0.  0.
         11    1    3    3    0    0  0.40444473946E+02 -0.29656472575E+03 -0.12728673444E+03  0.32525114112E+03  0.00000000000E+00 0. -1.
        -11    1    3    3    0    0  0.24490051799E+03 -0.70940000476E+03 -0.32606444172E+03  0.81825585890E+03  0.00000000000E+00 0.  1.
          2    1    6    6  502    0 -0.88134114714E+02  0.50983597843E+03  0.40644672619E+03  0.65795082515E+03  0.00000000000E+00 0. -1.
          1    1    5    5  503    0 -0.47124360783E+02  0.58492857422E+02 -0.61161565747E+02  0.96865147877E+02  0.00000000000E+00 0. -1.
         -2    1    5    5    0  503 -0.22118190306E+02  0.77972434729E+02 -0.21124274252E+03  0.22625740029E+03  0.00000000000E+00 0.  1.
         -1    1    6    6    0  502 -0.12796832613E+03  0.35966345992E+03  0.27176409646E+03  0.46860369292E+03  0.00000000000E+00 0.  1.
<mgrwt>
<rscale>  0 0.25927482E+04</rscale>
<asrwt>0</asrwt>
<pdfrwt beam="1">  1        2 0.20313298E+00 0.25927482E+04</pdfrwt>
<pdfrwt beam="2">  1       -2 0.19581842E+00 0.25927482E+04</pdfrwt>
<totfact> 0.20180165E+00</totfact>
</mgrwt>
</event>
<event>
12    1  0.1506149E-007  0.1300743E+04  0.7818608E-02  0.9028976E-01
          2   -1    0    0  501    0  0.00000000000E+00  0.00000000000E+00  0.11796043675E+04  0.11796043675E+04  0.00000000000E+00 0. -1.
         -2   -1    0    0    0  501 -0.00000000000E+00 -0.00000000000E+00 -0.35858057328E+03  0.35858057328E+03  0.00000000000E+00 0.  1.
         23    2    1    2    0    0 -0.30422877486E+03  0.55819695445E+01  0.61845733299E+02  0.32571890145E+03  0.98395132990E+02 0.  0.
        254    2    1    2    0    0  0.30422877486E+03 -0.55819695445E+01  0.75917806087E+03  0.12124660393E+04  0.89506215565E+03 0.  0.
        -24    2    4    4    0    0  0.52815502261E+03  0.15474218596E+03  0.74177418234E+03  0.92790353837E+03  0.88787200211E+02 0.  0.
         24    2    4    4    0    0 -0.22392624775E+03 -0.16032415551E+03  0.17403878534E+02  0.28456250092E+03  0.69470300626E+02 0.  0.
         13    1    3    3    0    0 -0.29254506510E+03 -0.14454803205E+02  0.69968894404E+02  0.30114315970E+03  0.00000000000E+00 0. -1.
        -13    1    3    3    0    0 -0.11683709754E+02  0.20036772749E+02 -0.81231611052E+01  0.24575741742E+02  0.00000000000E+00 0.  1.
          2    1    6    6  502    0 -0.12202587794E+02 -0.36734873539E+02  0.57181432575E+01  0.39128649927E+02  0.00000000000E+00 0. -1.
          1    1    5    5  503    0  0.40562214076E+03  0.14653678266E+03  0.61739433143E+03  0.75311228262E+03  0.00000000000E+00 0. -1.
         -2    1    5    5    0  503  0.12253288184E+03  0.82054033030E+01  0.12437985091E+03  0.17479125575E+03  0.00000000000E+00 0.  1.
         -3    1    6    6    0  502 -0.21172365995E+03 -0.12358928197E+03  0.11685735277E+02  0.24543385099E+03  0.00000000000E+00 0.  1.
<mgrwt>
<rscale>  0 0.13007432E+04</rscale>
<asrwt>0</asrwt>
<pdfrwt beam="1">  1        2 0.18147759E+00 0.13007432E+04</pdfrwt>
<pdfrwt beam="2">  1       -2 0.55166242E-01 0.13007432E+04</pdfrwt>
<totfact> 0.58988719E+01</totfact>
</mgrwt>
</event>
<event>
12    1  0.1506149E-007  0.1977531E+04  0.7818608E-02  0.8617198E-01
         -2   -1    0    0    0  501 -0.00000000000E+00  0.00000000000E+00  0.46389010019E+03  0.46389010019E+03  0.00000000000E+00 0. -1.
          2   -1    0    0  501    0  0.00000000000E+00 -0.00000000000E+00 -0.21075181858E+04  0.21075181858E+04  0.00000000000E+00 0.  1.
         23    2    1    2    0    0 -0.43574799793E+03  0.11259241625E+03 -0.14920853120E+04  0.15612235874E+04  0.92450753058E+02 0.  0.
        254    2    1    2    0    0  0.43574799793E+03 -0.11259241625E+03 -0.15154277361E+03  0.10101846986E+04  0.89160223367E+03 0.  0.
        -24    2    4    4    0    0  0.65952096361E+03  0.10851292526E+03 -0.12570352372E+03  0.68467210091E+03  0.78940189415E+02 0.  0.
         24    2    4    4    0    0 -0.22377296567E+03 -0.22110534151E+03 -0.25839249885E+02  0.32551259765E+03  0.79554209081E+02 0.  0.
         11    1    3    3    0    0 -0.25566928213E+03  0.46782591592E+02 -0.99665787644E+03  0.10299914152E+04  0.00000000000E+00 0. -1.
        -11    1    3    3    0    0 -0.18007871580E+03  0.65809824661E+02 -0.49542743556E+03  0.53123217223E+03  0.00000000000E+00 0.  1.
          2    1    6    6  502    0 -0.15028331645E+02 -0.54043261850E+01 -0.19595104518E+02  0.25278955963E+02  0.00000000000E+00 0. -1.
          1    1    5    5  503    0  0.23781285676E+03  0.77085599891E+02 -0.39452295082E+02  0.25308818253E+03  0.00000000000E+00 0. -1.
         -2    1    5    5    0  503  0.42170810685E+03  0.31427325368E+02 -0.86251228643E+02  0.43158391838E+03  0.00000000000E+00 0.  1.
         -1    1    6    6    0  502 -0.20874463403E+03 -0.21570101533E+03 -0.62441453674E+01  0.30023364169E+03  0.00000000000E+00 0.  1.
<mgrwt>
<rscale>  0 0.19775306E+04</rscale>
<asrwt>0</asrwt>
<pdfrwt beam="1">  1        2 0.32423357E+00 0.19775306E+04</pdfrwt>
<pdfrwt beam="2">  1       -2 0.71367707E-01 0.19775306E+04</pdfrwt>
<totfact> 0.96500992E+00</totfact>
</mgrwt>
</event>
<event>
12    1  0.1506149E-007  0.3563655E+04  0.7818608E-02  0.8098868E-01
         -1   -1    0    0    0  501 -0.00000000000E+00  0.00000000000E+00  0.12533051899E+04  0.12533051899E+04  0.00000000000E+00 0.  1.
          1   -1    0    0  501    0  0.00000000000E+00 -0.00000000000E+00 -0.25332294129E+04  0.25332294129E+04  0.00000000000E+00 0. -1.
         23    2    1    2    0    0  0.12054263198E+04 -0.10399811366E+04 -0.63977384197E+02  0.15959416173E+04  0.91231371696E+02 0.  0.
        254    2    1    2    0    0 -0.12054263198E+04  0.10399811366E+04 -0.12159468388E+04  0.21905929856E+04  0.88631683772E+03 0.  0.
        -24    2    4    4    0    0 -0.11377711462E+04  0.49085239747E+03 -0.67712491681E+03  0.14143261237E+04  0.79755713498E+02 0.  0.
         24    2    4    4    0    0 -0.67655173586E+02  0.54912873910E+03 -0.53882192199E+03  0.77626686193E+03  0.78368250520E+02 0.  0.
         11    1    3    3    0    0  0.58340524280E+02 -0.78671557396E+02 -0.12039941710E+00  0.97943071283E+02  0.00000000000E+00 0. -1.
        -11    1    3    3    0    0  0.11470857955E+04 -0.96130957918E+03 -0.63856984780E+02  0.14979985460E+04  0.00000000000E+00 0.  1.
          4    1    6    6  502    0  0.82487525295E+01  0.10250000492E+03 -0.70478444563E+02  0.12466556893E+03  0.00000000000E+00 0. -1.
          3    1    5    5  503    0 -0.58081596320E+02  0.78100961308E+01 -0.38453330909E+02  0.70093709352E+02  0.00000000000E+00 0. -1.
         -4    1    5    5    0  503 -0.10796895499E+04  0.48304230134E+03 -0.63867158590E+03  0.13442324143E+04  0.00000000000E+00 0.  1.
         -3    1    6    6    0  502 -0.75903926116E+02  0.44662873418E+03 -0.46834347742E+03  0.65160129300E+03  0.00000000000E+00 0.  1.
<mgrwt>
<rscale>  0 0.35636552E+04</rscale>
<asrwt>0</asrwt>
<pdfrwt beam="1">  1        1 0.38972760E+00 0.35636552E+04</pdfrwt>
<pdfrwt beam="2">  1       -1 0.19281618E+00 0.35636552E+04</pdfrwt>
<totfact> 0.17598263E-01</totfact>
</mgrwt>
</event>
<event>
12    1  0.1506149E-007  0.1266152E+04  0.7818608E-02  0.9056846E-01
         -2   -1    0    0    0  501 -0.00000000000E+00  0.00000000000E+00  0.34069975684E+03  0.34069975684E+03  0.00000000000E+00 0.  1.
          2   -1    0    0  501    0  0.00000000000E+00 -0.00000000000E+00 -0.11763591739E+04  0.11763591739E+04  0.00000000000E+00 0. -1.
         23    2    1    2    0    0  0.15990753391E+03  0.17471487624E+03  0.22784802268E+02  0.25439388500E+03  0.90007744828E+02 0.  0.
        254    2    1    2    0    0 -0.15990753391E+03 -0.17471487624E+03 -0.85844421934E+03  0.12626650458E+04  0.89515408321E+03 0.  0.
        -24    2    4    4    0    0 -0.10673052622E+03  0.34990777420E+03 -0.23327131025E+03  0.44085564365E+03  0.78175051504E+02 0.  0.
         24    2    4    4    0    0 -0.53177007689E+02 -0.52462265044E+03 -0.62517290909E+03  0.82180940211E+03  0.80453760837E+02 0.  0.
         13    1    3    3    0    0  0.39487565757E+02  0.42336257940E+02 -0.33385923562E+02  0.66829981878E+02  0.00000000000E+00 0. -1.
        -13    1    3    3    0    0  0.12041996816E+03  0.13237861830E+03  0.56170725830E+02  0.18756390312E+03  0.00000000000E+00 0.  1.
          2    1    6    6  502    0  0.29390291706E+01 -0.14167502408E+02 -0.24823401145E+01  0.14680532326E+02  0.00000000000E+00 0. -1.
          3    1    5    5  503    0 -0.37340518986E+01  0.54786529696E+02 -0.67581138551E+02  0.87078799185E+02  0.00000000000E+00 0. -1.
         -4    1    5    5    0  503 -0.10299647433E+03  0.29512124451E+03 -0.16569017170E+03  0.35377684447E+03  0.00000000000E+00 0.  1.
         -1    1    6    6    0  502 -0.56116036860E+02 -0.51045514804E+03 -0.62269056898E+03  0.80712886979E+03  0.00000000000E+00 0.  1.
<mgrwt>
<rscale>  0 0.12661521E+04</rscale>
<asrwt>0</asrwt>
<pdfrwt beam="1">  1        2 0.18097833E+00 0.12661521E+04</pdfrwt>
<pdfrwt beam="2">  1       -2 0.52415347E-01 0.12661521E+04</pdfrwt>
<totfact> 0.66031271E+01</totfact>
</mgrwt>
</event>
<event>
12    1  0.1506149E-007  0.2015870E+04  0.7818608E-02  0.8599237E-01
          2   -1    0    0  501    0  0.00000000000E+00  0.00000000000E+00  0.33198446838E+04  0.33198446838E+04  0.00000000000E+00 0. -1.
         -2   -1    0    0    0  501 -0.00000000000E+00 -0.00000000000E+00 -0.30601828528E+03  0.30601828528E+03  0.00000000000E+00 0.  1.
         23    2    1    2    0    0 -0.12300511272E+03 -0.94622912552E+02  0.26304583125E+04  0.26364808572E+04  0.87387773989E+02 0.  0.
        254    2    1    2    0    0  0.12300511272E+03  0.94622912552E+02  0.38336808604E+03  0.98938211193E+03  0.89878925265E+03 0.  0.
        -24    2    4    4    0    0  0.48437056351E+03  0.17103631507E+03  0.30591479278E+03  0.60329369056E+03  0.80691714321E+02 0.  0.
         24    2    4    4    0    0 -0.36136545078E+03 -0.76413402521E+02  0.77453293255E+02  0.38608842137E+03  0.81493922329E+02 0.  0.
         11    1    3    3    0    0 -0.97338025098E+02 -0.55314985211E+02  0.11892825393E+04  0.11945406636E+04  0.00000000000E+00 0. -1.
        -11    1    3    3    0    0 -0.25667087626E+02 -0.39307927340E+02  0.14411757732E+04  0.14419401936E+04  0.00000000000E+00 0.  1.
          2    1    6    6  502    0 -0.30833740475E+03 -0.44764967599E+02  0.40680077831E+02  0.31421445896E+03  0.00000000000E+00 0. -1.
          1    1    5    5  503    0  0.18894949669E+03  0.37492320379E+02  0.14653149927E+03  0.24203112748E+03  0.00000000000E+00 0. -1.
         -2    1    5    5    0  503  0.29542106681E+03  0.13354399469E+03  0.15938329351E+03  0.36126256308E+03  0.00000000000E+00 0.  1.
         -1    1    6    6    0  502 -0.53028046036E+02 -0.31648434921E+02  0.36773215424E+02  0.71873962406E+02  0.00000000000E+00 0.  1.
<mgrwt>
<rscale>  0 0.20158702E+04</rscale>
<asrwt>0</asrwt>
<pdfrwt beam="1">  1        2 0.51074531E+00 0.20158702E+04</pdfrwt>
<pdfrwt beam="2">  1       -2 0.47079739E-01 0.20158702E+04</pdfrwt>
<totfact> 0.43043757E+00</totfact>
</mgrwt>
</event>
<event>
12    1  0.1506149E-007  0.4971694E+04  0.7818608E-02  0.7832889E-01
          2   -1    0    0  501    0  0.00000000000E+00  0.00000000000E+00  0.34653857404E+04  0.34653857404E+04  0.00000000000E+00 0. -1.
         -2   -1    0    0    0  501 -0.00000000000E+00 -0.00000000000E+00 -0.17831883250E+04  0.17831883250E+04  0.00000000000E+00 0.  1.
         23    2    1    2    0    0 -0.15438510822E+04  0.31121606636E+03  0.27332190925E+04  0.31558362715E+04  0.92110589133E+02 0.  0.
        254    2    1    2    0    0  0.15438510822E+04 -0.31121606636E+03 -0.10510216772E+04  0.20927377938E+04  0.89138841354E+03 0.  0.
        -24    2    4    4    0    0  0.90597661601E+03 -0.58971413380E+03 -0.80418829929E+03  0.13497507514E+04  0.80943696035E+02 0.  0.
         24    2    4    4    0    0  0.63787446623E+03  0.27849806743E+03 -0.24683337788E+03  0.74298704240E+03  0.81596694285E+02 0.  0.
         11    1    3    3    0    0 -0.46067181101E+03  0.13553158360E+03  0.81846236655E+03  0.94892990946E+03  0.00000000000E+00 0.  1.
        -11    1    3    3    0    0 -0.10831792712E+04  0.17568448276E+03  0.19147567260E+04  0.22069063620E+04  0.00000000000E+00 0. -1.
          4    1    6    6  502    0  0.36102054518E+03  0.12244113020E+03 -0.16076674217E+03  0.41373132562E+03  0.00000000000E+00 0. -1.
          1    1    5    5  503    0  0.46595422133E+03 -0.34648934141E+03 -0.40872893456E+03  0.71008981265E+03  0.00000000000E+00 0. -1.
         -2    1    5    5    0  503  0.44002239467E+03 -0.24322479238E+03 -0.39545936473E+03  0.63966093878E+03  0.00000000000E+00 0.  1.
         -3    1    6    6    0  502  0.27685392104E+03  0.15605693723E+03 -0.86066635711E+02  0.32925571678E+03  0.00000000000E+00 0.  1.
<mgrwt>
<rscale>  0 0.49716940E+04</rscale>
<asrwt>0</asrwt>
<pdfrwt beam="1">  1        2 0.53313627E+00 0.49716940E+04</pdfrwt>
<pdfrwt beam="2">  1       -2 0.27433667E+00 0.49716940E+04</pdfrwt>
<totfact> 0.28543712E-02</totfact>
</mgrwt>
</event>
<event>
12    1  0.1506149E-007  0.2119940E+04  0.7818608E-02  0.8552510E-01
         -2   -1    0    0    0  501 -0.00000000000E+00  0.00000000000E+00  0.11011530514E+04  0.11011530514E+04  0.00000000000E+00 0. -1.
          2   -1    0    0  501    0  0.00000000000E+00 -0.00000000000E+00 -0.10203276034E+04  0.10203276034E+04  0.00000000000E+00 0.  1.
         23    2    1    2    0    0  0.28994744025E+03  0.61167620090E+03  0.49776778162E+03  0.84516302439E+03  0.91161836983E+02 0.  0.
        254    2    1    2    0    0 -0.28994744025E+03 -0.61167620090E+03 -0.41694233367E+03  0.12763176304E+04  0.99846306457E+03 0.  0.
        -24    2    4    4    0    0 -0.59859532652E+03 -0.60919922222E+03 -0.17334887322E+03  0.87520730406E+03  0.80609775785E+02 0.  0.
         24    2    4    4    0    0  0.30864788627E+03 -0.24769786811E+01 -0.24359346045E+03  0.40111032637E+03  0.79259490458E+02 0.  0.
         11    1    3    3    0    0  0.10308059745E+03  0.19941637752E+03  0.11417708554E+03  0.25185096398E+03  0.00000000000E+00 0.  1.
        -11    1    3    3    0    0  0.18686684280E+03  0.41225982338E+03  0.38359069608E+03  0.59331206042E+03  0.00000000000E+00 0. -1.
          2    1    6    6  502    0  0.47985165401E+02 -0.23162790508E+02 -0.66899397164E+02  0.85525553513E+02  0.00000000000E+00 0. -1.
          3    1    5    5  503    0 -0.23922999913E+03 -0.25089489644E+03 -0.30458668617E+02  0.34800427015E+03  0.00000000000E+00 0. -1.
         -4    1    5    5    0  503 -0.35936532739E+03 -0.35830432578E+03 -0.14289020460E+03  0.52720303392E+03  0.00000000000E+00 0.  1.
         -1    1    6    6    0  502  0.26066272087E+03  0.20685811827E+02 -0.17669406328E+03  0.31558477286E+03  0.00000000000E+00 0.  1.
<mgrwt>
<rscale>  0 0.21199404E+04</rscale>
<asrwt>0</asrwt>
<pdfrwt beam="1">  1        2 0.15697348E+00 0.21199404E+04</pdfrwt>
<pdfrwt beam="2">  1       -2 0.16940816E+00 0.21199404E+04</pdfrwt>
<totfact> 0.48394052E+00</totfact>
</mgrwt>
</event>
<event>
12    1  0.1506149E-007  0.1592968E+04  0.7818608E-02  0.8824880E-01
          2   -1    0    0  501    0  0.00000000000E+00  0.00000000000E+00  0.23224755226E+04  0.23224755226E+04  0.00000000000E+00 0. -1.
         -2   -1    0    0    0  501 -0.00000000000E+00 -0.00000000000E+00 -0.27315110034E+03  0.27315110034E+03  0.00000000000E+00 0.  1.
         23    2    1    2    0    0  0.29027059608E+03 -0.67971892824E+02  0.14185203375E+04  0.14524695476E+04  0.92685714377E+02 0.  0.
        254    2    1    2    0    0 -0.29027059608E+03  0.67971892824E+02  0.63080408476E+03  0.11431570753E+04  0.90554796029E+03 0.  0.
        -24    2    4    4    0    0  0.16660031253E+03  0.31151850679E+03  0.57119119031E+02  0.36651309531E+03  0.79182138537E+02 0.  0.
         24    2    4    4    0    0 -0.45687090862E+03 -0.24354661396E+03  0.57368496573E+03  0.77664398004E+03  0.77559341839E+02 0.  0.
         13    1    3    3    0    0  0.28633371390E+01 -0.19815520554E+02  0.69124350466E+02  0.71965473539E+02  0.00000000000E+00 0.  1.
        -13    1    3    3    0    0  0.28740725894E+03 -0.48156372271E+02  0.13493959871E+04  0.13805040741E+04  0.00000000000E+00 0. -1.
          2    1    6    6  502    0 -0.24691993126E+02 -0.13992063211E+02  0.98008615952E+01  0.30025476606E+02  0.00000000000E+00 0. -1.
          3    1    5    5  503    0  0.73464725743E+02  0.20394665219E+03  0.11455961905E+02  0.21707727180E+03  0.00000000000E+00 0. -1.
         -4    1    5    5    0  503  0.93135586791E+02  0.10757185460E+03  0.45663157126E+02  0.14943582351E+03  0.00000000000E+00 0.  1.
         -1    1    6    6    0  502 -0.43217891549E+03 -0.22955455075E+03  0.56388410414E+03  0.74661850343E+03  0.00000000000E+00 0.  1.
<mgrwt>
<rscale>  0 0.15929680E+04</rscale>
<asrwt>0</asrwt>
<pdfrwt beam="1">  1        2 0.35730391E+00 0.15929680E+04</pdfrwt>
<pdfrwt beam="2">  1       -2 0.42023248E-01 0.15929680E+04</pdfrwt>
<totfact> 0.22695833E+01</totfact>
</mgrwt>
</event>
<event>
12    1  0.1506149E-007  0.1635840E+04  0.7818608E-02  0.8798828E-01
          4   -1    0    0  501    0  0.00000000000E+00  0.00000000000E+00  0.24265176249E+03  0.24265176249E+03  0.00000000000E+00 0. -1.
         -4   -1    0    0    0  501 -0.00000000000E+00 -0.00000000000E+00 -0.27570089437E+04  0.27570089437E+04  0.00000000000E+00 0.  1.
         23    2    1    2    0    0  0.17870314776E+03  0.15755533600E+03  0.58191997656E+02  0.26376831233E+03  0.97102600762E+02 0.  0.
        254    2    1    2    0    0 -0.17870314776E+03 -0.15755533600E+03 -0.25725491789E+04  0.27358923938E+04  0.90018854368E+03 0.  0.
        -24    2    4    4    0    0 -0.30266711879E+03 -0.32363190664E+03 -0.24306170864E+04  0.24720636067E+04  0.82789246775E+02 0.  0.
         24    2    4    4    0    0  0.12396397103E+03  0.16607657063E+03 -0.14193209247E+03  0.26382878710E+03  0.80699545252E+02 0.  0.
         13    1    3    3    0    0  0.12869482532E+02 -0.13425347608E+02  0.11091593810E+00  0.18597737534E+02  0.00000000000E+00 0.  1.
        -13    1    3    3    0    0  0.16583366523E+03  0.17098068361E+03  0.58081081718E+02  0.24517057480E+03  0.00000000000E+00 0. -1.
          4    1    6    6  502    0  0.12418794980E+02  0.15187399307E+02 -0.52337365525E+02  0.55893500486E+02  0.00000000000E+00 0. -1.
          3    1    5    5  503    0 -0.11397297883E+03 -0.11347821181E+03 -0.67660604347E+03  0.69545875688E+03  0.00000000000E+00 0. -1.
         -4    1    5    5    0  503 -0.18869413996E+03 -0.21015369482E+03 -0.17540110429E+04  0.17766048499E+04  0.00000000000E+00 0.  1.
         -3    1    6    6    0  502  0.11154517605E+03  0.15088917133E+03 -0.89594726943E+02  0.20793528661E+03  0.00000000000E+00 0.  1.
<mgrwt>
<rscale>  0 0.16358399E+04</rscale>
<asrwt>0</asrwt>
<pdfrwt beam="1">  1        4 0.37331041E-01 0.16358399E+04</pdfrwt>
<pdfrwt beam="2">  1       -4 0.42415521E+00 0.16358399E+04</pdfrwt>
<totfact> 0.62409973E-02</totfact>
</mgrwt>
</event>
<event>
12    1  0.1506149E-007  0.2264261E+04  0.7818608E-02  0.8492147E-01
         -2   -1    0    0    0  501 -0.00000000000E+00  0.00000000000E+00  0.58149129267E+03  0.58149129267E+03  0.00000000000E+00 0.  1.
          2   -1    0    0  501    0  0.00000000000E+00 -0.00000000000E+00 -0.22041938773E+04  0.22041938773E+04  0.00000000000E+00 0. -1.
         23    2    1    2    0    0 -0.22873810278E+03  0.67210931004E+03 -0.14554407470E+04  0.16221117829E+04  0.94269952394E+02 0.  0.
        254    2    1    2    0    0  0.22873810278E+03 -0.67210931004E+03 -0.16726183763E+03  0.11635733871E+04  0.90657292064E+03 0.  0.
        -24    2    4    4    0    0  0.49997441958E+02 -0.35380584795E+03  0.36195542594E+03  0.51547699538E+03  0.83824102475E+02 0.  0.
         24    2    4    4    0    0  0.17874066082E+03 -0.31830346210E+03 -0.52921726357E+03  0.64809639168E+03  0.81808942288E+02 0.  0.
         11    1    3    3    0    0 -0.11956668487E+03  0.28791669412E+03 -0.54397808501E+03  0.62698036002E+03  0.00000000000E+00 0.  1.
        -11    1    3    3    0    0 -0.10917141791E+03  0.38419261593E+03 -0.91146266203E+03  0.99513142293E+03  0.00000000000E+00 0. -1.
          2    1    6    6  502    0  0.63668731561E+02 -0.19387687099E+03 -0.30677289762E+03  0.36844478446E+03  0.00000000000E+00 0. -1.
          1    1    5    5  503    0  0.70812481256E+02 -0.21592616695E+03  0.23497582904E+03  0.32688248241E+03  0.00000000000E+00 0. -1.
         -2    1    5    5    0  503 -0.20815039298E+02 -0.13787968100E+03  0.12697959691E+03  0.18859451297E+03  0.00000000000E+00 0.  1.
         -1    1    6    6    0  502  0.11507192926E+03 -0.12442659111E+03 -0.22244436594E+03  0.27965160721E+03  0.00000000000E+00 0.  1.
<mgrwt>
<rscale>  0 0.22642611E+04</rscale>
<asrwt>0</asrwt>
<pdfrwt beam="1">  1        2 0.33910675E+00 0.22642611E+04</pdfrwt>
<pdfrwt beam="2">  1       -2 0.89460200E-01 0.22642611E+04</pdfrwt>
<totfact> 0.50034206E+00</totfact>
</mgrwt>
</event>
<event>
12    1  0.1506149E-007  0.1872085E+04  0.7818608E-02  0.8668877E-01
         -2   -1    0    0    0  501 -0.00000000000E+00  0.00000000000E+00  0.17812416773E+04  0.17812416773E+04  0.00000000000E+00 0.  1.
          2   -1    0    0  501    0  0.00000000000E+00 -0.00000000000E+00 -0.49189045945E+03  0.49189045945E+03  0.00000000000E+00 0. -1.
         23    2    1    2    0    0 -0.20743629592E+03 -0.20967510736E+03 -0.26535982129E+03  0.40701542843E+03  0.90841932548E+02 0.  0.
        254    2    1    2    0    0  0.20743629592E+03  0.20967510736E+03  0.15547110391E+04  0.18661167083E+04  0.98907617822E+03 0.  0.
        -24    2    4    4    0    0 -0.37970708578E+03 -0.26810275894E+02  0.67811462718E+03  0.78182751405E+03  0.80737551619E+02 0.  0.
         24    2    4    4    0    0  0.58714338170E+03  0.23648538326E+03  0.87659641192E+03  0.10842891942E+04  0.81234845801E+02 0.  0.
         13    1    3    3    0    0 -0.14215776864E+03 -0.19552738190E+03 -0.21173267103E+03  0.32135729685E+03  0.00000000000E+00 0. -1.
        -13    1    3    3    0    0 -0.65278527280E+02 -0.14147725457E+02 -0.53627150261E+02  0.85658131573E+02  0.00000000000E+00 0.  1.
          4    1    6    6  502    0  0.20758810803E+03  0.12611116014E+03  0.33351090588E+03  0.41258498718E+03  0.00000000000E+00 0. -1.
          3    1    5    5  503    0 -0.26838071881E+03 -0.55165053303E+02  0.46486511390E+03  0.53960260142E+03  0.00000000000E+00 0. -1.
         -4    1    5    5    0  503 -0.11132636697E+03  0.28354777409E+02  0.21324951328E+03  0.24222491263E+03  0.00000000000E+00 0.  1.
         -3    1    6    6    0  502  0.37955527368E+03  0.11037422312E+03  0.54308550605E+03  0.67170420706E+03  0.00000000000E+00 0.  1.
<mgrwt>
<rscale>  0 0.18720852E+04</rscale>
<asrwt>0</asrwt>
<pdfrwt beam="1">  1        2 0.75675456E-01 0.18720852E+04</pdfrwt>
<pdfrwt beam="2">  1       -2 0.27403718E+00 0.18720852E+04</pdfrwt>
<totfact> 0.26991768E+00</totfact>
</mgrwt>
</event>
<event>
12    1  0.1506149E-007  0.1223333E+04  0.7818608E-02  0.9092675E-01
         -2   -1    0    0    0  501 -0.00000000000E+00  0.00000000000E+00  0.29588321434E+03  0.29588321434E+03  0.00000000000E+00 0.  1.
          2   -1    0    0  501    0  0.00000000000E+00 -0.00000000000E+00 -0.12644720425E+04  0.12644720425E+04  0.00000000000E+00 0. -1.
         23    2    1    2    0    0  0.79325921384E+02  0.21407417658E+03 -0.40498662734E+03  0.47458433902E+03  0.95371754919E+02 0.  0.
        254    2    1    2    0    0 -0.79325921384E+02 -0.21407417658E+03 -0.56360220086E+03  0.10857709179E+04  0.89951692056E+03 0.  0.
        -24    2    4    4    0    0 -0.15449487887E+03 -0.51029910166E+03 -0.54894181023E+03  0.76933346273E+03  0.79139276683E+02 0.  0.
         24    2    4    4    0    0  0.75168957483E+02  0.29622492508E+03 -0.14660390629E+02  0.31643745513E+03  0.80735107273E+02 0.  0.
         13    1    3    3    0    0  0.84083143447E+02  0.17670523963E+03 -0.26380099416E+03  0.32845955800E+03  0.00000000000E+00 0.  1.
        -13    1    3    3    0    0 -0.47572220631E+01  0.37368936953E+02 -0.14118563318E+03  0.14612478101E+03  0.00000000000E+00 0. -1.
          4    1    6    6  502    0  0.40588145886E+02  0.21857994685E+03 -0.43787872137E+02  0.22658766183E+03  0.00000000000E+00 0. -1.
          1    1    5    5  503    0 -0.11101455570E+03 -0.26838113158E+03 -0.33600423664E+03  0.44413006023E+03  0.00000000000E+00 0. -1.
         -4    1    5    5    0  503 -0.43480323172E+02 -0.24191797008E+03 -0.21293757359E+03  0.32520340250E+03  0.00000000000E+00 0.  1.
         -3    1    6    6    0  502  0.34580811597E+02  0.77644978232E+02  0.29127481508E+02  0.89849793290E+02  0.00000000000E+00 0.  1.
<mgrwt>
<rscale>  0 0.12233332E+04</rscale>
<asrwt>0</asrwt>
<pdfrwt beam="1">  1        2 0.19453416E+00 0.12233332E+04</pdfrwt>
<pdfrwt beam="2">  1       -2 0.45520495E-01 0.12233332E+04</pdfrwt>
<totfact> 0.78166009E+01</totfact>
</mgrwt>
</event>
<event>
12    1  0.1506149E-007  0.3019883E+04  0.7818608E-02  0.8238076E-01
         -1   -1    0    0    0  501 -0.00000000000E+00  0.00000000000E+00  0.93282031887E+03  0.93282031887E+03  0.00000000000E+00 0.  1.
          1   -1    0    0  501    0  0.00000000000E+00 -0.00000000000E+00 -0.24441176665E+04  0.24441176665E+04  0.00000000000E+00 0. -1.
         23    2    1    2    0    0 -0.98327738991E+03 -0.67748012217E+03 -0.14510918306E+04  0.18814672397E+04  0.91857127956E+02 0.  0.
        254    2    1    2    0    0  0.98327738991E+03  0.67748012217E+03 -0.60205517087E+02  0.14954707457E+04  0.89832861773E+03 0.  0.
        -24    2    4    4    0    0  0.55205515863E+03 -0.11720145064E+03  0.84850031181E+02  0.57638806775E+03  0.80762606705E+02 0.  0.
         24    2    4    4    0    0  0.43122223128E+03  0.79468157280E+03 -0.14505554827E+03  0.91908267793E+03  0.78742884601E+02 0.  0.
         13    1    3    3    0    0 -0.77526930307E+03 -0.55808909109E+03 -0.12069158809E+04  0.15392049472E+04  0.00000000000E+00 0. -1.
        -13    1    3    3    0    0 -0.20800808684E+03 -0.11939103107E+03 -0.24417594966E+03  0.34226229253E+03  0.00000000000E+00 0.  1.
          4    1    6    6  502    0  0.49527202551E+02  0.66918382124E+02 -0.33586475395E+02  0.89772295214E+02  0.00000000000E+00 0. -1.
          3    1    5    5  503    0  0.10741674988E+03  0.51820955863E+01  0.31967589878E+02  0.11219241985E+03  0.00000000000E+00 0. -1.
         -4    1    5    5    0  503  0.44463840875E+03 -0.12238354623E+03  0.52882441303E+02  0.46419564789E+03  0.00000000000E+00 0.  1.
         -3    1    6    6    0  502  0.38169502873E+03  0.72776319068E+03 -0.11146907287E+03  0.82931038271E+03  0.00000000000E+00 0.  1.
<mgrwt>
<rscale>  0 0.30198825E+04</rscale>
<asrwt>0</asrwt>
<pdfrwt beam="1">  1        1 0.37601810E+00 0.30198825E+04</pdfrwt>
<pdfrwt beam="2">  1       -1 0.14351082E+00 0.30198825E+04</pdfrwt>
<totfact> 0.49397320E-01</totfact>
</mgrwt>
</event>
<event>
12    1  0.1506149E-007  0.1344902E+04  0.7818608E-02  0.8994696E-01
         -1   -1    0    0    0  501 -0.00000000000E+00  0.00000000000E+00  0.27402998892E+03  0.27402998892E+03  0.00000000000E+00 0.  1.
          1   -1    0    0  501    0  0.00000000000E+00 -0.00000000000E+00 -0.16501500641E+04  0.16501500641E+04  0.00000000000E+00 0. -1.
         23    2    1    2    0    0 -0.12358188915E+03  0.10053449149E+03 -0.85178259261E+03  0.87136177555E+03  0.91422598492E+02 0.  0.
        254    2    1    2    0    0  0.12358188915E+03 -0.10053449149E+03 -0.52433748256E+03  0.10528182775E+04  0.89895320369E+03 0.  0.
        -24    2    4    4    0    0  0.44619508239E+03  0.15176389273E+03 -0.38107072384E+03  0.61129103243E+03  0.79620971310E+02 0.  0.
         24    2    4    4    0    0 -0.32261319324E+03 -0.25229838421E+03 -0.14326675872E+03  0.44152724502E+03  0.81775282406E+02 0.  0.
         11    1    3    3    0    0 -0.77755435816E+02  0.50056624088E+02 -0.26581315844E+03  0.28143952923E+03  0.00000000000E+00 0.  1.
        -11    1    3    3    0    0 -0.45826453334E+02  0.50477867397E+02 -0.58596943417E+03  0.58992224632E+03  0.00000000000E+00 0. -1.
          2    1    6    6  502    0 -0.19719993311E+02 -0.94709282806E+01 -0.29997577702E+02  0.37127231067E+02  0.00000000000E+00 0. -1.
          1    1    5    5  503    0  0.37838916201E+02  0.17212961344E+02 -0.86260551456E+01  0.42455605577E+02  0.00000000000E+00 0. -1.
         -2    1    5    5    0  503  0.40835616619E+03  0.13455093139E+03 -0.37244466870E+03  0.56883542685E+03  0.00000000000E+00 0.  1.
         -1    1    6    6    0  502 -0.30289319993E+03 -0.24282745593E+03 -0.11326918102E+03  0.40440001396E+03  0.00000000000E+00 0.  1.
<mgrwt>
<rscale>  0 0.13449024E+04</rscale>
<asrwt>0</asrwt>
<pdfrwt beam="1">  1        1 0.25386923E+00 0.13449024E+04</pdfrwt>
<pdfrwt beam="2">  1       -1 0.42158461E-01 0.13449024E+04</pdfrwt>
<totfact> 0.27912538E+01</totfact>
</mgrwt>
</event>
<event>
12    1  0.1506149E-007  0.1377436E+04  0.7818608E-02  0.8970315E-01
          2   -1    0    0  501    0  0.00000000000E+00  0.00000000000E+00  0.16910500904E+04  0.16910500904E+04  0.00000000000E+00 0. -1.
         -2   -1    0    0    0  501 -0.00000000000E+00 -0.00000000000E+00 -0.28049593032E+03  0.28049593032E+03  0.00000000000E+00 0.  1.
         23    2    1    2    0    0 -0.18212680760E+03 -0.32866801727E+03  0.30097822286E+03  0.49004365933E+03  0.91444287925E+02 0.  0.
        254    2    1    2    0    0  0.18212680760E+03  0.32866801727E+03  0.11095759372E+04  0.14815023614E+04  0.90691655995E+03 0.  0.
        -24    2    4    4    0    0  0.45129516682E+03 -0.91351275962E+01  0.26317234380E+03  0.52847279122E+03  0.79202464421E+02 0.  0.
         24    2    4    4    0    0 -0.26916835922E+03  0.33780314487E+03  0.84640359343E+03  0.95302957017E+03  0.72826838226E+02 0.  0.
         13    1    3    3    0    0 -0.17598148616E+03 -0.27199554773E+03  0.22235058733E+03  0.39292600467E+03  0.00000000000E+00 0.  1.
        -13    1    3    3    0    0 -0.61453214371E+01 -0.56672469537E+02  0.78627635522E+02  0.97117654660E+02  0.00000000000E+00 0. -1.
          4    1    6    6  502    0 -0.41710169814E+02  0.72484485094E+02  0.11261489604E+03  0.14027064431E+03  0.00000000000E+00 0. -1.
          1    1    5    5  503    0  0.23702532091E+02  0.16609981671E+02  0.87043298468E+01  0.30223614554E+02  0.00000000000E+00 0. -1.
         -2    1    5    5    0  503  0.42759263472E+03 -0.25745109267E+02  0.25446801395E+03  0.49824917666E+03  0.00000000000E+00 0.  1.
         -3    1    6    6    0  502 -0.22745818941E+03  0.26531865977E+03  0.73378869739E+03  0.81275892586E+03  0.00000000000E+00 0.  1.
<mgrwt>
<rscale>  0 0.13774363E+04</rscale>
<asrwt>0</asrwt>
<pdfrwt beam="1">  1        2 0.26016155E+00 0.13774363E+04</pdfrwt>
<pdfrwt beam="2">  1       -2 0.43153221E-01 0.13774363E+04</pdfrwt>
<totfact> 0.49233101E+01</totfact>
</mgrwt>
</event>
<event>
12    1  0.1506149E-007  0.2177696E+04  0.7818608E-02  0.8527769E-01
         -2   -1    0    0    0  501 -0.00000000000E+00  0.00000000000E+00  0.28588447311E+03  0.28588447311E+03  0.00000000000E+00 0.  1.
          2   -1    0    0  501    0  0.00000000000E+00 -0.00000000000E+00 -0.41470962733E+04  0.41470962733E+04  0.00000000000E+00 0. -1.
         23    2    1    2    0    0  0.57869088637E+03 -0.39930724120E+03 -0.27579858543E+04  0.28477200070E+04  0.93240823588E+02 0.  0.
        254    2    1    2    0    0 -0.57869088637E+03  0.39930724120E+03 -0.11032259460E+04  0.15852607394E+04  0.89532938591E+03 0.  0.
        -24    2    4    4    0    0 -0.58882186180E+03 -0.58342800839E+02 -0.32741182657E+03  0.68088595471E+03  0.79322832773E+02 0.  0.
         24    2    4    4    0    0  0.10130975427E+02  0.45765004204E+03 -0.77581411938E+03  0.90437478471E+03  0.80374160897E+02 0.  0.
         13    1    3    3    0    0  0.34441962959E+03 -0.20243615990E+03 -0.14153313929E+04  0.14706353157E+04  0.00000000000E+00 0. -1.
        -13    1    3    3    0    0  0.23427125678E+03 -0.19687108130E+03 -0.13426544614E+04  0.13770846913E+04  0.00000000000E+00 0.  1.
          4    1    6    6  502    0  0.58607837908E+00  0.10235218792E+03 -0.11435254630E+03  0.15346927610E+03  0.00000000000E+00 0. -1.
          1    1    5    5  503    0 -0.10707022331E+03 -0.32849170596E+02 -0.87345662824E+02  0.14202945308E+03  0.00000000000E+00 0. -1.
         -2    1    5    5    0  503 -0.48175163849E+03 -0.25493630243E+02 -0.24006616374E+03  0.53885650163E+03  0.00000000000E+00 0.  1.
         -3    1    6    6    0  502  0.95448970483E+01  0.35529785413E+03 -0.66146157308E+03  0.75090550861E+03  0.00000000000E+00 0.  1.
<mgrwt>
<rscale>  0 0.21776964E+04</rscale>
<asrwt>0</asrwt>
<pdfrwt beam="1">  1        2 0.63801473E+00 0.21776964E+04</pdfrwt>
<pdfrwt beam="2">  1       -2 0.43982232E-01 0.21776964E+04</pdfrwt>
<totfact> 0.11694247E+00</totfact>
</mgrwt>
</event>
<event>
12    1  0.1506149E-007  0.2193691E+04  0.7818608E-02  0.8521058E-01
          2   -1    0    0  501    0  0.00000000000E+00  0.00000000000E+00  0.20984029196E+04  0.20984029196E+04  0.00000000000E+00 0. -1.
         -2   -1    0    0    0  501 -0.00000000000E+00 -0.00000000000E+00 -0.57332673891E+03  0.57332673891E+03  0.00000000000E+00 0.  1.
         23    2    1    2    0    0  0.28589615592E+03  0.14165381130E+02  0.16819857259E+04  0.17086375192E+04  0.91809149664E+02 0.  0.
        254    2    1    2    0    0 -0.28589615592E+03 -0.14165381130E+02 -0.15690954513E+03  0.96309213937E+03  0.90608420887E+03 0.  0.
        -24    2    4    4    0    0  0.39685824456E+02  0.34343419910E+03 -0.28684677438E+03  0.45608891979E+03  0.78829036562E+02 0.  0.
         24    2    4    4    0    0 -0.32558198038E+03 -0.35759958023E+03  0.12993722925E+03  0.50700321958E+03  0.79293728541E+02 0.  0.
         13    1    3    3    0    0  0.17012809796E+03 -0.32102568039E+02  0.86032637050E+03  0.87757370538E+03  0.00000000000E+00 0. -1.
        -13    1    3    3    0    0  0.11576805796E+03  0.46267949169E+02  0.82165935535E+03  0.83106381380E+03  0.00000000000E+00 0.  1.
          2    1    6    6  502    0 -0.25031859632E+03 -0.27065764440E+03  0.13312450140E+03  0.39196567836E+03  0.00000000000E+00 0. -1.
          3    1    5    5  503    0  0.26242205165E+02  0.29078402343E+03 -0.20090967528E+03  0.35441317587E+03  0.00000000000E+00 0. -1.
         -4    1    5    5    0  503  0.13443619292E+02  0.52650175676E+02 -0.85937099107E+02  0.10167574392E+03  0.00000000000E+00 0.  1.
         -1    1    6    6    0  502 -0.75263384062E+02 -0.86941935828E+02 -0.31872721513E+01  0.11503754122E+03  0.00000000000E+00 0.  1.
<mgrwt>
<rscale>  0 0.21936914E+04</rscale>
<asrwt>0</asrwt>
<pdfrwt beam="1">  1        2 0.32283121E+00 0.21936914E+04</pdfrwt>
<pdfrwt beam="2">  1       -2 0.88204115E-01 0.21936914E+04</pdfrwt>
<totfact> 0.59603744E+00</totfact>
</mgrwt>
</event>
<event>
12    1  0.1506149E-007  0.1361298E+04  0.7818608E-02  0.8982320E-01
          2   -1    0    0  501    0  0.00000000000E+00  0.00000000000E+00  0.17021798581E+04  0.17021798581E+04  0.00000000000E+00 0. -1.
         -2   -1    0    0    0  501 -0.00000000000E+00 -0.00000000000E+00 -0.27217028117E+03  0.27217028117E+03  0.00000000000E+00 0.  1.
         23    2    1    2    0    0 -0.36311399134E+03  0.85847669309E+02  0.48836320786E+03  0.62129113715E+03  0.91008028657E+02 0.  0.
        254    2    1    2    0    0  0.36311399134E+03 -0.85847669309E+02  0.94164636910E+03  0.13530590021E+04  0.89713387286E+03 0.  0.
        -24    2    4    4    0    0  0.23551886726E+03 -0.26826561935E+03  0.10365540099E+04  0.10991289771E+04  0.78770002820E+02 0.  0.
         24    2    4    4    0    0  0.12759512408E+03  0.18241795004E+03 -0.94907640828E+02  0.25393002510E+03  0.76916663823E+02 0.  0.
         13    1    3    3    0    0 -0.52950753310E+02  0.41415448428E+02  0.12130611777E+03  0.13868740336E+03  0.00000000000E+00 0. -1.
        -13    1    3    3    0    0 -0.31016323803E+03  0.44432220881E+02  0.36705709010E+03  0.48260373379E+03  0.00000000000E+00 0.  1.
          4    1    6    6  502    0 -0.86614187956E+01  0.10270503993E+02 -0.15384570828E+02  0.20425191490E+02  0.00000000000E+00 0. -1.
          3    1    5    5  503    0  0.12742917971E+02 -0.32166087091E+02  0.17640637474E+03  0.17976720548E+03  0.00000000000E+00 0. -1.
         -4    1    5    5    0  503  0.22277594929E+03 -0.23609953225E+03  0.86014763518E+03  0.91936177157E+03  0.00000000000E+00 0.  1.
         -3    1    6    6    0  502  0.13625654287E+03  0.17214744604E+03 -0.79523069999E+02  0.23350483361E+03  0.00000000000E+00 0.  1.
<mgrwt>
<rscale>  0 0.13612976E+04</rscale>
<asrwt>0</asrwt>
<pdfrwt beam="1">  1        2 0.26187382E+00 0.13612976E+04</pdfrwt>
<pdfrwt beam="2">  1       -2 0.41872352E-01 0.13612976E+04</pdfrwt>
<totfact> 0.51582199E+01</totfact>
</mgrwt>
</event>
<event>
12    1  0.1650007E-007  0.1726472E+04  0.7818608E-02  0.8746409E-01
         -1   -1    0    0    0  501 -0.00000000000E+00  0.00000000000E+00  0.37177752885E+03  0.37177752885E+03  0.00000000000E+00 0.  1.
          1   -1    0    0  501    0  0.00000000000E+00 -0.00000000000E+00 -0.20043610353E+04  0.20043610353E+04  0.00000000000E+00 0. -1.
         23    2    1    2    0    0  0.23156692578E+03 -0.14763940779E+03  0.17198805673E+03  0.33673875775E+03  0.91610389511E+02 0.  0.
        254    2    1    2    0    0 -0.23156692578E+03  0.14763940779E+03 -0.18045715631E+04  0.20393998064E+04  0.90953417077E+03 0.  0.
        -24    2    4    4    0    0 -0.71342134413E+02  0.39585496682E+03 -0.16448763665E+04  0.16953086615E+04  0.81623168442E+02 0.  0.
         24    2    4    4    0    0 -0.16022479137E+03 -0.24821555903E+03 -0.15969519660E+03  0.34409114486E+03  0.74921376403E+02 0.  0.
         11    1    3    3    0    0  0.23716552811E+03 -0.13859054572E+03  0.15161581920E+03  0.31375497402E+03  0.00000000000E+00 0.  1.
        -11    1    3    3    0    0 -0.55986023330E+01 -0.90488620714E+01  0.20372237529E+02  0.22983783735E+02  0.00000000000E+00 0. -1.
          4    1    6    6  502    0 -0.11034429920E+03 -0.22279898801E+03 -0.12571440547E+03  0.27860252183E+03  0.00000000000E+00 0. -1.
          3    1    5    5  503    0 -0.51163310131E+02  0.37059538542E+03 -0.15659364365E+04  0.16100048283E+04  0.00000000000E+00 0. -1.
         -4    1    5    5    0  503 -0.20178824282E+02  0.25259581397E+02 -0.78939930025E+02  0.85303833174E+02  0.00000000000E+00 0.  1.
         -3    1    6    6    0  502 -0.49880492170E+02 -0.25416571016E+02 -0.33980791127E+02  0.65488623034E+02  0.00000000000E+00 0.  1.
<mgrwt>
<rscale>  0 0.17264720E+04</rscale>
<asrwt>0</asrwt>
<pdfrwt beam="1">  1        1 0.30836323E+00 0.17264720E+04</pdfrwt>
<pdfrwt beam="2">  1       -1 0.57196544E-01 0.17264720E+04</pdfrwt>
<totfact> 0.87005407E+00</totfact>
</mgrwt>
</event>
<event>
12    1  0.1506149E-007  0.1786601E+04  0.7818608E-02  0.8713458E-01
          2   -1    0    0  501    0  0.00000000000E+00  0.00000000000E+00  0.11888880523E+04  0.11888880523E+04  0.00000000000E+00 0. -1.
         -2   -1    0    0    0  501 -0.00000000000E+00 -0.00000000000E+00 -0.67120320591E+03  0.67120320591E+03  0.00000000000E+00 0.  1.
         23    2    1    2    0    0 -0.59165835895E+03  0.28645217588E+03  0.24439612655E+02  0.66411375637E+03  0.91297995273E+02 0.  0.
        254    2    1    2    0    0  0.59165835895E+03 -0.28645217588E+03  0.49324523375E+03  0.11959775019E+04  0.86888253610E+03 0.  0.
        -24    2    4    4    0    0  0.62439403981E+03 -0.53426916679E+03  0.34935160925E+03  0.89701428369E+03  0.85303099183E+02 0.  0.
         24    2    4    4    0    0 -0.32735680853E+02  0.24781699090E+03  0.14389362451E+03  0.29896321817E+03  0.78668576085E+02 0.  0.
         11    1    3    3    0    0 -0.40565756955E+03  0.22230544738E+03 -0.17637355862E+02  0.46291343898E+03  0.00000000000E+00 0. -1.
        -11    1    3    3    0    0 -0.18600078940E+03  0.64146728507E+02  0.42076968518E+02  0.20120031739E+03  0.00000000000E+00 0.  1.
          2    1    6    6  502    0  0.20941047495E+02  0.66172272061E+02  0.18575293712E+02  0.71849416117E+02  0.00000000000E+00 0. -1.
          3    1    5    5  503    0  0.14380935037E+03 -0.17260832964E+03  0.90289996831E+02  0.24213022993E+03  0.00000000000E+00 0. -1.
         -4    1    5    5    0  503  0.48058468943E+03 -0.36166083715E+03  0.25906161242E+03  0.65488405376E+03  0.00000000000E+00 0.  1.
         -1    1    6    6    0  502 -0.53676728347E+02  0.18164471884E+03  0.12531833080E+03  0.22711380205E+03  0.00000000000E+00 0.  1.
<mgrwt>
<rscale>  0 0.17866007E+04</rscale>
<asrwt>0</asrwt>
<pdfrwt beam="1">  1        2 0.18290585E+00 0.17866007E+04</pdfrwt>
<pdfrwt beam="2">  1       -2 0.10326203E+00 0.17866007E+04</pdfrwt>
<totfact> 0.13910023E+01</totfact>
</mgrwt>
</event>
<event>
12    1  0.1506149E-007  0.2206405E+04  0.7818608E-02  0.8515767E-01
          1   -1    0    0  501    0  0.00000000000E+00  0.00000000000E+00  0.79419113445E+03  0.79419113445E+03  0.00000000000E+00 0. -1.
         -1   -1    0    0    0  501 -0.00000000000E+00 -0.00000000000E+00 -0.15324464051E+04  0.15324464051E+04  0.00000000000E+00 0.  1.
         23    2    1    2    0    0 -0.33675880668E+03 -0.77111694425E+03 -0.69729927910E+03  0.10966847372E+04  0.91996155550E+02 0.  0.
        254    2    1    2    0    0  0.33675880668E+03  0.77111694425E+03 -0.40955991513E+02  0.12299528023E+04  0.89614656559E+03 0.  0.
        -24    2    4    4    0    0  0.55529978408E+03  0.27485417157E+03 -0.20474615277E+03  0.65807772018E+03  0.85103659713E+02 0.  0.
         24    2    4    4    0    0 -0.21854097739E+03  0.49626277269E+03  0.16379016126E+03  0.57187508211E+03  0.78593856369E+02 0.  0.
         11    1    3    3    0    0 -0.28865262030E+03 -0.69596938941E+03 -0.58894599479E+03  0.95632165665E+03  0.00000000000E+00 0. -1.
        -11    1    3    3    0    0 -0.48106186380E+02 -0.75147554843E+02 -0.10835328431E+03  0.14036308057E+03  0.00000000000E+00 0.  1.
          4    1    6    6  502    0 -0.22247007071E+03  0.49641076783E+03  0.16243513785E+03  0.56771626433E+03  0.00000000000E+00 0. -1.
          3    1    5    5  503    0  0.45208197122E+03  0.18626179147E+03 -0.17032033032E+03  0.51776498393E+03  0.00000000000E+00 0. -1.
         -2    1    5    5    0  503  0.10321781285E+03  0.88592380094E+02 -0.34425822455E+02  0.14031273625E+03  0.00000000000E+00 0.  1.
         -3    1    6    6    0  502  0.39290933188E+01 -0.14799514269E+00  0.13550234053E+01  0.41588177767E+01  0.00000000000E+00 0.  1.
<mgrwt>
<rscale>  0 0.22064046E+04</rscale>
<asrwt>0</asrwt>
<pdfrwt beam="1">  1        1 0.12218325E+00 0.22064046E+04</pdfrwt>
<pdfrwt beam="2">  1       -1 0.23576099E+00 0.22064046E+04</pdfrwt>
<totfact> 0.17621896E+00</totfact>
</mgrwt>
</event>
<event>
12    1  0.1506149E-007  0.1776335E+04  0.7818608E-02  0.8718986E-01
          2   -1    0    0  501    0  0.00000000000E+00  0.00000000000E+00  0.11321645020E+04  0.11321645020E+04  0.00000000000E+00 0. -1.
         -2   -1    0    0    0  501 -0.00000000000E+00 -0.00000000000E+00 -0.69675524453E+03  0.69675524453E+03  0.00000000000E+00 0.  1.
         23    2    1    2    0    0  0.46822045604E+03  0.45479535961E+03  0.19726559045E+03  0.68795730564E+03  0.91117103931E+02 0.  0.
        254    2    1    2    0    0 -0.46822045604E+03 -0.45479535961E+03  0.23814366704E+03  0.11409624409E+04  0.90499374077E+03 0.  0.
        -24    2    4    4    0    0 -0.27439581882E+03 -0.17973290205E+03 -0.33236598629E+03  0.47377164566E+03  0.79971506935E+02 0.  0.
         24    2    4    4    0    0 -0.19382463722E+03 -0.27506245756E+03  0.57050965334E+03  0.66719079525E+03  0.80218122448E+02 0.  0.
         11    1    3    3    0    0  0.33380771348E+03  0.36776231347E+03  0.17336694546E+03  0.52605399587E+03  0.00000000000E+00 0.  1.
        -11    1    3    3    0    0  0.13441274256E+03  0.87033046138E+02  0.23898644986E+02  0.16190330977E+03  0.00000000000E+00 0. -1.
          4    1    6    6  502    0 -0.19773544588E+03 -0.25426954897E+03  0.55187054988E+03  0.63899406407E+03  0.00000000000E+00 0. -1.
          1    1    5    5  503    0 -0.14279832476E+03 -0.14037727284E+03 -0.20016229721E+03  0.28312909689E+03  0.00000000000E+00 0. -1.
         -2    1    5    5    0  503 -0.13159749405E+03 -0.39355629218E+02 -0.13220368908E+03  0.19064254877E+03  0.00000000000E+00 0.  1.
         -3    1    6    6    0  502  0.39108086580E+01 -0.20792908586E+02  0.18639103460E+02  0.28196731187E+02  0.00000000000E+00 0.  1.
<mgrwt>
<rscale>  0 0.17763351E+04</rscale>
<asrwt>0</asrwt>
<pdfrwt beam="1">  1        2 0.17417915E+00 0.17763351E+04</pdfrwt>
<pdfrwt beam="2">  1       -2 0.10719311E+00 0.17763351E+04</pdfrwt>
<totfact> 0.13773146E+01</totfact>
</mgrwt>
</event>
<event>
12    1  0.1506149E-007  0.2009783E+04  0.7818608E-02  0.8602061E-01
         -2   -1    0    0    0  501 -0.00000000000E+00  0.00000000000E+00  0.67245219896E+03  0.67245219896E+03  0.00000000000E+00 0.  1.
          2   -1    0    0  501    0  0.00000000000E+00 -0.00000000000E+00 -0.15016778840E+04  0.15016778840E+04  0.00000000000E+00 0. -1.
         23    2    1    2    0    0  0.33950054722E+03  0.55518912430E+03 -0.83798297978E+03  0.10649107260E+04  0.91234832604E+02 0.  0.
        254    2    1    2    0    0 -0.33950054722E+03 -0.55518912430E+03  0.87572947403E+01  0.11092193569E+04  0.89821785013E+03 0.  0.
        -24    2    4    4    0    0  0.23046658343E+03 -0.41838449204E+03  0.13802219645E+03  0.50368441214E+03  0.80544590526E+02 0.  0.
         24    2    4    4    0    0 -0.56996713064E+03 -0.13680463226E+03 -0.12926490171E+03  0.60553494480E+03  0.79906927967E+02 0.  0.
         13    1    3    3    0    0  0.34189604739E+03  0.54387814153E+03 -0.83388402672E+03  0.10526437717E+04  0.00000000000E+00 0. -1.
        -13    1    3    3    0    0 -0.23955001747E+01  0.11310982769E+02 -0.40989530630E+01  0.12266954329E+02  0.00000000000E+00 0.  1.
          4    1    6    6  502    0 -0.54666674044E+03 -0.11542765018E+03 -0.11321985997E+03  0.57007613897E+03  0.00000000000E+00 0. -1.
          1    1    5    5  503    0  0.16107441987E+03 -0.35570326915E+03  0.11956890331E+03  0.40837055117E+03  0.00000000000E+00 0. -1.
         -2    1    5    5    0  503  0.69392163555E+02 -0.62681222891E+02  0.18453293137E+02  0.95313860973E+02  0.00000000000E+00 0.  1.
         -3    1    6    6    0  502 -0.23300390199E+02 -0.21376982077E+02 -0.16045041742E+02  0.35458805827E+02  0.00000000000E+00 0.  1.
<mgrwt>
<rscale>  0 0.20097827E+04</rscale>
<asrwt>0</asrwt>
<pdfrwt beam="1">  1        2 0.23102737E+00 0.20097827E+04</pdfrwt>
<pdfrwt beam="2">  1       -2 0.10345418E+00 0.20097827E+04</pdfrwt>
<totfact> 0.89575033E+00</totfact>
</mgrwt>
</event>
<event>
12    1  0.1506149E-007  0.2368248E+04  0.7818608E-02  0.8451488E-01
         -3   -1    0    0    0  501 -0.00000000000E+00  0.00000000000E+00  0.80682802821E+03  0.80682802821E+03  0.00000000000E+00 0.  1.
          3   -1    0    0  501    0  0.00000000000E+00 -0.00000000000E+00 -0.17378538953E+04  0.17378538953E+04  0.00000000000E+00 0. -1.
         23    2    1    2    0    0 -0.36386426642E+03  0.34431843802E+03  0.54295673242E+03  0.74542417117E+03  0.99512765758E+02 0.  0.
        254    2    1    2    0    0  0.36386426642E+03 -0.34431843802E+03 -0.14739825995E+04  0.17992577523E+04  0.90208168399E+03 0.  0.
        -24    2    4    4    0    0  0.11422917028E+03 -0.37755484390E+03 -0.12027974275E+03  0.41993575692E+03  0.79264493538E+02 0.  0.
         24    2    4    4    0    0  0.24963509614E+03  0.33236405879E+02 -0.13537028567E+04  0.13793219954E+04  0.81212085182E+02 0.  0.
         13    1    3    3    0    0 -0.13201199883E+03  0.18111796491E+03  0.28072537500E+03  0.35921806917E+03  0.00000000000E+00 0.  1.
        -13    1    3    3    0    0 -0.23185226759E+03  0.16320047311E+03  0.26223135742E+03  0.38620610200E+03  0.00000000000E+00 0. -1.
          2    1    6    6  502    0  0.88389452354E+02  0.34461366991E+02 -0.34476038149E+03  0.35757516936E+03  0.00000000000E+00 0. -1.
          1    1    5    5  503    0  0.13145153321E+01 -0.57842032573E+02 -0.43233878108E+02  0.72226012620E+02  0.00000000000E+00 0. -1.
         -2    1    5    5    0  503  0.11291465495E+03 -0.31971281132E+03 -0.77045864642E+02  0.34770974430E+03  0.00000000000E+00 0.  1.
         -1    1    6    6    0  502  0.16124564378E+03 -0.12249611120E+01 -0.10089424752E+04  0.10217468260E+04  0.00000000000E+00 0.  1.
<mgrwt>
<rscale>  0 0.23682476E+04</rscale>
<asrwt>0</asrwt>
<pdfrwt beam="1">  1        3 0.26736214E+00 0.23682476E+04</pdfrwt>
<pdfrwt beam="2">  1       -3 0.12412739E+00 0.23682476E+04</pdfrwt>
<totfact> 0.71954073E-02</totfact>
</mgrwt>
</event>
<event>
12    1  0.1506149E-007  0.1674891E+04  0.7818608E-02  0.8775816E-01
         -1   -1    0    0    0  501 -0.00000000000E+00  0.00000000000E+00  0.29344902777E+03  0.29344902777E+03  0.00000000000E+00 0.  1.
          1   -1    0    0  501    0  0.00000000000E+00 -0.00000000000E+00 -0.23899035388E+04  0.23899035388E+04  0.00000000000E+00 0. -1.
         23    2    1    2    0    0 -0.44872844985E+03 -0.27147096556E+03 -0.11807919170E+04  0.12939189405E+04  0.70021185280E+02 0.  0.
        254    2    1    2    0    0  0.44872844985E+03  0.27147096556E+03 -0.91566259401E+03  0.13894336261E+04  0.90389939064E+03 0.  0.
        -24    2    4    4    0    0 -0.24236981860E+03 -0.73352236581E+02 -0.18858749190E+03  0.32559301672E+03  0.79510319163E+02 0.  0.
         24    2    4    4    0    0  0.69109826845E+03  0.34482320214E+03 -0.72707510211E+03  0.10638406094E+04  0.81232879146E+02 0.  0.
         11    1    3    3    0    0 -0.33998598933E+03 -0.20518500260E+03 -0.96239257116E+03  0.10411007729E+04  0.00000000000E+00 0. -1.
        -11    1    3    3    0    0 -0.10874246053E+03 -0.66285962958E+02 -0.21839934588E+03  0.25281816763E+03  0.00000000000E+00 0.  1.
          2    1    6    6  502    0  0.29316389709E+03  0.18182906341E+03 -0.28976530936E+03  0.45052282225E+03  0.00000000000E+00 0. -1.
          1    1    5    5  503    0 -0.38605451178E+02 -0.26455840401E+02 -0.72904031580E+02  0.86633077821E+02  0.00000000000E+00 0. -1.
         -2    1    5    5    0  503 -0.20376436742E+03 -0.46896396181E+02 -0.11568346032E+03  0.23895993890E+03  0.00000000000E+00 0.  1.
         -1    1    6    6    0  502  0.39793437136E+03  0.16299413873E+03 -0.43730979275E+03  0.61331778712E+03  0.00000000000E+00 0.  1.
<mgrwt>
<rscale>  0 0.16748909E+04</rscale>
<asrwt>0</asrwt>
<pdfrwt beam="1">  1        1 0.36767746E+00 0.16748909E+04</pdfrwt>
<pdfrwt beam="2">  1       -1 0.45146005E-01 0.16748909E+04</pdfrwt>
<totfact> 0.75033230E+00</totfact>
</mgrwt>
</event>
<event>
12    1  0.1506149E-007  0.2416516E+04  0.7818608E-02  0.8433346E-01
         -2   -1    0    0    0  501 -0.00000000000E+00  0.00000000000E+00  0.53458344566E+03  0.53458344566E+03  0.00000000000E+00 0.  1.
          2   -1    0    0  501    0  0.00000000000E+00 -0.00000000000E+00 -0.27308867149E+04  0.27308867149E+04  0.00000000000E+00 0. -1.
         23    2    1    2    0    0 -0.71436311167E+03 -0.14271336985E+03 -0.19769079490E+04  0.21086922623E+04  0.87955993788E+02 0.  0.
        254    2    1    2    0    0  0.71436311167E+03  0.14271336985E+03 -0.21939532021E+03  0.11567778983E+04  0.87138914279E+03 0.  0.
        -24    2    4    4    0    0 -0.92136404051E+02 -0.18056157458E+03 -0.18110768384E+03  0.28332574819E+03  0.79886715256E+02 0.  0.
         24    2    4    4    0    0  0.80649951572E+03  0.32327494443E+03 -0.38287636368E+02  0.87345215009E+03  0.80650832900E+02 0.  0.
         11    1    3    3    0    0 -0.39753217230E+03 -0.73323967573E+02 -0.12197736239E+04  0.12850120333E+04  0.00000000000E+00 0. -1.
        -11    1    3    3    0    0 -0.31683093937E+03 -0.69389402279E+02 -0.75713432517E+03  0.82368022899E+03  0.00000000000E+00 0.  1.
          2    1    6    6  502    0  0.10560347490E+02 -0.25750030682E+01  0.56957329831E+01  0.12271632089E+02  0.00000000000E+00 0. -1.
          3    1    5    5  503    0 -0.16693066536E+02 -0.43345846499E+02 -0.92246470630E+02  0.10328084151E+03  0.00000000000E+00 0. -1.
         -4    1    5    5    0  503 -0.75443337515E+02 -0.13721572808E+03 -0.88861213214E+02  0.18004490668E+03  0.00000000000E+00 0.  1.
         -1    1    6    6    0  502  0.79593916823E+03  0.32584994750E+03 -0.43983369351E+02  0.86118051800E+03  0.00000000000E+00 0.  1.
<mgrwt>
<rscale>  0 0.24165155E+04</rscale>
<asrwt>0</asrwt>
<pdfrwt beam="1">  1        2 0.42013641E+00 0.24165155E+04</pdfrwt>
<pdfrwt beam="2">  1       -2 0.82243609E-01 0.24165155E+04</pdfrwt>
<totfact> 0.29680095E+00</totfact>
</mgrwt>
</event>
<event>
12    1  0.1506149E-007  0.1438573E+04  0.7818608E-02  0.8926361E-01
          1   -1    0    0  501    0  0.00000000000E+00  0.00000000000E+00  0.10726349892E+04  0.10726349892E+04  0.00000000000E+00 0. -1.
         -1   -1    0    0    0  501 -0.00000000000E+00 -0.00000000000E+00 -0.48233809866E+03  0.48233809866E+03  0.00000000000E+00 0.  1.
         23    2    1    2    0    0 -0.22132693918E+03 -0.10248327451E+03 -0.20665146540E+03  0.33115974122E+03  0.86449467863E+02 0.  0.
        254    2    1    2    0    0  0.22132693918E+03  0.10248327451E+03  0.79694835593E+03  0.12238133466E+04  0.89616069419E+03 0.  0.
        -24    2    4    4    0    0 -0.21530927580E+02 -0.22640561118E+03 -0.78774467150E+02  0.25398772833E+03  0.81125013733E+02 0.  0.
         24    2    4    4    0    0  0.24285786676E+03  0.32888888569E+03  0.87572282308E+03  0.96982561830E+03  0.80767719239E+02 0.  0.
         13    1    3    3    0    0 -0.54852782235E+02  0.85160575916E+01 -0.67747563078E+02  0.87584720464E+02  0.00000000000E+00 0. -1.
        -13    1    3    3    0    0 -0.16647415694E+03 -0.11099933210E+03 -0.13890390232E+03  0.24357502076E+03  0.00000000000E+00 0.  1.
          2    1    6    6  502    0  0.79384289465E+02  0.56792109811E+02  0.17062901287E+03  0.19657433501E+03  0.00000000000E+00 0. -1.
          1    1    5    5  503    0 -0.21578645029E+02 -0.37725775455E+02 -0.44533221906E+02  0.62226038829E+02  0.00000000000E+00 0. -1.
         -2    1    5    5    0  503  0.47717449050E-01 -0.18867983572E+03 -0.34241245244E+02  0.19176168950E+03  0.00000000000E+00 0.  1.
         -1    1    6    6    0  502  0.16347357729E+03  0.27209677588E+03  0.70509381022E+03  0.77325128330E+03  0.00000000000E+00 0.  1.
<mgrwt>
<rscale>  0 0.14385725E+04</rscale>
<asrwt>0</asrwt>
<pdfrwt beam="1">  1        1 0.16502077E+00 0.14385725E+04</pdfrwt>
<pdfrwt beam="2">  1       -1 0.74205862E-01 0.14385725E+04</pdfrwt>
<totfact> 0.23637841E+01</totfact>
</mgrwt>
</event>
<event>
12    1  0.1506149E-007  0.1672228E+04  0.7818608E-02  0.8777364E-01
          1   -1    0    0  501    0  0.00000000000E+00  0.00000000000E+00  0.28040062167E+04  0.28040062167E+04  0.00000000000E+00 0. -1.
         -1   -1    0    0    0  501 -0.00000000000E+00 -0.00000000000E+00 -0.24931708243E+03  0.24931708243E+03  0.00000000000E+00 0.  1.
         23    2    1    2    0    0 -0.11634476034E+03  0.16280698178E+03  0.18429303043E+04  0.18559829222E+04  0.90764995086E+02 0.  0.
        254    2    1    2    0    0  0.11634476034E+03 -0.16280698178E+03  0.71175882994E+03  0.11973403769E+04  0.94179675601E+03 0.  0.
        -24    2    4    4    0    0  0.51470078594E+03 -0.29021214307E+02  0.28938719955E+03  0.59637903936E+03  0.78510364904E+02 0.  0.
         24    2    4    4    0    0 -0.39835602560E+03 -0.13378576748E+03  0.42237163039E+03  0.60096133756E+03  0.78553041815E+02 0.  0.
         11    1    3    3    0    0 -0.14115103162E+02  0.70261546810E+02  0.92258936778E+03  0.92536860906E+03  0.00000000000E+00 0.  1.
        -11    1    3    3    0    0 -0.10222965718E+03  0.92545434974E+02  0.92034093654E+03  0.93061431314E+03  0.00000000000E+00 0. -1.
          2    1    6    6  502    0 -0.39181569519E+03 -0.12384925888E+03  0.42206070649E+03  0.58906147208E+03  0.00000000000E+00 0. -1.
          1    1    5    5  503    0  0.49231132372E+03 -0.11442330048E+02  0.27956234760E+03  0.56626537292E+03  0.00000000000E+00 0. -1.
         -2    1    5    5    0  503  0.22389462221E+02 -0.17578884259E+02  0.98248519554E+01  0.30113666437E+02  0.00000000000E+00 0.  1.
         -1    1    6    6    0  502 -0.65403304110E+01 -0.99365085928E+01  0.31092389603E+00  0.11899865485E+02  0.00000000000E+00 0.  1.
<mgrwt>
<rscale>  0 0.16722280E+04</rscale>
<asrwt>0</asrwt>
<pdfrwt beam="1">  1        1 0.43138555E+00 0.16722280E+04</pdfrwt>
<pdfrwt beam="2">  1       -1 0.38356476E-01 0.16722280E+04</pdfrwt>
<totfact> 0.52090790E+00</totfact>
</mgrwt>
</event>
<event>
12    1  0.1506149E-007  0.3165262E+04  0.7818608E-02  0.8198052E-01
         -2   -1    0    0    0  501 -0.00000000000E+00  0.00000000000E+00  0.11885545799E+04  0.11885545799E+04  0.00000000000E+00 0.  1.
          2   -1    0    0  501    0  0.00000000000E+00 -0.00000000000E+00 -0.21073670344E+04  0.21073670344E+04  0.00000000000E+00 0. -1.
         23    2    1    2    0    0 -0.56331827070E+03 -0.22137887629E+03  0.95245317433E+03  0.11319389077E+04  0.88218821971E+02 0.  0.
        254    2    1    2    0    0  0.56331827070E+03  0.22137887629E+03 -0.18712656288E+04  0.21639827065E+04  0.90269043393E+03 0.  0.
        -24    2    4    4    0    0  0.41927037043E+02  0.27046943229E+03 -0.80272266950E+02  0.29629304986E+03  0.80214364772E+02 0.  0.
         24    2    4    4    0    0  0.52139123365E+03 -0.49090556000E+02 -0.17909933619E+04  0.18676896567E+04  0.79678918533E+02 0.  0.
         13    1    3    3    0    0 -0.20227604457E+03 -0.38201491313E+02  0.35131555415E+03  0.40718247842E+03  0.00000000000E+00 0.  1.
        -13    1    3    3    0    0 -0.36104222613E+03 -0.18317738498E+03  0.60113762019E+03  0.72475642931E+03  0.00000000000E+00 0. -1.
          4    1    6    6  502    0  0.43412944805E+03 -0.55661573583E+02 -0.15738611004E+04  0.16335866526E+04  0.00000000000E+00 0. -1.
          1    1    5    5  503    0  0.50271265338E+02  0.22342684527E+03 -0.92481304106E+02  0.24698086346E+03  0.00000000000E+00 0. -1.
         -2    1    5    5    0  503 -0.83442282947E+01  0.47042587021E+02  0.12209037156E+02  0.49312186402E+02  0.00000000000E+00 0.  1.
         -3    1    6    6    0  502  0.87261785605E+02  0.65710175827E+01 -0.21713226153E+03  0.23410300403E+03  0.00000000000E+00 0.  1.
<mgrwt>
<rscale>  0 0.31652619E+04</rscale>
<asrwt>0</asrwt>
<pdfrwt beam="1">  1        2 0.32421031E+00 0.31652619E+04</pdfrwt>
<pdfrwt beam="2">  1       -2 0.18285455E+00 0.31652619E+04</pdfrwt>
<totfact> 0.85185456E-01</totfact>
</mgrwt>
</event>
<event>
12    1  0.1506149E-007  0.1518137E+04  0.7818608E-02  0.8872481E-01
         -2   -1    0    0    0  501 -0.00000000000E+00  0.00000000000E+00  0.39347469956E+03  0.39347469956E+03  0.00000000000E+00 0.  1.
          2   -1    0    0  501    0  0.00000000000E+00 -0.00000000000E+00 -0.14643512501E+04  0.14643512501E+04  0.00000000000E+00 0. -1.
         23    2    1    2    0    0 -0.18579063448E+03  0.31894163830E+03 -0.74493317526E+03  0.83601119974E+03  0.88019100100E+02 0.  0.
        254    2    1    2    0    0  0.18579063448E+03 -0.31894163830E+03 -0.32594337529E+03  0.10218147499E+04  0.89533478140E+03 0.  0.
        -24    2    4    4    0    0 -0.21781104967E+03 -0.30319976399E+03  0.13382889159E+03  0.40464667145E+03  0.80355499179E+02 0.  0.
         24    2    4    4    0    0  0.40360168416E+03 -0.15741874318E+02 -0.45977226688E+03  0.61716807848E+03  0.79773263950E+02 0.  0.
         13    1    3    3    0    0 -0.12538313639E+02  0.56254126009E+02 -0.18431988469E+03  0.19312057346E+03  0.00000000000E+00 0. -1.
        -13    1    3    3    0    0 -0.17325232085E+03  0.26268751229E+03 -0.56061329058E+03  0.64289062628E+03  0.00000000000E+00 0.  1.
          2    1    6    6  502    0  0.15247280093E+02 -0.13296188749E+02 -0.89159752122E+01  0.22107980447E+02  0.00000000000E+00 0. -1.
          3    1    5    5  503    0 -0.17806374235E+03 -0.18843876511E+03  0.76256227049E+02  0.27024225558E+03  0.00000000000E+00 0. -1.
         -4    1    5    5    0  503 -0.39747307322E+02 -0.11476099888E+03  0.57572664546E+02  0.13440441587E+03  0.00000000000E+00 0.  1.
         -1    1    6    6    0  502  0.38835440407E+03 -0.24456855684E+01 -0.45085629167E+03  0.59506009803E+03  0.00000000000E+00 0.  1.
<mgrwt>
<rscale>  0 0.15181372E+04</rscale>
<asrwt>0</asrwt>
<pdfrwt beam="1">  1        2 0.22528480E+00 0.15181372E+04</pdfrwt>
<pdfrwt beam="2">  1       -2 0.60534571E-01 0.15181372E+04</pdfrwt>
<totfact> 0.32608766E+01</totfact>
</mgrwt>
</event>
<event>
12    1  0.1506149E-007  0.1754494E+04  0.7818608E-02  0.8730880E-01
          2   -1    0    0  501    0  0.00000000000E+00  0.00000000000E+00  0.16697860794E+04  0.16697860794E+04  0.00000000000E+00 0. -1.
         -2   -1    0    0    0  501 -0.00000000000E+00 -0.00000000000E+00 -0.46087487823E+03  0.46087487823E+03  0.00000000000E+00 0.  1.
         23    2    1    2    0    0  0.17099902622E+03 -0.24960078550E+03 -0.24748300207E+03  0.40101136603E+03  0.89560372304E+02 0.  0.
        254    2    1    2    0    0 -0.17099902622E+03  0.24960078550E+03  0.14563942032E+04  0.17296495916E+04  0.88264512427E+03 0.  0.
        -24    2    4    4    0    0  0.27800100705E+03 -0.11886459438E+03  0.30553435319E+03  0.43830742612E+03  0.85725183574E+02 0.  0.
         24    2    4    4    0    0 -0.44900003326E+03  0.36846537987E+03  0.11508598500E+04  0.12913421655E+04  0.75620287268E+02 0.  0.
         13    1    3    3    0    0  0.15679963180E+03 -0.22036259349E+03 -0.25014382475E+03  0.36839887378E+03  0.00000000000E+00 0.  1.
        -13    1    3    3    0    0  0.14199394420E+02 -0.29238192002E+02  0.26608226826E+01  0.32612492250E+02  0.00000000000E+00 0. -1.
          2    1    6    6  502    0 -0.22938233163E+03  0.15579779286E+03  0.48538636308E+03  0.55900726989E+03  0.00000000000E+00 0. -1.
          3    1    5    5  503    0  0.99009775400E+02 -0.65475973566E+02  0.17081306906E+03  0.20800755587E+03  0.00000000000E+00 0. -1.
         -4    1    5    5    0  503  0.17899123165E+03 -0.53388620812E+02  0.13472128413E+03  0.23029987025E+03  0.00000000000E+00 0.  1.
         -1    1    6    6    0  502 -0.21961770163E+03  0.21266758701E+03  0.66547348696E+03  0.73233489558E+03  0.00000000000E+00 0.  1.
<mgrwt>
<rscale>  0 0.17544942E+04</rscale>
<asrwt>0</asrwt>
<pdfrwt beam="1">  1        2 0.25689016E+00 0.17544942E+04</pdfrwt>
<pdfrwt beam="2">  1       -2 0.70903828E-01 0.17544942E+04</pdfrwt>
<totfact> 0.17456368E+01</totfact>
</mgrwt>
</event>
<event>
12    1  0.1506149E-007  0.1552437E+04  0.7818608E-02  0.8850313E-01
         -2   -1    0    0    0  501 -0.00000000000E+00  0.00000000000E+00  0.18533775587E+04  0.18533775587E+04  0.00000000000E+00 0.  1.
          2   -1    0    0  501    0  0.00000000000E+00 -0.00000000000E+00 -0.32509039068E+03  0.32509039068E+03  0.00000000000E+00 0. -1.
         23    2    1    2    0    0  0.17345329451E+03  0.12063180053E+03 -0.14466082141E+03  0.27213402131E+03  0.92152567135E+02 0.  0.
        254    2    1    2    0    0 -0.17345329451E+03 -0.12063180053E+03  0.16729479894E+04  0.19063339280E+04  0.88922212821E+03 0.  0.
        -24    2    4    4    0    0  0.51848782598E+02 -0.39907699464E+03  0.36899228562E+03  0.55173567826E+03  0.79411635864E+02 0.  0.
         24    2    4    4    0    0 -0.22530207711E+03  0.27844519411E+03  0.13039557038E+04  0.13545982498E+04  0.79644138700E+02 0.  0.
         11    1    3    3    0    0  0.53643656196E+02  0.93285681552E+01 -0.78924805126E+02  0.95884247393E+02  0.00000000000E+00 0.  1.
        -11    1    3    3    0    0  0.11980963831E+03  0.11130323237E+03 -0.65736016280E+02  0.17624977392E+03  0.00000000000E+00 0. -1.
          4    1    6    6  502    0 -0.16438543914E+03  0.14378629047E+03  0.73514116620E+03  0.76689608434E+03  0.00000000000E+00 0. -1.
          1    1    5    5  503    0  0.26815352013E+02 -0.10794283249E+03  0.14919090520E+03  0.18608773303E+03  0.00000000000E+00 0. -1.
         -2    1    5    5    0  503  0.25033430584E+02 -0.29113416214E+03  0.21980138042E+03  0.36564794523E+03  0.00000000000E+00 0.  1.
         -3    1    6    6    0  502 -0.60916637961E+02  0.13465890364E+03  0.56881453756E+03  0.58770216543E+03  0.00000000000E+00 0.  1.
<mgrwt>
<rscale>  0 0.15524371E+04</rscale>
<asrwt>0</asrwt>
<pdfrwt beam="1">  1        2 0.50013907E-01 0.15524371E+04</pdfrwt>
<pdfrwt beam="2">  1       -2 0.28513500E+00 0.15524371E+04</pdfrwt>
<totfact> 0.37935643E+00</totfact>
</mgrwt>
</event>
<event>
12    1  0.1506149E-007  0.1486770E+04  0.7818608E-02  0.8893299E-01
         -1   -1    0    0    0  501 -0.00000000000E+00  0.00000000000E+00  0.91583568786E+03  0.91583568786E+03  0.00000000000E+00 0.  1.
          1   -1    0    0  501    0  0.00000000000E+00 -0.00000000000E+00 -0.60340627631E+03  0.60340627631E+03  0.00000000000E+00 0. -1.
         23    2    1    2    0    0  0.44654242891E+03  0.11789414561E+03  0.11671712488E+03  0.48484236167E+03  0.90277671886E+02 0.  0.
        254    2    1    2    0    0 -0.44654242891E+03 -0.11789414561E+03  0.19571228667E+03  0.10343996025E+04  0.90464361387E+03 0.  0.
        -24    2    4    4    0    0 -0.17324968599E+03  0.33366440952E+02 -0.35002517688E+03  0.40021193612E+03  0.80766306650E+02 0.  0.
         24    2    4    4    0    0 -0.27329274292E+03 -0.15126058656E+03  0.54573746355E+03  0.63418766637E+03  0.82437422790E+02 0.  0.
         13    1    3    3    0    0  0.83637062647E+02  0.40250812603E+02 -0.84071913378E+01  0.93198535555E+02  0.00000000000E+00 0.  1.
        -13    1    3    3    0    0  0.36290536627E+03  0.77643333006E+02  0.12512431622E+03  0.39164382612E+03  0.00000000000E+00 0. -1.
          2    1    6    6  502    0 -0.12976428043E+03 -0.25545955784E+02  0.22296319877E+03  0.25923725106E+03  0.00000000000E+00 0. -1.
          3    1    5    5  503    0 -0.97739028964E+02 -0.81659452300E+01 -0.24782257044E+03  0.26652509612E+03  0.00000000000E+00 0. -1.
         -4    1    5    5    0  503 -0.75510657025E+02  0.41532386182E+02 -0.10220260644E+03  0.13368684000E+03  0.00000000000E+00 0.  1.
         -1    1    6    6    0  502 -0.14352846249E+03 -0.12571463078E+03  0.32277426479E+03  0.37495041531E+03  0.00000000000E+00 0.  1.
<mgrwt>
<rscale>  0 0.14867697E+04</rscale>
<asrwt>0</asrwt>
<pdfrwt beam="1">  1        1 0.92831734E-01 0.14867697E+04</pdfrwt>
<pdfrwt beam="2">  1       -1 0.14089780E+00 0.14867697E+04</pdfrwt>
<totfact> 0.13560937E+01</totfact>
</mgrwt>
</event>
<event>
12    1  0.1506149E-007  0.1461113E+04  0.7818608E-02  0.8910732E-01
          1   -1    0    0  501    0  0.00000000000E+00  0.00000000000E+00  0.92737935988E+03  0.92737935988E+03  0.00000000000E+00 0. -1.
         -1   -1    0    0    0  501 -0.00000000000E+00 -0.00000000000E+00 -0.57550658971E+03  0.57550658971E+03  0.00000000000E+00 0.  1.
         23    2    1    2    0    0 -0.18613275092E+03  0.13880687872E+03 -0.28454333346E+03  0.37792289318E+03  0.89151859336E+02 0.  0.
        254    2    1    2    0    0  0.18613275092E+03 -0.13880687872E+03  0.63641610363E+03  0.11249630564E+04  0.89811116839E+03 0.  0.
        -24    2    4    4    0    0  0.31509158736E+03  0.14332826652E+03 -0.57837690284E+02  0.36025742373E+03  0.81329653445E+02 0.  0.
         24    2    4    4    0    0 -0.12895883643E+03 -0.28213514524E+03  0.69425379392E+03  0.76470563269E+03  0.80967602274E+02 0.  0.
         13    1    3    3    0    0 -0.14571623644E+03  0.60234711028E+02 -0.15489846674E+03  0.22103161985E+03  0.00000000000E+00 0.  1.
        -13    1    3    3    0    0 -0.40416514482E+02  0.78572167689E+02 -0.12964486672E+03  0.15689127332E+03  0.00000000000E+00 0. -1.
          2    1    6    6  502    0 -0.10912022196E+03 -0.21581790066E+03  0.45041679872E+03  0.51123368595E+03  0.00000000000E+00 0. -1.
          3    1    5    5  503    0  0.29885533819E+03  0.11367514089E+03 -0.63473316367E+02  0.32598376142E+03  0.00000000000E+00 0. -1.
         -4    1    5    5    0  503  0.16236249169E+02  0.29653125633E+02  0.56356260831E+01  0.34273662311E+02  0.00000000000E+00 0.  1.
         -1    1    6    6    0  502 -0.19838614473E+02 -0.66317244585E+02  0.24383699519E+03  0.25347194673E+03  0.00000000000E+00 0.  1.
<mgrwt>
<rscale>  0 0.14611132E+04</rscale>
<asrwt>0</asrwt>
<pdfrwt beam="1">  1        1 0.14267375E+00 0.14611132E+04</pdfrwt>
<pdfrwt beam="2">  1       -1 0.88539475E-01 0.14611132E+04</pdfrwt>
<totfact> 0.21010988E+01</totfact>
</mgrwt>
</event>
<event>
12    1  0.1506149E-007  0.1534446E+04  0.7818608E-02  0.8861865E-01
         -2   -1    0    0    0  501 -0.00000000000E+00  0.00000000000E+00  0.46474143864E+03  0.46474143864E+03  0.00000000000E+00 0.  1.
          2   -1    0    0  501    0  0.00000000000E+00 -0.00000000000E+00 -0.12665772086E+04  0.12665772086E+04  0.00000000000E+00 0. -1.
         23    2    1    2    0    0 -0.42977117152E+03 -0.16676881362E+03 -0.77166608056E+02  0.47544102119E+03  0.87030926488E+02 0.  0.
        254    2    1    2    0    0  0.42977117152E+03  0.16676881362E+03 -0.72466916191E+03  0.12558776260E+04  0.91627949902E+03 0.  0.
        -24    2    4    4    0    0 -0.18689257374E+03 -0.90164325642E+02 -0.49959025196E+03  0.54653856580E+03  0.77817377998E+02 0.  0.
         24    2    4    4    0    0  0.61666374526E+03  0.25693313926E+03 -0.22507890995E+03  0.70933906025E+03  0.78819882708E+02 0.  0.
         11    1    3    3    0    0 -0.35094963388E+03 -0.14052551781E+03 -0.28386174295E+02  0.37910267946E+03  0.00000000000E+00 0.  1.
        -11    1    3    3    0    0 -0.78821537637E+02 -0.26243295808E+02 -0.48780433761E+02  0.96338341735E+02  0.00000000000E+00 0. -1.
          2    1    6    6  502    0  0.16447311789E+03  0.65522947925E+02 -0.23733154570E+02  0.17862789771E+03  0.00000000000E+00 0. -1.
          1    1    5    5  503    0 -0.37738657626E+02 -0.54018782642E+01 -0.17813927363E+03  0.18217296006E+03  0.00000000000E+00 0. -1.
         -2    1    5    5    0  503 -0.14915391612E+03 -0.84762447378E+02 -0.32145097833E+03  0.36436560574E+03  0.00000000000E+00 0.  1.
         -1    1    6    6    0  502  0.45219062738E+03  0.19141019134E+03 -0.20134575538E+03  0.53071116254E+03  0.00000000000E+00 0.  1.
<mgrwt>
<rscale>  0 0.15344457E+04</rscale>
<asrwt>0</asrwt>
<pdfrwt beam="1">  1        2 0.19485803E+00 0.15344457E+04</pdfrwt>
<pdfrwt beam="2">  1       -2 0.71498684E-01 0.15344457E+04</pdfrwt>
<totfact> 0.29577495E+01</totfact>
</mgrwt>
</event>
<event>
12    1  0.1506149E-007  0.1155217E+04  0.7818608E-02  0.9152984E-01
         -2   -1    0    0    0  501 -0.00000000000E+00  0.00000000000E+00  0.84629532890E+03  0.84629532890E+03  0.00000000000E+00 0.  1.
          2   -1    0    0  501    0  0.00000000000E+00 -0.00000000000E+00 -0.39422574084E+03  0.39422574084E+03  0.00000000000E+00 0. -1.
         23    2    1    2    0    0 -0.11880611721E+03  0.15688449142E+03  0.20163641492E+03  0.29559241231E+03  0.89386762225E+02 0.  0.
        254    2    1    2    0    0  0.11880611721E+03 -0.15688449142E+03  0.25043317313E+03  0.94492865743E+03  0.88963237142E+03 0.  0.
        -24    2    4    4    0    0  0.29865468636E+03 -0.44382933315E+03  0.25222601571E+03  0.59676253335E+03  0.79551615742E+02 0.  0.
         24    2    4    4    0    0 -0.17984856916E+03  0.28694484172E+03 -0.17928425772E+01  0.34816612407E+03  0.80830598464E+02 0.  0.
         11    1    3    3    0    0 -0.24945560322E+02 -0.67246632609E+01  0.37600907990E+02  0.45621599680E+02  0.00000000000E+00 0. -1.
        -11    1    3    3    0    0 -0.93860556887E+02  0.16360915468E+03  0.16403550693E+03  0.24997081263E+03  0.00000000000E+00 0.  1.
          4    1    6    6  502    0 -0.10427222242E+03  0.17228320323E+03  0.38544313652E+02  0.20503624703E+03  0.00000000000E+00 0. -1.
          3    1    5    5  503    0  0.97288011628E+02 -0.12749601664E+03  0.11545733232E+03  0.19761221383E+03  0.00000000000E+00 0. -1.
         -4    1    5    5    0  503  0.20136667474E+03 -0.31633331650E+03  0.13676868339E+03  0.39915031953E+03  0.00000000000E+00 0.  1.
         -3    1    6    6    0  502 -0.75576346733E+02  0.11466163850E+03 -0.40337156230E+02  0.14312987704E+03  0.00000000000E+00 0.  1.
<mgrwt>
<rscale>  0 0.11552167E+04</rscale>
<asrwt>0</asrwt>
<pdfrwt beam="1">  1        2 0.60650114E-01 0.11552167E+04</pdfrwt>
<pdfrwt beam="2">  1       -2 0.13019928E+00 0.11552167E+04</pdfrwt>
<totfact> 0.34582634E+01</totfact>
</mgrwt>
</event>
<event>
12    1  0.1506149E-007  0.1479493E+04  0.7818608E-02  0.8898206E-01
         -1   -1    0    0    0  501 -0.00000000000E+00  0.00000000000E+00  0.93269567117E+03  0.93269567117E+03  0.00000000000E+00 0.  1.
          1   -1    0    0  501    0  0.00000000000E+00 -0.00000000000E+00 -0.58671291565E+03  0.58671291565E+03  0.00000000000E+00 0. -1.
         23    2    1    2    0    0 -0.40436891772E+02 -0.85590634918E+02 -0.35474674288E+03  0.37607028804E+03  0.81380040308E+02 0.  0.
        254    2    1    2    0    0  0.40436891772E+02  0.85590634918E+02  0.70072949841E+03  0.11433382988E+04  0.89846521164E+03 0.  0.
        -24    2    4    4    0    0  0.39157930067E+03 -0.12851844874E+03  0.13785761642E+03  0.44164083199E+03  0.78680122577E+02 0.  0.
         24    2    4    4    0    0 -0.35114240890E+03  0.21410908366E+03  0.56287188199E+03  0.70169746680E+03  0.80068023218E+02 0.  0.
         13    1    3    3    0    0  0.20551738005E+02 -0.28634234094E+01 -0.41594382756E+02  0.46482962529E+02  0.00000000000E+00 0.  1.
        -13    1    3    3    0    0 -0.60988629777E+02 -0.82727211508E+02 -0.31315236012E+03  0.32958732551E+03  0.00000000000E+00 0. -1.
          4    1    6    6  502    0 -0.20371788308E+03  0.14608674276E+03  0.28233691447E+03  0.37756647834E+03  0.00000000000E+00 0. -1.
          1    1    5    5  503    0  0.87840983006E+02 -0.20601326271E+02  0.64915970794E+02  0.11115096133E+03  0.00000000000E+00 0. -1.
         -4    1    5    5    0  503  0.30373831767E+03 -0.10791712247E+03  0.72941645627E+02  0.33048987066E+03  0.00000000000E+00 0.  1.
         -3    1    6    6    0  502 -0.14742452583E+03  0.68022340898E+02  0.28053496752E+03  0.32413098846E+03  0.00000000000E+00 0.  1.
<mgrwt>
<rscale>  0 0.14794926E+04</rscale>
<asrwt>0</asrwt>
<pdfrwt beam="1">  1        1 0.90263526E-01 0.14794926E+04</pdfrwt>
<pdfrwt beam="2">  1       -1 0.14349164E+00 0.14794926E+04</pdfrwt>
<totfact> 0.13466294E+01</totfact>
</mgrwt>
</event>
<event>
12    1  0.1506149E-007  0.2026581E+04  0.7818608E-02  0.8594293E-01
          1   -1    0    0  501    0  0.00000000000E+00  0.00000000000E+00  0.86799636192E+03  0.86799636192E+03  0.00000000000E+00 0. -1.
         -1   -1    0    0    0  501 -0.00000000000E+00 -0.00000000000E+00 -0.11829052596E+04  0.11829052596E+04  0.00000000000E+00 0.  1.
         23    2    1    2    0    0  0.19359005733E+03  0.78020356109E+02 -0.91473705250E+03  0.94305196281E+03  0.95072830407E+02 0.  0.
        254    2    1    2    0    0 -0.19359005733E+03 -0.78020356109E+02  0.59982815485E+03  0.11078496587E+04  0.90772945561E+03 0.  0.
        -24    2    4    4    0    0  0.33147065297E+03 -0.10379386773E+03  0.41282234568E+03  0.54534689092E+03  0.79592597595E+02 0.  0.
         24    2    4    4    0    0 -0.52506071030E+03  0.25773511621E+02  0.18700580918E+03  0.56250276775E+03  0.71310361506E+02 0.  0.
         13    1    3    3    0    0 -0.10669278665E+02  0.78044545432E+01 -0.45465546775E+02  0.47348273058E+02  0.00000000000E+00 0. -1.
        -13    1    3    3    0    0  0.20425933600E+03  0.70215901566E+02 -0.86927150573E+03  0.89570368976E+03  0.00000000000E+00 0.  1.
          4    1    6    6  502    0 -0.46245301760E+02 -0.99038568020E+01  0.35125136055E+02  0.58910860606E+02  0.00000000000E+00 0. -1.
          1    1    5    5  503    0  0.46438240843E+02  0.10746308630E+02  0.39628275695E+02  0.61987043778E+02  0.00000000000E+00 0. -1.
         -2    1    5    5    0  503  0.28503241212E+03 -0.11454017636E+03  0.37319406998E+03  0.48335984714E+03  0.00000000000E+00 0.  1.
         -3    1    6    6    0  502 -0.47881540854E+03  0.35677368423E+02  0.15188067312E+03  0.50359190714E+03  0.00000000000E+00 0.  1.
<mgrwt>
<rscale>  0 0.20265808E+04</rscale>
<asrwt>0</asrwt>
<pdfrwt beam="1">  1        1 0.13353790E+00 0.20265808E+04</pdfrwt>
<pdfrwt beam="2">  1       -1 0.18198542E+00 0.20265808E+04</pdfrwt>
<totfact> 0.36052264E+00</totfact>
</mgrwt>
</event>
<event>
12    1  0.1506149E-007  0.2347190E+04  0.7818608E-02  0.8459544E-01
          2   -1    0    0  501    0  0.00000000000E+00  0.00000000000E+00  0.21061104974E+04  0.21061104974E+04  0.00000000000E+00 0. -1.
         -2   -1    0    0    0  501 -0.00000000000E+00 -0.00000000000E+00 -0.65396619100E+03  0.65396619100E+03  0.00000000000E+00 0.  1.
         23    2    1    2    0    0 -0.49541649733E+03 -0.31226171479E+03 -0.33206173320E+03  0.67924641318E+03  0.90364875895E+02 0.  0.
        254    2    1    2    0    0  0.49541649733E+03  0.31226171479E+03  0.17842060396E+04  0.20808302752E+04  0.89639196682E+03 0.  0.
        -24    2    4    4    0    0  0.68230359483E+03  0.37655822630E+03  0.10121906106E+04  0.12798557442E+04  0.78527705298E+02 0.  0.
         24    2    4    4    0    0 -0.18688709749E+03 -0.64296511505E+02  0.77201542900E+03  0.80097453101E+03  0.80570144068E+02 0.  0.
         13    1    3    3    0    0 -0.22263341250E+03 -0.19240476296E+03 -0.17647670056E+03  0.34311696987E+03  0.00000000000E+00 0.  1.
        -13    1    3    3    0    0 -0.27278308483E+03 -0.11985695183E+03 -0.15558503264E+03  0.33612944331E+03  0.00000000000E+00 0. -1.
          2    1    6    6  502    0 -0.14623605499E+03 -0.41930452407E+02  0.69159914093E+03  0.70813312192E+03  0.00000000000E+00 0. -1.
          1    1    5    5  503    0  0.25511139062E+03  0.10989875562E+03  0.40319042504E+03  0.48961421237E+03  0.00000000000E+00 0. -1.
         -2    1    5    5    0  503  0.42719220420E+03  0.26665947067E+03  0.60900018559E+03  0.79024153187E+03  0.00000000000E+00 0.  1.
         -1    1    6    6    0  502 -0.40651042501E+02 -0.22366059099E+02  0.80416288065E+02  0.92841409092E+02  0.00000000000E+00 0.  1.
<mgrwt>
<rscale>  0 0.23471899E+04</rscale>
<asrwt>0</asrwt>
<pdfrwt beam="1">  1        2 0.32401700E+00 0.23471899E+04</pdfrwt>
<pdfrwt beam="2">  1       -2 0.10061018E+00 0.23471899E+04</pdfrwt>
<totfact> 0.42861144E+00</totfact>
</mgrwt>
</event>
<event>
12    1  0.1506149E-007  0.1619285E+04  0.7818608E-02  0.8808787E-01
         -1   -1    0    0    0  501 -0.00000000000E+00  0.00000000000E+00  0.41075555964E+03  0.41075555964E+03  0.00000000000E+00 0.  1.
          1   -1    0    0  501    0  0.00000000000E+00 -0.00000000000E+00 -0.15958909948E+04  0.15958909948E+04  0.00000000000E+00 0. -1.
         23    2    1    2    0    0  0.48367662329E+02  0.52415163414E+03 -0.17809150388E+03  0.56283117452E+03  0.89375505119E+02 0.  0.
        254    2    1    2    0    0 -0.48367662329E+02 -0.52415163414E+03 -0.10070439313E+04  0.14438153799E+04  0.89072498869E+03 0.  0.
        -24    2    4    4    0    0 -0.34498091256E+03  0.64494277673E+02 -0.44611937684E+03  0.57458774623E+03  0.89203351019E+02 0.  0.
         24    2    4    4    0    0  0.29661325023E+03 -0.58864591182E+03 -0.56092455444E+03  0.86922763371E+03  0.80230254428E+02 0.  0.
         13    1    3    3    0    0  0.42046306009E+02  0.48456525182E+03 -0.18813587403E+03  0.52150405772E+03  0.00000000000E+00 0.  1.
        -13    1    3    3    0    0  0.63213563202E+01  0.39586382325E+02  0.10044370142E+02  0.41327116798E+02  0.00000000000E+00 0. -1.
          4    1    6    6  502    0  0.17698242486E+03 -0.37872659092E+03 -0.40245028106E+03  0.58027824197E+03  0.00000000000E+00 0. -1.
          1    1    5    5  503    0 -0.13365880824E+03  0.47612421518E+02 -0.12108536242E+03  0.18652958129E+03  0.00000000000E+00 0. -1.
         -2    1    5    5    0  503 -0.21132210432E+03  0.16881856155E+02 -0.32503401442E+03  0.38805816494E+03  0.00000000000E+00 0.  1.
         -3    1    6    6    0  502  0.11963082537E+03 -0.20991932090E+03 -0.15847427338E+03  0.28894939174E+03  0.00000000000E+00 0.  1.
<mgrwt>
<rscale>  0 0.16192851E+04</rscale>
<asrwt>0</asrwt>
<pdfrwt beam="1">  1        1 0.24552170E+00 0.16192851E+04</pdfrwt>
<pdfrwt beam="2">  1       -1 0.63193162E-01 0.16192851E+04</pdfrwt>
<totfact> 0.13665503E+01</totfact>
</mgrwt>
</event>
<event>
12    1  0.1506149E-007  0.1381914E+04  0.7818608E-02  0.8967015E-01
          2   -1    0    0  501    0  0.00000000000E+00  0.00000000000E+00  0.46662282745E+03  0.46662282745E+03  0.00000000000E+00 0. -1.
         -2   -1    0    0    0  501 -0.00000000000E+00 -0.00000000000E+00 -0.10231416874E+04  0.10231416874E+04  0.00000000000E+00 0.  1.
         23    2    1    2    0    0 -0.23721515835E+03 -0.14827993801E+03  0.13152492819E+03  0.32366642164E+03  0.95933176712E+02 0.  0.
        254    2    1    2    0    0  0.23721515835E+03  0.14827993801E+03 -0.68804378815E+03  0.11660980932E+04  0.89895636002E+03 0.  0.
        -24    2    4    4    0    0  0.55750575792E+03 -0.33320216635E+02 -0.39556945103E+03  0.68900146085E+03  0.79529337445E+02 0.  0.
         24    2    4    4    0    0 -0.32029059957E+03  0.18160015464E+03 -0.29247433712E+03  0.47709663236E+03  0.80717249694E+02 0.  0.
         13    1    3    3    0    0 -0.22313244607E+03 -0.15077407111E+03  0.14338166993E+03  0.30508885965E+03  0.00000000000E+00 0. -1.
        -13    1    3    3    0    0 -0.14082712276E+02  0.24941331071E+01 -0.11856741732E+02  0.18577561990E+02  0.00000000000E+00 0.  1.
          4    1    6    6  502    0 -0.25841850301E+03  0.11208055433E+03 -0.24122953789E+03  0.37085558281E+03  0.00000000000E+00 0. -1.
          1    1    5    5  503    0  0.21640902584E+03  0.21975911476E+02 -0.17356841576E+03  0.27828367200E+03  0.00000000000E+00 0. -1.
         -2    1    5    5    0  503  0.34109673208E+03 -0.55296128111E+02 -0.22200103527E+03  0.41071778885E+03  0.00000000000E+00 0.  1.
         -3    1    6    6    0  502 -0.61872096565E+02  0.69519600310E+02 -0.51244799231E+02  0.10624104955E+03  0.00000000000E+00 0.  1.
<mgrwt>
<rscale>  0 0.13819136E+04</rscale>
<asrwt>0</asrwt>
<pdfrwt beam="1">  1        2 0.71788128E-01 0.13819136E+04</pdfrwt>
<pdfrwt beam="2">  1       -2 0.15740641E+00 0.13819136E+04</pdfrwt>
<totfact> 0.17102369E+01</totfact>
</mgrwt>
</event>
<event>
12    1  0.1506149E-007  0.1989142E+04  0.7818608E-02  0.8611714E-01
          2   -1    0    0  501    0  0.00000000000E+00  0.00000000000E+00  0.16148580961E+04  0.16148580961E+04  0.00000000000E+00 0. -1.
         -2   -1    0    0    0  501 -0.00000000000E+00 -0.00000000000E+00 -0.61254359081E+03  0.61254359081E+03  0.00000000000E+00 0.  1.
         23    2    1    2    0    0  0.51588109734E+03 -0.32490568882E+02  0.10624846052E+04  0.11851842646E+04  0.92732201071E+02 0.  0.
        254    2    1    2    0    0 -0.51588109734E+03  0.32490568882E+02 -0.60170099899E+02  0.10422174223E+04  0.90299931939E+03 0.  0.
        -24    2    4    4    0    0  0.16699359611E+03  0.71175725102E+02  0.22236097473E+03  0.29792820154E+03  0.79774464606E+02 0.  0.
         24    2    4    4    0    0 -0.68287469345E+03 -0.38685156220E+02 -0.28253107462E+03  0.74428922079E+03  0.79550284664E+02 0.  0.
         11    1    3    3    0    0  0.75494480290E+02 -0.38373988087E+02  0.17691951519E+03  0.19614406535E+03  0.00000000000E+00 0.  1.
        -11    1    3    3    0    0  0.44038661705E+03  0.58834192051E+01  0.88556509004E+03  0.98904019928E+03  0.00000000000E+00 0. -1.
          4    1    6    6  502    0 -0.44209715977E+03  0.24504266597E+01 -0.21025865178E+03  0.48955551669E+03  0.00000000000E+00 0. -1.
          3    1    5    5  503    0 -0.81611640251E+01 -0.18617679710E+01  0.11808138229E+02  0.14474215235E+02  0.00000000000E+00 0. -1.
         -4    1    5    5    0  503  0.17515476014E+03  0.73037493073E+02  0.21055283650E+03  0.28345398630E+03  0.00000000000E+00 0.  1.
         -3    1    6    6    0  502 -0.24077753368E+03 -0.41135582880E+02 -0.72272422844E+02  0.25473370410E+03  0.00000000000E+00 0.  1.
<mgrwt>
<rscale>  0 0.19891415E+04</rscale>
<asrwt>0</asrwt>
<pdfrwt beam="1">  1        2 0.24843971E+00 0.19891415E+04</pdfrwt>
<pdfrwt beam="2">  1       -2 0.94237476E-01 0.19891415E+04</pdfrwt>
<totfact> 0.96621992E+00</totfact>
</mgrwt>
</event>
<event>
12    1  0.1506149E-007  0.1580076E+04  0.7818608E-02  0.8832882E-01
         -1   -1    0    0    0  501 -0.00000000000E+00  0.00000000000E+00  0.82414708888E+03  0.82414708888E+03  0.00000000000E+00 0.  1.
          1   -1    0    0  501    0  0.00000000000E+00 -0.00000000000E+00 -0.75734080073E+03  0.75734080073E+03  0.00000000000E+00 0. -1.
         23    2    1    2    0    0 -0.19371403384E+02  0.29464324681E+03 -0.41657173108E+03  0.51866435117E+03  0.91053873526E+02 0.  0.
        254    2    1    2    0    0  0.19371403384E+02 -0.29464324681E+03  0.48337801924E+03  0.10628235384E+04  0.89930510407E+03 0.  0.
        -24    2    4    4    0    0 -0.78997916667E+01  0.27452734898E+03 -0.34934829886E+02  0.28827589652E+03  0.80342256172E+02 0.  0.
         24    2    4    4    0    0  0.27271195050E+02 -0.56917059579E+03  0.51831284912E+03  0.77454764191E+03  0.81098426838E+02 0.  0.
         13    1    3    3    0    0 -0.51120119930E+02  0.23754195798E+03 -0.34188784123E+03  0.41943622214E+03  0.00000000000E+00 0. -1.
        -13    1    3    3    0    0  0.31748716546E+02  0.57101288829E+02 -0.74683889848E+02  0.99228129031E+02  0.00000000000E+00 0.  1.
          4    1    6    6  502    0  0.30419488917E+02 -0.10477270373E+03  0.12548562747E+03  0.16628080904E+03  0.00000000000E+00 0. -1.
          3    1    5    5  503    0 -0.26123260700E+02  0.12283048041E+03  0.17391891623E+02  0.12677629732E+03  0.00000000000E+00 0. -1.
         -4    1    5    5    0  503  0.18223469033E+02  0.15169686857E+03 -0.52326721508E+02  0.16149959920E+03  0.00000000000E+00 0.  1.
         -3    1    6    6    0  502 -0.31482938667E+01 -0.46439789206E+03  0.39282722165E+03  0.60826683288E+03  0.00000000000E+00 0.  1.
<mgrwt>
<rscale>  0 0.15800762E+04</rscale>
<asrwt>0</asrwt>
<pdfrwt beam="1">  1        1 0.11651397E+00 0.15800762E+04</pdfrwt>
<pdfrwt beam="2">  1       -1 0.12679186E+00 0.15800762E+04</pdfrwt>
<totfact> 0.12523670E+01</totfact>
</mgrwt>
</event>
<event>
12    1  0.1506149E-007  0.1113873E+04  0.7818608E-02  0.9191775E-01
          2   -1    0    0  501    0  0.00000000000E+00  0.00000000000E+00  0.25418173547E+04  0.25418173547E+04  0.00000000000E+00 0. -1.
         -2   -1    0    0    0  501 -0.00000000000E+00 -0.00000000000E+00 -0.12203014816E+03  0.12203014816E+03  0.00000000000E+00 0.  1.
         23    2    1    2    0    0  0.16061749767E+03  0.75232288168E+00  0.76461169870E+03  0.78451953041E+03  0.71002093331E+02 0.  0.
        254    2    1    2    0    0 -0.16061749767E+03 -0.75232288168E+00  0.16551755078E+04  0.18793279725E+04  0.87548222126E+03 0.  0.
        -24    2    4    4    0    0 -0.17363718275E+03 -0.34112827041E+03  0.33833758102E+03  0.51685205112E+03  0.78392320474E+02 0.  0.
         24    2    4    4    0    0  0.13019685078E+02  0.34037594753E+03  0.13168379268E+04  0.13624759213E+04  0.79077258743E+02 0.  0.
         11    1    3    3    0    0  0.73155569267E+02  0.34198408613E+02  0.40047567184E+03  0.40853645150E+03  0.00000000000E+00 0. -1.
        -11    1    3    3    0    0  0.87461928401E+02 -0.33446085732E+02  0.36413602686E+03  0.37598307891E+03  0.00000000000E+00 0.  1.
          4    1    6    6  502    0  0.25950841083E+02  0.20311604265E+03  0.91542211061E+03  0.93804435584E+03  0.00000000000E+00 0. -1.
          1    1    5    5  503    0 -0.17332509576E+03 -0.27877890932E+03  0.28865649771E+03  0.43712909165E+03  0.00000000000E+00 0. -1.
         -2    1    5    5    0  503 -0.31208698801E+00 -0.62349361089E+02  0.49681083308E+02  0.79722959461E+02  0.00000000000E+00 0.  1.
         -3    1    6    6    0  502 -0.12931156004E+02  0.13725990488E+03  0.40141581622E+03  0.42443156550E+03  0.00000000000E+00 0.  1.
<mgrwt>
<rscale>  0 0.11138731E+04</rscale>
<asrwt>0</asrwt>
<pdfrwt beam="1">  1        2 0.39104878E+00 0.11138731E+04</pdfrwt>
<pdfrwt beam="2">  1       -2 0.18773871E-01 0.11138731E+04</pdfrwt>
<totfact> 0.78688865E+01</totfact>
</mgrwt>
</event>
<event>
12    1  0.1506149E-007  0.2568753E+04  0.7818608E-02  0.8378893E-01
          1   -1    0    0  501    0  0.00000000000E+00  0.00000000000E+00  0.23216704124E+04  0.23216704124E+04  0.00000000000E+00 0. -1.
         -1   -1    0    0    0  501 -0.00000000000E+00 -0.00000000000E+00 -0.71053265713E+03  0.71053265713E+03  0.00000000000E+00 0.  1.
         23    2    1    2    0    0 -0.65749507697E+03 -0.66037957304E+03  0.14368158382E+04  0.17153941571E+04  0.98673221232E+02 0.  0.
        254    2    1    2    0    0  0.65749507697E+03  0.66037957304E+03  0.17432191713E+03  0.13168089125E+04  0.91389092592E+03 0.  0.
        -24    2    4    4    0    0  0.50117552560E+03  0.36463816661E+03  0.53192476050E+03  0.82054997382E+03  0.78869567594E+02 0.  0.
         24    2    4    4    0    0  0.15631955137E+03  0.29574140643E+03 -0.35760284337E+03  0.49625893866E+03  0.80587585883E+02 0.  0.
         11    1    3    3    0    0 -0.11903192898E+03 -0.89235710392E+02  0.28581677051E+03  0.32221551550E+03  0.00000000000E+00 0.  1.
        -11    1    3    3    0    0 -0.53846314799E+03 -0.57114386265E+03  0.11509990677E+04  0.13931786416E+04  0.00000000000E+00 0. -1.
          4    1    6    6  502    0 -0.86815571074E+01  0.97928718982E+01 -0.21255553809E+02  0.24961336935E+02  0.00000000000E+00 0. -1.
          3    1    5    5  503    0  0.20591514151E+03  0.10507888121E+03  0.18151497908E+03  0.29392227614E+03  0.00000000000E+00 0. -1.
         -4    1    5    5    0  503  0.29526038409E+03  0.25955928540E+03  0.35040978142E+03  0.52662769768E+03  0.00000000000E+00 0.  1.
         -3    1    6    6    0  502  0.16500110847E+03  0.28594853453E+03 -0.33634728956E+03  0.47129760173E+03  0.00000000000E+00 0.  1.
<mgrwt>
<rscale>  0 0.25687527E+04</rscale>
<asrwt>0</asrwt>
<pdfrwt beam="1">  1        1 0.35718006E+00 0.25687527E+04</pdfrwt>
<pdfrwt beam="2">  1       -1 0.10931272E+00 0.25687527E+04</pdfrwt>
<totfact> 0.12298921E+00</totfact>
</mgrwt>
</event>
<event>
12    1  0.1506149E-007  0.2105183E+04  0.7818608E-02  0.8558964E-01
         -1   -1    0    0    0  501 -0.00000000000E+00  0.00000000000E+00  0.21503246697E+04  0.21503246697E+04  0.00000000000E+00 0.  1.
          1   -1    0    0  501    0  0.00000000000E+00 -0.00000000000E+00 -0.51524710414E+03  0.51524710414E+03  0.00000000000E+00 0. -1.
         23    2    1    2    0    0  0.53239209905E+03  0.30963906111E+03 -0.85603504525E+02  0.62862610222E+03  0.92331582411E+02 0.  0.
        254    2    1    2    0    0 -0.53239209905E+03 -0.30963906111E+03  0.17206810701E+04  0.20369456717E+04  0.89949242851E+03 0.  0.
        -24    2    4    4    0    0 -0.58445859061E+03 -0.55399310613E+03  0.11244057007E+04  0.13854030274E+04  0.80951607442E+02 0.  0.
         24    2    4    4    0    0  0.52066491567E+02  0.24435404503E+03  0.59627536942E+03  0.65154264427E+03  0.80893029772E+02 0.  0.
         11    1    3    3    0    0  0.45354071270E-01  0.81646232190E+01 -0.88582289670E+01  0.12047047345E+02  0.00000000000E+00 0.  1.
        -11    1    3    3    0    0  0.53234674498E+03  0.30147443789E+03 -0.76745275558E+02  0.61657905487E+03  0.00000000000E+00 0. -1.
          4    1    6    6  502    0  0.21032376727E+02  0.93197114765E+01  0.83577030907E+02  0.86685281266E+02  0.00000000000E+00 0. -1.
          1    1    5    5  503    0 -0.30235737423E+03 -0.33907488655E+03  0.60956893244E+03  0.76024078017E+03  0.00000000000E+00 0. -1.
         -2    1    5    5    0  503 -0.28210121639E+03 -0.21491821959E+03  0.51483676826E+03  0.62516224722E+03  0.00000000000E+00 0.  1.
         -3    1    6    6    0  502  0.31034114840E+02  0.23503433355E+03  0.51269833851E+03  0.56485736301E+03  0.00000000000E+00 0.  1.
<mgrwt>
<rscale>  0 0.21051827E+04</rscale>
<asrwt>0</asrwt>
<pdfrwt beam="1">  1        1 0.79268787E-01 0.21051827E+04</pdfrwt>
<pdfrwt beam="2">  1       -1 0.33081917E+00 0.21051827E+04</pdfrwt>
<totfact> 0.81334963E-01</totfact>
</mgrwt>
</event>
<event>
12    1  0.1506149E-007  0.1830590E+04  0.7818608E-02  0.8690199E-01
         -1   -1    0    0    0  501 -0.00000000000E+00  0.00000000000E+00  0.20642259706E+04  0.20642259706E+04  0.00000000000E+00 0. -1.
          1   -1    0    0  501    0  0.00000000000E+00 -0.00000000000E+00 -0.40584940659E+03  0.40584940659E+03  0.00000000000E+00 0.  1.
         23    2    1    2    0    0  0.69636614700E+02  0.20406586176E+03  0.13184417513E+04  0.13390860584E+04  0.91491454331E+02 0.  0.
        254    2    1    2    0    0 -0.69636614700E+02 -0.20406586176E+03  0.33993481277E+03  0.11309893188E+04  0.10569243248E+04 0.  0.
        -24    2    4    4    0    0 -0.25664280406E+03 -0.25954156197E+03 -0.28596543022E+03  0.47034353638E+03  0.78863576315E+02 0.  0.
         24    2    4    4    0    0  0.18700618936E+03  0.55475700208E+02  0.62590024300E+03  0.66064578246E+03  0.81565112160E+02 0.  0.
         13    1    3    3    0    0  0.55886146741E+02  0.20256832153E+03  0.12944273195E+04  0.13113730482E+04  0.00000000000E+00 0. -1.
        -13    1    3    3    0    0  0.13750467960E+02  0.14975402286E+01  0.24014431798E+02  0.27713010129E+02  0.00000000000E+00 0.  1.
          2    1    6    6  502    0  0.15178441323E+03  0.86456467430E+01  0.47648108201E+03  0.50014745508E+03  0.00000000000E+00 0. -1.
          1    1    5    5  503    0 -0.13870165299E+02 -0.12817928167E+02 -0.44393806020E+02  0.48244075086E+02  0.00000000000E+00 0. -1.
         -2    1    5    5    0  503 -0.24277263876E+03 -0.24672363380E+03 -0.24157162420E+03  0.42209946129E+03  0.00000000000E+00 0.  1.
         -1    1    6    6    0  502  0.35221776124E+02  0.46830053465E+02  0.14941916099E+03  0.16049832738E+03  0.00000000000E+00 0.  1.
<mgrwt>
<rscale>  0 0.18305899E+04</rscale>
<asrwt>0</asrwt>
<pdfrwt beam="1">  1        1 0.62438372E-01 0.18305899E+04</pdfrwt>
<pdfrwt beam="2">  1       -1 0.31757322E+00 0.18305899E+04</pdfrwt>
<totfact> 0.14079061E+00</totfact>
</mgrwt>
</event>
<event>
12    1  0.1506149E-007  0.2791127E+04  0.7818608E-02  0.8306028E-01
         -1   -1    0    0    0  501 -0.00000000000E+00  0.00000000000E+00  0.13460223151E+04  0.13460223151E+04  0.00000000000E+00 0.  1.
          1   -1    0    0  501    0  0.00000000000E+00 -0.00000000000E+00 -0.14469276753E+04  0.14469276753E+04  0.00000000000E+00 0. -1.
         23    2    1    2    0    0  0.24531879106E+03  0.27618558394E+03  0.11494612854E+04  0.12109177755E+04  0.92740640183E+02 0.  0.
        254    2    1    2    0    0 -0.24531879106E+03 -0.27618558394E+03 -0.12503666456E+04  0.15820322149E+04  0.89607443574E+03 0.  0.
        -24    2    4    4    0    0  0.15217523474E+03 -0.13258580971E+03 -0.11076063598E+04  0.11287390324E+04  0.80769152129E+02 0.  0.
         24    2    4    4    0    0 -0.39749402580E+03 -0.14359977423E+03 -0.14276028580E+03  0.45329318248E+03  0.80447587739E+02 0.  0.
         13    1    3    3    0    0  0.19701000551E+03  0.24901687720E+03  0.10511290470E+04  0.10980412656E+04  0.00000000000E+00 0.  1.
        -13    1    3    3    0    0  0.48308785548E+02  0.27168706739E+02  0.98332238368E+02  0.11287650991E+03  0.00000000000E+00 0. -1.
          2    1    6    6  502    0 -0.18965460369E+02 -0.14767553142E+02 -0.28811625904E+02  0.37521715046E+02  0.00000000000E+00 0. -1.
          1    1    5    5  503    0  0.88859366717E+02 -0.28813152282E+02 -0.39968934652E+03  0.41046042259E+03  0.00000000000E+00 0. -1.
         -2    1    5    5    0  503  0.63315868022E+02 -0.10377265743E+03 -0.70791701332E+03  0.71827860982E+03  0.00000000000E+00 0.  1.
         -1    1    6    6    0  502 -0.37852856543E+03 -0.12883222109E+03 -0.11394865990E+03  0.41577146743E+03  0.00000000000E+00 0.  1.
<mgrwt>
<rscale>  0 0.27911266E+04</rscale>
<asrwt>0</asrwt>
<pdfrwt beam="1">  1        1 0.22260426E+00 0.27911266E+04</pdfrwt>
<pdfrwt beam="2">  1       -1 0.20708036E+00 0.27911266E+04</pdfrwt>
<totfact> 0.83048705E-01</totfact>
</mgrwt>
</event>
<event>
12    1  0.1506149E-007  0.1464756E+04  0.7818608E-02  0.8908234E-01
          2   -1    0    0  501    0  0.00000000000E+00  0.00000000000E+00  0.26493735651E+04  0.26493735651E+04  0.00000000000E+00 0. -1.
         -2   -1    0    0    0  501 -0.00000000000E+00 -0.00000000000E+00 -0.20245435519E+03  0.20245435519E+03  0.00000000000E+00 0.  1.
         23    2    1    2    0    0  0.35029882997E+03  0.15091303784E+03  0.30157276249E+03  0.49433675271E+03  0.89099263377E+02 0.  0.
        254    2    1    2    0    0 -0.35029882997E+03 -0.15091303784E+03  0.21453464475E+04  0.23574911676E+04  0.89987177447E+03 0.  0.
        -24    2    4    4    0    0  0.16219062587E+03 -0.51572800062E+02  0.48152326398E+02  0.19482516025E+03  0.81686251596E+02 0.  0.
         24    2    4    4    0    0 -0.51248945584E+03 -0.99340237779E+02  0.20971941211E+04  0.21626660074E+04  0.79919664789E+02 0.  0.
         13    1    3    3    0    0  0.10961484955E+03  0.48902783674E+02  0.15018238991E+03  0.19225412279E+03  0.00000000000E+00 0. -1.
        -13    1    3    3    0    0  0.24068398042E+03  0.10201025417E+03  0.15139037258E+03  0.30208262991E+03  0.00000000000E+00 0.  1.
          2    1    6    6  502    0 -0.71353929562E+02 -0.74162124842E+01  0.41549510717E+03  0.42164270130E+03  0.00000000000E+00 0. -1.
          1    1    5    5  503    0  0.48187560916E+02 -0.25872157576E+02  0.55253523648E+02  0.77745491446E+02  0.00000000000E+00 0. -1.
         -2    1    5    5    0  503  0.11400306496E+03 -0.25700642486E+02 -0.71011972498E+01  0.11707966880E+03  0.00000000000E+00 0.  1.
         -1    1    6    6    0  502 -0.44113552628E+03 -0.91924025295E+02  0.16816990139E+04  0.17410233061E+04  0.00000000000E+00 0.  1.
<mgrwt>
<rscale>  0 0.14647556E+04</rscale>
<asrwt>0</asrwt>
<pdfrwt beam="1">  1        2 0.40759591E+00 0.14647556E+04</pdfrwt>
<pdfrwt beam="2">  1       -2 0.31146826E-01 0.14647556E+04</pdfrwt>
<totfact> 0.26464968E+01</totfact>
</mgrwt>
</event>
<event>
12    1  0.1506149E-007  0.3502633E+04  0.7818608E-02  0.8113166E-01
         -2   -1    0    0    0  501 -0.00000000000E+00  0.00000000000E+00  0.16167944639E+04  0.16167944639E+04  0.00000000000E+00 0. -1.
          2   -1    0    0  501    0  0.00000000000E+00 -0.00000000000E+00 -0.18970313029E+04  0.18970313029E+04  0.00000000000E+00 0.  1.
         23    2    1    2    0    0 -0.22564651832E+03 -0.53133585600E+03  0.14018363218E+04  0.15187299482E+04  0.90340684536E+02 0.  0.
        254    2    1    2    0    0  0.22564651832E+03  0.53133585600E+03 -0.16820731608E+04  0.19950958185E+04  0.90432464510E+03 0.  0.
        -24    2    4    4    0    0 -0.18025130971E+03 -0.79520851091E+02 -0.88253474949E+03  0.90707251761E+03  0.71406356457E+02 0.  0.
         24    2    4    4    0    0  0.40589782802E+03  0.61085670710E+03 -0.79953841131E+03  0.10880233009E+04  0.81449793012E+02 0.  0.
         13    1    3    3    0    0 -0.19649057833E+03 -0.35680742172E+03  0.98152201594E+03  0.10626878899E+04  0.00000000000E+00 0. -1.
        -13    1    3    3    0    0 -0.29155939981E+02 -0.17452843428E+03  0.42031430589E+03  0.45604205831E+03  0.00000000000E+00 0.  1.
          4    1    6    6  502    0  0.39965433547E+03  0.61243161554E+03 -0.79466146275E+03  0.10799457912E+04  0.00000000000E+00 0. -1.
          1    1    5    5  503    0 -0.15028598809E+03 -0.80018021545E+02 -0.82291736500E+03  0.84034620937E+03  0.00000000000E+00 0. -1.
         -2    1    5    5    0  503 -0.29965321616E+02  0.49717045379E+00 -0.59617384492E+02  0.66726308242E+02  0.00000000000E+00 0.  1.
         -3    1    6    6    0  502  0.62434925500E+01 -0.15749084414E+01 -0.48769485593E+01  0.80775097072E+01  0.00000000000E+00 0.  1.
<mgrwt>
<rscale>  0 0.35026331E+04</rscale>
<asrwt>0</asrwt>
<pdfrwt beam="1">  1        2 0.29185097E+00 0.35026331E+04</pdfrwt>
<pdfrwt beam="2">  1       -2 0.24873761E+00 0.35026331E+04</pdfrwt>
<totfact> 0.40970045E-01</totfact>
</mgrwt>
</event>
<event>
12    1  0.1506149E-007  0.1105836E+04  0.7818608E-02  0.9199522E-01
         -2   -1    0    0    0  501 -0.00000000000E+00  0.00000000000E+00  0.31964891958E+03  0.31964891958E+03  0.00000000000E+00 0. -1.
          2   -1    0    0  501    0  0.00000000000E+00 -0.00000000000E+00 -0.95641989581E+03  0.95641989581E+03  0.00000000000E+00 0.  1.
         23    2    1    2    0    0 -0.13764851663E+03 -0.21199326756E+02 -0.20757863471E+03  0.26639237489E+03  0.92084104104E+02 0.  0.
        254    2    1    2    0    0  0.13764851663E+03  0.21199326756E+02 -0.42919234152E+03  0.10096764405E+04  0.90324078899E+03 0.  0.
        -24    2    4    4    0    0  0.69382028597E+02  0.45967168434E+02 -0.70459667862E+03  0.71385233618E+03  0.78751710287E+02 0.  0.
         24    2    4    4    0    0  0.68266488030E+02 -0.24767841678E+02  0.27540433710E+03  0.29582410432E+03  0.79941181100E+02 0.  0.
         11    1    3    3    0    0 -0.11235339248E+03  0.22945017561E+02 -0.12714386284E+03  0.17121717346E+03  0.00000000000E+00 0.  1.
        -11    1    3    3    0    0 -0.25295124152E+02 -0.44144344317E+02 -0.80434771871E+02  0.95175201429E+02  0.00000000000E+00 0. -1.
          4    1    6    6  502    0  0.77129403951E+02  0.30445792190E+01  0.22085760222E+03  0.23395789124E+03  0.00000000000E+00 0. -1.
          1    1    5    5  503    0  0.56343450088E+02  0.13784828609E+02 -0.61551992175E+03  0.61824702178E+03  0.00000000000E+00 0. -1.
         -2    1    5    5    0  503  0.13038578509E+02  0.32182339824E+02 -0.89076756869E+02  0.95605314394E+02  0.00000000000E+00 0.  1.
         -3    1    6    6    0  502 -0.88629159211E+01 -0.27812420897E+02  0.54546734880E+02  0.61866213080E+02  0.00000000000E+00 0.  1.
<mgrwt>
<rscale>  0 0.11058365E+04</rscale>
<asrwt>0</asrwt>
<pdfrwt beam="1">  1        2 0.14714152E+00 0.11058365E+04</pdfrwt>
<pdfrwt beam="2">  1       -2 0.49176757E-01 0.11058365E+04</pdfrwt>
<totfact> 0.10444366E+02</totfact>
</mgrwt>
</event>
<event>
12    1  0.1506149E-007  0.2922807E+04  0.7818608E-02  0.8266124E-01
          2   -1    0    0  501    0  0.00000000000E+00  0.00000000000E+00  0.30914338022E+04  0.30914338022E+04  0.00000000000E+00 0. -1.
         -2   -1    0    0    0  501 -0.00000000000E+00 -0.00000000000E+00 -0.69084478040E+03  0.69084478040E+03  0.00000000000E+00 0.  1.
         23    2    1    2    0    0 -0.60064284753E+03 -0.23041208279E+03 -0.40643460785E+03  0.76643320453E+03  0.91483377512E+02 0.  0.
        254    2    1    2    0    0  0.60064284753E+03  0.23041208279E+03  0.28070236297E+04  0.30158453781E+04  0.89558926343E+03 0.  0.
        -24    2    4    4    0    0  0.67309156350E+03  0.47030493918E+03  0.18905787459E+04  0.20627393969E+04  0.79792459541E+02 0.  0.
         24    2    4    4    0    0 -0.72448715969E+02 -0.23989285639E+03  0.91644488383E+03  0.95310598118E+03  0.75778541024E+02 0.  0.
         11    1    3    3    0    0 -0.82965507251E+02 -0.54364476229E+02 -0.34017961813E+02  0.10486178234E+03  0.00000000000E+00 0. -1.
        -11    1    3    3    0    0 -0.51767734028E+03 -0.17604760656E+03 -0.37241664604E+03  0.66157142219E+03  0.00000000000E+00 0.  1.
          4    1    6    6  502    0 -0.19841975233E+02 -0.82588810085E+02  0.45248525015E+03  0.46038844157E+03  0.00000000000E+00 0. -1.
          3    1    5    5  503    0  0.12450937754E+02 -0.23293572860E+01  0.30961706889E+02  0.33452638906E+02  0.00000000000E+00 0. -1.
         -4    1    5    5    0  503  0.66064062575E+03  0.47263429647E+03  0.18596170390E+04  0.20292867580E+04  0.00000000000E+00 0.  1.
         -3    1    6    6    0  502 -0.52606740737E+02 -0.15730404631E+03  0.46395963368E+03  0.49271753961E+03  0.00000000000E+00 0.  1.
<mgrwt>
<rscale>  0 0.29228075E+04</rscale>
<asrwt>0</asrwt>
<pdfrwt beam="1">  1        2 0.47560519E+00 0.29228075E+04</pdfrwt>
<pdfrwt beam="2">  1       -2 0.10628381E+00 0.29228075E+04</pdfrwt>
<totfact> 0.93667555E-01</totfact>
</mgrwt>
</event>
<event>
12    1  0.1506149E-007  0.1815692E+04  0.7818608E-02  0.8697999E-01
          2   -1    0    0  501    0  0.00000000000E+00  0.00000000000E+00  0.19513919854E+04  0.19513919854E+04  0.00000000000E+00 0. -1.
         -2   -1    0    0    0  501 -0.00000000000E+00 -0.00000000000E+00 -0.42235723741E+03  0.42235723741E+03  0.00000000000E+00 0.  1.
         23    2    1    2    0    0 -0.74494858293E+01 -0.62579710384E+03  0.22931505963E+03  0.67280172747E+03  0.91647465337E+02 0.  0.
        254    2    1    2    0    0  0.74494858293E+01  0.62579710384E+03  0.12997196884E+04  0.17009474954E+04  0.90126222800E+03 0.  0.
        -24    2    4    4    0    0 -0.41818296148E+03  0.16970543548E+03  0.43424898006E+03  0.63125515779E+03  0.78955515620E+02 0.  0.
         24    2    4    4    0    0  0.42563244731E+03  0.45609166836E+03  0.86547070832E+03  0.10696923376E+04  0.77585823205E+02 0.  0.
         11    1    3    3    0    0  0.32695748992E+02 -0.47131133090E+03  0.18241707069E+03  0.50643792346E+03  0.00000000000E+00 0.  1.
        -11    1    3    3    0    0 -0.40145234822E+02 -0.15448577294E+03  0.46897988947E+02  0.16636380401E+03  0.00000000000E+00 0. -1.
          4    1    6    6  502    0  0.22573905339E+03  0.23862362425E+03  0.38953832272E+03  0.50954828931E+03  0.00000000000E+00 0. -1.
          1    1    5    5  503    0 -0.14746420969E+03  0.89518217167E+02  0.20219787433E+03  0.26578785662E+03  0.00000000000E+00 0. -1.
         -2    1    5    5    0  503 -0.27071875179E+03  0.80187218313E+02  0.23205110573E+03  0.36546730117E+03  0.00000000000E+00 0.  1.
         -3    1    6    6    0  502  0.19989339392E+03  0.21746804411E+03  0.47593238561E+03  0.56014404827E+03  0.00000000000E+00 0.  1.
<mgrwt>
<rscale>  0 0.18156922E+04</rscale>
<asrwt>0</asrwt>
<pdfrwt beam="1">  1        2 0.30021415E+00 0.18156922E+04</pdfrwt>
<pdfrwt beam="2">  1       -2 0.64978038E-01 0.18156922E+04</pdfrwt>
<totfact> 0.14646232E+01</totfact>
</mgrwt>
</event>
<event>
12    1  0.1506149E-007  0.1452815E+04  0.7818608E-02  0.8916451E-01
         -1   -1    0    0    0  501 -0.00000000000E+00  0.00000000000E+00  0.10321832645E+04  0.10321832645E+04  0.00000000000E+00 0.  1.
          1   -1    0    0  501    0  0.00000000000E+00 -0.00000000000E+00 -0.51121548603E+03  0.51121548603E+03  0.00000000000E+00 0. -1.
         23    2    1    2    0    0  0.15276519092E+03  0.68240827959E+02  0.58950545673E+03  0.61935591604E+03  0.89950281076E+02 0.  0.
        254    2    1    2    0    0 -0.15276519092E+03 -0.68240827959E+02 -0.68537678251E+02  0.92404283450E+03  0.90618084978E+03 0.  0.
        -24    2    4    4    0    0 -0.42926585089E+03  0.24007540722E+03 -0.58894975106E+02  0.50190245300E+03  0.80821298776E+02 0.  0.
         24    2    4    4    0    0  0.27650065998E+03 -0.30831623518E+03 -0.96427031456E+01  0.42214038151E+03  0.81228099396E+02 0.  0.
         13    1    3    3    0    0  0.30523208805E+02 -0.14865212510E+02  0.19770851558E+03  0.20060233785E+03  0.00000000000E+00 0. -1.
        -13    1    3    3    0    0  0.12224198211E+03  0.83106040469E+02  0.39179694115E+03  0.41875357819E+03  0.00000000000E+00 0.  1.
          4    1    6    6  502    0  0.26622608216E+03 -0.26696047355E+03  0.50839433726E+01  0.37705446256E+03  0.00000000000E+00 0. -1.
          1    1    5    5  503    0 -0.38404481405E+03  0.19484731807E+03 -0.71981251344E+02  0.43662019777E+03  0.00000000000E+00 0. -1.
         -2    1    5    5    0  503 -0.45221036849E+02  0.45228089153E+02  0.13086276239E+02  0.65282255230E+02  0.00000000000E+00 0.  1.
         -3    1    6    6    0  502  0.10274577822E+02 -0.41355761630E+02 -0.14726646518E+02  0.45085918945E+02  0.00000000000E+00 0.  1.
<mgrwt>
<rscale>  0 0.14528153E+04</rscale>
<asrwt>0</asrwt>
<pdfrwt beam="1">  1        1 0.78648536E-01 0.14528153E+04</pdfrwt>
<pdfrwt beam="2">  1       -1 0.15879743E+00 0.14528153E+04</pdfrwt>
<totfact> 0.12455502E+01</totfact>
</mgrwt>
</event>
<event>
12    1  0.1506149E-007  0.1212807E+04  0.7818608E-02  0.9101720E-01
          1   -1    0    0  501    0  0.00000000000E+00  0.00000000000E+00  0.13566094541E+04  0.13566094541E+04  0.00000000000E+00 0. -1.
         -1   -1    0    0    0  501 -0.00000000000E+00 -0.00000000000E+00 -0.27106192907E+03  0.27106192907E+03  0.00000000000E+00 0.  1.
         23    2    1    2    0    0 -0.14945254937E+03  0.60993016049E+02  0.47946629759E+03  0.51414059219E+03  0.91631902133E+02 0.  0.
        254    2    1    2    0    0  0.14945254937E+03 -0.60993016049E+02  0.60608122741E+03  0.11135307909E+04  0.92008703700E+03 0.  0.
        -24    2    4    4    0    0  0.51064531249E+02  0.36019799248E+03  0.55806906783E+03  0.67146320148E+03  0.84092605712E+02 0.  0.
         24    2    4    4    0    0  0.98388018118E+02 -0.42119100853E+03  0.48012159572E+02  0.44206758947E+03  0.77695034671E+02 0.  0.
         13    1    3    3    0    0 -0.43754463715E+02  0.66078281068E+02  0.22495344046E+03  0.23850543536E+03  0.00000000000E+00 0.  1.
        -13    1    3    3    0    0 -0.10569808565E+03 -0.50852650186E+01  0.25451285714E+03  0.27563515683E+03  0.00000000000E+00 0. -1.
          2    1    6    6  502    0 -0.58618251261E+01 -0.12458303863E+03  0.21454650258E+02  0.12655274207E+03  0.00000000000E+00 0. -1.
          3    1    5    5  503    0  0.24190135400E+02  0.43153933550E+02  0.40599315820E+02  0.63997883375E+02  0.00000000000E+00 0. -1.
         -4    1    5    5    0  503  0.26874395849E+02  0.31704405893E+03  0.51746975201E+03  0.60746531811E+03  0.00000000000E+00 0.  1.
         -1    1    6    6    0  502  0.10424984324E+03 -0.29660796990E+03  0.26557509314E+02  0.31551484740E+03  0.00000000000E+00 0.  1.
<mgrwt>
<rscale>  0 0.12128070E+04</rscale>
<asrwt>0</asrwt>
<pdfrwt beam="1">  1        1 0.20870914E+00 0.12128070E+04</pdfrwt>
<pdfrwt beam="2">  1       -1 0.41701836E-01 0.12128070E+04</pdfrwt>
<totfact> 0.45971364E+01</totfact>
</mgrwt>
</event>
<event>
12    1  0.1506149E-007  0.1582748E+04  0.7818608E-02  0.8831217E-01
         -2   -1    0    0    0  501 -0.00000000000E+00  0.00000000000E+00  0.11061263489E+04  0.11061263489E+04  0.00000000000E+00 0.  1.
          2   -1    0    0  501    0  0.00000000000E+00 -0.00000000000E+00 -0.56618535420E+03  0.56618535420E+03  0.00000000000E+00 0. -1.
         23    2    1    2    0    0  0.21561276374E+03 -0.32589843413E+03 -0.18768747217E+03  0.44347209470E+03  0.93500044435E+02 0.  0.
        254    2    1    2    0    0 -0.21561276374E+03  0.32589843413E+03  0.72762846683E+03  0.12288396084E+04  0.90989282010E+03 0.  0.
        -24    2    4    4    0    0 -0.92031411121E+02 -0.19790621181E+03 -0.87530481639E+02  0.24885570570E+03  0.81430508661E+02 0.  0.
         24    2    4    4    0    0 -0.12358135262E+03  0.52380464593E+03  0.81515894847E+03  0.97998390265E+03  0.78997977000E+02 0.  0.
         13    1    3    3    0    0  0.21551389564E+03 -0.32379207784E+03 -0.19553891785E+03  0.43534241383E+03  0.00000000000E+00 0. -1.
        -13    1    3    3    0    0  0.98868100013E-01 -0.21063562853E+01  0.78514456785E+01  0.81296808636E+01  0.00000000000E+00 0.  1.
          2    1    6    6  502    0 -0.21422754067E+02  0.21116261175E+02  0.33333119381E+02  0.44899083794E+02  0.00000000000E+00 0. -1.
          3    1    5    5  503    0 -0.71317392446E+02 -0.63228913036E+02 -0.49443552112E+02  0.10737192722E+03  0.00000000000E+00 0. -1.
         -4    1    5    5    0  503 -0.20714018674E+02 -0.13467729877E+03 -0.38086929528E+02  0.14148377849E+03  0.00000000000E+00 0.  1.
         -1    1    6    6    0  502 -0.10215859855E+03  0.50268838476E+03  0.78182582909E+03  0.93508481886E+03  0.00000000000E+00 0.  1.
<mgrwt>
<rscale>  0 0.15827477E+04</rscale>
<asrwt>0</asrwt>
<pdfrwt beam="1">  1        2 0.87105440E-01 0.15827477E+04</pdfrwt>
<pdfrwt beam="2">  1       -2 0.17017328E+00 0.15827477E+04</pdfrwt>
<totfact> 0.10842473E+01</totfact>
</mgrwt>
</event>
<event>
12    1  0.1506149E-007  0.2276025E+04  0.7818608E-02  0.8487434E-01
          2   -1    0    0  501    0  0.00000000000E+00  0.00000000000E+00  0.10571582781E+04  0.10571582781E+04  0.00000000000E+00 0. -1.
         -2   -1    0    0    0  501 -0.00000000000E+00 -0.00000000000E+00 -0.12250509234E+04  0.12250509234E+04  0.00000000000E+00 0.  1.
         23    2    1    2    0    0  0.67518937656E+02  0.31064104829E+03 -0.97408364920E+03  0.10289379158E+04  0.93902135667E+02 0.  0.
        254    2    1    2    0    0 -0.67518937656E+02 -0.31064104829E+03  0.80619100388E+03  0.12532712858E+04  0.90536639722E+03 0.  0.
        -24    2    4    4    0    0  0.59076845999E+02  0.28210641543E+03  0.46593513213E+03  0.55367557360E+03  0.79918646687E+02 0.  0.
         24    2    4    4    0    0 -0.12659578366E+03 -0.59274746372E+03  0.34025587175E+03  0.69959571219E+03  0.79272025764E+02 0.  0.
         13    1    3    3    0    0 -0.14290862683E+02  0.15239483886E+03 -0.42963329422E+03  0.45608462281E+03  0.00000000000E+00 0.  1.
        -13    1    3    3    0    0  0.81809800339E+02  0.15824620943E+03 -0.54445035498E+03  0.57285329298E+03  0.00000000000E+00 0. -1.
          2    1    6    6  502    0 -0.89800092488E+02 -0.39585930114E+03  0.18456953100E+03  0.44590868424E+03  0.00000000000E+00 0. -1.
          1    1    5    5  503    0  0.28231558867E+02  0.24958064710E+02  0.38314274253E+02  0.53739273550E+02  0.00000000000E+00 0. -1.
         -2    1    5    5    0  503  0.30845287132E+02  0.25714835072E+03  0.42762085787E+03  0.49993630005E+03  0.00000000000E+00 0.  1.
         -1    1    6    6    0  502 -0.36795691167E+02 -0.19688816258E+03  0.15568634075E+03  0.25368702795E+03  0.00000000000E+00 0.  1.
<mgrwt>
<rscale>  0 0.22760252E+04</rscale>
<asrwt>0</asrwt>
<pdfrwt beam="1">  1        2 0.16263974E+00 0.22760252E+04</pdfrwt>
<pdfrwt beam="2">  1       -2 0.18846937E+00 0.22760252E+04</pdfrwt>
<totfact> 0.33397131E+00</totfact>
</mgrwt>
</event>
<event>
12    1  0.1506149E-007  0.3938167E+04  0.7818608E-02  0.8017138E-01
          1   -1    0    0  501    0  0.00000000000E+00  0.00000000000E+00  0.26532721655E+04  0.26532721655E+04  0.00000000000E+00 0. -1.
         -1   -1    0    0    0  501 -0.00000000000E+00 -0.00000000000E+00 -0.14613237446E+04  0.14613237446E+04  0.00000000000E+00 0.  1.
         23    2    1    2    0    0  0.17572440169E+04 -0.39685845296E+03  0.10564083797E+04  0.20904866843E+04  0.93449162401E+02 0.  0.
        254    2    1    2    0    0 -0.17572440169E+04  0.39685845296E+03  0.13554004122E+03  0.20241092258E+04  0.91282193696E+03 0.  0.
        -24    2    4    4    0    0 -0.15099143587E+04  0.33042815773E+03  0.44889492174E+03  0.16116286964E+04  0.82560682874E+02 0.  0.
         24    2    4    4    0    0 -0.24732965815E+03  0.66430295230E+02 -0.31335488052E+03  0.41248052933E+03  0.79774444573E+02 0.  0.
         11    1    3    3    0    0  0.15993599816E+04 -0.35206593055E+03  0.92968467761E+03  0.18831400293E+04  0.00000000000E+00 0. -1.
        -11    1    3    3    0    0  0.15788403529E+03 -0.44792522407E+02  0.12672370214E+03  0.20734665502E+03  0.00000000000E+00 0.  1.
          4    1    6    6  502    0 -0.20551013486E+03  0.21201960116E+02 -0.24407344019E+03  0.31977458130E+03  0.00000000000E+00 0. -1.
          1    1    5    5  503    0 -0.13851266050E+04  0.29225472712E+03  0.38935326758E+03  0.14681908950E+04  0.00000000000E+00 0. -1.
         -2    1    5    5    0  503 -0.12478775375E+03  0.38173430611E+02  0.59541654163E+02  0.14343780140E+03  0.00000000000E+00 0.  1.
         -3    1    6    6    0  502 -0.41819523296E+02  0.45228335114E+02 -0.69281440331E+02  0.92705948030E+02  0.00000000000E+00 0.  1.
<mgrwt>
<rscale>  0 0.39381669E+04</rscale>
<asrwt>0</asrwt>
<pdfrwt beam="1">  1        1 0.40819572E+00 0.39381669E+04</pdfrwt>
<pdfrwt beam="2">  1       -1 0.22481904E+00 0.39381669E+04</pdfrwt>
<totfact> 0.85086681E-02</totfact>
</mgrwt>
</event>
<event>
12    1  0.1506149E-007  0.1478515E+04  0.7818608E-02  0.8898867E-01
         -1   -1    0    0    0  501 -0.00000000000E+00  0.00000000000E+00  0.32453087607E+03  0.32453087607E+03  0.00000000000E+00 0.  1.
          1   -1    0    0  501    0  0.00000000000E+00 -0.00000000000E+00 -0.16839743360E+04  0.16839743360E+04  0.00000000000E+00 0. -1.
         23    2    1    2    0    0  0.14229812934E+03 -0.38910463599E+03 -0.43743513979E+03  0.60941899193E+03  0.91601478336E+02 0.  0.
        254    2    1    2    0    0 -0.14229812934E+03  0.38910463599E+03 -0.92200832015E+03  0.13990862202E+04  0.96731160111E+03 0.  0.
        -24    2    4    4    0    0 -0.23753158772E+02 -0.53462174140E+02 -0.92974185671E+03  0.93461572829E+03  0.75261031381E+02 0.  0.
         24    2    4    4    0    0 -0.11854497057E+03  0.44256681013E+03  0.77335365621E+01  0.46447049186E+03  0.75859994329E+02 0.  0.
         11    1    3    3    0    0  0.10209227778E+01 -0.45080329774E+01 -0.34340826792E+02  0.34650498256E+02  0.00000000000E+00 0.  1.
        -11    1    3    3    0    0  0.14127720656E+03 -0.38459660302E+03 -0.40309431300E+03  0.57476849367E+03  0.00000000000E+00 0. -1.
          4    1    6    6  502    0 -0.12235483309E+03  0.39157733949E+03  0.23620777967E+02  0.41092755947E+03  0.00000000000E+00 0. -1.
          1    1    5    5  503    0 -0.20923660543E+02 -0.65794930890E+02 -0.89469026996E+03  0.89735023912E+03  0.00000000000E+00 0. -1.
         -2    1    5    5    0  503 -0.28294982285E+01  0.12332756750E+02 -0.35051586752E+02  0.37265489170E+02  0.00000000000E+00 0.  1.
         -3    1    6    6    0  502  0.38098625198E+01  0.50989470641E+02 -0.15887241405E+02  0.53542932383E+02  0.00000000000E+00 0.  1.
<mgrwt>
<rscale>  0 0.14785150E+04</rscale>
<asrwt>0</asrwt>
<pdfrwt beam="1">  1        1 0.25907297E+00 0.14785150E+04</pdfrwt>
<pdfrwt beam="2">  1       -1 0.49927828E-01 0.14785150E+04</pdfrwt>
<totfact> 0.19064427E+01</totfact>
</mgrwt>
</event>
<event>
12    1  0.1506149E-007  0.1749982E+04  0.7818608E-02  0.8733360E-01
         -1   -1    0    0    0  501 -0.00000000000E+00  0.00000000000E+00  0.53216799217E+03  0.53216799217E+03  0.00000000000E+00 0.  1.
          1   -1    0    0  501    0  0.00000000000E+00 -0.00000000000E+00 -0.14386610962E+04  0.14386610962E+04  0.00000000000E+00 0. -1.
         23    2    1    2    0    0  0.25024938954E+03  0.56892868722E+03 -0.19087588789E+03  0.65640773773E+03  0.90182622902E+02 0.  0.
        254    2    1    2    0    0 -0.25024938954E+03 -0.56892868722E+03 -0.71561721615E+03  0.13144213507E+04  0.91065409398E+03 0.  0.
        -24    2    4    4    0    0 -0.95941766727E+01 -0.72520020881E+03 -0.70733360780E+03  0.10161735002E+04  0.79248714340E+02 0.  0.
         24    2    4    4    0    0 -0.24065521287E+03  0.15627152159E+03 -0.82836083550E+01  0.29824785044E+03  0.80916266500E+02 0.  0.
         11    1    3    3    0    0 -0.53642851600E+01  0.17315389385E+02 -0.14973626957E+02  0.23511864432E+02  0.00000000000E+00 0. -1.
        -11    1    3    3    0    0  0.25561367470E+03  0.55161329783E+03 -0.17590226093E+03  0.63289587330E+03  0.00000000000E+00 0.  1.
          2    1    6    6  502    0 -0.18075317467E+03  0.10068166404E+03 -0.39734011851E+02  0.21068293554E+03  0.00000000000E+00 0. -1.
          3    1    5    5  503    0 -0.63288774944E+01 -0.29513660135E+01 -0.40363025192E+01  0.80657913258E+01  0.00000000000E+00 0. -1.
         -4    1    5    5    0  503 -0.32652991783E+01 -0.72224884279E+03 -0.70329730528E+03  0.10081077089E+04  0.00000000000E+00 0.  1.
         -1    1    6    6    0  502 -0.59902038199E+02  0.55589857546E+02  0.31450403496E+02  0.87564914906E+02  0.00000000000E+00 0.  1.
<mgrwt>
<rscale>  0 0.17499822E+04</rscale>
<asrwt>0</asrwt>
<pdfrwt beam="1">  1        1 0.22133248E+00 0.17499822E+04</pdfrwt>
<pdfrwt beam="2">  1       -1 0.81871998E-01 0.17499822E+04</pdfrwt>
<totfact> 0.10153977E+01</totfact>
</mgrwt>
</event>
<event>
12    1  0.1506149E-007  0.1688133E+04  0.7818608E-02  0.8768161E-01
         -1   -1    0    0    0  501 -0.00000000000E+00  0.00000000000E+00  0.87445935986E+03  0.87445935986E+03  0.00000000000E+00 0.  1.
          1   -1    0    0  501    0  0.00000000000E+00 -0.00000000000E+00 -0.81473025460E+03  0.81473025460E+03  0.00000000000E+00 0. -1.
         23    2    1    2    0    0  0.50351311236E+03  0.35470597305E+03  0.13446859587E+03  0.63693900694E+03  0.90926968772E+02 0.  0.
        254    2    1    2    0    0 -0.50351311236E+03 -0.35470597305E+03 -0.74739490612E+02  0.10522506075E+04  0.84988444387E+03 0.  0.
        -24    2    4    4    0    0 -0.21320288954E+03 -0.37575949994E+03  0.32880876269E+03  0.54848210573E+03  0.77889305934E+02 0.  0.
         24    2    4    4    0    0 -0.29031022283E+03  0.21053526893E+02 -0.40354825330E+03  0.50376850179E+03  0.78792348528E+02 0.  0.
         11    1    3    3    0    0  0.24977666438E+03  0.17629751421E+03  0.20248807790E+02  0.30639714392E+03  0.00000000000E+00 0. -1.
        -11    1    3    3    0    0  0.25373644798E+03  0.17840845884E+03  0.11421978808E+03  0.33054186302E+03  0.00000000000E+00 0.  1.
          4    1    6    6  502    0 -0.25156239054E+03  0.45611786912E+02 -0.34069525163E+03  0.42595460547E+03  0.00000000000E+00 0. -1.
          3    1    5    5  503    0 -0.20673420544E+03 -0.35667200057E+03  0.33032776234E+03  0.52827112192E+03  0.00000000000E+00 0. -1.
         -4    1    5    5    0  503 -0.64686840933E+01 -0.19087499375E+02 -0.15189996504E+01  0.20210983802E+02  0.00000000000E+00 0.  1.
         -3    1    6    6    0  502 -0.38747832290E+02 -0.24558260018E+02 -0.62853001663E+02  0.77813896319E+02  0.00000000000E+00 0.  1.
<mgrwt>
<rscale>  0 0.16881333E+04</rscale>
<asrwt>0</asrwt>
<pdfrwt beam="1">  1        1 0.12534312E+00 0.16881333E+04</pdfrwt>
<pdfrwt beam="2">  1       -1 0.13453221E+00 0.16881333E+04</pdfrwt>
<totfact> 0.95054839E+00</totfact>
</mgrwt>
</event>
<event>
12    1  0.2051616E-007  0.1260839E+04  0.7818608E-02  0.9061210E-01
         -1   -1    0    0    0  501 -0.00000000000E+00  0.00000000000E+00  0.41657258259E+03  0.41657258259E+03  0.00000000000E+00 0.  1.
          1   -1    0    0  501    0  0.00000000000E+00 -0.00000000000E+00 -0.95404474094E+03  0.95404474094E+03  0.00000000000E+00 0. -1.
         23    2    1    2    0    0 -0.10983281260E+03  0.17298294659E+03 -0.49946267743E+03  0.54771609925E+03  0.92431665024E+02 0.  0.
        254    2    1    2    0    0  0.10983281260E+03 -0.17298294659E+03 -0.38009480917E+02  0.82290122427E+03  0.79607496992E+03 0.  0.
        -24    2    4    4    0    0  0.38414416368E+03 -0.80540703964E+02 -0.23421526919E+03  0.46400659691E+03  0.79948647072E+02 0.  0.
         24    2    4    4    0    0 -0.27431135108E+03 -0.92442242624E+02  0.19620578828E+03  0.35889462736E+03  0.80723953325E+02 0.  0.
         11    1    3    3    0    0 -0.10981657784E+03  0.15507059877E+03 -0.49353082918E+03  0.52884709579E+03  0.00000000000E+00 0. -1.
        -11    1    3    3    0    0 -0.16234759866E-01  0.17912347819E+02 -0.59318482454E+01  0.18869003460E+02  0.00000000000E+00 0.  1.
          2    1    6    6  502    0 -0.27487573381E+03 -0.96946075307E+02  0.18116774466E+03  0.34318648321E+03  0.00000000000E+00 0. -1.
          1    1    5    5  503    0  0.31687737237E+03 -0.92910733018E+02 -0.21056043091E+03  0.39163678134E+03  0.00000000000E+00 0. -1.
         -2    1    5    5    0  503  0.67266791314E+02  0.12370029054E+02 -0.23654838281E+02  0.72369815576E+02  0.00000000000E+00 0.  1.
         -1    1    6    6    0  502  0.56438272597E+00  0.45038326828E+01  0.15038043621E+02  0.15708144150E+02  0.00000000000E+00 0.  1.
<mgrwt>
<rscale>  0 0.12608392E+04</rscale>
<asrwt>0</asrwt>
<pdfrwt beam="1">  1        1 0.14677611E+00 0.12608392E+04</pdfrwt>
<pdfrwt beam="2">  1       -1 0.64088090E-01 0.12608392E+04</pdfrwt>
<totfact> 0.40030197E+01</totfact>
</mgrwt>
</event>
<event>
12    1  0.1506149E-007  0.1088010E+04  0.7818608E-02  0.9216957E-01
          1   -1    0    0  501    0  0.00000000000E+00  0.00000000000E+00  0.41673200893E+03  0.41673200893E+03  0.00000000000E+00 0. -1.
         -1   -1    0    0    0  501 -0.00000000000E+00 -0.00000000000E+00 -0.71014854870E+03  0.71014854870E+03  0.00000000000E+00 0.  1.
         23    2    1    2    0    0  0.11335882391E+03  0.24728678564E+02 -0.15731878312E+03  0.21355165526E+03  0.85984762834E+02 0.  0.
        254    2    1    2    0    0 -0.11335882391E+03 -0.24728678564E+02 -0.13609775665E+03  0.91332890236E+03  0.89564800788E+03 0.  0.
        -24    2    4    4    0    0 -0.47621072878E+02 -0.31339308589E+02 -0.51318142585E+03  0.52229880015E+03  0.78682539044E+02 0.  0.
         24    2    4    4    0    0 -0.65737751029E+02  0.66106300247E+01  0.37708366920E+03  0.39103010222E+03  0.79669912256E+02 0.  0.
         11    1    3    3    0    0 -0.10521234705E+02 -0.87434910765E+01 -0.54438655898E+01  0.14723474063E+02  0.00000000000E+00 0. -1.
        -11    1    3    3    0    0  0.12388005861E+03  0.33472169640E+02 -0.15187491753E+03  0.19882818120E+03  0.00000000000E+00 0.  1.
          2    1    6    6  502    0 -0.77552308108E+02  0.10006642980E+02  0.22031545265E+03  0.23378064948E+03  0.00000000000E+00 0. -1.
          3    1    5    5  503    0  0.11544806470E+02 -0.35792058773E+02 -0.18211515434E+03  0.18595774646E+03  0.00000000000E+00 0. -1.
         -2    1    5    5    0  503 -0.59165879348E+02  0.44527501844E+01 -0.33106627151E+03  0.33634105369E+03  0.00000000000E+00 0.  1.
         -1    1    6    6    0  502  0.11814557080E+02 -0.33960129556E+01  0.15676821656E+03  0.15724945273E+03  0.00000000000E+00 0.  1.
<mgrwt>
<rscale>  0 0.10880104E+04</rscale>
<asrwt>0</asrwt>
<pdfrwt beam="1">  1        1 0.64112617E-01 0.10880104E+04</pdfrwt>
<pdfrwt beam="2">  1       -1 0.10925362E+00 0.10880104E+04</pdfrwt>
<totfact> 0.43949777E+01</totfact>
</mgrwt>
</event>
<event>
12    1  0.1506149E-007  0.2544012E+04  0.7818608E-02  0.8387472E-01
          1   -1    0    0  501    0  0.00000000000E+00  0.00000000000E+00  0.21657452012E+04  0.21657452012E+04  0.00000000000E+00 0. -1.
         -1   -1    0    0    0  501 -0.00000000000E+00 -0.00000000000E+00 -0.74708664921E+03  0.74708664921E+03  0.00000000000E+00 0.  1.
         23    2    1    2    0    0  0.10953761090E+04 -0.12547432706E+03  0.50744152814E+03  0.12174204439E+04  0.94989503703E+02 0.  0.
        254    2    1    2    0    0 -0.10953761090E+04  0.12547432706E+03  0.91121702386E+03  0.16954114066E+04  0.91022565670E+03 0.  0.
        -24    2    4    4    0    0 -0.54472413968E+03 -0.12327487564E+03  0.92726968046E+03  0.10853843484E+04  0.79429466899E+02 0.  0.
         24    2    4    4    0    0 -0.55065196927E+03  0.24874920270E+03 -0.16052656599E+02  0.61002705813E+03  0.82350268714E+02 0.  0.
         11    1    3    3    0    0  0.10808760628E+04 -0.13280810570E+03  0.49193887076E+03  0.11949623043E+04  0.00000000000E+00 0. -1.
        -11    1    3    3    0    0  0.14500046170E+02  0.73337786436E+01  0.15502657381E+02  0.22458139593E+02  0.00000000000E+00 0.  1.
          2    1    6    6  502    0 -0.94832085015E+02  0.73565769702E+02  0.13679454293E+02  0.12079807238E+03  0.00000000000E+00 0. -1.
          3    1    5    5  503    0 -0.23675737417E+02  0.73385480958E+01  0.63993222391E+02  0.68625996112E+02  0.00000000000E+00 0. -1.
         -4    1    5    5    0  503 -0.52104840226E+03 -0.13061342374E+03  0.86327645807E+03  0.10167583523E+04  0.00000000000E+00 0.  1.
         -1    1    6    6    0  502 -0.45581988426E+03  0.17518343300E+03 -0.29732110892E+02  0.48922898575E+03  0.00000000000E+00 0.  1.
<mgrwt>
<rscale>  0 0.25440120E+04</rscale>
<asrwt>0</asrwt>
<pdfrwt beam="1">  1        1 0.33319157E+00 0.25440120E+04</pdfrwt>
<pdfrwt beam="2">  1       -1 0.11493641E+00 0.25440120E+04</pdfrwt>
<totfact> 0.13980521E+00</totfact>
</mgrwt>
</event>
<event>
12    1  0.1506149E-007  0.1889197E+04  0.7818608E-02  0.8660253E-01
         -3   -1    0    0    0  501 -0.00000000000E+00  0.00000000000E+00  0.24938115692E+03  0.24938115692E+03  0.00000000000E+00 0.  1.
          3   -1    0    0  501    0  0.00000000000E+00 -0.00000000000E+00 -0.35779214939E+04  0.35779214939E+04  0.00000000000E+00 0. -1.
         23    2    1    2    0    0 -0.20523597115E+02 -0.60698846298E+03 -0.21714493232E+04  0.22566851055E+04  0.92624457578E+02 0.  0.
        254    2    1    2    0    0  0.20523597115E+02  0.60698846298E+03 -0.11570910138E+04  0.15706175453E+04  0.87127702088E+03 0.  0.
        -24    2    4    4    0    0 -0.19054502604E+03 -0.68868106492E+02 -0.71719758305E+01  0.21767777454E+03  0.79258773981E+02 0.  0.
         24    2    4    4    0    0  0.21106862316E+03  0.67585656947E+03 -0.11499190380E+04  0.13529397707E+04  0.82463101938E+02 0.  0.
         13    1    3    3    0    0 -0.46130079578E+02 -0.28004175648E+03 -0.90474718729E+03  0.94821877356E+03  0.00000000000E+00 0.  1.
        -13    1    3    3    0    0  0.25606482463E+02 -0.32694670650E+03 -0.12667021359E+04  0.13084663320E+04  0.00000000000E+00 0. -1.
          2    1    6    6  502    0  0.15142875529E+03  0.57699283809E+03 -0.98677360034E+03  0.11530713514E+04  0.00000000000E+00 0. -1.
          3    1    5    5  503    0 -0.19220763078E+03 -0.74819456060E+02 -0.16028886522E+02  0.20687834478E+03  0.00000000000E+00 0. -1.
         -4    1    5    5    0  503  0.16626047431E+01  0.59513495682E+01  0.88569106912E+01  0.10799429763E+02  0.00000000000E+00 0.  1.
         -1    1    6    6    0  502  0.59639867866E+02  0.98863731389E+02 -0.16314543763E+03  0.19986841933E+03  0.00000000000E+00 0.  1.
<mgrwt>
<rscale>  0 0.18891969E+04</rscale>
<asrwt>0</asrwt>
<pdfrwt beam="1">  1        3 0.55044947E+00 0.18891969E+04</pdfrwt>
<pdfrwt beam="2">  1       -3 0.38366331E-01 0.18891969E+04</pdfrwt>
<totfact> 0.32566786E-02</totfact>
</mgrwt>
</event>
<event>
12    1  0.1506149E-007  0.1712314E+04  0.7818608E-02  0.8754372E-01
         -1   -1    0    0    0  501 -0.00000000000E+00  0.00000000000E+00  0.12306399289E+04  0.12306399289E+04  0.00000000000E+00 0.  1.
          1   -1    0    0  501    0  0.00000000000E+00 -0.00000000000E+00 -0.59562923193E+03  0.59562923193E+03  0.00000000000E+00 0. -1.
         23    2    1    2    0    0  0.55916081103E+02  0.34408223715E+03 -0.22690721960E+03  0.42579386536E+03  0.91073242065E+02 0.  0.
        254    2    1    2    0    0 -0.55916081103E+02 -0.34408223715E+03  0.86191791659E+03  0.14004752955E+04  0.10473344090E+04 0.  0.
        -24    2    4    4    0    0  0.59655280196E+02 -0.68301191479E+03  0.35825491355E+03  0.77733952496E+03  0.76459961890E+02 0.  0.
         24    2    4    4    0    0 -0.11557136130E+03  0.33892967764E+03  0.50366300303E+03  0.62313577054E+03  0.79948120438E+02 0.  0.
         11    1    3    3    0    0 -0.25068109206E+02  0.10068253754E+03 -0.67452807665E+02  0.12375485738E+03  0.00000000000E+00 0.  1.
        -11    1    3    3    0    0  0.80984190309E+02  0.24339969962E+03 -0.15945441193E+03  0.30203900798E+03  0.00000000000E+00 0. -1.
          2    1    6    6  502    0 -0.16631611961E+02  0.37234470041E+02  0.22267030379E+02  0.46463285695E+02  0.00000000000E+00 0. -1.
          3    1    5    5  503    0  0.39698414806E+02 -0.17899279593E+03  0.69153247328E+02  0.19595039359E+03  0.00000000000E+00 0. -1.
         -4    1    5    5    0  503  0.19956865390E+02 -0.50401911886E+03  0.28910166623E+03  0.58138913136E+03  0.00000000000E+00 0.  1.
         -1    1    6    6    0  502 -0.98939749338E+02  0.30169520759E+03  0.48139597266E+03  0.57667248484E+03  0.00000000000E+00 0.  1.
<mgrwt>
<rscale>  0 0.17123144E+04</rscale>
<asrwt>0</asrwt>
<pdfrwt beam="1">  1        1 0.91635266E-01 0.17123144E+04</pdfrwt>
<pdfrwt beam="2">  1       -1 0.18932922E+00 0.17123144E+04</pdfrwt>
<totfact> 0.58766084E+00</totfact>
</mgrwt>
</event>
<event>
12    1  0.1506149E-007  0.1542302E+04  0.7818608E-02  0.8856800E-01
         -1   -1    0    0    0  501 -0.00000000000E+00  0.00000000000E+00  0.54361699195E+03  0.54361699195E+03  0.00000000000E+00 0.  1.
          1   -1    0    0  501    0  0.00000000000E+00 -0.00000000000E+00 -0.10939213341E+04  0.10939213341E+04  0.00000000000E+00 0. -1.
         23    2    1    2    0    0 -0.31477462864E+03  0.11660039024E+03  0.20412551127E+03  0.40301553141E+03  0.89864210688E+02 0.  0.
        254    2    1    2    0    0  0.31477462864E+03 -0.11660039024E+03 -0.75442985342E+03  0.12345227946E+04  0.91771640987E+03 0.  0.
        -24    2    4    4    0    0  0.57849652149E+03 -0.23732980833E+02 -0.21815562703E+03  0.62396451921E+03  0.80736385068E+02 0.  0.
         24    2    4    4    0    0 -0.26372189285E+03 -0.92867409407E+02 -0.53627422639E+03  0.61055827544E+03  0.83772127326E+02 0.  0.
         13    1    3    3    0    0 -0.74354104166E+02  0.35744401373E+01  0.81618310327E+02  0.11046654701E+03  0.00000000000E+00 0. -1.
        -13    1    3    3    0    0 -0.24042052447E+03  0.11302595010E+03  0.12250720094E+03  0.29254898439E+03  0.00000000000E+00 0.  1.
          2    1    6    6  502    0 -0.12080579441E+03 -0.20810262870E+01 -0.25665922810E+03  0.28367645303E+03  0.00000000000E+00 0. -1.
          3    1    5    5  503    0  0.53663731734E+03 -0.34436106514E+02 -0.18224709084E+03  0.56778469328E+03  0.00000000000E+00 0. -1.
         -4    1    5    5    0  503  0.41859204147E+02  0.10703125681E+02 -0.35908536184E+02  0.56179825934E+02  0.00000000000E+00 0.  1.
         -1    1    6    6    0  502 -0.14291609844E+03 -0.90786383120E+02 -0.27961499829E+03  0.32688182241E+03  0.00000000000E+00 0.  1.
<mgrwt>
<rscale>  0 0.15423025E+04</rscale>
<asrwt>0</asrwt>
<pdfrwt beam="1">  1        1 0.16829559E+00 0.15423025E+04</pdfrwt>
<pdfrwt beam="2">  1       -1 0.83633384E-01 0.15423025E+04</pdfrwt>
<totfact> 0.17519395E+01</totfact>
</mgrwt>
</event>
<event>
12    1  0.1506149E-007  0.1520275E+04  0.7818608E-02  0.8871081E-01
         -1   -1    0    0    0  501 -0.00000000000E+00  0.00000000000E+00  0.11722441867E+04  0.11722441867E+04  0.00000000000E+00 0.  1.
          1   -1    0    0  501    0  0.00000000000E+00 -0.00000000000E+00 -0.49290847840E+03  0.49290847840E+03  0.00000000000E+00 0. -1.
         23    2    1    2    0    0  0.36818928591E+03 -0.30290387818E+03  0.84977469258E+02  0.49281779631E+03  0.91291294247E+02 0.  0.
        254    2    1    2    0    0 -0.36818928591E+03  0.30290387818E+03  0.59435823908E+03  0.11723348688E+04  0.89095073862E+03 0.  0.
        -24    2    4    4    0    0  0.12730616184E+03  0.27929397189E+03 -0.83303652454E+02  0.32848098680E+03  0.82147906826E+02 0.  0.
         24    2    4    4    0    0 -0.49549544774E+03  0.23609906286E+02  0.67766189153E+03  0.84385388204E+03  0.82404906324E+02 0.  0.
         11    1    3    3    0    0  0.30634779465E+03 -0.29085330889E+03  0.73242959305E+02  0.42872969301E+03  0.00000000000E+00 0. -1.
        -11    1    3    3    0    0  0.61841491254E+02 -0.12050569290E+02  0.11734509953E+02  0.64088103300E+02  0.00000000000E+00 0.  1.
          2    1    6    6  502    0  0.52120981843E+00  0.19782197916E+00  0.18862203658E+02  0.18870440378E+02  0.00000000000E+00 0. -1.
          1    1    5    5  503    0  0.51034097360E+02  0.16212805984E+03 -0.91229259886E+01  0.17021520102E+03  0.00000000000E+00 0. -1.
         -2    1    5    5    0  503  0.76272064476E+02  0.11716591205E+03 -0.74180726465E+02  0.15826578577E+03  0.00000000000E+00 0.  1.
         -1    1    6    6    0  502 -0.49601665756E+03  0.23412084306E+02  0.65879968788E+03  0.82498344166E+03  0.00000000000E+00 0.  1.
<mgrwt>
<rscale>  0 0.15202751E+04</rscale>
<asrwt>0</asrwt>
<pdfrwt beam="1">  1        1 0.75832074E-01 0.15202751E+04</pdfrwt>
<pdfrwt beam="2">  1       -1 0.18034526E+00 0.15202751E+04</pdfrwt>
<totfact> 0.90326095E+00</totfact>
</mgrwt>
</event>
<event>
12    1  0.1506149E-007  0.1771011E+04  0.7818608E-02  0.8721869E-01
          1   -1    0    0  501    0  0.00000000000E+00  0.00000000000E+00  0.78426253613E+03  0.78426253613E+03  0.00000000000E+00 0. -1.
         -1   -1    0    0    0  501 -0.00000000000E+00 -0.00000000000E+00 -0.99981816041E+03  0.99981816041E+03  0.00000000000E+00 0.  1.
         23    2    1    2    0    0 -0.20131676428E+03 -0.29746287779E+03 -0.63011437530E+03  0.73111605278E+03  0.92054078826E+02 0.  0.
        254    2    1    2    0    0  0.20131676428E+03  0.29746287779E+03  0.41455875102E+03  0.10529646438E+04  0.89881198241E+03 0.  0.
        -24    2    4    4    0    0  0.27922387789E+03 -0.25987767645E+03  0.24522290921E+03  0.46035930454E+03  0.79334944229E+02 0.  0.
         24    2    4    4    0    0 -0.77907113604E+02  0.55734055424E+03  0.16933584181E+03  0.59260533922E+03  0.76213181341E+02 0.  0.
         11    1    3    3    0    0 -0.28128580555E+01  0.68139906752E+01 -0.10137093322E+02  0.12534085542E+02  0.00000000000E+00 0. -1.
        -11    1    3    3    0    0 -0.19850390623E+03 -0.30427686846E+03 -0.61997728198E+03  0.71858196724E+03  0.00000000000E+00 0.  1.
          2    1    6    6  502    0 -0.18812698558E+02  0.31325823005E+02  0.23908854599E+02  0.43667586860E+02  0.00000000000E+00 0. -1.
          3    1    5    5  503    0  0.67226783755E+02 -0.10760045154E+03  0.10084264705E+03  0.16206954399E+03  0.00000000000E+00 0. -1.
         -4    1    5    5    0  503  0.21199709413E+03 -0.15227722491E+03  0.14438026216E+03  0.29828976055E+03  0.00000000000E+00 0.  1.
         -1    1    6    6    0  502 -0.59094415046E+02  0.52601473123E+03  0.14542698721E+03  0.54893775236E+03  0.00000000000E+00 0.  1.
<mgrwt>
<rscale>  0 0.17710109E+04</rscale>
<asrwt>0</asrwt>
<pdfrwt beam="1">  1        1 0.12065577E+00 0.17710109E+04</pdfrwt>
<pdfrwt beam="2">  1       -1 0.15381818E+00 0.17710109E+04</pdfrwt>
<totfact> 0.70363132E+00</totfact>
</mgrwt>
</event>
<event>
12    1  0.1506149E-007  0.1506262E+04  0.7818608E-02  0.8880299E-01
          1   -1    0    0  501    0  0.00000000000E+00  0.00000000000E+00  0.14915884827E+04  0.14915884827E+04  0.00000000000E+00 0. -1.
         -1   -1    0    0    0  501 -0.00000000000E+00 -0.00000000000E+00 -0.38027000029E+03  0.38027000029E+03  0.00000000000E+00 0.  1.
         23    2    1    2    0    0  0.15700446769E+03  0.62453939586E+02  0.90258339260E+03  0.92282566065E+03  0.91648905656E+02 0.  0.
        254    2    1    2    0    0 -0.15700446769E+03 -0.62453939586E+02  0.20873508981E+03  0.94903282234E+03  0.91024285920E+03 0.  0.
        -24    2    4    4    0    0 -0.11797348927E+02 -0.37883964610E+03  0.38908376291E+03  0.54904332576E+03  0.80023397191E+02 0.  0.
         24    2    4    4    0    0 -0.14520711876E+03  0.31638570652E+03 -0.18034867310E+03  0.39998949659E+03  0.79252324027E+02 0.  0.
         11    1    3    3    0    0  0.15212338053E+03  0.28736274122E+02  0.66318186710E+03  0.68101210356E+03  0.00000000000E+00 0. -1.
        -11    1    3    3    0    0  0.48810871594E+01  0.33717665464E+02  0.23940152551E+03  0.24181355709E+03  0.00000000000E+00 0.  1.
          2    1    6    6  502    0 -0.10389978548E+03  0.17680855940E+03 -0.67807493035E+02  0.21599603749E+03  0.00000000000E+00 0. -1.
          3    1    5    5  503    0  0.25271530797E+02 -0.28546824442E+03  0.29792377423E+03  0.41338764385E+03  0.00000000000E+00 0. -1.
         -4    1    5    5    0  503 -0.37068879724E+02 -0.93371401684E+02  0.91159988682E+02  0.13565568190E+03  0.00000000000E+00 0.  1.
         -1    1    6    6    0  502 -0.41307333285E+02  0.13957714711E+03 -0.11254118006E+03  0.18399345910E+03  0.00000000000E+00 0.  1.
<mgrwt>
<rscale>  0 0.15062621E+04</rscale>
<asrwt>0</asrwt>
<pdfrwt beam="1">  1        1 0.22947515E+00 0.15062621E+04</pdfrwt>
<pdfrwt beam="2">  1       -1 0.58503078E-01 0.15062621E+04</pdfrwt>
<totfact> 0.18978975E+01</totfact>
</mgrwt>
</event>
<event>
12    1  0.1506149E-007  0.1658494E+04  0.7818608E-02  0.8785397E-01
          1   -1    0    0  501    0  0.00000000000E+00  0.00000000000E+00  0.52187461581E+03  0.52187461581E+03  0.00000000000E+00 0. -1.
         -1   -1    0    0    0  501 -0.00000000000E+00 -0.00000000000E+00 -0.13176553758E+04  0.13176553758E+04  0.00000000000E+00 0.  1.
         23    2    1    2    0    0  0.42831217684E+03 -0.22145024086E+03 -0.64081387728E+03  0.80795668926E+03  0.98285585943E+02 0.  0.
        254    2    1    2    0    0 -0.42831217684E+03  0.22145024086E+03 -0.15496688270E+03  0.10315733023E+04  0.89868638209E+03 0.  0.
        -24    2    4    4    0    0 -0.61863542688E+03  0.11225025495E+02 -0.31248183560E+03  0.69765901320E+03  0.79040549908E+02 0.  0.
         24    2    4    4    0    0  0.19032325004E+03  0.21022521537E+03  0.15751495290E+03  0.33391428914E+03  0.79184666568E+02 0.  0.
         11    1    3    3    0    0  0.30558782017E+03 -0.18605056796E+03 -0.52644204224E+03  0.63650605143E+03  0.00000000000E+00 0.  1.
        -11    1    3    3    0    0  0.12272435667E+03 -0.35399672898E+02 -0.11437183504E+03  0.17145063783E+03  0.00000000000E+00 0. -1.
          4    1    6    6  502    0  0.14391548267E+03  0.14178703949E+03  0.14850305072E+03  0.25073569110E+03  0.00000000000E+00 0. -1.
          1    1    5    5  503    0 -0.42340792206E+03 -0.22221886108E+02 -0.23668322411E+03  0.48557906592E+03  0.00000000000E+00 0. -1.
         -2    1    5    5    0  503 -0.19522750482E+03  0.33446911603E+02 -0.75798611496E+02  0.21207994728E+03  0.00000000000E+00 0.  1.
         -3    1    6    6    0  502  0.46407767371E+02  0.68438175881E+02  0.90119021811E+01  0.83178598036E+02  0.00000000000E+00 0.  1.
<mgrwt>
<rscale>  0 0.16584944E+04</rscale>
<asrwt>0</asrwt>
<pdfrwt beam="1">  1        1 0.80288402E-01 0.16584944E+04</pdfrwt>
<pdfrwt beam="2">  1       -1 0.20271621E+00 0.16584944E+04</pdfrwt>
<totfact> 0.57477345E+00</totfact>
</mgrwt>
</event>
<event>
12    1  0.1506149E-007  0.1236383E+04  0.7818608E-02  0.9081594E-01
         -1   -1    0    0    0  501 -0.00000000000E+00  0.00000000000E+00  0.56450709322E+03  0.56450709322E+03  0.00000000000E+00 0.  1.
          1   -1    0    0  501    0  0.00000000000E+00 -0.00000000000E+00 -0.67698078705E+03  0.67698078705E+03  0.00000000000E+00 0. -1.
         23    2    1    2    0    0  0.16683400663E+03  0.15085107183E+03 -0.18125743569E+03  0.29747443514E+03  0.71043296148E+02 0.  0.
        254    2    1    2    0    0 -0.16683400663E+03 -0.15085107183E+03  0.68783741863E+02  0.94401344513E+03  0.91424315683E+03 0.  0.
        -24    2    4    4    0    0 -0.81520833371E+02 -0.45398012318E+03  0.29016780892E+03  0.55090019833E+03  0.80932519241E+02 0.  0.
         24    2    4    4    0    0 -0.85313173259E+02  0.30312905136E+03 -0.22138406706E+03  0.39311324680E+03  0.79759390384E+02 0.  0.
         11    1    3    3    0    0  0.13028292739E+03  0.12541849774E+03 -0.17649251400E+03  0.25269160699E+03  0.00000000000E+00 0. -1.
        -11    1    3    3    0    0  0.36551079236E+02  0.25432574090E+02 -0.47649216897E+01  0.44782828147E+02  0.00000000000E+00 0.  1.
          4    1    6    6  502    0 -0.55356670783E+02  0.14798448541E+03 -0.65146583380E+02  0.17090303171E+03  0.00000000000E+00 0. -1.
          3    1    5    5  503    0  0.34250764039E+00 -0.18420218674E+03  0.89100774322E+02  0.20462040684E+03  0.00000000000E+00 0. -1.
         -4    1    5    5    0  503 -0.81863341011E+02 -0.26977793644E+03  0.20106703460E+03  0.34627979149E+03  0.00000000000E+00 0.  1.
         -3    1    6    6    0  502 -0.29956502476E+02  0.15514456594E+03 -0.15623748368E+03  0.22221021509E+03  0.00000000000E+00 0.  1.
<mgrwt>
<rscale>  0 0.12363826E+04</rscale>
<asrwt>0</asrwt>
<pdfrwt beam="1">  1        1 0.10415089E+00 0.12363826E+04</pdfrwt>
<pdfrwt beam="2">  1       -1 0.86847245E-01 0.12363826E+04</pdfrwt>
<totfact> 0.36979440E+01</totfact>
</mgrwt>
</event>
<event>
12    1  0.1506149E-007  0.1454648E+04  0.7818608E-02  0.8915185E-01
          2   -1    0    0  501    0  0.00000000000E+00  0.00000000000E+00  0.76030220400E+03  0.76030220400E+03  0.00000000000E+00 0.  1.
         -2   -1    0    0    0  501 -0.00000000000E+00 -0.00000000000E+00 -0.69577585659E+03  0.69577585659E+03  0.00000000000E+00 0. -1.
         23    2    1    2    0    0  0.42516602782E+03  0.91745754742E+02  0.90049687621E+02  0.45327424103E+03  0.90361256184E+02 0.  0.
        254    2    1    2    0    0 -0.42516602782E+03 -0.91745754742E+02 -0.25523340213E+02  0.10028038195E+04  0.90320574892E+03 0.  0.
        -24    2    4    4    0    0  0.22589068906E+03  0.15525041135E+03  0.74732816630E+02  0.29492064385E+03  0.79144795524E+02 0.  0.
         24    2    4    4    0    0 -0.65105671688E+03 -0.24699616610E+03 -0.10025615684E+03  0.70788317570E+03  0.78519671370E+02 0.  0.
         13    1    3    3    0    0  0.86723713059E+02 -0.17042404255E+02  0.25263287783E+02  0.91922139113E+02  0.00000000000E+00 0. -1.
        -13    1    3    3    0    0  0.33844231476E+03  0.10878815900E+03  0.64786399837E+02  0.36135210192E+03  0.00000000000E+00 0.  1.
          4    1    6    6  502    0 -0.63354734420E+03 -0.25042463350E+03 -0.89628000202E+02  0.68711564735E+03  0.00000000000E+00 0. -1.
          3    1    5    5  503    0  0.46662017274E+02  0.47861364407E+02 -0.13368295654E+02  0.68167187031E+02  0.00000000000E+00 0. -1.
         -4    1    5    5    0  503  0.17922867178E+03  0.10738904695E+03  0.88101112284E+02  0.22675345682E+03  0.00000000000E+00 0.  1.
         -3    1    6    6    0  502 -0.17509372677E+02  0.34284674013E+01 -0.10628156641E+02  0.20767528352E+02  0.00000000000E+00 0.  1.
<mgrwt>
<rscale>  0 0.14546476E+04</rscale>
<asrwt>0</asrwt>
<pdfrwt beam="1">  1        2 0.11696957E+00 0.14546476E+04</pdfrwt>
<pdfrwt beam="2">  1       -2 0.10704244E+00 0.14546476E+04</pdfrwt>
<totfact> 0.25066058E+01</totfact>
</mgrwt>
</event>
<event>
12    1  0.1506149E-007  0.2989072E+04  0.7818608E-02  0.8246858E-01
          3   -1    0    0  501    0  0.00000000000E+00  0.00000000000E+00  0.15001560979E+04  0.15001560979E+04  0.00000000000E+00 0. -1.
         -3   -1    0    0    0  501 -0.00000000000E+00 -0.00000000000E+00 -0.14889371799E+04  0.14889371799E+04  0.00000000000E+00 0.  1.
         23    2    1    2    0    0 -0.97290253537E+03 -0.89981392285E+03 -0.29446762838E+03  0.13605249639E+04  0.90069718388E+02 0.  0.
        254    2    1    2    0    0  0.97290253537E+03  0.89981392285E+03  0.30568654641E+03  0.16285683138E+04  0.89587166999E+03 0.  0.
        -24    2    4    4    0    0  0.29214857448E+03  0.75108505352E+03  0.42892912108E+03  0.91647798388E+03  0.80449716122E+02 0.  0.
         24    2    4    4    0    0  0.68075396089E+03  0.14872886933E+03 -0.12324257467E+03  0.71209032996E+03  0.79609509317E+02 0.  0.
         11    1    3    3    0    0 -0.94360872607E+03 -0.89071222564E+03 -0.28788675320E+03  0.13291517895E+04  0.00000000000E+00 0.  1.
        -11    1    3    3    0    0 -0.29293809299E+02 -0.91016972122E+01 -0.65808751736E+01  0.31373174424E+02  0.00000000000E+00 0. -1.
          4    1    6    6  502    0  0.20018221073E+03  0.95776325373E+01 -0.48835749688E+02  0.20627549293E+03  0.00000000000E+00 0. -1.
          3    1    5    5  503    0  0.18555565836E+03  0.49565946706E+03  0.23843147006E+03  0.58048150319E+03  0.00000000000E+00 0. -1.
         -4    1    5    5    0  503  0.10659291612E+03  0.25542558647E+03  0.19049765102E+03  0.33599648069E+03  0.00000000000E+00 0.  1.
         -3    1    6    6    0  502  0.48057175016E+03  0.13915123679E+03 -0.74406824984E+02  0.50581483703E+03  0.00000000000E+00 0.  1.
<mgrwt>
<rscale>  0 0.29890722E+04</rscale>
<asrwt>0</asrwt>
<pdfrwt beam="1">  1        3 0.23079325E+00 0.29890722E+04</pdfrwt>
<pdfrwt beam="2">  1       -3 0.22906726E+00 0.29890722E+04</pdfrwt>
<totfact> 0.20630190E-02</totfact>
</mgrwt>
</event>
<event>
12    1  0.1506149E-007  0.2780042E+04  0.7818608E-02  0.8309492E-01
         -2   -1    0    0    0  501 -0.00000000000E+00  0.00000000000E+00  0.11188032868E+04  0.11188032868E+04  0.00000000000E+00 0.  1.
          2   -1    0    0  501    0  0.00000000000E+00 -0.00000000000E+00 -0.17269860865E+04  0.17269860865E+04  0.00000000000E+00 0. -1.
         23    2    1    2    0    0  0.91214542934E+03 -0.32243728178E+03 -0.10728903809E+04  0.14472035887E+04  0.85611755561E+02 0.  0.
        254    2    1    2    0    0 -0.91214542934E+03  0.32243728178E+03  0.46470758130E+03  0.13985857846E+04  0.89672402434E+03 0.  0.
        -24    2    4    4    0    0 -0.48777567582E+03 -0.26275981334E+03  0.51288911737E+02  0.56200465132E+03  0.79062293201E+02 0.  0.
         24    2    4    4    0    0 -0.42436975352E+03  0.58519709512E+03  0.41341866956E+03  0.83658113328E+03  0.80047913023E+02 0.  0.
         13    1    3    3    0    0  0.57506988125E+03 -0.22261260340E+03 -0.62739281268E+03  0.87970647429E+03  0.00000000000E+00 0. -1.
        -13    1    3    3    0    0  0.33707554809E+03 -0.99824678375E+02 -0.44549756827E+03  0.56749711441E+03  0.00000000000E+00 0.  1.
          4    1    6    6  502    0 -0.40407278431E+01  0.32610153944E+02  0.22280889265E+02  0.39701229807E+02  0.00000000000E+00 0. -1.
          1    1    5    5  503    0 -0.28898302020E+01 -0.27457767151E+01  0.94007861165E+01  0.10211032659E+02  0.00000000000E+00 0. -1.
         -2    1    5    5    0  503 -0.48488584562E+03 -0.26001403663E+03  0.41888125621E+02  0.55179361866E+03  0.00000000000E+00 0.  1.
         -3    1    6    6    0  502 -0.42032902567E+03  0.55258694118E+03  0.39113778030E+03  0.79687990347E+03  0.00000000000E+00 0.  1.
<mgrwt>
<rscale>  0 0.27800415E+04</rscale>
<asrwt>0</asrwt>
<pdfrwt beam="1">  1        2 0.26569017E+00 0.27800415E+04</pdfrwt>
<pdfrwt beam="2">  1       -2 0.17212358E+00 0.27800415E+04</pdfrwt>
<totfact> 0.17001052E+00</totfact>
</mgrwt>
</event>
<event>
12    1  0.1506149E-007  0.1265980E+04  0.7818608E-02  0.9056987E-01
         -2   -1    0    0    0  501 -0.00000000000E+00  0.00000000000E+00  0.27127967113E+03  0.27127967113E+03  0.00000000000E+00 0.  1.
          2   -1    0    0  501    0  0.00000000000E+00 -0.00000000000E+00 -0.14769851849E+04  0.14769851849E+04  0.00000000000E+00 0. -1.
         23    2    1    2    0    0 -0.93851324424E+01  0.20446731168E+03 -0.59508079057E+03  0.63603686250E+03  0.92340570155E+02 0.  0.
        254    2    1    2    0    0  0.93851324424E+01 -0.20446731168E+03 -0.61062472318E+03  0.11122279935E+04  0.90680405531E+03 0.  0.
        -24    2    4    4    0    0 -0.42749784171E+02 -0.54522006437E+03 -0.48731678704E+03  0.73687801634E+03  0.80119269803E+02 0.  0.
         24    2    4    4    0    0  0.52134916613E+02  0.34075275269E+03 -0.12330793614E+03  0.37534997717E+03  0.82778440718E+02 0.  0.
         11    1    3    3    0    0  0.23403593813E+02  0.70908360456E+01 -0.66904767697E+02  0.71233812896E+02  0.00000000000E+00 0.  1.
        -11    1    3    3    0    0 -0.32788726255E+02  0.19737647563E+03 -0.52817602287E+03  0.56480304960E+03  0.00000000000E+00 0. -1.
          4    1    6    6  502    0  0.18233190000E+01  0.25492177582E+03 -0.84681007850E+02  0.26862484876E+03  0.00000000000E+00 0. -1.
          3    1    5    5  503    0 -0.59718854633E+02 -0.43087999829E+03 -0.41034953164E+03  0.59800556239E+03  0.00000000000E+00 0. -1.
         -4    1    5    5    0  503  0.16969070462E+02 -0.11434006608E+03 -0.76967255400E+02  0.13887245395E+03  0.00000000000E+00 0.  1.
         -1    1    6    6    0  502  0.50311597613E+02  0.85830976871E+02 -0.38626928291E+02  0.10672512841E+03  0.00000000000E+00 0.  1.
<mgrwt>
<rscale>  0 0.12659795E+04</rscale>
<asrwt>0</asrwt>
<pdfrwt beam="1">  1        2 0.22722849E+00 0.12659795E+04</pdfrwt>
<pdfrwt beam="2">  1       -2 0.41735335E-01 0.12659795E+04</pdfrwt>
<totfact> 0.69877025E+01</totfact>
</mgrwt>
</event>
<event>
12    1  0.1506149E-007  0.1860550E+04  0.7818608E-02  0.8674746E-01
          2   -1    0    0  501    0  0.00000000000E+00  0.00000000000E+00  0.82099250191E+03  0.82099250191E+03  0.00000000000E+00 0. -1.
         -2   -1    0    0    0  501 -0.00000000000E+00 -0.00000000000E+00 -0.10541036205E+04  0.10541036205E+04  0.00000000000E+00 0.  1.
         23    2    1    2    0    0  0.25567887563E+03  0.57353499528E+03 -0.40923395814E+03  0.75522502864E+03  0.92619291375E+02 0.  0.
        254    2    1    2    0    0 -0.25567887563E+03 -0.57353499528E+03  0.17612283956E+03  0.11198710938E+04  0.91037241489E+03 0.  0.
        -24    2    4    4    0    0 -0.22611754436E+03  0.16504518386E+03 -0.12621715953E+03  0.31696171315E+03  0.78516875013E+02 0.  0.
         24    2    4    4    0    0 -0.29561331273E+02 -0.73858017914E+03  0.30233999909E+03  0.80290938062E+03  0.82942420455E+02 0.  0.
         11    1    3    3    0    0  0.14293818738E+03  0.26850123496E+03 -0.24683310704E+03  0.39172799404E+03  0.00000000000E+00 0. -1.
        -11    1    3    3    0    0  0.11274068826E+03  0.30503376032E+03 -0.16240085110E+03  0.36349703460E+03  0.00000000000E+00 0.  1.
          2    1    6    6  502    0 -0.50465782424E+02 -0.63937361326E+03  0.24599968405E+03  0.68692158000E+03  0.00000000000E+00 0. -1.
          1    1    5    5  503    0 -0.18578676043E+03  0.92919987042E+02 -0.82874683752E+02  0.22364940766E+03  0.00000000000E+00 0. -1.
         -2    1    5    5    0  503 -0.40330783930E+02  0.72125196815E+02 -0.43342475782E+02  0.93312305485E+02  0.00000000000E+00 0.  1.
         -1    1    6    6    0  502  0.20904451151E+02 -0.99206565883E+02  0.56340315041E+02  0.11598780061E+03  0.00000000000E+00 0.  1.
<mgrwt>
<rscale>  0 0.18605496E+04</rscale>
<asrwt>0</asrwt>
<pdfrwt beam="1">  1        2 0.12630654E+00 0.18605496E+04</pdfrwt>
<pdfrwt beam="2">  1       -2 0.16216979E+00 0.18605496E+04</pdfrwt>
<totfact> 0.75859866E+00</totfact>
</mgrwt>
</event>
<event>
12    1  0.1506149E-007  0.2043139E+04  0.7818608E-02  0.8586713E-01
         -1   -1    0    0    0  501 -0.00000000000E+00  0.00000000000E+00  0.96513207665E+03  0.96513207665E+03  0.00000000000E+00 0.  1.
          1   -1    0    0  501    0  0.00000000000E+00 -0.00000000000E+00 -0.10813067155E+04  0.10813067155E+04  0.00000000000E+00 0. -1.
         23    2    1    2    0    0 -0.36426921884E+03 -0.65480773438E+03  0.29646028420E+03  0.81097405190E+03  0.91241328090E+02 0.  0.
        254    2    1    2    0    0  0.36426921884E+03  0.65480773438E+03 -0.41263492306E+03  0.12354647402E+04  0.89142599910E+03 0.  0.
        -24    2    4    4    0    0  0.45018621021E+03  0.26546997410E+03 -0.58929098563E+03  0.79184783563E+03  0.81346161749E+02 0.  0.
         24    2    4    4    0    0 -0.85916991371E+02  0.38933776028E+03  0.17665606257E+03  0.44361690462E+03  0.81381648023E+02 0.  0.
         11    1    3    3    0    0 -0.36171709749E+03 -0.65632285310E+03  0.28943974840E+03  0.80335192417E+03  0.00000000000E+00 0.  1.
        -11    1    3    3    0    0 -0.25521213497E+01  0.15151187216E+01  0.70205358063E+01  0.76221277300E+01  0.00000000000E+00 0. -1.
          4    1    6    6  502    0 -0.32582404788E+02  0.27975399084E+03  0.96374937677E+02  0.29767774036E+03  0.00000000000E+00 0. -1.
          3    1    5    5  503    0  0.11652167130E+03  0.29409519955E+02 -0.13093316238E+03  0.17772369779E+03  0.00000000000E+00 0. -1.
         -4    1    5    5    0  503  0.33366453892E+03  0.23606045414E+03 -0.45835782325E+03  0.61412413784E+03  0.00000000000E+00 0.  1.
         -3    1    6    6    0  502 -0.53334586584E+02  0.10958376944E+03  0.80281124897E+02  0.14593916426E+03  0.00000000000E+00 0.  1.
<mgrwt>
<rscale>  0 0.20431386E+04</rscale>
<asrwt>0</asrwt>
<pdfrwt beam="1">  1        1 0.16635488E+00 0.20431386E+04</pdfrwt>
<pdfrwt beam="2">  1       -1 0.14848186E+00 0.20431386E+04</pdfrwt>
<totfact> 0.43413843E+00</totfact>
</mgrwt>
</event>
<event>
12    1  0.1506149E-007  0.2566342E+04  0.7818608E-02  0.8379725E-01
         -1   -1    0    0    0  501 -0.00000000000E+00  0.00000000000E+00  0.18119346911E+04  0.18119346911E+04  0.00000000000E+00 0.  1.
          1   -1    0    0  501    0  0.00000000000E+00 -0.00000000000E+00 -0.90871226596E+03  0.90871226596E+03  0.00000000000E+00 0. -1.
         23    2    1    2    0    0 -0.67495959727E+03 -0.80049285816E+03  0.82467317132E+03  0.13360485221E+04  0.92631204550E+02 0.  0.
        254    2    1    2    0    0  0.67495959727E+03  0.80049285816E+03  0.78549253785E+02  0.13845984349E+04  0.90254283376E+03 0.  0.
        -24    2    4    4    0    0  0.24263307011E+03  0.60665753542E+03  0.43256554585E+03  0.78753240684E+03  0.78677623108E+02 0.  0.
         24    2    4    4    0    0  0.43232652716E+03  0.19383532274E+03 -0.35401629206E+03  0.59706602807E+03  0.81743185666E+02 0.  0.
         11    1    3    3    0    0 -0.57687106781E+03 -0.66980457362E+03  0.65277614856E+03  0.10988790178E+04  0.00000000000E+00 0.  1.
        -11    1    3    3    0    0 -0.98088529461E+02 -0.13068828453E+03  0.17189702276E+03  0.23716950428E+03  0.00000000000E+00 0. -1.
          2    1    6    6  502    0  0.93547534887E+02  0.50887701662E+02 -0.12353346062E+03  0.16309879017E+03  0.00000000000E+00 0. -1.
          3    1    5    5  503    0 -0.81778832571E+00  0.88389431522E+01 -0.23670647474E+01  0.91868759278E+01  0.00000000000E+00 0. -1.
         -4    1    5    5    0  503  0.24345085843E+03  0.59781859227E+03  0.43493261059E+03  0.77834553091E+03  0.00000000000E+00 0.  1.
         -1    1    6    6    0  502  0.33877899227E+03  0.14294762108E+03 -0.23048283144E+03  0.43396723790E+03  0.00000000000E+00 0.  1.
<mgrwt>
<rscale>  0 0.25663416E+04</rscale>
<asrwt>0</asrwt>
<pdfrwt beam="1">  1        1 0.13980189E+00 0.25663416E+04</pdfrwt>
<pdfrwt beam="2">  1       -1 0.27875918E+00 0.25663416E+04</pdfrwt>
<totfact> 0.71683766E-01</totfact>
</mgrwt>
</event>
<event>
12    1  0.1506149E-007  0.1317898E+04  0.7818608E-02  0.9015491E-01
          1   -1    0    0  501    0  0.00000000000E+00  0.00000000000E+00  0.13921849464E+04  0.13921849464E+04  0.00000000000E+00 0. -1.
         -1   -1    0    0    0  501 -0.00000000000E+00 -0.00000000000E+00 -0.31189356904E+03  0.31189356904E+03  0.00000000000E+00 0.  1.
         23    2    1    2    0    0 -0.24634914625E+03  0.22353464512E+03  0.37924546867E+03  0.51295298448E+03  0.92940837906E+02 0.  0.
        254    2    1    2    0    0  0.24634914625E+03 -0.22353464512E+03  0.70104590867E+03  0.11911255310E+04  0.90369188609E+03 0.  0.
        -24    2    4    4    0    0  0.37458228248E+03 -0.45359313092E+03  0.21287749508E+03  0.63096795538E+03  0.82128667559E+02 0.  0.
         24    2    4    4    0    0 -0.12823313622E+03  0.23005848580E+03  0.48816841359E+03  0.56015757557E+03  0.78086268491E+02 0.  0.
         11    1    3    3    0    0 -0.19249533152E+03  0.21058690662E+03  0.34557575825E+03  0.44813379987E+03  0.00000000000E+00 0.  1.
        -11    1    3    3    0    0 -0.53853814732E+02  0.12947738497E+02  0.33669710426E+02  0.64819184610E+02  0.00000000000E+00 0. -1.
          4    1    6    6  502    0 -0.25165534996E+02  0.12297144559E+03  0.20569448819E+03  0.24096784652E+03  0.00000000000E+00 0. -1.
          3    1    5    5  503    0  0.17581456945E+03 -0.15690708171E+03  0.10440533142E+03  0.25774225177E+03  0.00000000000E+00 0. -1.
         -4    1    5    5    0  503  0.19876771303E+03 -0.29668604922E+03  0.10847216367E+03  0.37322570361E+03  0.00000000000E+00 0.  1.
         -3    1    6    6    0  502 -0.10306760123E+03  0.10708704021E+03  0.28247392540E+03  0.31918972906E+03  0.00000000000E+00 0.  1.
<mgrwt>
<rscale>  0 0.13178976E+04</rscale>
<asrwt>0</asrwt>
<pdfrwt beam="1">  1        1 0.21418230E+00 0.13178976E+04</pdfrwt>
<pdfrwt beam="2">  1       -1 0.47983627E-01 0.13178976E+04</pdfrwt>
<totfact> 0.33130165E+01</totfact>
</mgrwt>
</event>
<event>
12    1  0.1506149E-007  0.1312474E+04  0.7818608E-02  0.9019731E-01
         -2   -1    0    0    0  501 -0.00000000000E+00  0.00000000000E+00  0.16599911337E+03  0.16599911337E+03  0.00000000000E+00 0.  1.
          2   -1    0    0  501    0  0.00000000000E+00 -0.00000000000E+00 -0.25942732697E+04  0.25942732697E+04  0.00000000000E+00 0. -1.
         23    2    1    2    0    0 -0.10628582516E+03 -0.16367433744E+03 -0.66764276949E+02  0.22474208906E+03  0.89250056305E+02 0.  0.
        254    2    1    2    0    0  0.10628582516E+03  0.16367433744E+03 -0.23615098794E+04  0.25355302940E+04  0.90227434635E+03 0.  0.
        -24    2    4    4    0    0  0.47634521197E+03  0.23364457181E+03 -0.14491055474E+04  0.15451820346E+04  0.78651672640E+02 0.  0.
         24    2    4    4    0    0 -0.37005938680E+03 -0.69970234371E+02 -0.91240433199E+03  0.99034825943E+03  0.80425284990E+02 0.  0.
         13    1    3    3    0    0 -0.11455519009E+03 -0.12570038862E+03 -0.73547094118E+02  0.18529072921E+03  0.00000000000E+00 0.  1.
        -13    1    3    3    0    0  0.82693649315E+01 -0.37973948820E+02  0.67828171690E+01  0.39451359851E+02  0.00000000000E+00 0. -1.
          4    1    6    6  502    0 -0.11014189027E+03  0.15390454683E+02 -0.28233483840E+03  0.30344861684E+03  0.00000000000E+00 0. -1.
          3    1    5    5  503    0  0.71728598438E+02  0.75056923892E+01 -0.16924433685E+03  0.18397003236E+03  0.00000000000E+00 0. -1.
         -4    1    5    5    0  503  0.40461661353E+03  0.22613887942E+03 -0.12798612106E+04  0.13612120022E+04  0.00000000000E+00 0.  1.
         -3    1    6    6    0  502 -0.25991749653E+03 -0.85360689054E+02 -0.63006949358E+03  0.68689964259E+03  0.00000000000E+00 0.  1.
<mgrwt>
<rscale>  0 0.13124741E+04</rscale>
<asrwt>0</asrwt>
<pdfrwt beam="1">  1        2 0.39911896E+00 0.13124741E+04</pdfrwt>
<pdfrwt beam="2">  1       -2 0.25538326E-01 0.13124741E+04</pdfrwt>
<totfact> 0.41685801E+01</totfact>
</mgrwt>
</event>
<event>
12    1  0.1506149E-007  0.1552988E+04  0.7818608E-02  0.8849961E-01
          1   -1    0    0  501    0  0.00000000000E+00  0.00000000000E+00  0.88382378743E+03  0.88382378743E+03  0.00000000000E+00 0. -1.
         -1   -1    0    0    0  501 -0.00000000000E+00 -0.00000000000E+00 -0.68219833577E+03  0.68219833577E+03  0.00000000000E+00 0.  1.
         23    2    1    2    0    0 -0.50674765111E+03 -0.13542420476E+03  0.13182543034E+03  0.54908832398E+03  0.94800560692E+02 0.  0.
        254    2    1    2    0    0  0.50674765111E+03  0.13542420476E+03  0.69800021319E+02  0.10169337992E+04  0.86841776345E+03 0.  0.
        -24    2    4    4    0    0  0.27808425265E+03  0.29976514052E+03 -0.32280514527E+03  0.52721504734E+03  0.81009587622E+02 0.  0.
         24    2    4    4    0    0  0.22866339846E+03 -0.16434093576E+03  0.39260516659E+03  0.48971875188E+03  0.79942142544E+02 0.  0.
         11    1    3    3    0    0 -0.14855579553E+03 -0.33992356503E+02 -0.49644073494E+01  0.15247606378E+03  0.00000000000E+00 0. -1.
        -11    1    3    3    0    0 -0.35819185558E+03 -0.10143184826E+03  0.13678983769E+03  0.39661226020E+03  0.00000000000E+00 0.  1.
          2    1    6    6  502    0  0.43176928714E+02  0.12945476062E+01  0.45642127720E+02  0.62842078654E+02  0.00000000000E+00 0. -1.
          3    1    5    5  503    0  0.16481865703E+03  0.11813431252E+03 -0.15718202223E+03  0.25656791228E+03  0.00000000000E+00 0. -1.
         -4    1    5    5    0  503  0.11326559563E+03  0.18163082800E+03 -0.16562312304E+03  0.27064713506E+03  0.00000000000E+00 0.  1.
         -1    1    6    6    0  502  0.18548646974E+03 -0.16563548336E+03  0.34696303887E+03  0.42687667323E+03  0.00000000000E+00 0.  1.
<mgrwt>
<rscale>  0 0.15529882E+04</rscale>
<asrwt>0</asrwt>
<pdfrwt beam="1">  1        1 0.13597289E+00 0.15529882E+04</pdfrwt>
<pdfrwt beam="2">  1       -1 0.10495359E+00 0.15529882E+04</pdfrwt>
<totfact> 0.15408230E+01</totfact>
</mgrwt>
</event>
<event>
12    1  0.1506149E-007  0.2686109E+04  0.7818608E-02  0.8339526E-01
          1   -1    0    0  501    0  0.00000000000E+00  0.00000000000E+00  0.20942021546E+04  0.20942021546E+04  0.00000000000E+00 0. -1.
         -1   -1    0    0    0  501 -0.00000000000E+00 -0.00000000000E+00 -0.86132806486E+03  0.86132806486E+03  0.00000000000E+00 0.  1.
         23    2    1    2    0    0  0.56416949232E+03  0.10408802674E+04  0.63521851181E+03  0.13465123480E+04  0.88735554412E+02 0.  0.
        254    2    1    2    0    0 -0.56416949232E+03 -0.10408802674E+04  0.59765557790E+03  0.16090178714E+04  0.91105838095E+03 0.  0.
        -24    2    4    4    0    0 -0.47305222363E+03 -0.31543400658E+03 -0.11414298904E+03  0.58563369761E+03  0.81616095504E+02 0.  0.
         24    2    4    4    0    0 -0.91117268692E+02 -0.72544626081E+03  0.71179856693E+03  0.10233841738E+04  0.77995725765E+02 0.  0.
         11    1    3    3    0    0  0.48682532930E+03  0.93384523075E+03  0.53840592004E+03  0.11827707939E+04  0.00000000000E+00 0.  1.
        -11    1    3    3    0    0  0.77344163020E+02  0.10703503663E+03  0.96812591771E+02  0.16374155412E+03  0.00000000000E+00 0. -1.
          2    1    6    6  502    0 -0.75752238624E+02 -0.38554016470E+03  0.42012901584E+03  0.57522865906E+03  0.00000000000E+00 0. -1.
          1    1    5    5  503    0 -0.26806883215E+03 -0.17809027063E+03 -0.10570191293E+03  0.33874760171E+03  0.00000000000E+00 0. -1.
         -4    1    5    5    0  503 -0.20498339147E+03 -0.13734373594E+03 -0.84410761069E+01  0.24688609590E+03  0.00000000000E+00 0.  1.
         -1    1    6    6    0  502 -0.15365030068E+02 -0.33990609610E+03  0.29166955110E+03  0.44815551470E+03  0.00000000000E+00 0.  1.
<mgrwt>
<rscale>  0 0.26861088E+04</rscale>
<asrwt>0</asrwt>
<pdfrwt beam="1">  1        1 0.32218494E+00 0.26861088E+04</pdfrwt>
<pdfrwt beam="2">  1       -1 0.13251201E+00 0.26861088E+04</pdfrwt>
<totfact> 0.10858446E+00</totfact>
</mgrwt>
</event>
<event>
12    1  0.1506149E-007  0.1581253E+04  0.7818608E-02  0.8832148E-01
         -2   -1    0    0    0  501 -0.00000000000E+00  0.00000000000E+00  0.81160793688E+03  0.81160793688E+03  0.00000000000E+00 0.  1.
          2   -1    0    0  501    0  0.00000000000E+00 -0.00000000000E+00 -0.77018752097E+03  0.77018752097E+03  0.00000000000E+00 0. -1.
         23    2    1    2    0    0 -0.19703672414E+03  0.29451983328E+03  0.35481837867E+03  0.50971216702E+03  0.91351018142E+02 0.  0.
        254    2    1    2    0    0  0.19703672414E+03 -0.29451983328E+03 -0.31339796277E+03  0.10720832908E+04  0.96207011000E+03 0.  0.
        -24    2    4    4    0    0  0.35131523292E+03 -0.43662430120E+03 -0.51825015666E+03  0.76744431214E+03  0.79525933425E+02 0.  0.
         24    2    4    4    0    0 -0.15427850878E+03  0.14210446793E+03  0.20485219389E+03  0.30463897869E+03  0.82734200407E+02 0.  0.
         13    1    3    3    0    0 -0.27891530293E+02  0.71105509359E+02  0.33602343873E+02  0.83444882629E+02  0.00000000000E+00 0.  1.
        -13    1    3    3    0    0 -0.16914519384E+03  0.22341432392E+03  0.32121603480E+03  0.42626728439E+03  0.00000000000E+00 0. -1.
          4    1    6    6  502    0 -0.11974807646E+03  0.68904550124E+02  0.92869084848E+02  0.16646953404E+03  0.00000000000E+00 0. -1.
          3    1    5    5  503    0  0.29168967749E+03 -0.38570351927E+03 -0.47523377263E+03  0.67800974283E+03  0.00000000000E+00 0. -1.
         -4    1    5    5    0  503  0.59625555428E+02 -0.50920781937E+02 -0.43016384025E+02  0.89434569310E+02  0.00000000000E+00 0.  1.
         -3    1    6    6    0  502 -0.34530432321E+02  0.73199917801E+02  0.11198310904E+03  0.13816944464E+03  0.00000000000E+00 0.  1.
<mgrwt>
<rscale>  0 0.15812531E+04</rscale>
<asrwt>0</asrwt>
<pdfrwt beam="1">  1        2 0.11849039E+00 0.15812531E+04</pdfrwt>
<pdfrwt beam="2">  1       -2 0.12486276E+00 0.15812531E+04</pdfrwt>
<totfact> 0.16721595E+01</totfact>
</mgrwt>
</event>
<event>
12    1  0.1506149E-007  0.1542398E+04  0.7818608E-02  0.8856738E-01
          2   -1    0    0  501    0  0.00000000000E+00  0.00000000000E+00  0.20594195937E+04  0.20594195937E+04  0.00000000000E+00 0. -1.
         -2   -1    0    0    0  501 -0.00000000000E+00 -0.00000000000E+00 -0.28879383039E+03  0.28879383039E+03  0.00000000000E+00 0.  1.
         23    2    1    2    0    0  0.41020691610E+03 -0.12161262388E+03  0.16282536791E+03  0.46706532122E+03  0.92620567655E+02 0.  0.
        254    2    1    2    0    0 -0.41020691610E+03  0.12161262388E+03  0.16078003954E+04  0.18811481029E+04  0.87785917390E+03 0.  0.
        -24    2    4    4    0    0 -0.38667802679E+03  0.33923759656E+03  0.15579546060E+04  0.16427726150E+04  0.82929288171E+02 0.  0.
         24    2    4    4    0    0 -0.23528889304E+02 -0.21762497267E+03  0.49845789422E+02  0.23837548792E+03  0.80150066457E+02 0.  0.
         11    1    3    3    0    0  0.10339225848E+02 -0.16885298358E+02  0.23796900804E+02  0.30956507872E+02  0.00000000000E+00 0. -1.
        -11    1    3    3    0    0  0.39986769025E+03 -0.10472732553E+03  0.13902846710E+03  0.43610881335E+03  0.00000000000E+00 0.  1.
          4    1    6    6  502    0  0.92238868776E+00 -0.68072891024E+02 -0.20791190438E+02  0.71183164394E+02  0.00000000000E+00 0. -1.
          1    1    5    5  503    0 -0.25800195344E+03  0.25810976742E+03  0.10023121593E+04  0.10666842667E+04  0.00000000000E+00 0. -1.
         -2    1    5    5    0  503 -0.12867607336E+03  0.81127829132E+02  0.55564244668E+03  0.57608834832E+03  0.00000000000E+00 0.  1.
         -3    1    6    6    0  502 -0.24451277992E+02 -0.14955208165E+03  0.70636979860E+02  0.16719232352E+03  0.00000000000E+00 0.  1.
<mgrwt>
<rscale>  0 0.15423977E+04</rscale>
<asrwt>0</asrwt>
<pdfrwt beam="1">  1        2 0.31683377E+00 0.15423977E+04</pdfrwt>
<pdfrwt beam="2">  1       -2 0.44429821E-01 0.15423977E+04</pdfrwt>
<totfact> 0.28657759E+01</totfact>
</mgrwt>
</event>
<event>
12    1  0.1506149E-007  0.2496818E+04  0.7818608E-02  0.8404120E-01
         -2   -1    0    0    0  501 -0.00000000000E+00  0.00000000000E+00  0.74148195572E+03  0.74148195572E+03  0.00000000000E+00 0. -1.
          2   -1    0    0  501    0  0.00000000000E+00 -0.00000000000E+00 -0.21019047237E+04  0.21019047237E+04  0.00000000000E+00 0.  1.
         23    2    1    2    0    0 -0.69402945574E+03 -0.21624781406E+03 -0.15053485950E+04  0.16741771854E+04  0.91404885419E+02 0.  0.
        254    2    1    2    0    0  0.69402945574E+03  0.21624781406E+03  0.14492582701E+03  0.11692094940E+04  0.90421642491E+03 0.  0.
        -24    2    4    4    0    0  0.64310895609E+03 -0.23775579813E+03  0.14194931963E+03  0.70503070401E+03  0.82472633711E+02 0.  0.
         24    2    4    4    0    0  0.50920499654E+02  0.45400361218E+03  0.29765073789E+01  0.46417879002E+03  0.82103059328E+02 0.  0.
         13    1    3    3    0    0 -0.30110929397E+03 -0.53211484110E+02 -0.57746167985E+03  0.65342196218E+03  0.00000000000E+00 0.  1.
        -13    1    3    3    0    0 -0.39292016177E+03 -0.16303632995E+03 -0.92788691511E+03  0.10207552232E+04  0.00000000000E+00 0. -1.
          2    1    6    6  502    0  0.31458759882E+02  0.23975849681E+03 -0.39159796565E+02  0.24496383413E+03  0.00000000000E+00 0. -1.
          1    1    5    5  503    0  0.44990759918E+03 -0.18677811063E+03  0.13322569240E+03  0.50502672754E+03  0.00000000000E+00 0. -1.
         -2    1    5    5    0  503  0.19320135691E+03 -0.50977687492E+02  0.87236272323E+01  0.20000397647E+03  0.00000000000E+00 0.  1.
         -1    1    6    6    0  502  0.19461739772E+02  0.21424511537E+03  0.42136303944E+02  0.21921495589E+03  0.00000000000E+00 0.  1.
<mgrwt>
<rscale>  0 0.24968175E+04</rscale>
<asrwt>0</asrwt>
<pdfrwt beam="1">  1        2 0.32336996E+00 0.24968175E+04</pdfrwt>
<pdfrwt beam="2">  1       -2 0.11407415E+00 0.24968175E+04</pdfrwt>
<totfact> 0.31445954E+00</totfact>
</mgrwt>
</event>
<event>
12    1  0.1506149E-007  0.1278744E+04  0.7818608E-02  0.9046593E-01
         -2   -1    0    0    0  501 -0.00000000000E+00  0.00000000000E+00  0.34672444290E+03  0.34672444290E+03  0.00000000000E+00 0.  1.
          2   -1    0    0  501    0  0.00000000000E+00 -0.00000000000E+00 -0.11790247017E+04  0.11790247017E+04  0.00000000000E+00 0. -1.
         23    2    1    2    0    0  0.28913883063E+03 -0.74728462990E+02 -0.37011689599E+03  0.48611149077E+03  0.10065911881E+03 0.  0.
        254    2    1    2    0    0 -0.28913883063E+03  0.74728462990E+02 -0.46218336278E+03  0.10396376538E+04  0.88206994270E+03 0.  0.
        -24    2    4    4    0    0 -0.16501127470E+03 -0.32690551839E+03 -0.48298191105E+03  0.61121573882E+03  0.78849313527E+02 0.  0.
         24    2    4    4    0    0 -0.12412755593E+03  0.40163398138E+03  0.20798548268E+02  0.42842191499E+03  0.79970322595E+02 0.  0.
         13    1    3    3    0    0  0.27880100308E+03 -0.69791620466E+02 -0.37597690113E+03  0.47324359456E+03  0.00000000000E+00 0. -1.
        -13    1    3    3    0    0  0.10337827550E+02 -0.49368425235E+01  0.58600051426E+01  0.12867896208E+02  0.00000000000E+00 0.  1.
          2    1    6    6  502    0 -0.40974335352E+02  0.25749757135E+03  0.10098353777E+00  0.26073723479E+03  0.00000000000E+00 0. -1.
          1    1    5    5  503    0 -0.17106947162E+03 -0.30265058729E+03 -0.43268384171E+03  0.55504724933E+03  0.00000000000E+00 0. -1.
         -2    1    5    5    0  503  0.60581969141E+01 -0.24254931099E+02 -0.50298069339E+02  0.56168489491E+02  0.00000000000E+00 0.  1.
         -1    1    6    6    0  502 -0.83153220577E+02  0.14413641003E+03  0.20697564731E+02  0.16768468020E+03  0.00000000000E+00 0.  1.
<mgrwt>
<rscale>  0 0.12787442E+04</rscale>
<asrwt>0</asrwt>
<pdfrwt beam="1">  1        2 0.18138841E+00 0.12787442E+04</pdfrwt>
<pdfrwt beam="2">  1       -2 0.53342223E-01 0.12787442E+04</pdfrwt>
<totfact> 0.63396064E+01</totfact>
</mgrwt>
</event>
<event>
12    1  0.1506149E-007  0.3745204E+04  0.7818608E-02  0.8058017E-01
          2   -1    0    0  501    0  0.00000000000E+00  0.00000000000E+00  0.17570311515E+04  0.17570311515E+04  0.00000000000E+00 0. -1.
         -2   -1    0    0    0  501 -0.00000000000E+00 -0.00000000000E+00 -0.19957750974E+04  0.19957750974E+04  0.00000000000E+00 0.  1.
         23    2    1    2    0    0 -0.78782850764E+03 -0.85480310507E+02 -0.16892231169E+04  0.18679012609E+04  0.87176492498E+02 0.  0.
        254    2    1    2    0    0  0.78782850764E+03  0.85480310507E+02  0.14504791710E+04  0.18849049880E+04  0.90608848763E+03 0.  0.
        -24    2    4    4    0    0  0.70071573206E+03  0.19108912349E+03  0.15394541695E+04  0.17036172407E+04  0.69821003284E+02 0.  0.
         24    2    4    4    0    0  0.87112775578E+02 -0.10560881299E+03 -0.88974998425E+02  0.18128774739E+03  0.78783500566E+02 0.  0.
         13    1    3    3    0    0 -0.61043000282E+02 -0.30716646254E+02 -0.13894944403E+03  0.15484414176E+03  0.00000000000E+00 0. -1.
        -13    1    3    3    0    0 -0.72678550735E+03 -0.54763664253E+02 -0.15502736728E+04  0.17130571191E+04  0.00000000000E+00 0.  1.
          4    1    6    6  502    0  0.45790943152E+02 -0.29158263089E+01 -0.15516255406E+02  0.48436212689E+02  0.00000000000E+00 0. -1.
          3    1    5    5  503    0  0.10553783054E+03  0.44438347983E+01  0.20721880390E+03  0.23258893789E+03  0.00000000000E+00 0. -1.
         -4    1    5    5    0  503  0.59517790152E+03  0.18664528869E+03  0.13322353656E+04  0.14710283028E+04  0.00000000000E+00 0.  1.
         -3    1    6    6    0  502  0.41321832426E+02 -0.10269298668E+03 -0.73458743019E+02  0.13285153471E+03  0.00000000000E+00 0.  1.
<mgrwt>
<rscale>  0 0.37452044E+04</rscale>
<asrwt>0</asrwt>
<pdfrwt beam="1">  1        2 0.27031249E+00 0.37452044E+04</pdfrwt>
<pdfrwt beam="2">  1       -2 0.30704232E+00 0.37452044E+04</pdfrwt>
<totfact> 0.21125942E-01</totfact>
</mgrwt>
</event>
<event>
12    1  0.1506149E-007  0.2514183E+04  0.7818608E-02  0.8397950E-01
          2   -1    0    0  501    0  0.00000000000E+00  0.00000000000E+00  0.16930996354E+04  0.16930996354E+04  0.00000000000E+00 0.  1.
         -2   -1    0    0    0  501 -0.00000000000E+00 -0.00000000000E+00 -0.93336450577E+03  0.93336450577E+03  0.00000000000E+00 0. -1.
         23    2    1    2    0    0 -0.16797838066E+03 -0.39281128714E+03 -0.72055353121E+03  0.84284633120E+03  0.93140233017E+02 0.  0.
        254    2    1    2    0    0  0.16797838066E+03  0.39281128714E+03  0.14802886609E+04  0.17836178100E+04  0.89862146035E+03 0.  0.
        -24    2    4    4    0    0  0.66591680221E+02  0.57773016822E+03  0.47955537534E+03  0.75770994641E+03  0.77099972255E+02 0.  0.
         24    2    4    4    0    0  0.10138670044E+03 -0.18491888107E+03  0.10007332855E+04  0.10259078636E+04  0.80904760317E+02 0.  0.
         13    1    3    3    0    0 -0.12676780814E+02 -0.12123228008E+03 -0.16324437882E+03  0.20373191631E+03  0.00000000000E+00 0. -1.
        -13    1    3    3    0    0 -0.15530159985E+03 -0.27157900706E+03 -0.55730915239E+03  0.63911441489E+03  0.00000000000E+00 0.  1.
          4    1    6    6  502    0 -0.12043213112E+02 -0.37373065319E+02  0.20178091944E+03  0.20556586400E+03  0.00000000000E+00 0. -1.
          1    1    5    5  503    0  0.76610252224E+02  0.56617411208E+03  0.46615285224E+03  0.73737421814E+03  0.00000000000E+00 0. -1.
         -2    1    5    5    0  503 -0.10018572003E+02  0.11556056142E+02  0.13402523104E+02  0.20335728266E+02  0.00000000000E+00 0.  1.
         -3    1    6    6    0  502  0.11342991355E+03 -0.14754581576E+03  0.79895236607E+03  0.82034199958E+03  0.00000000000E+00 0.  1.
<mgrwt>
<rscale>  0 0.25141831E+04</rscale>
<asrwt>0</asrwt>
<pdfrwt beam="1">  1        2 0.26047687E+00 0.25141831E+04</pdfrwt>
<pdfrwt beam="2">  1       -2 0.14359454E+00 0.25141831E+04</pdfrwt>
<totfact> 0.29633733E+00</totfact>
</mgrwt>
</event>
<event>
12    1  0.1506149E-007  0.1851970E+04  0.7818608E-02  0.8679141E-01
          1   -1    0    0  501    0  0.00000000000E+00  0.00000000000E+00  0.21350845547E+04  0.21350845547E+04  0.00000000000E+00 0. -1.
         -1   -1    0    0    0  501 -0.00000000000E+00 -0.00000000000E+00 -0.40159906929E+03  0.40159906929E+03  0.00000000000E+00 0.  1.
         23    2    1    2    0    0  0.53867017484E+03 -0.43897098019E+03  0.79042524315E+03  0.10564390298E+04  0.91816556471E+02 0.  0.
        254    2    1    2    0    0 -0.53867017484E+03  0.43897098019E+03  0.94306024230E+03  0.14802445942E+04  0.90493113515E+03 0.  0.
        -24    2    4    4    0    0 -0.20994313700E+03  0.52945413776E+03  0.97033840317E+03  0.11279919350E+04  0.80071118765E+02 0.  0.
         24    2    4    4    0    0 -0.32872703784E+03 -0.90483157570E+02 -0.27278160872E+02  0.35225265918E+03  0.84197212699E+02 0.  0.
         11    1    3    3    0    0  0.42391115041E+03 -0.38685526456E+03  0.62583084016E+03  0.84913008406E+03  0.00000000000E+00 0. -1.
        -11    1    3    3    0    0  0.11475902443E+03 -0.52115715630E+02  0.16459440298E+03  0.20730894577E+03  0.00000000000E+00 0.  1.
          4    1    6    6  502    0 -0.83204715450E+02 -0.88947759238E+01 -0.40963688832E+02  0.93167405859E+02  0.00000000000E+00 0. -1.
          1    1    5    5  503    0 -0.13337661832E+03  0.23000224957E+03  0.46349025984E+03  0.53433470604E+03  0.00000000000E+00 0. -1.
         -2    1    5    5    0  503 -0.76566518676E+02  0.29945188819E+03  0.50684814334E+03  0.59365722899E+03  0.00000000000E+00 0.  1.
         -3    1    6    6    0  502 -0.24552232239E+03 -0.81588381646E+02  0.13685527960E+02  0.25908525332E+03  0.00000000000E+00 0.  1.
<mgrwt>
<rscale>  0 0.18519697E+04</rscale>
<asrwt>0</asrwt>
<pdfrwt beam="1">  1        1 0.32847454E+00 0.18519697E+04</pdfrwt>
<pdfrwt beam="2">  1       -1 0.61784474E-01 0.18519697E+04</pdfrwt>
<totfact> 0.60221441E+00</totfact>
</mgrwt>
</event>
<event>
12    1  0.1506149E-007  0.2890379E+04  0.7818608E-02  0.8275746E-01
         -2   -1    0    0    0  501 -0.00000000000E+00  0.00000000000E+00  0.50744679121E+03  0.50744679121E+03  0.00000000000E+00 0.  1.
          2   -1    0    0  501    0  0.00000000000E+00 -0.00000000000E+00 -0.41158462130E+04  0.41158462130E+04  0.00000000000E+00 0. -1.
         23    2    1    2    0    0  0.10650298220E+04 -0.56438881612E+03 -0.24364467464E+04  0.27198501208E+04  0.92133999540E+02 0.  0.
        254    2    1    2    0    0 -0.10650298220E+04  0.56438881612E+03 -0.11719526753E+04  0.19034428834E+04  0.89263569256E+03 0.  0.
        -24    2    4    4    0    0 -0.58555997082E+02 -0.10552395543E+03  0.75903587711E+02  0.16411456691E+03  0.81290383701E+02 0.  0.
         24    2    4    4    0    0 -0.10064738249E+04  0.66991277155E+03 -0.12478562631E+04  0.17393283165E+04  0.79655869692E+02 0.  0.
         13    1    3    3    0    0  0.10505073098E+04 -0.56731575837E+03 -0.24020016670E+04  0.26823543364E+04  0.00000000000E+00 0. -1.
        -13    1    3    3    0    0  0.14522512168E+02  0.29269422519E+01 -0.34445079406E+02  0.37495784375E+02  0.00000000000E+00 0.  1.
          2    1    6    6  502    0 -0.87922026021E+03  0.61291638603E+03 -0.10886648362E+04  0.15277060868E+04  0.00000000000E+00 0. -1.
          1    1    5    5  503    0 -0.53330445902E+02 -0.11645747601E+03  0.80353002472E+02  0.15120544033E+03  0.00000000000E+00 0. -1.
         -2    1    5    5    0  503 -0.52255511800E+01  0.10933520582E+02 -0.44494147611E+01  0.12909126584E+02  0.00000000000E+00 0.  1.
         -1    1    6    6    0  502 -0.12725356470E+03  0.56996385524E+02 -0.15919142690E+03  0.21162222967E+03  0.00000000000E+00 0.  1.
<mgrwt>
<rscale>  0 0.28903792E+04</rscale>
<asrwt>0</asrwt>
<pdfrwt beam="1">  1        2 0.63320711E+00 0.28903792E+04</pdfrwt>
<pdfrwt beam="2">  1       -2 0.78068737E-01 0.28903792E+04</pdfrwt>
<totfact> 0.34623626E-01</totfact>
</mgrwt>
</event>
<event>
12    1  0.1506149E-007  0.2500322E+04  0.7818608E-02  0.8402871E-01
          2   -1    0    0  501    0  0.00000000000E+00  0.00000000000E+00  0.16612546167E+04  0.16612546167E+04  0.00000000000E+00 0. -1.
         -2   -1    0    0    0  501 -0.00000000000E+00 -0.00000000000E+00 -0.94079625120E+03  0.94079625120E+03  0.00000000000E+00 0.  1.
         23    2    1    2    0    0  0.66789501367E+03 -0.15979014873E+03 -0.56039954379E+03  0.89053307466E+03  0.85935251564E+02 0.  0.
        254    2    1    2    0    0 -0.66789501367E+03  0.15979014873E+03  0.12808579093E+04  0.17115177932E+04  0.90392451668E+03 0.  0.
        -24    2    4    4    0    0 -0.64737871221E+03 -0.25764499602E+03  0.69363320634E+03  0.98633250508E+03  0.79023064051E+02 0.  0.
         24    2    4    4    0    0 -0.20516301469E+02  0.41743514476E+03  0.58722470295E+03  0.72518528815E+03  0.79923911912E+02 0.  0.
         11    1    3    3    0    0  0.46851739882E+03 -0.14259697634E+03 -0.42961738538E+03  0.65147029746E+03  0.00000000000E+00 0.  1.
        -11    1    3    3    0    0  0.19937761486E+03 -0.17193172394E+02 -0.13078215841E+03  0.23906277720E+03  0.00000000000E+00 0. -1.
          4    1    6    6  502    0  0.94091033068E+01  0.18039827460E+03  0.31382169345E+03  0.36209960506E+03  0.00000000000E+00 0. -1.
          1    1    5    5  503    0 -0.35791201000E+03 -0.10090764887E+03  0.37935435690E+03  0.53121849422E+03  0.00000000000E+00 0. -1.
         -4    1    5    5    0  503 -0.28946670221E+03 -0.15673734715E+03  0.31427884944E+03  0.45511401086E+03  0.00000000000E+00 0.  1.
         -3    1    6    6    0  502 -0.29925404776E+02  0.23703687016E+03  0.27340300950E+03  0.36308568309E+03  0.00000000000E+00 0.  1.
<mgrwt>
<rscale>  0 0.25003217E+04</rscale>
<asrwt>0</asrwt>
<pdfrwt beam="1">  1        2 0.25557763E+00 0.25003217E+04</pdfrwt>
<pdfrwt beam="2">  1       -2 0.14473788E+00 0.25003217E+04</pdfrwt>
<totfact> 0.30268864E+00</totfact>
</mgrwt>
</event>
<event>
12    1  0.1506149E-007  0.3543883E+04  0.7818608E-02  0.8103468E-01
         -2   -1    0    0    0  501 -0.00000000000E+00  0.00000000000E+00  0.10877009140E+04  0.10877009140E+04  0.00000000000E+00 0.  1.
          2   -1    0    0  501    0  0.00000000000E+00 -0.00000000000E+00 -0.28866182814E+04  0.28866182814E+04  0.00000000000E+00 0. -1.
         23    2    1    2    0    0  0.61408541331E+03 -0.32010741906E+03 -0.25229923218E+04  0.26178987299E+04  0.91289920716E+02 0.  0.
        254    2    1    2    0    0 -0.61408541331E+03  0.32010741906E+03  0.72407495429E+03  0.13564204655E+04  0.91434254263E+03 0.  0.
        -24    2    4    4    0    0 -0.79919127074E+03  0.43571423931E+02  0.50879431373E+03  0.95184930048E+03  0.80872003446E+02 0.  0.
         24    2    4    4    0    0  0.18510585742E+03  0.27653599513E+03  0.21528064056E+03  0.40457116503E+03  0.81214150994E+02 0.  0.
         13    1    3    3    0    0  0.45569415005E+03 -0.19989870614E+03 -0.17089454222E+04  0.17799188485E+04  0.00000000000E+00 0. -1.
        -13    1    3    3    0    0  0.15839126327E+03 -0.12020871292E+03 -0.81404689954E+03  0.83797988138E+03  0.00000000000E+00 0.  1.
          4    1    6    6  502    0  0.49384547256E+02  0.74217471203E+02  0.10328629333E+03  0.13643725638E+03  0.00000000000E+00 0. -1.
          3    1    5    5  503    0 -0.14536720187E+02 -0.98296475572E+01  0.67648331307E+01  0.18806944786E+02  0.00000000000E+00 0. -1.
         -4    1    5    5    0  503 -0.78465455055E+03  0.53401071488E+02  0.50202948060E+03  0.93304235570E+03  0.00000000000E+00 0.  1.
         -1    1    6    6    0  502  0.13572131017E+03  0.20231852392E+03  0.11199434723E+03  0.26813390865E+03  0.00000000000E+00 0.  1.
<mgrwt>
<rscale>  0 0.35438834E+04</rscale>
<asrwt>0</asrwt>
<pdfrwt beam="1">  1        2 0.44409513E+00 0.35438834E+04</pdfrwt>
<pdfrwt beam="2">  1       -2 0.16733860E+00 0.35438834E+04</pdfrwt>
<totfact> 0.37312553E-01</totfact>
</mgrwt>
</event>
<event>
12    1  0.1506149E-007  0.1995957E+04  0.7818608E-02  0.8608513E-01
          2   -1    0    0  501    0  0.00000000000E+00  0.00000000000E+00  0.13564279729E+04  0.13564279729E+04  0.00000000000E+00 0.  1.
         -2   -1    0    0    0  501 -0.00000000000E+00 -0.00000000000E+00 -0.73425319958E+03  0.73425319958E+03  0.00000000000E+00 0. -1.
         23    2    1    2    0    0  0.75602964020E+03  0.18437320445E+03  0.83967821850E+02  0.78838038370E+03  0.94439075164E+02 0.  0.
        254    2    1    2    0    0 -0.75602964020E+03 -0.18437320445E+03  0.53820695146E+03  0.13023007888E+04  0.89484430292E+03 0.  0.
        -24    2    4    4    0    0 -0.74667311031E+02  0.31239340069E+03  0.22156017482E+03  0.39813797498E+03  0.79120742689E+02 0.  0.
         24    2    4    4    0    0 -0.68136232917E+03 -0.49676660513E+03  0.31664677663E+03  0.90416281379E+03  0.78825941850E+02 0.  0.
         13    1    3    3    0    0  0.42300940440E+03  0.95747903806E+02  0.93344678597E+02  0.44364157416E+03  0.00000000000E+00 0. -1.
        -13    1    3    3    0    0  0.33302023579E+03  0.88625300641E+02 -0.93768567465E+01  0.34473880954E+03  0.00000000000E+00 0.  1.
          4    1    6    6  502    0 -0.40750358931E+03 -0.34415104937E+03  0.20109348638E+03  0.57003307829E+03  0.00000000000E+00 0. -1.
          1    1    5    5  503    0  0.33437382779E+01  0.15491989483E+03  0.10873284327E+03  0.18929919600E+03  0.00000000000E+00 0. -1.
         -2    1    5    5    0  503 -0.78011049309E+02  0.15747350586E+03  0.11282733155E+03  0.20883877898E+03  0.00000000000E+00 0.  1.
         -3    1    6    6    0  502 -0.27385873986E+03 -0.15261555577E+03  0.11555329026E+03  0.33412973550E+03  0.00000000000E+00 0.  1.
<mgrwt>
<rscale>  0 0.19959575E+04</rscale>
<asrwt>0</asrwt>
<pdfrwt beam="1">  1        2 0.20868123E+00 0.19959575E+04</pdfrwt>
<pdfrwt beam="2">  1       -2 0.11296203E+00 0.19959575E+04</pdfrwt>
<totfact> 0.87770844E+00</totfact>
</mgrwt>
</event>
<event>
12    1  0.1506149E-007  0.1777417E+04  0.7818608E-02  0.8718402E-01
          2   -1    0    0  501    0  0.00000000000E+00  0.00000000000E+00  0.14590952422E+04  0.14590952422E+04  0.00000000000E+00 0. -1.
         -2   -1    0    0    0  501 -0.00000000000E+00 -0.00000000000E+00 -0.54129601104E+03  0.54129601104E+03  0.00000000000E+00 0.  1.
         23    2    1    2    0    0  0.18843806528E+03  0.57118868909E+02  0.10489298729E+04  0.10711612003E+04  0.91438334134E+02 0.  0.
        254    2    1    2    0    0 -0.18843806528E+03 -0.57118868909E+02 -0.13113064178E+03  0.92923005298E+03  0.89861102626E+03 0.  0.
        -24    2    4    4    0    0 -0.36689709016E+03 -0.22883532532E+03  0.22023115523E+03  0.49184213481E+03  0.80173829651E+02 0.  0.
         24    2    4    4    0    0  0.17845902488E+03  0.17171645641E+03 -0.35136179701E+03  0.43738791816E+03  0.80739789408E+02 0.  0.
         11    1    3    3    0    0  0.53190483357E+02 -0.20978734676E+02  0.37758869501E+03  0.38189338489E+03  0.00000000000E+00 0.  1.
        -11    1    3    3    0    0  0.13524758192E+03  0.78097603585E+02  0.67134117794E+03  0.68926781537E+03  0.00000000000E+00 0. -1.
          4    1    6    6  502    0  0.14440946146E+03  0.87250990509E+02 -0.24314886798E+03  0.29595303665E+03  0.00000000000E+00 0. -1.
          1    1    5    5  503    0 -0.35143320983E+03 -0.23332825167E+03  0.20261410569E+03  0.46797419782E+03  0.00000000000E+00 0. -1.
         -2    1    5    5    0  503 -0.15463880335E+02  0.44929263470E+01  0.17617049537E+02  0.23867936998E+02  0.00000000000E+00 0.  1.
         -3    1    6    6    0  502  0.34049563428E+02  0.84465465903E+02 -0.10821292903E+03  0.14143488151E+03  0.00000000000E+00 0.  1.
<mgrwt>
<rscale>  0 0.17774166E+04</rscale>
<asrwt>0</asrwt>
<pdfrwt beam="1">  1        2 0.22447619E+00 0.17774166E+04</pdfrwt>
<pdfrwt beam="2">  1       -2 0.83276310E-01 0.17774166E+04</pdfrwt>
<totfact> 0.15986580E+01</totfact>
</mgrwt>
</event>
<event>
12    1  0.1506149E-007  0.1822724E+04  0.7818608E-02  0.8694308E-01
         -2   -1    0    0    0  501 -0.00000000000E+00  0.00000000000E+00  0.77174842369E+03  0.77174842369E+03  0.00000000000E+00 0.  1.
          2   -1    0    0  501    0  0.00000000000E+00 -0.00000000000E+00 -0.10762320788E+04  0.10762320788E+04  0.00000000000E+00 0. -1.
         23    2    1    2    0    0 -0.31858977382E+03  0.25681312752E+03  0.44204379362E+03  0.60935558111E+03  0.91973269506E+02 0.  0.
        254    2    1    2    0    0  0.31858977382E+03 -0.25681312752E+03 -0.74652744871E+03  0.12386249214E+04  0.89968663306E+03 0.  0.
        -24    2    4    4    0    0 -0.26698130487E+03 -0.26129340952E+03 -0.18918965841E+03  0.42628403434E+03  0.79825359827E+02 0.  0.
         24    2    4    4    0    0  0.58557107869E+03  0.44802819987E+01 -0.55733779030E+03  0.81234088703E+03  0.79741727629E+02 0.  0.
         11    1    3    3    0    0 -0.19315868186E+03  0.19397607780E+03  0.24432635745E+03  0.36692283123E+03  0.00000000000E+00 0.  1.
        -11    1    3    3    0    0 -0.12543109196E+03  0.62837049729E+02  0.19771743617E+03  0.24243274988E+03  0.00000000000E+00 0. -1.
          4    1    6    6  502    0  0.36563160795E+03  0.82114132397E+01 -0.39936573715E+03  0.54152275303E+03  0.00000000000E+00 0. -1.
          3    1    5    5  503    0 -0.17385324247E+03 -0.13128013153E+03 -0.77536822555E+02  0.23123879801E+03  0.00000000000E+00 0. -1.
         -4    1    5    5    0  503 -0.93128062398E+02 -0.13001327799E+03 -0.11165283585E+03  0.19504523633E+03  0.00000000000E+00 0.  1.
         -3    1    6    6    0  502  0.21993947073E+03 -0.37311312409E+01 -0.15797205315E+03  0.27081813400E+03  0.00000000000E+00 0.  1.
<mgrwt>
<rscale>  0 0.18227237E+04</rscale>
<asrwt>0</asrwt>
<pdfrwt beam="1">  1        2 0.16557417E+00 0.18227237E+04</pdfrwt>
<pdfrwt beam="2">  1       -2 0.11873053E+00 0.18227237E+04</pdfrwt>
<totfact> 0.11581678E+01</totfact>
</mgrwt>
</event>
<event>
12    1  0.1506149E-007  0.1578403E+04  0.7818608E-02  0.8833927E-01
          2   -1    0    0  501    0  0.00000000000E+00  0.00000000000E+00  0.83800604177E+03  0.83800604177E+03  0.00000000000E+00 0. -1.
         -2   -1    0    0    0  501 -0.00000000000E+00 -0.00000000000E+00 -0.74323960573E+03  0.74323960573E+03  0.00000000000E+00 0.  1.
         23    2    1    2    0    0 -0.15551006467E+03  0.21229459006E+03  0.48861131111E+03  0.56211750178E+03  0.89345952816E+02 0.  0.
        254    2    1    2    0    0  0.15551006467E+03 -0.21229459006E+03 -0.39384487506E+03  0.10191281457E+04  0.90236135700E+03 0.  0.
        -24    2    4    4    0    0 -0.47310397725E+02  0.18746312495E+03  0.18727129077E+03  0.28070153511E+03  0.79637419084E+02 0.  0.
         24    2    4    4    0    0  0.20282046240E+03 -0.39975771501E+03 -0.58111616583E+03  0.73842661060E+03  0.81458519373E+02 0.  0.
         13    1    3    3    0    0 -0.53535295257E+02  0.55977139745E+02  0.23357954546E+03  0.24608712293E+03  0.00000000000E+00 0. -1.
        -13    1    3    3    0    0 -0.10197476942E+03  0.15631745032E+03  0.25503176564E+03  0.31603037885E+03  0.00000000000E+00 0.  1.
          4    1    6    6  502    0  0.93969515146E+02 -0.23362908804E+03 -0.26899466127E+03  0.36847109568E+03  0.00000000000E+00 0. -1.
          3    1    5    5  503    0 -0.37255327487E+02  0.18155398753E+03  0.19310992453E+03  0.26765883651E+03  0.00000000000E+00 0. -1.
         -4    1    5    5    0  503 -0.10055070238E+02  0.59091374241E+01 -0.58386337569E+01  0.13042698598E+02  0.00000000000E+00 0.  1.
         -3    1    6    6    0  502  0.10885094725E+03 -0.16612862697E+03 -0.31212150456E+03  0.36995551493E+03  0.00000000000E+00 0.  1.
<mgrwt>
<rscale>  0 0.15784033E+04</rscale>
<asrwt>0</asrwt>
<pdfrwt beam="1">  1        2 0.12892401E+00 0.15784033E+04</pdfrwt>
<pdfrwt beam="2">  1       -2 0.11434455E+00 0.15784033E+04</pdfrwt>
<totfact> 0.18585847E+01</totfact>
</mgrwt>
</event>
<event>
12    1  0.1506149E-007  0.1488755E+04  0.7818608E-02  0.8891966E-01
          2   -1    0    0  501    0  0.00000000000E+00  0.00000000000E+00  0.19329205693E+04  0.19329205693E+04  0.00000000000E+00 0. -1.
         -2   -1    0    0    0  501 -0.00000000000E+00 -0.00000000000E+00 -0.28666338358E+03  0.28666338358E+03  0.00000000000E+00 0.  1.
         23    2    1    2    0    0 -0.41351435907E+03  0.18887566426E+03  0.49953944897E+03  0.68153582917E+03  0.91012546640E+02 0.  0.
        254    2    1    2    0    0  0.41351435907E+03 -0.18887566426E+03  0.11467177367E+04  0.15380481237E+04  0.91867421938E+03 0.  0.
        -24    2    4    4    0    0 -0.16565519424E+03 -0.16901921876E+03  0.84233623658E+03  0.87858921154E+03  0.79871944217E+02 0.  0.
         24    2    4    4    0    0  0.57916955332E+03 -0.19856445505E+02  0.30438150011E+03  0.65945891214E+03  0.80039423208E+02 0.  0.
         11    1    3    3    0    0 -0.16994522223E+02  0.22989834016E+02  0.10502520789E+02  0.30457334036E+02  0.00000000000E+00 0.  1.
        -11    1    3    3    0    0 -0.39651983685E+03  0.16588583024E+03  0.48903692818E+03  0.65107849513E+03  0.00000000000E+00 0. -1.
          4    1    6    6  502    0  0.18568813250E+03 -0.20131064544E+02  0.59611345801E+02  0.19605829454E+03  0.00000000000E+00 0. -1.
          3    1    5    5  503    0 -0.83864073996E+02 -0.13447675737E+03  0.59713094109E+03  0.61780461474E+03  0.00000000000E+00 0. -1.
         -4    1    5    5    0  503 -0.81791120248E+02 -0.34542461391E+02  0.24520529549E+03  0.26078459680E+03  0.00000000000E+00 0.  1.
         -3    1    6    6    0  502  0.39348142082E+03  0.27461903895E+00  0.24477015431E+03  0.46340061759E+03  0.00000000000E+00 0.  1.
<mgrwt>
<rscale>  0 0.14887546E+04</rscale>
<asrwt>0</asrwt>
<pdfrwt beam="1">  1        2 0.29737239E+00 0.14887546E+04</pdfrwt>
<pdfrwt beam="2">  1       -2 0.44102060E-01 0.14887546E+04</pdfrwt>
<totfact> 0.34333940E+01</totfact>
</mgrwt>
</event>
<event>
12    1  0.1506149E-007  0.1935177E+04  0.7818608E-02  0.8637542E-01
         -2   -1    0    0    0  501 -0.00000000000E+00  0.00000000000E+00  0.30250443641E+03  0.30250443641E+03  0.00000000000E+00 0.  1.
          2   -1    0    0  501    0  0.00000000000E+00 -0.00000000000E+00 -0.30949216745E+04  0.30949216745E+04  0.00000000000E+00 0. -1.
         23    2    1    2    0    0 -0.61363405109E+03 -0.10094030426E+03 -0.18543090393E+04  0.19578640659E+04  0.89632549120E+02 0.  0.
        254    2    1    2    0    0  0.61363405109E+03  0.10094030426E+03 -0.93810819881E+03  0.14395620450E+04  0.89752782405E+03 0.  0.
        -24    2    4    4    0    0 -0.21976341275E+03 -0.47426176861E+02 -0.16796075390E+03  0.29168787298E+03  0.79534901517E+02 0.  0.
         24    2    4    4    0    0  0.83339746383E+03  0.14836648112E+03 -0.77014744491E+03  0.11478741720E+04  0.89017314922E+02 0.  0.
         11    1    3    3    0    0 -0.59550398510E+03 -0.83806059164E+02 -0.17440876921E+04  0.18448550972E+04  0.00000000000E+00 0. -1.
        -11    1    3    3    0    0 -0.18130065985E+02 -0.17134245095E+02 -0.11022134720E+03  0.11300896878E+03  0.00000000000E+00 0.  1.
          4    1    6    6  502    0  0.38789536605E+03  0.89888891413E+02 -0.41518112788E+03  0.57525489719E+03  0.00000000000E+00 0. -1.
          1    1    5    5  503    0 -0.17808013382E+03 -0.69580822446E+02 -0.13768376789E+03  0.23560739558E+03  0.00000000000E+00 0. -1.
         -2    1    5    5    0  503 -0.41683278930E+02  0.22154645585E+02 -0.30276986010E+02  0.56080477398E+02  0.00000000000E+00 0.  1.
         -3    1    6    6    0  502  0.44550209779E+03  0.58477589706E+02 -0.35496631703E+03  0.57261927479E+03  0.00000000000E+00 0.  1.
<mgrwt>
<rscale>  0 0.19351770E+04</rscale>
<asrwt>0</asrwt>
<pdfrwt beam="1">  1        2 0.47614180E+00 0.19351770E+04</pdfrwt>
<pdfrwt beam="2">  1       -2 0.46539144E-01 0.19351770E+04</pdfrwt>
<totfact> 0.62189460E+00</totfact>
</mgrwt>
</event>
<event>
12    1  0.1506149E-007  0.1625499E+04  0.7818608E-02  0.8805034E-01
          1   -1    0    0  501    0  0.00000000000E+00  0.00000000000E+00  0.56093061925E+03  0.56093061925E+03  0.00000000000E+00 0. -1.
         -1   -1    0    0    0  501 -0.00000000000E+00 -0.00000000000E+00 -0.11776180584E+04  0.11776180584E+04  0.00000000000E+00 0.  1.
         23    2    1    2    0    0  0.35698890368E+03  0.57911587262E+02 -0.71135574442E+03  0.80340059052E+03  0.92901477071E+02 0.  0.
        254    2    1    2    0    0 -0.35698890368E+03 -0.57911587262E+02  0.94668305305E+02  0.93514808709E+03  0.85717269408E+03 0.  0.
        -24    2    4    4    0    0 -0.16304497511E+02  0.24367417601E+02  0.43328987294E+03  0.44121448919E+03  0.77913437874E+02 0.  0.
         24    2    4    4    0    0 -0.34068440617E+03 -0.82279004862E+02 -0.33862156764E+03  0.49393359790E+03  0.80437142010E+02 0.  0.
         11    1    3    3    0    0  0.20424545665E+03  0.32000849842E+02 -0.50242703831E+03  0.54329843528E+03  0.00000000000E+00 0.  1.
        -11    1    3    3    0    0  0.15274344703E+03  0.25910737420E+02 -0.20892870610E+03  0.26010215524E+03  0.00000000000E+00 0. -1.
          2    1    6    6  502    0 -0.26669530516E+03 -0.96912328854E+02 -0.27691660998E+03  0.39648605796E+03  0.00000000000E+00 0. -1.
          3    1    5    5  503    0 -0.20848960090E+02 -0.75292244566E+01  0.36535418311E+03  0.36602602021E+03  0.00000000000E+00 0. -1.
         -4    1    5    5    0  503  0.45444625795E+01  0.31896642057E+02  0.67935689831E+02  0.75188468980E+02  0.00000000000E+00 0.  1.
         -1    1    6    6    0  502 -0.73989101011E+02  0.14633323992E+02 -0.61704957656E+02  0.97447539932E+02  0.00000000000E+00 0.  1.
<mgrwt>
<rscale>  0 0.16254993E+04</rscale>
<asrwt>0</asrwt>
<pdfrwt beam="1">  1        1 0.86297019E-01 0.16254993E+04</pdfrwt>
<pdfrwt beam="2">  1       -1 0.18117201E+00 0.16254993E+04</pdfrwt>
<totfact> 0.73717547E+00</totfact>
</mgrwt>
</event>
<event>
12    1  0.1506149E-007  0.1552929E+04  0.7818608E-02  0.8849999E-01
          2   -1    0    0  501    0  0.00000000000E+00  0.00000000000E+00  0.16440665699E+04  0.16440665699E+04  0.00000000000E+00 0. -1.
         -2   -1    0    0    0  501 -0.00000000000E+00 -0.00000000000E+00 -0.36671099259E+03  0.36671099259E+03  0.00000000000E+00 0.  1.
         23    2    1    2    0    0  0.20665103097E+03  0.30625308166E+03  0.87628656937E+03  0.95542788269E+03  0.92025478769E+02 0.  0.
        254    2    1    2    0    0 -0.20665103097E+03 -0.30625308166E+03  0.40106900791E+03  0.10553496798E+04  0.90355464630E+03 0.  0.
        -24    2    4    4    0    0 -0.27276250851E+03  0.14041166401E+03 -0.13970467694E+03  0.34648191083E+03  0.80109277454E+02 0.  0.
         24    2    4    4    0    0  0.66111477536E+02 -0.44666474567E+03  0.54077368485E+03  0.70886776894E+03  0.78595248767E+02 0.  0.
         13    1    3    3    0    0  0.19197757863E+03  0.21660921263E+03  0.68656421731E+03  0.74508077829E+03  0.00000000000E+00 0. -1.
        -13    1    3    3    0    0  0.14673452340E+02  0.89643869025E+02  0.18972235206E+03  0.21034710440E+03  0.00000000000E+00 0.  1.
          2    1    6    6  502    0  0.33536564209E+02 -0.36563178849E+03  0.47025585388E+03  0.59661702457E+03  0.00000000000E+00 0. -1.
          3    1    5    5  503    0 -0.24250485650E+03  0.12714328958E+03 -0.92805962972E+02  0.28911410943E+03  0.00000000000E+00 0. -1.
         -4    1    5    5    0  503 -0.30257652013E+02  0.13268374433E+02 -0.46898713967E+02  0.57367801398E+02  0.00000000000E+00 0.  1.
         -1    1    6    6    0  502  0.32574913328E+02 -0.81032957180E+02  0.70517830967E+02  0.11225074437E+03  0.00000000000E+00 0.  1.
<mgrwt>
<rscale>  0 0.15529292E+04</rscale>
<asrwt>0</asrwt>
<pdfrwt beam="1">  1        2 0.25293331E+00 0.15529292E+04</pdfrwt>
<pdfrwt beam="2">  1       -2 0.56417077E-01 0.15529292E+04</pdfrwt>
<totfact> 0.29891706E+01</totfact>
</mgrwt>
</event>
<event>
12    1  0.1506149E-007  0.1641237E+04  0.7818608E-02  0.8795607E-01
         -2   -1    0    0    0  501 -0.00000000000E+00  0.00000000000E+00  0.41482633204E+03  0.41482633204E+03  0.00000000000E+00 0.  1.
          2   -1    0    0  501    0  0.00000000000E+00 -0.00000000000E+00 -0.16233654684E+04  0.16233654684E+04  0.00000000000E+00 0. -1.
         23    2    1    2    0    0 -0.54821092227E+03 -0.63955911792E+01 -0.57600555752E+03  0.80058928579E+03  0.92653566274E+02 0.  0.
        254    2    1    2    0    0  0.54821092227E+03  0.63955911792E+01 -0.63253357881E+03  0.12376025146E+04  0.91158386173E+03 0.  0.
        -24    2    4    4    0    0 -0.62075377246E+02  0.22314388775E+03  0.92652967468E+02  0.26214816707E+03  0.80563900201E+02 0.  0.
         24    2    4    4    0    0  0.61028629952E+03 -0.21674829657E+03 -0.72518654628E+03  0.97545434755E+03  0.78654089522E+02 0.  0.
         13    1    3    3    0    0 -0.40691967905E+03 -0.41310318042E+02 -0.39849733395E+03  0.57104316189E+03  0.00000000000E+00 0.  1.
        -13    1    3    3    0    0 -0.14129124322E+03  0.34914726863E+02 -0.17750822357E+03  0.22954612390E+03  0.00000000000E+00 0. -1.
          4    1    6    6  502    0  0.25738750352E+03 -0.12050693534E+03 -0.35892265442E+03  0.45781625167E+03  0.00000000000E+00 0. -1.
          1    1    5    5  503    0 -0.35960388661E+02  0.96909015340E+02  0.83566383593E+02  0.13292045468E+03  0.00000000000E+00 0. -1.
         -2    1    5    5    0  503 -0.26114988585E+02  0.12623487241E+03  0.90865838755E+01  0.12922771238E+03  0.00000000000E+00 0.  1.
         -3    1    6    6    0  502  0.35289879599E+03 -0.96241361230E+02 -0.36626389186E+03  0.51763809588E+03  0.00000000000E+00 0.  1.
<mgrwt>
<rscale>  0 0.16412370E+04</rscale>
<asrwt>0</asrwt>
<pdfrwt beam="1">  1        2 0.24974853E+00 0.16412370E+04</pdfrwt>
<pdfrwt beam="2">  1       -2 0.63819437E-01 0.16412370E+04</pdfrwt>
<totfact> 0.23486877E+01</totfact>
</mgrwt>
</event>
<event>
12    1  0.1506149E-007  0.1762848E+04  0.7818608E-02  0.8726310E-01
          1   -1    0    0  501    0  0.00000000000E+00  0.00000000000E+00  0.10868026072E+04  0.10868026072E+04  0.00000000000E+00 0. -1.
         -1   -1    0    0    0  501 -0.00000000000E+00 -0.00000000000E+00 -0.71485714935E+03  0.71485714935E+03  0.00000000000E+00 0.  1.
         23    2    1    2    0    0  0.23852351493E+03  0.56132418726E+03 -0.89328838747E+02  0.62311198957E+03  0.91162490810E+02 0.  0.
        254    2    1    2    0    0 -0.23852351493E+03 -0.56132418726E+03  0.46127429664E+03  0.11785477670E+04  0.89678456279E+03 0.  0.
        -24    2    4    4    0    0 -0.48906281714E+03 -0.36336305744E+03  0.32949967550E+01  0.61458769547E+03  0.80573120823E+02 0.  0.
         24    2    4    4    0    0  0.25053930221E+03 -0.19796112982E+03  0.45797929989E+03  0.56396007156E+03  0.79670397995E+02 0.  0.
         13    1    3    3    0    0 -0.26186155137E+01  0.53233252584E+02 -0.17691298026E+02  0.56157086407E+02  0.00000000000E+00 0. -1.
        -13    1    3    3    0    0  0.24114213044E+03  0.50809093468E+03 -0.71637540721E+02  0.56695490316E+03  0.00000000000E+00 0.  1.
          2    1    6    6  502    0  0.17584905592E+03 -0.14931871443E+03  0.38471569402E+03  0.44858124590E+03  0.00000000000E+00 0. -1.
          1    1    5    5  503    0 -0.34812655117E+03 -0.26991762485E+03 -0.32621856525E+02  0.44171461981E+03  0.00000000000E+00 0. -1.
         -2    1    5    5    0  503 -0.14093626597E+03 -0.93445432592E+02  0.35916853280E+02  0.17287307566E+03  0.00000000000E+00 0.  1.
         -1    1    6    6    0  502  0.74690246293E+02 -0.48642415396E+02  0.73263605867E+02  0.11537882566E+03  0.00000000000E+00 0.  1.
<mgrwt>
<rscale>  0 0.17628484E+04</rscale>
<asrwt>0</asrwt>
<pdfrwt beam="1">  1        1 0.16720040E+00 0.17628484E+04</pdfrwt>
<pdfrwt beam="2">  1       -1 0.10997802E+00 0.17628484E+04</pdfrwt>
<totfact> 0.93781213E+00</totfact>
</mgrwt>
</event>
<event>
12    1  0.1506149E-007  0.2627984E+04  0.7818608E-02  0.8358757E-01
          2   -1    0    0  501    0  0.00000000000E+00  0.00000000000E+00  0.18008722065E+04  0.18008722065E+04  0.00000000000E+00 0. -1.
         -2   -1    0    0    0  501 -0.00000000000E+00 -0.00000000000E+00 -0.95874391723E+03  0.95874391723E+03  0.00000000000E+00 0.  1.
         23    2    1    2    0    0  0.76743586689E+03  0.21932561321E+02  0.12796653164E+04  0.14951660965E+04  0.92409345353E+02 0.  0.
        254    2    1    2    0    0 -0.76743586689E+03 -0.21932561321E+02 -0.43753702716E+03  0.12644500272E+04  0.90440940625E+03 0.  0.
        -24    2    4    4    0    0 -0.43938243798E+03 -0.27782211663E+03  0.14406926752E+03  0.54494540258E+03  0.77249483232E+02 0.  0.
         24    2    4    4    0    0 -0.32805342891E+03  0.25588955531E+03 -0.58160629468E+03  0.71950462462E+03  0.79514188002E+02 0.  0.
         13    1    3    3    0    0  0.17753770130E+03  0.44254161095E+02  0.30241871370E+03  0.35346165925E+03  0.00000000000E+00 0.  1.
        -13    1    3    3    0    0  0.58989816558E+03 -0.22321599774E+02  0.97724660269E+03  0.11417044373E+04  0.00000000000E+00 0. -1.
          2    1    6    6  502    0 -0.31174609611E+02  0.41343199894E+02 -0.38938549368E+02  0.64786781744E+02  0.00000000000E+00 0. -1.
          1    1    5    5  503    0 -0.14173430080E+03 -0.48489111692E+02  0.39776127246E+02  0.15499014896E+03  0.00000000000E+00 0. -1.
         -2    1    5    5    0  503 -0.29764813718E+03 -0.22933300494E+03  0.10429314027E+03  0.38995525362E+03  0.00000000000E+00 0.  1.
         -1    1    6    6    0  502 -0.29687881930E+03  0.21454635542E+03 -0.54266774531E+03  0.65471784287E+03  0.00000000000E+00 0.  1.
<mgrwt>
<rscale>  0 0.26279842E+04</rscale>
<asrwt>0</asrwt>
<pdfrwt beam="1">  1        2 0.27705726E+00 0.26279842E+04</pdfrwt>
<pdfrwt beam="2">  1       -2 0.14749906E+00 0.26279842E+04</pdfrwt>
<totfact> 0.23831287E+00</totfact>
</mgrwt>
</event>
<event>
12    1  0.1506149E-007  0.1457417E+04  0.7818608E-02  0.8913275E-01
         -1   -1    0    0    0  501 -0.00000000000E+00  0.00000000000E+00  0.54111890795E+03  0.54111890795E+03  0.00000000000E+00 0.  1.
          1   -1    0    0  501    0  0.00000000000E+00 -0.00000000000E+00 -0.98132962630E+03  0.98132962630E+03  0.00000000000E+00 0. -1.
         23    2    1    2    0    0 -0.50992604128E+02  0.20184598270E+03 -0.53544487467E+03  0.58168072104E+03  0.91154818946E+02 0.  0.
        254    2    1    2    0    0  0.50992604128E+02 -0.20184598270E+03  0.95234156317E+02  0.94076781320E+03  0.91248697931E+03 0.  0.
        -24    2    4    4    0    0 -0.21532935832E+03 -0.32876254727E+03  0.35828911714E+03  0.53735280736E+03  0.76976639805E+02 0.  0.
         24    2    4    4    0    0  0.26632196244E+03  0.12691656457E+03 -0.26305496082E+03  0.40341500584E+03  0.80687994672E+02 0.  0.
         13    1    3    3    0    0  0.24897608807E+02  0.79362570594E+02 -0.19426864428E+03  0.21132584954E+03  0.00000000000E+00 0. -1.
        -13    1    3    3    0    0 -0.75890212935E+02  0.12248341211E+03 -0.34117623039E+03  0.37035487150E+03  0.00000000000E+00 0.  1.
          4    1    6    6  502    0  0.23969775153E+03  0.12913028670E+03 -0.26009475482E+03  0.37653542266E+03  0.00000000000E+00 0. -1.
          3    1    5    5  503    0 -0.10080529106E+03 -0.95983171056E+02  0.15022971978E+03  0.20480098763E+03  0.00000000000E+00 0. -1.
         -4    1    5    5    0  503 -0.11452406726E+03 -0.23277937622E+03  0.20805939736E+03  0.33255181972E+03  0.00000000000E+00 0.  1.
         -3    1    6    6    0  502  0.26624210910E+02 -0.22137221335E+01 -0.29602059970E+01  0.26879583178E+02  0.00000000000E+00 0.  1.
<mgrwt>
<rscale>  0 0.14574169E+04</rscale>
<asrwt>0</asrwt>
<pdfrwt beam="1">  1        1 0.15097379E+00 0.14574169E+04</pdfrwt>
<pdfrwt beam="2">  1       -1 0.83249063E-01 0.14574169E+04</pdfrwt>
<totfact> 0.21763320E+01</totfact>
</mgrwt>
</event>
<event>
12    1  0.1506149E-007  0.1427842E+04  0.7818608E-02  0.8933908E-01
         -2   -1    0    0    0  501 -0.00000000000E+00  0.00000000000E+00  0.20889612156E+03  0.20889612156E+03  0.00000000000E+00 0.  1.
          2   -1    0    0  501    0  0.00000000000E+00 -0.00000000000E+00 -0.24398869343E+04  0.24398869343E+04  0.00000000000E+00 0. -1.
         23    2    1    2    0    0  0.15587809910E+03  0.15739369007E+03 -0.13442819055E+04  0.13652806166E+04  0.88467876819E+02 0.  0.
        254    2    1    2    0    0 -0.15587809910E+03 -0.15739369007E+03 -0.88670890730E+03  0.12835024393E+04  0.90114098228E+03 0.  0.
        -24    2    4    4    0    0  0.51854701607E+02  0.27751769226E+03 -0.27296928610E+02  0.29488969213E+03  0.80683508963E+02 0.  0.
         24    2    4    4    0    0 -0.20773280071E+03 -0.43491138233E+03 -0.85941197869E+03  0.98861274716E+03  0.80407635023E+02 0.  0.
         13    1    3    3    0    0  0.16429712281E+03  0.12903573081E+03 -0.11691982165E+04  0.11877155526E+04  0.00000000000E+00 0. -1.
        -13    1    3    3    0    0 -0.84190237125E+01  0.28357959253E+02 -0.17508368902E+03  0.17756506406E+03  0.00000000000E+00 0.  1.
          2    1    6    6  502    0 -0.95019248409E+02 -0.26873873141E+03 -0.45130114047E+03  0.53378074404E+03  0.00000000000E+00 0. -1.
          1    1    5    5  503    0 -0.12263424544E+02  0.15294538976E+03 -0.10778811934E+02  0.15381439015E+03  0.00000000000E+00 0. -1.
         -2    1    5    5    0  503  0.64118126150E+02  0.12457230250E+03 -0.16518116676E+02  0.14107530199E+03  0.00000000000E+00 0.  1.
         -1    1    6    6    0  502 -0.11271355230E+03 -0.16617265092E+03 -0.40811083822E+03  0.45483200312E+03  0.00000000000E+00 0.  1.
<mgrwt>
<rscale>  0 0.14278416E+04</rscale>
<asrwt>0</asrwt>
<pdfrwt beam="1">  1        2 0.37536723E+00 0.14278416E+04</pdfrwt>
<pdfrwt beam="2">  1       -2 0.32137864E-01 0.14278416E+04</pdfrwt>
<totfact> 0.33103480E+01</totfact>
</mgrwt>
</event>
<event>
12    1  0.1506149E-007  0.1915696E+04  0.7818608E-02  0.8647083E-01
          1   -1    0    0  501    0  0.00000000000E+00  0.00000000000E+00  0.24149450852E+04  0.24149450852E+04  0.00000000000E+00 0. -1.
         -1   -1    0    0    0  501 -0.00000000000E+00 -0.00000000000E+00 -0.37991454037E+03  0.37991454037E+03  0.00000000000E+00 0.  1.
         23    2    1    2    0    0  0.56529855432E+03 -0.23446659453E+03  0.17585464950E+03  0.64340446009E+03  0.92235579059E+02 0.  0.
        254    2    1    2    0    0 -0.56529855432E+03  0.23446659453E+03  0.18591758953E+04  0.21514551655E+04  0.89313340538E+03 0.  0.
        -24    2    4    4    0    0 -0.16164991708E+03 -0.27648406027E+02  0.15786912856E+04  0.15887236161E+04  0.69867181685E+02 0.  0.
         24    2    4    4    0    0 -0.40364863723E+03  0.26211500056E+03  0.28048460971E+03  0.56273154936E+03  0.79741360037E+02 0.  0.
         11    1    3    3    0    0  0.25476245451E+03 -0.58447310518E+02  0.60701467682E+02  0.26833684897E+03  0.00000000000E+00 0. -1.
        -11    1    3    3    0    0  0.31053609981E+03 -0.17601928402E+03  0.11515318182E+03  0.37506761112E+03  0.00000000000E+00 0.  1.
          4    1    6    6  502    0  0.31776947857E+01  0.46520282199E+01  0.20058027275E+00  0.56373170175E+01  0.00000000000E+00 0. -1.
          3    1    5    5  503    0 -0.77234937993E+02  0.13331672405E+02  0.51885093212E+03  0.52473732371E+03  0.00000000000E+00 0. -1.
         -4    1    5    5    0  503 -0.84414979091E+02 -0.40980078432E+02  0.10598403535E+04  0.10639862924E+04  0.00000000000E+00 0.  1.
         -3    1    6    6    0  502 -0.40682633202E+03  0.25746297234E+03  0.28028402944E+03  0.55709423234E+03  0.00000000000E+00 0.  1.
<mgrwt>
<rscale>  0 0.19156960E+04</rscale>
<asrwt>0</asrwt>
<pdfrwt beam="1">  1        1 0.37153000E+00 0.19156960E+04</pdfrwt>
<pdfrwt beam="2">  1       -1 0.58448392E-01 0.19156960E+04</pdfrwt>
<totfact> 0.43021545E+00</totfact>
</mgrwt>
</event>
<event>
12    1  0.1506149E-007  0.2370038E+04  0.7818608E-02  0.8450807E-01
         -2   -1    0    0    0  501 -0.00000000000E+00  0.00000000000E+00  0.34165513560E+03  0.34165513560E+03  0.00000000000E+00 0.  1.
          2   -1    0    0  501    0  0.00000000000E+00 -0.00000000000E+00 -0.41101966920E+04  0.41101966920E+04  0.00000000000E+00 0. -1.
         23    2    1    2    0    0 -0.45838765987E+03  0.22444266632E+03 -0.32564257052E+04  0.32974582552E+04  0.91808570929E+02 0.  0.
        254    2    1    2    0    0  0.45838765987E+03 -0.22444266632E+03 -0.51211585119E+03  0.11543935724E+04  0.89992672916E+03 0.  0.
        -24    2    4    4    0    0  0.57050579245E+03 -0.16962462317E+03 -0.69545181836E+03  0.91876209895E+03  0.78874525766E+02 0.  0.
         24    2    4    4    0    0 -0.11211813258E+03 -0.54818043158E+02  0.18333596717E+03  0.23563147348E+03  0.79590331886E+02 0.  0.
         13    1    3    3    0    0 -0.17260188603E+03  0.54174816378E+02 -0.93770582318E+03  0.95499661393E+03  0.00000000000E+00 0.  1.
        -13    1    3    3    0    0 -0.28578577384E+03  0.17026784995E+03 -0.23187198820E+04  0.23424616412E+04  0.00000000000E+00 0. -1.
          2    1    6    6  502    0 -0.11255480767E+03 -0.21635840557E+02  0.14738618129E+03  0.18670667037E+03  0.00000000000E+00 0. -1.
          3    1    5    5  503    0  0.39800261279E+03 -0.12342866523E+03 -0.42957101739E+03  0.59847470637E+03  0.00000000000E+00 0. -1.
         -4    1    5    5    0  503  0.17250317966E+03 -0.46195957931E+02 -0.26588080097E+03  0.32028739258E+03  0.00000000000E+00 0.  1.
         -1    1    6    6    0  502  0.43667509383E+00 -0.33182202601E+02  0.35949785880E+02  0.48924803111E+02  0.00000000000E+00 0.  1.
<mgrwt>
<rscale>  0 0.23700378E+04</rscale>
<asrwt>0</asrwt>
<pdfrwt beam="1">  1        2 0.63233795E+00 0.23700378E+04</pdfrwt>
<pdfrwt beam="2">  1       -2 0.52562328E-01 0.23700378E+04</pdfrwt>
<totfact> 0.85906958E-01</totfact>
</mgrwt>
</event>
<event>
12    1  0.1506149E-007  0.1474121E+04  0.7818608E-02  0.8901847E-01
         -1   -1    0    0    0  501 -0.00000000000E+00  0.00000000000E+00  0.83603177370E+03  0.83603177370E+03  0.00000000000E+00 0.  1.
          1   -1    0    0  501    0  0.00000000000E+00 -0.00000000000E+00 -0.64980533387E+03  0.64980533387E+03  0.00000000000E+00 0. -1.
         23    2    1    2    0    0  0.36496712810E+03  0.24538770014E+03 -0.37566832690E+02  0.45044416075E+03  0.89847354234E+02 0.  0.
        254    2    1    2    0    0 -0.36496712810E+03 -0.24538770014E+03  0.22379327253E+03  0.10353929468E+04  0.91024117547E+03 0.  0.
        -24    2    4    4    0    0  0.47661039808E+02  0.18050125284E+03 -0.21328362545E+03  0.29455835565E+03  0.80140146027E+02 0.  0.
         24    2    4    4    0    0 -0.41262816791E+03 -0.42588895298E+03  0.43707689798E+03  0.74083459117E+03  0.78461911105E+02 0.  0.
         11    1    3    3    0    0  0.32834240596E+03  0.21517183544E+03 -0.61366562253E+02  0.39733299545E+03  0.00000000000E+00 0. -1.
        -11    1    3    3    0    0  0.36624722143E+02  0.30215864703E+02  0.23799729563E+02  0.53111165296E+02  0.00000000000E+00 0.  1.
          4    1    6    6  502    0 -0.61770975907E+02 -0.33987094549E+02  0.34765088807E+02  0.78609080011E+02  0.00000000000E+00 0. -1.
          1    1    5    5  503    0  0.65877463556E+01 -0.69498361449E+01 -0.33763632630E+01  0.10153740856E+02  0.00000000000E+00 0. -1.
         -2    1    5    5    0  503  0.41073293453E+02  0.18745108899E+03 -0.20990726219E+03  0.28440461480E+03  0.00000000000E+00 0.  1.
         -3    1    6    6    0  502 -0.35085719200E+03 -0.39190185844E+03  0.40231180917E+03  0.66222551115E+03  0.00000000000E+00 0.  1.
<mgrwt>
<rscale>  0 0.14741206E+04</rscale>
<asrwt>0</asrwt>
<pdfrwt beam="1">  1        1 0.99970051E-01 0.14741206E+04</pdfrwt>
<pdfrwt beam="2">  1       -1 0.12862027E+00 0.14741206E+04</pdfrwt>
<totfact> 0.15392459E+01</totfact>
</mgrwt>
</event>
<event>
12    1  0.1506149E-007  0.1773933E+04  0.7818608E-02  0.8720285E-01
          2   -1    0    0  501    0  0.00000000000E+00  0.00000000000E+00  0.23145405439E+04  0.23145405439E+04  0.00000000000E+00 0. -1.
         -2   -1    0    0    0  501 -0.00000000000E+00 -0.00000000000E+00 -0.33989898541E+03  0.33989898541E+03  0.00000000000E+00 0.  1.
         23    2    1    2    0    0  0.14434171640E+03 -0.12159530362E+03  0.16726875400E+04  0.16858098658E+04  0.91931214964E+02 0.  0.
        254    2    1    2    0    0 -0.14434171640E+03  0.12159530362E+03  0.30195401849E+03  0.96862966349E+03  0.90080366715E+03 0.  0.
        -24    2    4    4    0    0 -0.46784160519E+03  0.14661101704E+03  0.38040099584E+03  0.62561896412E+03  0.79521146632E+02 0.  0.
         24    2    4    4    0    0  0.32349988880E+03 -0.25015713426E+02 -0.78446977355E+02  0.34301069937E+03  0.78895168769E+02 0.  0.
         11    1    3    3    0    0  0.11671650654E+03 -0.11739704802E+03  0.10946001834E+04  0.11070475921E+04  0.00000000000E+00 0. -1.
        -11    1    3    3    0    0  0.27625209853E+02 -0.41982555997E+01  0.57808735657E+03  0.57876227364E+03  0.00000000000E+00 0.  1.
          2    1    6    6  502    0  0.22476446052E+03 -0.35271293556E+02 -0.21399428268E+02  0.22851928232E+03  0.00000000000E+00 0. -1.
          1    1    5    5  503    0 -0.16478504907E+03  0.90687087900E+02  0.15671697069E+03  0.24482334287E+03  0.00000000000E+00 0. -1.
         -2    1    5    5    0  503 -0.30305655612E+03  0.55923929140E+02  0.22368402515E+03  0.38079562125E+03  0.00000000000E+00 0.  1.
         -1    1    6    6    0  502  0.98735428278E+02  0.10255580131E+02 -0.57047549087E+02  0.11449141705E+03  0.00000000000E+00 0.  1.
<mgrwt>
<rscale>  0 0.17739335E+04</rscale>
<asrwt>0</asrwt>
<pdfrwt beam="1">  1        2 0.35608315E+00 0.17739335E+04</pdfrwt>
<pdfrwt beam="2">  1       -2 0.52292153E-01 0.17739335E+04</pdfrwt>
<totfact> 0.14534456E+01</totfact>
</mgrwt>
</event>
<event>
12    1  0.1506149E-007  0.1306820E+04  0.7818608E-02  0.9024174E-01
          1   -1    0    0  501    0  0.00000000000E+00  0.00000000000E+00  0.22007675153E+04  0.22007675153E+04  0.00000000000E+00 0. -1.
         -1   -1    0    0    0  501 -0.00000000000E+00 -0.00000000000E+00 -0.19399805005E+03  0.19399805005E+03  0.00000000000E+00 0.  1.
         23    2    1    2    0    0  0.52633024368E+02  0.51324687730E+02 -0.59422833309E+02  0.13212483630E+03  0.92311648367E+02 0.  0.
        254    2    1    2    0    0 -0.52633024368E+02 -0.51324687730E+02  0.20661922985E+04  0.22626407290E+04  0.91923228583E+03 0.  0.
        -24    2    4    4    0    0  0.17885491962E+01  0.42148433582E+03  0.79613760661E+03  0.90398308676E+03  0.75485682408E+02 0.  0.
         24    2    4    4    0    0 -0.54421573564E+02 -0.47280902355E+03  0.12700546919E+04  0.13586576423E+04  0.80009924279E+02 0.  0.
         13    1    3    3    0    0 -0.20630629600E+01  0.61310818658E+02 -0.39978630781E+02  0.73222698888E+02  0.00000000000E+00 0. -1.
        -13    1    3    3    0    0  0.54696087328E+02 -0.99861309273E+01 -0.19444202528E+02  0.58902137413E+02  0.00000000000E+00 0.  1.
          2    1    6    6  502    0 -0.55022902372E+00 -0.55607754654E+02  0.23273727174E+03  0.23928886891E+03  0.00000000000E+00 0. -1.
          3    1    5    5  503    0 -0.29003730454E+02  0.15554404956E+03  0.34157371176E+03  0.37644092272E+03  0.00000000000E+00 0. -1.
         -2    1    5    5    0  503  0.30792279650E+02  0.26594028626E+03  0.45456389484E+03  0.52754216404E+03  0.00000000000E+00 0.  1.
         -1    1    6    6    0  502 -0.53871344540E+02 -0.41720126889E+03  0.10373174202E+04  0.11193687734E+04  0.00000000000E+00 0.  1.
<mgrwt>
<rscale>  0 0.13068200E+04</rscale>
<asrwt>0</asrwt>
<pdfrwt beam="1">  1        1 0.33857960E+00 0.13068200E+04</pdfrwt>
<pdfrwt beam="2">  1       -1 0.29845855E-01 0.13068200E+04</pdfrwt>
<totfact> 0.22053780E+01</totfact>
</mgrwt>
</event>
<event>
12    1  0.1506149E-007  0.1957852E+04  0.7818608E-02  0.8626584E-01
         -2   -1    0    0    0  501 -0.00000000000E+00  0.00000000000E+00  0.37982889477E+03  0.37982889477E+03  0.00000000000E+00 0.  1.
          2   -1    0    0  501    0  0.00000000000E+00 -0.00000000000E+00 -0.25229671439E+04  0.25229671439E+04  0.00000000000E+00 0. -1.
         23    2    1    2    0    0  0.60305983919E+03  0.45552418999E+03 -0.63891969027E+03  0.99376723571E+03  0.90396298851E+02 0.  0.
        254    2    1    2    0    0 -0.60305983919E+03 -0.45552418999E+03 -0.15042185588E+04  0.19090288029E+04  0.90029664020E+03 0.  0.
        -24    2    4    4    0    0 -0.56538380846E+03 -0.13900675627E+03 -0.14643771360E+04  0.15777769408E+04  0.77446428436E+02 0.  0.
         24    2    4    4    0    0 -0.37676030732E+02 -0.31651743372E+03 -0.39841422846E+02  0.33125186215E+03  0.80855971126E+02 0.  0.
         11    1    3    3    0    0  0.42437717907E+03  0.30137604852E+03 -0.38719472507E+03  0.64872433888E+03  0.00000000000E+00 0.  1.
        -11    1    3    3    0    0  0.17868266012E+03  0.15414814147E+03 -0.25172496520E+03  0.34504289683E+03  0.00000000000E+00 0. -1.
          2    1    6    6  502    0 -0.31214871767E+02 -0.10672516055E+03  0.20034406578E+02  0.11298674949E+03  0.00000000000E+00 0. -1.
          3    1    5    5  503    0 -0.23450840466E+03 -0.57434256526E+02 -0.50690845024E+03  0.56147044678E+03  0.00000000000E+00 0. -1.
         -4    1    5    5    0  503 -0.33087540380E+03 -0.81572499747E+02 -0.95746868575E+03  0.10163064940E+04  0.00000000000E+00 0.  1.
         -1    1    6    6    0  502 -0.64611589657E+01 -0.20979227316E+03 -0.59875829423E+02  0.21826511266E+03  0.00000000000E+00 0.  1.
<mgrwt>
<rscale>  0 0.19578517E+04</rscale>
<asrwt>0</asrwt>
<pdfrwt beam="1">  1        2 0.38814878E+00 0.19578517E+04</pdfrwt>
<pdfrwt beam="2">  1       -2 0.58435216E-01 0.19578517E+04</pdfrwt>
<totfact> 0.86245509E+00</totfact>
</mgrwt>
</event>
<event>
12    1  0.1506149E-007  0.1699344E+04  0.7818608E-02  0.8761739E-01
          1   -1    0    0  501    0  0.00000000000E+00  0.00000000000E+00  0.93324055183E+03  0.93324055183E+03  0.00000000000E+00 0. -1.
         -1   -1    0    0    0  501 -0.00000000000E+00 -0.00000000000E+00 -0.77358673410E+03  0.77358673410E+03  0.00000000000E+00 0.  1.
         23    2    1    2    0    0 -0.41112000469E+03  0.13953097100E+03 -0.36707071020E+03  0.57609344237E+03  0.93027941680E+02 0.  0.
        254    2    1    2    0    0  0.41112000469E+03 -0.13953097100E+03  0.52672452792E+03  0.11307338436E+04  0.90146089573E+03 0.  0.
        -24    2    4    4    0    0  0.56853192837E+03 -0.27487351023E+03  0.62165173633E+03  0.88921302017E+03  0.73925054940E+02 0.  0.
         24    2    4    4    0    0 -0.15741192368E+03  0.13534253924E+03 -0.94927208409E+02  0.24152082339E+03  0.78898774327E+02 0.  0.
         11    1    3    3    0    0 -0.30137666735E+03  0.80285722207E+02 -0.21210592648E+03  0.37717716906E+03  0.00000000000E+00 0.  1.
        -11    1    3    3    0    0 -0.10974333734E+03  0.59245248788E+02 -0.15496478372E+03  0.19891627331E+03  0.00000000000E+00 0. -1.
          2    1    6    6  502    0 -0.84115688641E+02  0.74371296141E+02 -0.93591576313E+02  0.14617086550E+03  0.00000000000E+00 0. -1.
          3    1    5    5  503    0  0.29083518625E+03 -0.15344279119E+03  0.37239566731E+03  0.49679807644E+03  0.00000000000E+00 0. -1.
         -4    1    5    5    0  503  0.27769674213E+03 -0.12143071904E+03  0.24925606902E+03  0.39241494373E+03  0.00000000000E+00 0.  1.
         -1    1    6    6    0  502 -0.73296235044E+02  0.60971243095E+02 -0.13356320960E+01  0.95349957888E+02  0.00000000000E+00 0.  1.
<mgrwt>
<rscale>  0 0.16993440E+04</rscale>
<asrwt>0</asrwt>
<pdfrwt beam="1">  1        1 0.14357547E+00 0.16993440E+04</pdfrwt>
<pdfrwt beam="2">  1       -1 0.11901334E+00 0.16993440E+04</pdfrwt>
<totfact> 0.10280929E+01</totfact>
</mgrwt>
</event>
<event>
12    1  0.1506149E-007  0.2086513E+04  0.7818608E-02  0.8567208E-01
         -2   -1    0    0    0  501 -0.00000000000E+00  0.00000000000E+00  0.10807260399E+04  0.10807260399E+04  0.00000000000E+00 0.  1.
          2   -1    0    0  501    0  0.00000000000E+00 -0.00000000000E+00 -0.10070860096E+04  0.10070860096E+04  0.00000000000E+00 0. -1.
         23    2    1    2    0    0  0.89076909016E+02 -0.53049908412E+02  0.86785882261E+03  0.87869786267E+03  0.90454460262E+02 0.  0.
        254    2    1    2    0    0 -0.89076909016E+02  0.53049908412E+02 -0.79421879237E+03  0.12091141869E+04  0.90577295070E+03 0.  0.
        -24    2    4    4    0    0  0.25877288370E+03 -0.27453572554E+03 -0.53674488472E+03  0.66095644496E+03  0.80218956141E+02 0.  0.
         24    2    4    4    0    0 -0.34784979272E+03  0.32758563395E+03 -0.25747390766E+03  0.54815774191E+03  0.76630744618E+02 0.  0.
         13    1    3    3    0    0  0.14044257355E+02  0.18280090726E+02  0.60753361513E+02  0.64979795450E+02  0.00000000000E+00 0. -1.
        -13    1    3    3    0    0  0.75032651661E+02 -0.71329999137E+02  0.80710546110E+03  0.81371806722E+03  0.00000000000E+00 0.  1.
          2    1    6    6  502    0 -0.32109160346E+03  0.28712006046E+03 -0.25273975506E+03  0.49941478825E+03  0.00000000000E+00 0. -1.
          3    1    5    5  503    0  0.24384109871E+03 -0.25160182572E+03 -0.45196514503E+03  0.57186926167E+03  0.00000000000E+00 0. -1.
         -4    1    5    5    0  503  0.14931784987E+02 -0.22933899827E+02 -0.84779739688E+02  0.89087183285E+02  0.00000000000E+00 0.  1.
         -1    1    6    6    0  502 -0.26758189256E+02  0.40465573497E+02 -0.47341525951E+01  0.48742953660E+02  0.00000000000E+00 0.  1.
<mgrwt>
<rscale>  0 0.20865130E+04</rscale>
<asrwt>0</asrwt>
<pdfrwt beam="1">  1        2 0.15493631E+00 0.20865130E+04</pdfrwt>
<pdfrwt beam="2">  1       -2 0.16626554E+00 0.20865130E+04</pdfrwt>
<totfact> 0.52119284E+00</totfact>
</mgrwt>
</event>
<event>
12    1  0.1506149E-007  0.2331220E+04  0.7818608E-02  0.8465712E-01
         -2   -1    0    0    0  501 -0.00000000000E+00  0.00000000000E+00  0.98135076145E+03  0.98135076145E+03  0.00000000000E+00 0.  1.
          2   -1    0    0  501    0  0.00000000000E+00 -0.00000000000E+00 -0.13844656755E+04  0.13844656755E+04  0.00000000000E+00 0. -1.
         23    2    1    2    0    0  0.59117537924E+02  0.20798680429E+03 -0.11489218321E+04  0.11736358804E+04  0.10318143954E+03 0.  0.
        254    2    1    2    0    0 -0.59117537924E+02 -0.20798680429E+03  0.74580691805E+03  0.11921805565E+04  0.90460661413E+03 0.  0.
        -24    2    4    4    0    0 -0.95663267672E+02  0.34571619952E+03  0.33571035839E+03  0.49781910441E+03  0.80319764595E+02 0.  0.
         24    2    4    4    0    0  0.36545729748E+02 -0.55370300381E+03  0.41009655965E+03  0.69436145214E+03  0.77691899041E+02 0.  0.
         13    1    3    3    0    0  0.70938981078E+02  0.85978579600E+02 -0.42313269616E+03  0.43756820468E+03  0.00000000000E+00 0.  1.
        -13    1    3    3    0    0 -0.11821443154E+02  0.12200822469E+03 -0.72578913597E+03  0.73606767576E+03  0.00000000000E+00 0. -1.
          4    1    6    6  502    0 -0.42486285907E+01 -0.12470684277E+03  0.56713168121E+02  0.13706287214E+03  0.00000000000E+00 0. -1.
          1    1    5    5  503    0 -0.40880213630E+02  0.17563700387E+03  0.22203531248E+03  0.28604060722E+03  0.00000000000E+00 0. -1.
         -2    1    5    5    0  503 -0.54783054042E+02  0.17007919566E+03  0.11367504592E+03  0.21177849718E+03  0.00000000000E+00 0.  1.
         -3    1    6    6    0  502  0.40794358339E+02 -0.42899616104E+03  0.35338339153E+03  0.55729858000E+03  0.00000000000E+00 0.  1.
<mgrwt>
<rscale>  0 0.23312198E+04</rscale>
<asrwt>0</asrwt>
<pdfrwt beam="1">  1        2 0.21299472E+00 0.23312198E+04</pdfrwt>
<pdfrwt beam="2">  1       -2 0.15097704E+00 0.23312198E+04</pdfrwt>
<totfact> 0.39342410E+00</totfact>
</mgrwt>
</event>
<event>
12    1  0.1506149E-007  0.1649608E+04  0.7818608E-02  0.8790638E-01
         -2   -1    0    0    0  501 -0.00000000000E+00  0.00000000000E+00  0.42090491179E+03  0.42090491179E+03  0.00000000000E+00 0.  1.
          2   -1    0    0  501    0  0.00000000000E+00 -0.00000000000E+00 -0.16162835813E+04  0.16162835813E+04  0.00000000000E+00 0. -1.
         23    2    1    2    0    0 -0.53988358858E+03 -0.48539946103E+02 -0.69510415663E+03  0.88618605719E+03  0.91244308370E+02 0.  0.
        254    2    1    2    0    0  0.53988358858E+03  0.48539946103E+02 -0.50027451286E+03  0.11510024359E+04  0.88357320218E+03 0.  0.
        -24    2    4    4    0    0  0.69439238499E+03  0.20341529451E+02 -0.90870831952E+02  0.70565933641E+03  0.84279468523E+02 0.  0.
         24    2    4    4    0    0 -0.15450879641E+03  0.28198416652E+02 -0.40940368091E+03  0.44534309947E+03  0.77788067402E+02 0.  0.
         13    1    3    3    0    0 -0.10941606451E+03 -0.12402809649E+02 -0.87376766842E+02  0.14057170499E+03  0.00000000000E+00 0.  1.
        -13    1    3    3    0    0 -0.43046752407E+03 -0.36137136454E+02 -0.60772738979E+03  0.74561435220E+03  0.00000000000E+00 0. -1.
          4    1    6    6  502    0 -0.48535687374E+02  0.96811576430E+01 -0.23712207020E+03  0.24223194244E+03  0.00000000000E+00 0. -1.
          1    1    5    5  503    0  0.42672225824E+03  0.37130789219E+02 -0.22704585869E+02  0.42893598521E+03  0.00000000000E+00 0. -1.
         -2    1    5    5    0  503  0.26767012675E+03 -0.16789259768E+02 -0.68166246083E+02  0.27672335121E+03  0.00000000000E+00 0.  1.
         -3    1    6    6    0  502 -0.10597310904E+03  0.18517259009E+02 -0.17228161071E+03  0.20311115703E+03  0.00000000000E+00 0.  1.
<mgrwt>
<rscale>  0 0.16496081E+04</rscale>
<asrwt>0</asrwt>
<pdfrwt beam="1">  1        2 0.24865901E+00 0.16496081E+04</pdfrwt>
<pdfrwt beam="2">  1       -2 0.64754601E-01 0.16496081E+04</pdfrwt>
<totfact> 0.22958234E+01</totfact>
</mgrwt>
</event>
<event>
12    1  0.1506149E-007  0.1224991E+04  0.7818608E-02  0.9091259E-01
          2   -1    0    0  501    0  0.00000000000E+00  0.00000000000E+00  0.22851680399E+04  0.22851680399E+04  0.00000000000E+00 0.  1.
         -2   -1    0    0    0  501 -0.00000000000E+00 -0.00000000000E+00 -0.16416755276E+03  0.16416755276E+03  0.00000000000E+00 0. -1.
         23    2    1    2    0    0  0.56113010923E+02  0.25076068120E+03  0.61651228621E+03  0.67460898384E+03  0.94764406819E+02 0.  0.
        254    2    1    2    0    0 -0.56113010923E+02 -0.25076068120E+03  0.15044882009E+04  0.17747266088E+04  0.90561592307E+03 0.  0.
        -24    2    4    4    0    0 -0.13441854307E+03 -0.37955346175E+03  0.19522091506E+03  0.45435092658E+03  0.78704407473E+02 0.  0.
         24    2    4    4    0    0  0.78305532151E+02  0.12879278055E+03  0.13092672859E+04  0.13203756822E+04  0.80571581510E+02 0.  0.
         13    1    3    3    0    0  0.56450736979E+02  0.25910199848E+03  0.60288349497E+03  0.65862663159E+03  0.00000000000E+00 0. -1.
        -13    1    3    3    0    0 -0.33772605620E+00 -0.83413172864E+01  0.13628791234E+02  0.15982352251E+02  0.00000000000E+00 0.  1.
          2    1    6    6  502    0  0.36475776396E+02  0.11675422049E+02  0.51597721381E+03  0.51739663984E+03  0.00000000000E+00 0. -1.
          1    1    5    5  503    0 -0.12840303202E+02 -0.99452964646E+01  0.24638550733E+02  0.29510006613E+02  0.00000000000E+00 0. -1.
         -4    1    5    5    0  503 -0.12157823987E+03 -0.36960816529E+03  0.17058236433E+03  0.42484091997E+03  0.00000000000E+00 0.  1.
         -1    1    6    6    0  502  0.41829755754E+02  0.11711735851E+03  0.79329007205E+03  0.80297904241E+03  0.00000000000E+00 0.  1.
<mgrwt>
<rscale>  0 0.12249905E+04</rscale>
<asrwt>0</asrwt>
<pdfrwt beam="1">  1        2 0.35156429E+00 0.12249905E+04</pdfrwt>
<pdfrwt beam="2">  1       -2 0.25256548E-01 0.12249905E+04</pdfrwt>
<totfact> 0.64352081E+01</totfact>
</mgrwt>
</event>
<event>
12    1  0.1550441E-007  0.1893895E+04  0.7818608E-02  0.8657901E-01
         -2   -1    0    0    0  501 -0.00000000000E+00  0.00000000000E+00  0.55798869448E+03  0.55798869448E+03  0.00000000000E+00 0. -1.
          2   -1    0    0  501    0  0.00000000000E+00 -0.00000000000E+00 -0.16070384742E+04  0.16070384742E+04  0.00000000000E+00 0.  1.
         23    2    1    2    0    0  0.14804753716E+03 -0.47608125021E+03  0.20033787418E+03  0.54497204086E+03  0.91037527596E+02 0.  0.
        254    2    1    2    0    0 -0.14804753716E+03  0.47608125021E+03 -0.12493876539E+04  0.16200551278E+04  0.90279437161E+03 0.  0.
        -24    2    4    4    0    0 -0.13914857836E+03 -0.23383938029E+03 -0.19362707140E+03  0.34519273009E+03  0.87312058110E+02 0.  0.
         24    2    4    4    0    0 -0.88989587945E+01  0.70992063050E+03 -0.10557605825E+04  0.12748623977E+04  0.81100138815E+02 0.  0.
         11    1    3    3    0    0  0.19331798073E+02 -0.11288124023E+02  0.20166571944E+02  0.30130230412E+02  0.00000000000E+00 0. -1.
        -11    1    3    3    0    0  0.12871573909E+03 -0.46479312619E+03  0.18017130223E+03  0.51484181045E+03  0.00000000000E+00 0.  1.
          2    1    6    6  502    0 -0.39676408525E+02  0.21319863188E+03 -0.32803180658E+03  0.39323369662E+03  0.00000000000E+00 0. -1.
          3    1    5    5  503    0  0.88611541269E+01 -0.43867838750E+02 -0.25784629253E+02  0.51650309145E+02  0.00000000000E+00 0. -1.
         -4    1    5    5    0  503 -0.14800973249E+03 -0.18997154154E+03 -0.16784244214E+03  0.29354242094E+03  0.00000000000E+00 0.  1.
         -1    1    6    6    0  502  0.30777449731E+02  0.49672199862E+03 -0.72772877593E+03  0.88162870112E+03  0.00000000000E+00 0.  1.
<mgrwt>
<rscale>  0 0.18938947E+04</rscale>
<asrwt>0</asrwt>
<pdfrwt beam="1">  1        2 0.24723669E+00 0.18938947E+04</pdfrwt>
<pdfrwt beam="2">  1       -2 0.85844415E-01 0.18938947E+04</pdfrwt>
<totfact> 0.12198639E+01</totfact>
</mgrwt>
</event>
<event>
12    1  0.1506149E-007  0.1473056E+04  0.7818608E-02  0.8902571E-01
         -1   -1    0    0    0  501 -0.00000000000E+00  0.00000000000E+00  0.34198242432E+03  0.34198242432E+03  0.00000000000E+00 0.  1.
          1   -1    0    0  501    0  0.00000000000E+00 -0.00000000000E+00 -0.15862603751E+04  0.15862603751E+04  0.00000000000E+00 0. -1.
         23    2    1    2    0    0  0.26310286559E+02  0.38658484198E+03 -0.11321670497E+03  0.41374481844E+03  0.90701054408E+02 0.  0.
        254    2    1    2    0    0 -0.26310286559E+02 -0.38658484198E+03 -0.11310612458E+04  0.15144979810E+04  0.92965828207E+03 0.  0.
        -24    2    4    4    0    0  0.16828000479E+03  0.17173879734E+03 -0.78455188908E+03  0.82445230439E+03  0.79922218655E+02 0.  0.
         24    2    4    4    0    0 -0.19459029134E+03 -0.55832363932E+03 -0.34650935672E+03  0.69004567659E+03  0.80645110096E+02 0.  0.
         13    1    3    3    0    0 -0.29276844601E+01  0.24301893509E+03 -0.11107549102E+03  0.26721627730E+03  0.00000000000E+00 0.  1.
        -13    1    3    3    0    0  0.29237971019E+02  0.14356590689E+03 -0.21412139518E+01  0.14652854113E+03  0.00000000000E+00 0. -1.
          2    1    6    6  502    0 -0.40705650904E+02 -0.23687883061E+03 -0.13821474593E+03  0.27725772559E+03  0.00000000000E+00 0. -1.
          3    1    5    5  503    0  0.70801763685E+02  0.12553101663E+03 -0.40555997633E+03  0.43040657555E+03  0.00000000000E+00 0. -1.
         -4    1    5    5    0  503  0.97478241100E+02  0.46207780702E+02 -0.37899191275E+03  0.39404572884E+03  0.00000000000E+00 0.  1.
         -1    1    6    6    0  502 -0.15388464044E+03 -0.32144480871E+03 -0.20829461078E+03  0.41278795100E+03  0.00000000000E+00 0.  1.
<mgrwt>
<rscale>  0 0.14730556E+04</rscale>
<asrwt>0</asrwt>
<pdfrwt beam="1">  1        1 0.24404006E+00 0.14730556E+04</pdfrwt>
<pdfrwt beam="2">  1       -1 0.52612680E-01 0.14730556E+04</pdfrwt>
<totfact> 0.20127102E+01</totfact>
</mgrwt>
</event>
<event>
12    1  0.1506149E-007  0.2407041E+04  0.7818608E-02  0.8436872E-01
         -2   -1    0    0    0  501 -0.00000000000E+00  0.00000000000E+00  0.59110244007E+03  0.59110244007E+03  0.00000000000E+00 0.  1.
          2   -1    0    0  501    0  0.00000000000E+00 -0.00000000000E+00 -0.24504414418E+04  0.24504414418E+04  0.00000000000E+00 0. -1.
         23    2    1    2    0    0  0.82661324823E+03  0.12038025376E+03 -0.31922581148E+02  0.84096803810E+03  0.91800448064E+02 0.  0.
        254    2    1    2    0    0 -0.82661324823E+03 -0.12038025376E+03 -0.18274164206E+04  0.22005758438E+04  0.89738642868E+03 0.  0.
        -24    2    4    4    0    0 -0.48199059234E+03  0.24660719352E+02 -0.20022080641E+03  0.52914766306E+03  0.83581073356E+02 0.  0.
         24    2    4    4    0    0 -0.34462265589E+03 -0.14504097311E+03 -0.16271956142E+04  0.16714281807E+04  0.78134100755E+02 0.  0.
         11    1    3    3    0    0  0.98340442703E+02  0.12053212998E+02 -0.33791400768E+02  0.10468037725E+03  0.00000000000E+00 0. -1.
        -11    1    3    3    0    0  0.72827280553E+03  0.10832704076E+03  0.18688196198E+01  0.73628766085E+03  0.00000000000E+00 0.  1.
          2    1    6    6  502    0 -0.34433868447E+03 -0.14086702592E+03 -0.16242452806E+04  0.16663089090E+04  0.00000000000E+00 0. -1.
          3    1    5    5  503    0 -0.40359298956E+03  0.63273421348E+00 -0.19139682972E+03  0.44667711829E+03  0.00000000000E+00 0. -1.
         -4    1    5    5    0  503 -0.78397602776E+02  0.24027985138E+02 -0.88239766962E+01  0.82470544775E+02  0.00000000000E+00 0.  1.
         -1    1    6    6    0  502 -0.28397142275E+00 -0.41739471917E+01 -0.29503335690E+01  0.51192717349E+01  0.00000000000E+00 0.  1.
<mgrwt>
<rscale>  0 0.24070413E+04</rscale>
<asrwt>0</asrwt>
<pdfrwt beam="1">  1        2 0.37699100E+00 0.24070413E+04</pdfrwt>
<pdfrwt beam="2">  1       -2 0.90938834E-01 0.24070413E+04</pdfrwt>
<totfact> 0.34476337E+00</totfact>
</mgrwt>
</event>
<event>
12    1  0.1506149E-007  0.2132160E+04  0.7818608E-02  0.8547208E-01
         -2   -1    0    0    0  501 -0.00000000000E+00  0.00000000000E+00  0.13106760891E+04  0.13106760891E+04  0.00000000000E+00 0.  1.
          2   -1    0    0  501    0  0.00000000000E+00 -0.00000000000E+00 -0.86712978973E+03  0.86712978973E+03  0.00000000000E+00 0. -1.
         23    2    1    2    0    0 -0.28587319188E+03  0.81229341967E+03  0.34578938873E+03  0.93271998959E+03  0.94086110195E+02 0.  0.
        254    2    1    2    0    0  0.28587319188E+03 -0.81229341967E+03  0.97756910608E+02  0.12450858892E+04  0.89394539904E+03 0.  0.
        -24    2    4    4    0    0  0.56121999225E+03 -0.55657275746E+03  0.24863157317E+03  0.83250024894E+03  0.80609498530E+02 0.  0.
         24    2    4    4    0    0 -0.27534680037E+03 -0.25572066221E+03 -0.15087466256E+03  0.41258564027E+03  0.79087478154E+02 0.  0.
         13    1    3    3    0    0 -0.22362713168E+03  0.69347410797E+03  0.32144028455E+03  0.79639141694E+03  0.00000000000E+00 0. -1.
        -13    1    3    3    0    0 -0.62246060202E+02  0.11881931170E+03  0.24349104181E+02  0.13632857264E+03  0.00000000000E+00 0.  1.
          4    1    6    6  502    0 -0.16987838435E+02 -0.49064281177E+02 -0.94072196010E+01  0.52767282693E+02  0.00000000000E+00 0. -1.
          1    1    5    5  503    0  0.61101566471E+02 -0.98619463252E+02  0.45466469201E+02  0.12460497494E+03  0.00000000000E+00 0. -1.
         -2    1    5    5    0  503  0.50011842578E+03 -0.45795329421E+03  0.20316510397E+03  0.70789527400E+03  0.00000000000E+00 0.  1.
         -3    1    6    6    0  502 -0.25835896194E+03 -0.20665638103E+03 -0.14146744296E+03  0.35981835758E+03  0.00000000000E+00 0.  1.
<mgrwt>
<rscale>  0 0.21321597E+04</rscale>
<asrwt>0</asrwt>
<pdfrwt beam="1">  1        2 0.13340458E+00 0.21321597E+04</pdfrwt>
<pdfrwt beam="2">  1       -2 0.20164247E+00 0.21321597E+04</pdfrwt>
<totfact> 0.36809926E+00</totfact>
</mgrwt>
</event>
<event>
12    1  0.1506149E-007  0.1131330E+04  0.7818608E-02  0.9175182E-01
          2   -1    0    0  501    0  0.00000000000E+00  0.00000000000E+00  0.16539746430E+04  0.16539746430E+04  0.00000000000E+00 0. -1.
         -2   -1    0    0    0  501 -0.00000000000E+00 -0.00000000000E+00 -0.19345943316E+03  0.19345943316E+03  0.00000000000E+00 0.  1.
         23    2    1    2    0    0  0.15457758651E+03  0.12494770011E+03  0.25043056704E+03  0.33124421145E+03  0.86608895027E+02 0.  0.
        254    2    1    2    0    0 -0.15457758651E+03 -0.12494770011E+03  0.12100846428E+04  0.15161898647E+04  0.89163933577E+03 0.  0.
        -24    2    4    4    0    0  0.13359477954E+03 -0.42166628514E+03  0.39353998152E+03  0.59737030795E+03  0.79545877451E+02 0.  0.
         24    2    4    4    0    0 -0.28817236605E+03  0.29671858503E+03  0.81654466130E+03  0.91881955678E+03  0.79993516987E+02 0.  0.
         11    1    3    3    0    0  0.13905915496E+03  0.12673663313E+03  0.25312571228E+03  0.31539221451E+03  0.00000000000E+00 0. -1.
        -11    1    3    3    0    0  0.15518431554E+02 -0.17889330188E+01 -0.26951452411E+01  0.15851996944E+02  0.00000000000E+00 0.  1.
          2    1    6    6  502    0 -0.28695384111E+03  0.30138738710E+03  0.81044395032E+03  0.91104130567E+03  0.00000000000E+00 0. -1.
          1    1    5    5  503    0  0.13519053076E+03 -0.34642119289E+03  0.30333922969E+03  0.47989458296E+03  0.00000000000E+00 0. -1.
         -2    1    5    5    0  503 -0.15957512193E+01 -0.75245092251E+02  0.90200751831E+02  0.11747572498E+03  0.00000000000E+00 0.  1.
         -1    1    6    6    0  502 -0.12185249407E+01 -0.46688020687E+01  0.61007109814E+01  0.77782511059E+01  0.00000000000E+00 0.  1.
<mgrwt>
<rscale>  0 0.11313302E+04</rscale>
<asrwt>0</asrwt>
<pdfrwt beam="1">  1        2 0.25445763E+00 0.11313302E+04</pdfrwt>
<pdfrwt beam="2">  1       -2 0.29762991E-01 0.11313302E+04</pdfrwt>
<totfact> 0.10727110E+02</totfact>
</mgrwt>
</event>
<event>
12    1  0.1506149E-007  0.1675131E+04  0.7818608E-02  0.8775677E-01
          1   -1    0    0  501    0  0.00000000000E+00  0.00000000000E+00  0.68899841818E+03  0.68899841818E+03  0.00000000000E+00 0. -1.
         -1   -1    0    0    0  501 -0.00000000000E+00 -0.00000000000E+00 -0.10181675708E+04  0.10181675708E+04  0.00000000000E+00 0.  1.
         23    2    1    2    0    0 -0.15554184557E+03 -0.24602343986E+03  0.40307810245E+03  0.50558064509E+03  0.91755290514E+02 0.  0.
        254    2    1    2    0    0  0.15554184557E+03  0.24602343986E+03 -0.73224725509E+03  0.12015853439E+04  0.90713863186E+03 0.  0.
        -24    2    4    4    0    0 -0.31099551164E+03  0.33711471277E+03 -0.30728481182E+03  0.55913330736E+03  0.88552594540E+02 0.  0.
         24    2    4    4    0    0  0.46653735721E+03 -0.91091272909E+02 -0.42496244327E+03  0.64245203654E+03  0.78719853828E+02 0.  0.
         13    1    3    3    0    0 -0.10647066459E+03 -0.86399296165E+02  0.20297804067E+03  0.24495086403E+03  0.00000000000E+00 0. -1.
        -13    1    3    3    0    0 -0.49071180981E+02 -0.15962414369E+03  0.20010006178E+03  0.26062978106E+03  0.00000000000E+00 0.  1.
          4    1    6    6  502    0  0.18759460188E+03 -0.84114674219E+00 -0.18665356084E+03  0.26463558709E+03  0.00000000000E+00 0. -1.
          3    1    5    5  503    0 -0.20679262034E+03  0.22431945247E+03 -0.15244837345E+03  0.34106144776E+03  0.00000000000E+00 0. -1.
         -4    1    5    5    0  503 -0.10420289130E+03  0.11279526030E+03 -0.15483643837E+03  0.21807185960E+03  0.00000000000E+00 0.  1.
         -3    1    6    6    0  502  0.27894275533E+03 -0.90250126167E+02 -0.23830888244E+03  0.37781644945E+03  0.00000000000E+00 0.  1.
<mgrwt>
<rscale>  0 0.16751309E+04</rscale>
<asrwt>0</asrwt>
<pdfrwt beam="1">  1        1 0.10599976E+00 0.16751309E+04</pdfrwt>
<pdfrwt beam="2">  1       -1 0.15664116E+00 0.16751309E+04</pdfrwt>
<totfact> 0.82498970E+00</totfact>
</mgrwt>
</event>
<event>
12    1  0.1506149E-007  0.2429117E+04  0.7818608E-02  0.8428682E-01
          3   -1    0    0  501    0  0.00000000000E+00  0.00000000000E+00  0.15175281951E+04  0.15175281951E+04  0.00000000000E+00 0. -1.
         -3   -1    0    0    0  501 -0.00000000000E+00 -0.00000000000E+00 -0.97207606300E+03  0.97207606300E+03  0.00000000000E+00 0.  1.
         23    2    1    2    0    0  0.73948967700E+03  0.65422228631E+03  0.40903900531E+03  0.10725089975E+04  0.90060310808E+02 0.  0.
        254    2    1    2    0    0 -0.73948967700E+03 -0.65422228631E+03  0.13641312683E+03  0.14170952606E+04  0.10073225175E+04 0.  0.
        -24    2    4    4    0    0 -0.25926960502E+03 -0.19570323950E+03  0.54073402011E+03  0.63602489377E+03  0.81325881191E+02 0.  0.
         24    2    4    4    0    0 -0.48022007198E+03 -0.45851904682E+03 -0.40432089329E+03  0.78107036685E+03  0.75792475879E+02 0.  0.
         13    1    3    3    0    0  0.52343561191E+03  0.51484300218E+03  0.29516543125E+03  0.79130954026E+03  0.00000000000E+00 0.  1.
        -13    1    3    3    0    0  0.21605406509E+03  0.13937928413E+03  0.11387357407E+03  0.28119945725E+03  0.00000000000E+00 0. -1.
          4    1    6    6  502    0 -0.40731430911E+02 -0.52977568864E+02 -0.18273328080E+02  0.69279050123E+02  0.00000000000E+00 0. -1.
          1    1    5    5  503    0 -0.83326180063E+02 -0.33683797193E+02  0.20470526157E+03  0.22356675646E+03  0.00000000000E+00 0. -1.
         -2    1    5    5    0  503 -0.17594342495E+03 -0.16201944230E+03  0.33602875854E+03  0.41245813731E+03  0.00000000000E+00 0.  1.
         -3    1    6    6    0  502 -0.43948864107E+03 -0.40554147795E+03 -0.38604756521E+03  0.71179131673E+03  0.00000000000E+00 0.  1.
<mgrwt>
<rscale>  0 0.24291174E+04</rscale>
<asrwt>0</asrwt>
<pdfrwt beam="1">  1        3 0.23346588E+00 0.24291174E+04</pdfrwt>
<pdfrwt beam="2">  1       -3 0.14955016E+00 0.24291174E+04</pdfrwt>
<totfact> 0.70052372E-02</totfact>
</mgrwt>
</event>
<event>
12    1  0.1506149E-007  0.1968839E+04  0.7818608E-02  0.8621329E-01
         -4   -1    0    0    0  501 -0.00000000000E+00  0.00000000000E+00  0.20388390224E+04  0.20388390224E+04  0.00000000000E+00 0.  1.
          4   -1    0    0  501    0  0.00000000000E+00 -0.00000000000E+00 -0.47531067937E+03  0.47531067937E+03  0.00000000000E+00 0. -1.
         23    2    1    2    0    0 -0.34563934098E+03 -0.47467596801E+03  0.12665582336E+04  0.13995378151E+04  0.98754788564E+02 0.  0.
        254    2    1    2    0    0  0.34563934098E+03  0.47467596801E+03  0.29697010944E+03  0.11146118866E+04  0.89965803687E+03 0.  0.
        -24    2    4    4    0    0 -0.27762315836E+03  0.26033563564E+03  0.41122566225E+01  0.38885472498E+03  0.79635577763E+02 0.  0.
         24    2    4    4    0    0  0.62326249934E+03  0.21434033237E+03  0.29285785282E+03  0.72575716166E+03  0.80992682281E+02 0.  0.
         13    1    3    3    0    0 -0.22507963093E+03 -0.22654233614E+03  0.66089447419E+03  0.73400529721E+03  0.00000000000E+00 0. -1.
        -13    1    3    3    0    0 -0.12055971005E+03 -0.24813363187E+03  0.60566375942E+03  0.66553251793E+03  0.00000000000E+00 0.  1.
          2    1    6    6  502    0  0.57404928955E+03  0.17640036050E+03  0.25129390679E+03  0.65099792750E+03  0.00000000000E+00 0. -1.
          3    1    5    5  503    0 -0.26956691836E+03  0.26605885743E+03  0.20433259103E+01  0.37875825308E+03  0.00000000000E+00 0. -1.
         -4    1    5    5    0  503 -0.80562399927E+01 -0.57232217956E+01  0.20689307122E+01  0.10096471900E+02  0.00000000000E+00 0.  1.
         -1    1    6    6    0  502  0.49213209789E+02  0.37939971871E+02  0.41563946027E+02  0.74759234163E+02  0.00000000000E+00 0.  1.
<mgrwt>
<rscale>  0 0.19688392E+04</rscale>
<asrwt>0</asrwt>
<pdfrwt beam="1">  1        4 0.73124721E-01 0.19688392E+04</pdfrwt>
<pdfrwt beam="2">  1       -4 0.31366754E+00 0.19688392E+04</pdfrwt>
<totfact> 0.80443410E-02</totfact>
</mgrwt>
</event>
<event>
12    1  0.1506149E-007  0.1533594E+04  0.7818608E-02  0.8862415E-01
         -2   -1    0    0    0  501 -0.00000000000E+00  0.00000000000E+00  0.39355293640E+03  0.39355293640E+03  0.00000000000E+00 0.  1.
          2   -1    0    0  501    0  0.00000000000E+00 -0.00000000000E+00 -0.14940247500E+04  0.14940247500E+04  0.00000000000E+00 0. -1.
         23    2    1    2    0    0  0.28435688378E+03  0.17678574189E+03 -0.82211890069E+03  0.89259764292E+03  0.93482775882E+02 0.  0.
        254    2    1    2    0    0 -0.28435688378E+03 -0.17678574189E+03 -0.27835291294E+03  0.99498004350E+03  0.89464680569E+03 0.  0.
        -24    2    4    4    0    0 -0.40044835102E+03 -0.28861350356E+03  0.15700357635E+03  0.52412117620E+03  0.79976547105E+02 0.  0.
         24    2    4    4    0    0  0.11609146724E+03  0.11182776167E+03 -0.43535648929E+03  0.47085886730E+03  0.78677335386E+02 0.  0.
         11    1    3    3    0    0  0.13473941952E+03  0.12307108540E+03 -0.52197970334E+03  0.55295932394E+03  0.00000000000E+00 0. -1.
        -11    1    3    3    0    0  0.14961746426E+03  0.53714656495E+02 -0.30013919735E+03  0.33963831898E+03  0.00000000000E+00 0.  1.
          4    1    6    6  502    0  0.10113903536E+03  0.12224880180E+03 -0.41002180369E+03  0.43964958037E+03  0.00000000000E+00 0. -1.
          1    1    5    5  503    0 -0.35134121129E+03 -0.23623127637E+03  0.10719135787E+03  0.43673315639E+03  0.00000000000E+00 0. -1.
         -2    1    5    5    0  503 -0.49107139730E+02 -0.52382227189E+02  0.49812218474E+02  0.87388019814E+02  0.00000000000E+00 0.  1.
         -3    1    6    6    0  502  0.14952431878E+02 -0.10421040131E+02 -0.25334685597E+02  0.31209286931E+02  0.00000000000E+00 0.  1.
<mgrwt>
<rscale>  0 0.15335942E+04</rscale>
<asrwt>0</asrwt>
<pdfrwt beam="1">  1        2 0.22984996E+00 0.15335942E+04</pdfrwt>
<pdfrwt beam="2">  1       -2 0.60546605E-01 0.15335942E+04</pdfrwt>
<totfact> 0.31320497E+01</totfact>
</mgrwt>
</event>
<event>
12    1  0.1506149E-007  0.1983062E+04  0.7818608E-02  0.8614581E-01
          2   -1    0    0  501    0  0.00000000000E+00  0.00000000000E+00  0.16551317899E+04  0.16551317899E+04  0.00000000000E+00 0. -1.
         -2   -1    0    0    0  501 -0.00000000000E+00 -0.00000000000E+00 -0.59399094240E+03  0.59399094240E+03  0.00000000000E+00 0.  1.
         23    2    1    2    0    0 -0.10830041939E+03  0.35696404903E+03 -0.39851319115E+03  0.55594670933E+03  0.10541189195E+03 0.  0.
        254    2    1    2    0    0  0.10830041939E+03 -0.35696404903E+03  0.14596540386E+04  0.16931760229E+04  0.77272428399E+03 0.  0.
        -24    2    4    4    0    0 -0.24056646922E+03 -0.28174845130E+03  0.31835897256E+03  0.49485774613E+03  0.79229650816E+02 0.  0.
         24    2    4    4    0    0  0.34886688861E+03 -0.75215597725E+02  0.11412950661E+04  0.11983182768E+04  0.77760996791E+02 0.  0.
         11    1    3    3    0    0  0.17672480346E+02  0.70911382376E+02 -0.54636582297E+02  0.91246352460E+02  0.00000000000E+00 0. -1.
        -11    1    3    3    0    0 -0.12597289974E+03  0.28605266665E+03 -0.34387660885E+03  0.46470035687E+03  0.00000000000E+00 0.  1.
          4    1    6    6  502    0  0.54112002335E+02  0.15390306414E+02  0.15196347136E+03  0.16204279360E+03  0.00000000000E+00 0. -1.
          3    1    5    5  503    0 -0.61461165606E+02 -0.48507290503E+02  0.32605423573E+02  0.84814773218E+02  0.00000000000E+00 0. -1.
         -4    1    5    5    0  503 -0.17910530361E+03 -0.23324116080E+03  0.28575354899E+03  0.41004297291E+03  0.00000000000E+00 0.  1.
         -3    1    6    6    0  502  0.29475488628E+03 -0.90605904139E+02  0.98933159469E+03  0.10362754832E+04  0.00000000000E+00 0.  1.
<mgrwt>
<rscale>  0 0.19830616E+04</rscale>
<asrwt>0</asrwt>
<pdfrwt beam="1">  1        2 0.25463566E+00 0.19830616E+04</pdfrwt>
<pdfrwt beam="2">  1       -2 0.91383222E-01 0.19830616E+04</pdfrwt>
<totfact> 0.98594303E+00</totfact>
</mgrwt>
</event>
<event>
12    1  0.1506149E-007  0.1509256E+04  0.7818608E-02  0.8878321E-01
          1   -1    0    0  501    0  0.00000000000E+00  0.00000000000E+00  0.54493703830E+03  0.54493703830E+03  0.00000000000E+00 0. -1.
         -1   -1    0    0    0  501 -0.00000000000E+00 -0.00000000000E+00 -0.10450077034E+04  0.10450077034E+04  0.00000000000E+00 0.  1.
         23    2    1    2    0    0  0.30157110824E+03  0.12237547911E+03 -0.32675230780E+03  0.47003547799E+03  0.90804122733E+02 0.  0.
        254    2    1    2    0    0 -0.30157110824E+03 -0.12237547911E+03 -0.17331835734E+03  0.11199092638E+04  0.10574670751E+04 0.  0.
        -24    2    4    4    0    0  0.12008114581E+03  0.28777665906E+03 -0.37381001285E+03  0.49371319202E+03  0.82364453405E+02 0.  0.
         24    2    4    4    0    0 -0.42165225405E+03 -0.41015213817E+03  0.20049165551E+03  0.62619607174E+03  0.76871428622E+02 0.  0.
         13    1    3    3    0    0  0.11162307265E+03  0.70862917255E+02 -0.18544126132E+03  0.22774925859E+03  0.00000000000E+00 0. -1.
        -13    1    3    3    0    0  0.18994803559E+03  0.51512561856E+02 -0.14131104648E+03  0.24228621940E+03  0.00000000000E+00 0.  1.
          4    1    6    6  502    0 -0.19423454697E+03 -0.23042729136E+03  0.12787186284E+03  0.32737594467E+03  0.00000000000E+00 0. -1.
          3    1    5    5  503    0  0.16278405261E+02  0.14326773292E+03 -0.17965319765E+03  0.23036037246E+03  0.00000000000E+00 0. -1.
         -4    1    5    5    0  503  0.10380274055E+03  0.14450892614E+03 -0.19415681520E+03  0.26335281956E+03  0.00000000000E+00 0.  1.
         -3    1    6    6    0  502 -0.22741770708E+03 -0.17972484681E+03  0.72619792667E+02  0.29882012707E+03  0.00000000000E+00 0.  1.
<mgrwt>
<rscale>  0 0.15092560E+04</rscale>
<asrwt>0</asrwt>
<pdfrwt beam="1">  1        1 0.83836468E-01 0.15092560E+04</pdfrwt>
<pdfrwt beam="2">  1       -1 0.16077041E+00 0.15092560E+04</pdfrwt>
<totfact> 0.10953707E+01</totfact>
</mgrwt>
</event>
<event>
12    1  0.1506149E-007  0.1772619E+04  0.7818608E-02  0.8720997E-01
         -2   -1    0    0    0  501 -0.00000000000E+00  0.00000000000E+00  0.57619716743E+03  0.57619716743E+03  0.00000000000E+00 0.  1.
          2   -1    0    0  501    0  0.00000000000E+00 -0.00000000000E+00 -0.13633258620E+04  0.13633258620E+04  0.00000000000E+00 0. -1.
         23    2    1    2    0    0  0.11952818631E+02  0.57791937782E+03  0.38320686991E+02  0.58670943610E+03  0.92875240110E+02 0.  0.
        254    2    1    2    0    0 -0.11952818631E+02 -0.57791937782E+03 -0.82544938161E+03  0.13528135934E+04  0.90255429735E+03 0.  0.
        -24    2    4    4    0    0 -0.22954877345E+03  0.15816132701E+03 -0.13941187098E+03  0.32058459886E+03  0.75041125406E+02 0.  0.
         24    2    4    4    0    0  0.21759595482E+03 -0.73608070483E+03 -0.68603751063E+03  0.10322289945E+04  0.75408404948E+02 0.  0.
         13    1    3    3    0    0 -0.18320547602E+02  0.36494360260E+03  0.60779663252E+02  0.37042359942E+03  0.00000000000E+00 0.  1.
        -13    1    3    3    0    0  0.30273366233E+02  0.21297577522E+03 -0.22458976261E+02  0.21628583668E+03  0.00000000000E+00 0. -1.
          2    1    6    6  502    0  0.10693728102E+03 -0.24993573556E+03 -0.26520546224E+03  0.37978598076E+03  0.00000000000E+00 0. -1.
          3    1    5    5  503    0 -0.17013216370E+02  0.75466434273E+01 -0.35594374427E+02  0.40166663406E+02  0.00000000000E+00 0. -1.
         -4    1    5    5    0  503 -0.21253555708E+03  0.15061468358E+03 -0.10381749655E+03  0.28041793545E+03  0.00000000000E+00 0.  1.
         -1    1    6    6    0  502  0.11065867380E+03 -0.48614496927E+03 -0.42083204839E+03  0.65244301375E+03  0.00000000000E+00 0.  1.
<mgrwt>
<rscale>  0 0.17726190E+04</rscale>
<asrwt>0</asrwt>
<pdfrwt beam="1">  1        2 0.20974244E+00 0.17726190E+04</pdfrwt>
<pdfrwt beam="2">  1       -2 0.88645719E-01 0.17726190E+04</pdfrwt>
<totfact> 0.15730267E+01</totfact>
</mgrwt>
</event>
<event>
12    1  0.1506149E-007  0.3239726E+04  0.7818608E-02  0.8178404E-01
         -2   -1    0    0    0  501 -0.00000000000E+00  0.00000000000E+00  0.12016224269E+04  0.12016224269E+04  0.00000000000E+00 0.  1.
          2   -1    0    0  501    0  0.00000000000E+00 -0.00000000000E+00 -0.21836773327E+04  0.21836773327E+04  0.00000000000E+00 0. -1.
         23    2    1    2    0    0  0.14103812941E+03 -0.11710149136E+04  0.50546647831E+03  0.12864434896E+04  0.90954986010E+02 0.  0.
        254    2    1    2    0    0 -0.14103812941E+03  0.11710149136E+04 -0.14875213841E+04  0.20988562700E+04  0.89515925519E+03 0.  0.
        -24    2    4    4    0    0 -0.94307988621E+02  0.12750899052E+04 -0.11127489059E+04  0.16968853182E+04  0.80382786738E+02 0.  0.
         24    2    4    4    0    0 -0.46730140787E+02 -0.10407499166E+03 -0.37477247820E+03  0.40197095179E+03  0.90060677977E+02 0.  0.
         11    1    3    3    0    0  0.24798006123E+02 -0.84324548862E+02  0.59082055596E+02  0.10590684559E+03  0.00000000000E+00 0. -1.
        -11    1    3    3    0    0  0.11624012329E+03 -0.10866903647E+04  0.44638442271E+03  0.11805366440E+04  0.00000000000E+00 0.  1.
          2    1    6    6  502    0 -0.56583435813E+02 -0.80354554297E+02 -0.17628965333E+03  0.20183305347E+03  0.00000000000E+00 0. -1.
          3    1    5    5  503    0 -0.92273525374E+02  0.92591864156E+03 -0.77304114110E+03  0.12097240760E+04  0.00000000000E+00 0. -1.
         -4    1    5    5    0  503 -0.20344632469E+01  0.34917126368E+03 -0.33970776485E+03  0.48716124221E+03  0.00000000000E+00 0.  1.
         -1    1    6    6    0  502  0.98532950256E+01 -0.23720437364E+02 -0.19848282488E+03  0.20013789832E+03  0.00000000000E+00 0.  1.
<mgrwt>
<rscale>  0 0.32397257E+04</rscale>
<asrwt>0</asrwt>
<pdfrwt beam="1">  1        2 0.33595036E+00 0.32397257E+04</pdfrwt>
<pdfrwt beam="2">  1       -2 0.18486499E+00 0.32397257E+04</pdfrwt>
<totfact> 0.74328149E-01</totfact>
</mgrwt>
</event>
<event>
12    1  0.1506149E-007  0.1913869E+04  0.7818608E-02  0.8647983E-01
          1   -1    0    0  501    0  0.00000000000E+00  0.00000000000E+00  0.21581739684E+04  0.21581739684E+04  0.00000000000E+00 0. -1.
         -1   -1    0    0    0  501 -0.00000000000E+00 -0.00000000000E+00 -0.42430504210E+03  0.42430504210E+03  0.00000000000E+00 0.  1.
         23    2    1    2    0    0 -0.42309561984E+03 -0.57845466530E+02  0.14970772302E+04  0.15592663520E+04  0.87836904183E+02 0.  0.
        254    2    1    2    0    0  0.42309561984E+03  0.57845466530E+02  0.23679169610E+03  0.10232126585E+04  0.89918731956E+03 0.  0.
        -24    2    4    4    0    0  0.53459187106E+02  0.43730682300E+03  0.27739121710E+02  0.44824000520E+03  0.77810675740E+02 0.  0.
         24    2    4    4    0    0  0.36963643274E+03 -0.37946135647E+03  0.20905257440E+03  0.57497265332E+03  0.79174236605E+02 0.  0.
         13    1    3    3    0    0 -0.12739451370E+02  0.11630327211E+02  0.33743243376E+02  0.37896762471E+02  0.00000000000E+00 0.  1.
        -13    1    3    3    0    0 -0.41035616847E+03 -0.69475793741E+02  0.14633339868E+04  0.15213695895E+04  0.00000000000E+00 0. -1.
          4    1    6    6  502    0  0.24244069119E+03 -0.29595355429E+03  0.16432882615E+03  0.41637718255E+03  0.00000000000E+00 0. -1.
          3    1    5    5  503    0  0.17851657137E+02  0.35162136633E+03  0.41209743739E+02  0.35447779889E+03  0.00000000000E+00 0. -1.
         -4    1    5    5    0  503  0.35607529968E+02  0.85685456663E+02 -0.13470622029E+02  0.93762206308E+02  0.00000000000E+00 0.  1.
         -3    1    6    6    0  502  0.12719574154E+03 -0.83507802179E+02  0.44723748249E+02  0.15859547077E+03  0.00000000000E+00 0.  1.
<mgrwt>
<rscale>  0 0.19138695E+04</rscale>
<asrwt>0</asrwt>
<pdfrwt beam="1">  1        1 0.33202676E+00 0.19138695E+04</pdfrwt>
<pdfrwt beam="2">  1       -1 0.65277700E-01 0.19138695E+04</pdfrwt>
<totfact> 0.51729446E+00</totfact>
</mgrwt>
</event>
<event>
12    1  0.1506149E-007  0.1718015E+04  0.7818608E-02  0.8751156E-01
         -1   -1    0    0    0  501 -0.00000000000E+00  0.00000000000E+00  0.10173465663E+04  0.10173465663E+04  0.00000000000E+00 0.  1.
          1   -1    0    0  501    0  0.00000000000E+00 -0.00000000000E+00 -0.72531187993E+03  0.72531187993E+03  0.00000000000E+00 0. -1.
         23    2    1    2    0    0 -0.56323452917E+03 -0.18069572052E+03  0.29858269165E+03  0.66886353524E+03  0.91338528333E+02 0.  0.
        254    2    1    2    0    0  0.56323452917E+03  0.18069572052E+03 -0.65480052278E+01  0.10737949110E+04  0.89616324201E+03 0.  0.
        -24    2    4    4    0    0  0.22878253774E+03  0.34873352696E+03  0.35046725769E+03  0.55059464211E+03  0.79816281579E+02 0.  0.
         24    2    4    4    0    0  0.33445199143E+03 -0.16803780644E+03 -0.35701526292E+03  0.52320026893E+03  0.78637042749E+02 0.  0.
         11    1    3    3    0    0 -0.66053808028E+02 -0.53594973302E+02  0.49817589097E+02  0.98576462209E+02  0.00000000000E+00 0. -1.
        -11    1    3    3    0    0 -0.49718072114E+03 -0.12710074722E+03  0.24876510255E+03  0.57028707303E+03  0.00000000000E+00 0.  1.
          2    1    6    6  502    0  0.30740048120E+03 -0.13987990926E+03 -0.28776607905E+03  0.44370120701E+03  0.00000000000E+00 0. -1.
          1    1    5    5  503    0  0.22311522736E+03  0.35169437697E+03  0.35025868198E+03  0.54419710011E+03  0.00000000000E+00 0. -1.
         -2    1    5    5    0  503  0.56673103813E+01 -0.29608500060E+01  0.20857570445E+00  0.63975419921E+01  0.00000000000E+00 0.  1.
         -1    1    6    6    0  502  0.27051510231E+02 -0.28157897181E+02 -0.69249183870E+02  0.79499061920E+02  0.00000000000E+00 0.  1.
<mgrwt>
<rscale>  0 0.17180146E+04</rscale>
<asrwt>0</asrwt>
<pdfrwt beam="1">  1        1 0.11158644E+00 0.17180146E+04</pdfrwt>
<pdfrwt beam="2">  1       -1 0.15651486E+00 0.17180146E+04</pdfrwt>
<totfact> 0.76164806E+00</totfact>
</mgrwt>
</event>
<event>
12    1  0.1506149E-007  0.1628164E+04  0.7818608E-02  0.8803430E-01
          1   -1    0    0  501    0  0.00000000000E+00  0.00000000000E+00  0.15672625823E+04  0.15672625823E+04  0.00000000000E+00 0. -1.
         -1   -1    0    0    0  501 -0.00000000000E+00 -0.00000000000E+00 -0.42285784524E+03  0.42285784524E+03  0.00000000000E+00 0.  1.
         23    2    1    2    0    0 -0.32644753752E+03 -0.22066488151E+03  0.88845712000E+03  0.97616834610E+03  0.91036262886E+02 0.  0.
        254    2    1    2    0    0  0.32644753752E+03  0.22066488151E+03  0.25594761702E+03  0.10139520814E+04  0.89851469438E+03 0.  0.
        -24    2    4    4    0    0  0.27595892764E+03 -0.26081063474E+03  0.34019726860E+03  0.51619422551E+03  0.80912174331E+02 0.  0.
         24    2    4    4    0    0  0.50488609886E+02  0.48147551625E+03 -0.84249651574E+02  0.49775785589E+03  0.79354312014E+02 0.  0.
         13    1    3    3    0    0 -0.22828554743E+03 -0.12752580917E+03  0.66972172662E+03  0.71896057909E+03  0.00000000000E+00 0. -1.
        -13    1    3    3    0    0 -0.98161990090E+02 -0.93139072344E+02  0.21873539338E+03  0.25720776701E+03  0.00000000000E+00 0.  1.
          4    1    6    6  502    0  0.51578975968E+02  0.18964634411E+03 -0.57123963255E+02  0.20466869271E+03  0.00000000000E+00 0. -1.
          3    1    5    5  503    0  0.56209528862E+02 -0.52638579341E+02  0.11715233180E+03  0.14019629102E+03  0.00000000000E+00 0. -1.
         -4    1    5    5    0  503  0.21974939877E+03 -0.20817205539E+03  0.22304493680E+03  0.37599793449E+03  0.00000000000E+00 0.  1.
         -3    1    6    6    0  502 -0.10903660819E+01  0.29182917213E+03 -0.27125688319E+02  0.29308916318E+03  0.00000000000E+00 0.  1.
<mgrwt>
<rscale>  0 0.16281637E+04</rscale>
<asrwt>0</asrwt>
<pdfrwt beam="1">  1        1 0.24111732E+00 0.16281637E+04</pdfrwt>
<pdfrwt beam="2">  1       -1 0.65055054E-01 0.16281637E+04</pdfrwt>
<totfact> 0.13477899E+01</totfact>
</mgrwt>
</event>
<event>
12    1  0.1506149E-007  0.1803170E+04  0.7818608E-02  0.8704616E-01
          2   -1    0    0  501    0  0.00000000000E+00  0.00000000000E+00  0.85002522738E+03  0.85002522738E+03  0.00000000000E+00 0. -1.
         -2   -1    0    0    0  501 -0.00000000000E+00 -0.00000000000E+00 -0.95627204306E+03  0.95627204306E+03  0.00000000000E+00 0.  1.
         23    2    1    2    0    0  0.95304183702E+01 -0.35732817491E+03 -0.63893290793E+03  0.73768327757E+03  0.90372029480E+02 0.  0.
        254    2    1    2    0    0 -0.95304183702E+01  0.35732817491E+03  0.53268609225E+03  0.10686139929E+04  0.85463860164E+03 0.  0.
        -24    2    4    4    0    0  0.10784071706E+03 -0.15517954590E+03 -0.11121776859E+03  0.23412143650E+03  0.82055732621E+02 0.  0.
         24    2    4    4    0    0 -0.11737113543E+03  0.51250772081E+03  0.64390386084E+03  0.83449255636E+03  0.72976004900E+02 0.  0.
         13    1    3    3    0    0 -0.17101248306E+02 -0.41398294023E+02 -0.40196523943E+02  0.60183319772E+02  0.00000000000E+00 0. -1.
        -13    1    3    3    0    0  0.26631666677E+02 -0.31592988089E+03 -0.59873638399E+03  0.67749995780E+03  0.00000000000E+00 0.  1.
          4    1    6    6  502    0 -0.54026911504E+02  0.36537290622E+03  0.47511219041E+03  0.60178722257E+03  0.00000000000E+00 0. -1.
          3    1    5    5  503    0  0.59236565588E+01 -0.61643614266E+02 -0.10040593490E+02  0.62736260682E+02  0.00000000000E+00 0. -1.
         -4    1    5    5    0  503  0.10191706051E+03 -0.93535931634E+02 -0.10117717510E+03  0.17138517582E+03  0.00000000000E+00 0.  1.
         -3    1    6    6    0  502 -0.63344223930E+02  0.14713481459E+03  0.16879167043E+03  0.23270533379E+03  0.00000000000E+00 0.  1.
<mgrwt>
<rscale>  0 0.18031698E+04</rscale>
<asrwt>0</asrwt>
<pdfrwt beam="1">  1        2 0.13077311E+00 0.18031698E+04</pdfrwt>
<pdfrwt beam="2">  1       -2 0.14711877E+00 0.18031698E+04</pdfrwt>
<totfact> 0.94449175E+00</totfact>
</mgrwt>
</event>
<event>
12    1  0.1506149E-007  0.1639199E+04  0.7818608E-02  0.8796822E-01
         -2   -1    0    0    0  501 -0.00000000000E+00  0.00000000000E+00  0.26015380100E+03  0.26015380100E+03  0.00000000000E+00 0.  1.
          2   -1    0    0  501    0  0.00000000000E+00 -0.00000000000E+00 -0.25821010130E+04  0.25821010130E+04  0.00000000000E+00 0. -1.
         23    2    1    2    0    0  0.39132108706E+03 -0.24190623095E+03 -0.28615813317E+03  0.54794726148E+03  0.81907914355E+02 0.  0.
        254    2    1    2    0    0 -0.39132108706E+03  0.24190623095E+03 -0.20357890788E+04  0.22943075525E+04  0.95276395519E+03 0.  0.
        -24    2    4    4    0    0 -0.33196128069E+02 -0.34999067588E+03 -0.74523092886E+03  0.82787166307E+03  0.80043095040E+02 0.  0.
         24    2    4    4    0    0 -0.35812495899E+03  0.59189690684E+03 -0.12905581500E+04  0.14664358894E+04  0.79362742048E+02 0.  0.
         11    1    3    3    0    0  0.15681209153E+03 -0.12259387184E+03 -0.83581803989E+02  0.21588239257E+03  0.00000000000E+00 0.  1.
        -11    1    3    3    0    0  0.23450899552E+03 -0.11931235911E+03 -0.20257632918E+03  0.33206486891E+03  0.00000000000E+00 0. -1.
          4    1    6    6  502    0 -0.33240437746E+03  0.51402169315E+03 -0.10972694951E+04  0.12564677935E+04  0.00000000000E+00 0. -1.
          1    1    5    5  503    0 -0.45078362854E+01 -0.25983084126E+03 -0.47327373394E+03  0.53992630413E+03  0.00000000000E+00 0. -1.
         -2    1    5    5    0  503 -0.28688291783E+02 -0.90159834620E+02 -0.27195719492E+03  0.28794535894E+03  0.00000000000E+00 0.  1.
         -3    1    6    6    0  502 -0.25720581530E+02  0.77875213692E+02 -0.19328865485E+03  0.20996809595E+03  0.00000000000E+00 0.  1.
<mgrwt>
<rscale>  0 0.16391991E+04</rscale>
<asrwt>0</asrwt>
<pdfrwt beam="1">  1        2 0.39724630E+00 0.16391991E+04</pdfrwt>
<pdfrwt beam="2">  1       -2 0.40023663E-01 0.16391991E+04</pdfrwt>
<totfact> 0.17650733E+01</totfact>
</mgrwt>
</event>
<event>
12    1  0.1506149E-007  0.1473957E+04  0.7818608E-02  0.8901958E-01
         -1   -1    0    0    0  501 -0.00000000000E+00  0.00000000000E+00  0.57958735849E+03  0.57958735849E+03  0.00000000000E+00 0.  1.
          1   -1    0    0  501    0  0.00000000000E+00 -0.00000000000E+00 -0.93711059220E+03  0.93711059220E+03  0.00000000000E+00 0. -1.
         23    2    1    2    0    0 -0.72571606862E+02  0.42798027902E+03  0.60112274892E+02  0.44898595976E+03  0.97678805849E+02 0.  0.
        254    2    1    2    0    0  0.72571606862E+02 -0.42798027902E+03 -0.41763550861E+03  0.10677119909E+04  0.88156435964E+03 0.  0.
        -24    2    4    4    0    0  0.11940466635E+01  0.18949895138E+03 -0.39079126953E+03  0.44069965346E+03  0.74746838669E+02 0.  0.
         24    2    4    4    0    0  0.71377560199E+02 -0.61747923040E+03 -0.26844239073E+02  0.62701233748E+03  0.77772116480E+02 0.  0.
         11    1    3    3    0    0 -0.48080072635E+02  0.63536873839E+02  0.10728024685E+02  0.80397252661E+02  0.00000000000E+00 0. -1.
        -11    1    3    3    0    0 -0.24491534227E+02  0.36444340518E+03  0.49384250207E+02  0.36858870709E+03  0.00000000000E+00 0.  1.
          4    1    6    6  502    0  0.10935786518E+02 -0.12767170337E+03  0.25731028213E+02  0.13069713494E+03  0.00000000000E+00 0. -1.
          3    1    5    5  503    0  0.35946035558E+02  0.90174515566E+02 -0.21347003307E+03  0.23450589705E+03  0.00000000000E+00 0. -1.
         -4    1    5    5    0  503 -0.34751988894E+02  0.99324435818E+02 -0.17732123646E+03  0.20619375641E+03  0.00000000000E+00 0.  1.
         -3    1    6    6    0  502  0.60441773681E+02 -0.48980752703E+03 -0.52575267286E+02  0.49631520254E+03  0.00000000000E+00 0.  1.
<mgrwt>
<rscale>  0 0.14739572E+04</rscale>
<asrwt>0</asrwt>
<pdfrwt beam="1">  1        1 0.14417086E+00 0.14739572E+04</pdfrwt>
<pdfrwt beam="2">  1       -1 0.89167287E-01 0.14739572E+04</pdfrwt>
<totfact> 0.20294619E+01</totfact>
</mgrwt>
</event>
<event>
12    1  0.1506149E-007  0.1294021E+04  0.7818608E-02  0.9034320E-01
          2   -1    0    0  501    0  0.00000000000E+00  0.00000000000E+00  0.23967339404E+04  0.23967339404E+04  0.00000000000E+00 0. -1.
         -2   -1    0    0    0  501 -0.00000000000E+00 -0.00000000000E+00 -0.17466377837E+03  0.17466377837E+03  0.00000000000E+00 0.  1.
         23    2    1    2    0    0 -0.27006674188E+02 -0.28333572027E+03  0.88027160406E+03  0.92947792875E+03  0.89680724152E+02 0.  0.
        254    2    1    2    0    0  0.27006674188E+02  0.28333572027E+03  0.13417985580E+04  0.16419197900E+04  0.90247921629E+03 0.  0.
        -24    2    4    4    0    0 -0.40605489828E+03  0.16256149777E+03  0.41254345457E+03  0.60662503633E+03  0.80591636139E+02 0.  0.
         24    2    4    4    0    0  0.43306157247E+03  0.12077422250E+03  0.92925510339E+03  0.10352947537E+04  0.78685713066E+02 0.  0.
         11    1    3    3    0    0 -0.18163379820E+02 -0.24148221028E+03  0.61821508850E+03  0.66395290638E+03  0.00000000000E+00 0. -1.
        -11    1    3    3    0    0 -0.88432943674E+01 -0.41853509991E+02  0.26205651556E+03  0.26552502236E+03  0.00000000000E+00 0.  1.
          4    1    6    6  502    0  0.36919743065E+03  0.10187743003E+03  0.71762107992E+03  0.81342840367E+03  0.00000000000E+00 0. -1.
          3    1    5    5  503    0 -0.27472795451E+03  0.75820508449E+02  0.23522874405E+03  0.36953587176E+03  0.00000000000E+00 0. -1.
         -4    1    5    5    0  503 -0.13132694378E+03  0.86740989316E+02  0.17731471052E+03  0.23708916457E+03  0.00000000000E+00 0.  1.
         -3    1    6    6    0  502  0.63864141826E+02  0.18896792467E+02  0.21163402347E+03  0.22186635001E+03  0.00000000000E+00 0.  1.
<mgrwt>
<rscale>  0 0.12940210E+04</rscale>
<asrwt>0</asrwt>
<pdfrwt beam="1">  1        2 0.36872828E+00 0.12940210E+04</pdfrwt>
<pdfrwt beam="2">  1       -2 0.26871352E-01 0.12940210E+04</pdfrwt>
<totfact> 0.49420199E+01</totfact>
</mgrwt>
</event>
<event>
12    1  0.1506149E-007  0.1403585E+04  0.7818608E-02  0.8951227E-01
          2   -1    0    0  501    0  0.00000000000E+00  0.00000000000E+00  0.30606520829E+04  0.30606520829E+04  0.00000000000E+00 0. -1.
         -2   -1    0    0    0  501 -0.00000000000E+00 -0.00000000000E+00 -0.16091765975E+03  0.16091765975E+03  0.00000000000E+00 0.  1.
         23    2    1    2    0    0  0.12548282141E+03 -0.28250335240E+02 -0.25589715737E+02  0.15888195962E+03  0.89691825891E+02 0.  0.
        254    2    1    2    0    0 -0.12548282141E+03  0.28250335240E+02  0.29253241389E+04  0.30626877830E+04  0.89777008130E+03 0.  0.
        -24    2    4    4    0    0 -0.52446648612E+02 -0.30646743676E+03  0.24522014140E+04  0.24730928935E+04  0.78890709975E+02 0.  0.
         24    2    4    4    0    0 -0.73036172797E+02  0.33471777200E+03  0.47312272487E+03  0.58959488956E+03  0.80042186203E+02 0.  0.
         11    1    3    3    0    0  0.48244932787E+02  0.15332338197E+02  0.25342257576E+02  0.56611696258E+02  0.00000000000E+00 0. -1.
        -11    1    3    3    0    0  0.77237888622E+02 -0.43582673438E+02 -0.50931973313E+02  0.10227026336E+03  0.00000000000E+00 0.  1.
          4    1    6    6  502    0 -0.30897324782E+02  0.24607992001E+03  0.28804779811E+03  0.38010722922E+03  0.00000000000E+00 0. -1.
          1    1    5    5  503    0 -0.63800189190E+02 -0.14236664868E+03  0.11426816952E+04  0.11532823519E+04  0.00000000000E+00 0. -1.
         -4    1    5    5    0  503  0.11353540578E+02 -0.16410078809E+03  0.13095197188E+04  0.13198105415E+04  0.00000000000E+00 0.  1.
         -1    1    6    6    0  502 -0.42138848015E+02  0.88637851997E+02  0.18507492676E+03  0.20948766034E+03  0.00000000000E+00 0.  1.
<mgrwt>
<rscale>  0 0.14035854E+04</rscale>
<asrwt>0</asrwt>
<pdfrwt beam="1">  1        2 0.47086951E+00 0.14035854E+04</pdfrwt>
<pdfrwt beam="2">  1       -2 0.24756565E-01 0.14035854E+04</pdfrwt>
<totfact> 0.22879935E+01</totfact>
</mgrwt>
</event>
<event>
12    1  0.1506149E-007  0.3064053E+04  0.7818608E-02  0.8225673E-01
         -2   -1    0    0    0  501 -0.00000000000E+00  0.00000000000E+00  0.72407288386E+03  0.72407288386E+03  0.00000000000E+00 0. -1.
          2   -1    0    0  501    0  0.00000000000E+00 -0.00000000000E+00 -0.32415327310E+04  0.32415327310E+04  0.00000000000E+00 0.  1.
         23    2    1    2    0    0  0.74328239160E+03  0.82828016171E+03 -0.22274520882E+04  0.24915920934E+04  0.89283899889E+02 0.  0.
        254    2    1    2    0    0 -0.74328239160E+03 -0.82828016171E+03 -0.29000775893E+03  0.14740135214E+04  0.92200575987E+03 0.  0.
        -24    2    4    4    0    0  0.15833764229E+03 -0.40875141131E+03 -0.12211712051E+03  0.46251691259E+03  0.82829814057E+02 0.  0.
         24    2    4    4    0    0 -0.90162003389E+03 -0.41952875040E+03 -0.16789063843E+03  0.10114966089E+04  0.77556852304E+02 0.  0.
         13    1    3    3    0    0  0.60161168241E+03  0.63714027882E+03 -0.18141624028E+04  0.20147132737E+04  0.00000000000E+00 0.  1.
        -13    1    3    3    0    0  0.14167070918E+03  0.19113988289E+03 -0.41328968537E+03  0.47687881973E+03  0.00000000000E+00 0. -1.
          4    1    6    6  502    0 -0.88845248225E+03 -0.42153348111E+03 -0.16090996144E+03  0.99645888255E+03  0.00000000000E+00 0. -1.
          3    1    5    5  503    0  0.41969884069E+02 -0.48392613700E+02  0.17802868749E+01  0.64081866787E+02  0.00000000000E+00 0. -1.
         -4    1    5    5    0  503  0.11636775822E+03 -0.36035879761E+03 -0.12389740738E+03  0.39843504580E+03  0.00000000000E+00 0.  1.
         -3    1    6    6    0  502 -0.13167551638E+02  0.20047307163E+01 -0.69806769862E+01  0.15037726310E+02  0.00000000000E+00 0.  1.
<mgrwt>
<rscale>  0 0.30640535E+04</rscale>
<asrwt>0</asrwt>
<pdfrwt beam="1">  1        2 0.49869735E+00 0.30640535E+04</pdfrwt>
<pdfrwt beam="2">  1       -2 0.11139583E+00 0.30640535E+04</pdfrwt>
<totfact> 0.66029396E-01</totfact>
</mgrwt>
</event>
<event>
12    1  0.1506149E-007  0.2127308E+04  0.7818608E-02  0.8549308E-01
          1   -1    0    0  501    0  0.00000000000E+00  0.00000000000E+00  0.11124014373E+04  0.11124014373E+04  0.00000000000E+00 0.  1.
         -1   -1    0    0    0  501 -0.00000000000E+00 -0.00000000000E+00 -0.10170431615E+04  0.10170431615E+04  0.00000000000E+00 0. -1.
         23    2    1    2    0    0  0.25065377657E+02 -0.56206363414E+03 -0.63023180593E+03  0.84946685948E+03  0.88645440816E+02 0.  0.
        254    2    1    2    0    0 -0.25065377657E+02  0.56206363414E+03  0.72559008179E+03  0.12799777393E+04  0.89180616973E+03 0.  0.
        -24    2    4    4    0    0  0.19912475692E+03  0.62589652732E+03  0.18877083440E+03  0.68808861693E+03  0.80214618995E+02 0.  0.
         24    2    4    4    0    0 -0.22419013458E+03 -0.63832893178E+02  0.53681924740E+03  0.59188912239E+03  0.88441925191E+02 0.  0.
         13    1    3    3    0    0  0.54361570601E+02 -0.43422198013E+03 -0.50334708474E+03  0.66697990682E+03  0.00000000000E+00 0. -1.
        -13    1    3    3    0    0 -0.29296192944E+02 -0.12784165401E+03 -0.12688472118E+03  0.18248695266E+03  0.00000000000E+00 0.  1.
          2    1    6    6  502    0 -0.11973531492E+03  0.59095235145E+01  0.21064974719E+03  0.24237323305E+03  0.00000000000E+00 0. -1.
          3    1    5    5  503    0  0.11748371312E+03  0.32269776658E+03  0.59562579242E+02  0.34854550959E+03  0.00000000000E+00 0. -1.
         -4    1    5    5    0  503  0.81641043797E+02  0.30319876073E+03  0.12920825515E+03  0.33954310734E+03  0.00000000000E+00 0.  1.
         -1    1    6    6    0  502 -0.10445481966E+03 -0.69742416692E+02  0.32616950021E+03  0.34951588934E+03  0.00000000000E+00 0.  1.
<mgrwt>
<rscale>  0 0.21273084E+04</rscale>
<asrwt>0</asrwt>
<pdfrwt beam="1">  1        1 0.17113868E+00 0.21273084E+04</pdfrwt>
<pdfrwt beam="2">  1       -1 0.15646818E+00 0.21273084E+04</pdfrwt>
<totfact> 0.35404601E+00</totfact>
</mgrwt>
</event>
<event>
12    1  0.1506149E-007  0.1454942E+04  0.7818608E-02  0.8914981E-01
          2   -1    0    0  501    0  0.00000000000E+00  0.00000000000E+00  0.18163915340E+04  0.18163915340E+04  0.00000000000E+00 0. -1.
         -2   -1    0    0    0  501 -0.00000000000E+00 -0.00000000000E+00 -0.29135460898E+03  0.29135460898E+03  0.00000000000E+00 0.  1.
         23    2    1    2    0    0  0.83239388509E+02 -0.43372955999E+03  0.58440160205E+03  0.73787343184E+03  0.88779738250E+02 0.  0.
        254    2    1    2    0    0 -0.83239388509E+02  0.43372955999E+03  0.94063532294E+03  0.13698727111E+04  0.89258406151E+03 0.  0.
        -24    2    4    4    0    0  0.12829977459E+03  0.74674826675E+02 -0.13380266253E+03  0.21488254308E+03  0.78956905489E+02 0.  0.
         24    2    4    4    0    0 -0.21153916310E+03  0.35905473332E+03  0.10744379855E+04  0.11549901680E+04  0.76916737863E+02 0.  0.
         11    1    3    3    0    0  0.10333729044E+02 -0.12353222532E+03  0.23002780794E+03  0.26130401657E+03  0.00000000000E+00 0. -1.
        -11    1    3    3    0    0  0.72905659465E+02 -0.31019733467E+03  0.35437379411E+03  0.47656941527E+03  0.00000000000E+00 0.  1.
          2    1    6    6  502    0 -0.16667671241E+03  0.29810016506E+03  0.79020918479E+03  0.86085735787E+03  0.00000000000E+00 0. -1.
          3    1    5    5  503    0  0.18574546666E+02 -0.16785315430E+02 -0.24369390805E+02  0.34937484256E+02  0.00000000000E+00 0. -1.
         -4    1    5    5    0  503  0.10972522792E+03  0.91460142105E+02 -0.10943327172E+03  0.17994505883E+03  0.00000000000E+00 0.  1.
         -1    1    6    6    0  502 -0.44862450694E+02  0.60954568260E+02  0.28422880068E+03  0.29413281016E+03  0.00000000000E+00 0.  1.
<mgrwt>
<rscale>  0 0.14549420E+04</rscale>
<asrwt>0</asrwt>
<pdfrwt beam="1">  1        2 0.27944484E+00 0.14549420E+04</pdfrwt>
<pdfrwt beam="2">  1       -2 0.44823787E-01 0.14549420E+04</pdfrwt>
<totfact> 0.38666088E+01</totfact>
</mgrwt>
</event>
<event>
12    1  0.1506149E-007  0.1411168E+04  0.7818608E-02  0.8945774E-01
         -3   -1    0    0    0  501 -0.00000000000E+00  0.00000000000E+00  0.20954857387E+04  0.20954857387E+04  0.00000000000E+00 0.  1.
          3   -1    0    0  501    0  0.00000000000E+00 -0.00000000000E+00 -0.23758142711E+03  0.23758142711E+03  0.00000000000E+00 0. -1.
         23    2    1    2    0    0 -0.21376028623E+03  0.53490180462E+02 -0.37272630802E+01  0.23825533833E+03  0.90537585444E+02 0.  0.
        254    2    1    2    0    0  0.21376028623E+03 -0.53490180462E+02  0.18616315747E+04  0.20948118275E+04  0.93488491985E+03 0.  0.
        -24    2    4    4    0    0 -0.26657692773E+03 -0.55999005640E+02  0.16170705523E+03  0.32649893102E+03  0.79077387490E+02 0.  0.
         24    2    4    4    0    0  0.48033721396E+03  0.25088251782E+01  0.16999245194E+04  0.17683128965E+04  0.80355427310E+02 0.  0.
         13    1    3    3    0    0  0.82158172882E+01 -0.36482809876E+01  0.51249733954E+00  0.90040136273E+01  0.00000000000E+00 0.  1.
        -13    1    3    3    0    0 -0.22197610351E+03  0.57138461449E+02 -0.42397604197E+01  0.22925132470E+03  0.00000000000E+00 0. -1.
          4    1    6    6  502    0  0.28079124579E+03 -0.19172783729E+02  0.86665591805E+03  0.91121007437E+03  0.00000000000E+00 0. -1.
          1    1    5    5  503    0 -0.19972880398E+01 -0.16683488925E+01 -0.73887072422E+01  0.78336161670E+01  0.00000000000E+00 0. -1.
         -2    1    5    5    0  503 -0.26457963969E+03 -0.54330656747E+02  0.16909576248E+03  0.31866531485E+03  0.00000000000E+00 0.  1.
         -3    1    6    6    0  502  0.19954596817E+03  0.21681608907E+02  0.83326860139E+03  0.85710282209E+03  0.00000000000E+00 0.  1.
<mgrwt>
<rscale>  0 0.14111676E+04</rscale>
<asrwt>0</asrwt>
<pdfrwt beam="1">  1        3 0.36550990E-01 0.14111676E+04</pdfrwt>
<pdfrwt beam="2">  1       -3 0.32238241E+00 0.14111676E+04</pdfrwt>
<totfact> 0.54274998E-01</totfact>
</mgrwt>
</event>
<event>
12    1  0.1506149E-007  0.1796317E+04  0.7818608E-02  0.8708261E-01
         -2   -1    0    0    0  501 -0.00000000000E+00  0.00000000000E+00  0.66143136206E+03  0.66143136206E+03  0.00000000000E+00 0. -1.
          2   -1    0    0  501    0  0.00000000000E+00 -0.00000000000E+00 -0.12196102220E+04  0.12196102220E+04  0.00000000000E+00 0.  1.
         23    2    1    2    0    0  0.12554103568E+03 -0.11693654410E+03  0.46941605050E+03  0.50759990460E+03  0.88721630383E+02 0.  0.
        254    2    1    2    0    0 -0.12554103568E+03  0.11693654410E+03 -0.10275949105E+04  0.13734416795E+04  0.89496147401E+03 0.  0.
        -24    2    4    4    0    0 -0.10039060417E+03 -0.11089324584E+02  0.14352618038E+03  0.19234957945E+03  0.78723247740E+02 0.  0.
         24    2    4    4    0    0 -0.25150431512E+02  0.12802586869E+03 -0.11711210909E+04  0.11810921001E+04  0.80192094986E+02 0.  0.
         13    1    3    3    0    0  0.68393958173E+02 -0.11749917330E+03  0.33535298853E+03  0.36186380885E+03  0.00000000000E+00 0. -1.
        -13    1    3    3    0    0  0.57147077512E+02  0.56262919758E+00  0.13406306197E+03  0.14573609575E+03  0.00000000000E+00 0.  1.
          2    1    6    6  502    0 -0.32475700490E+02  0.11626055872E+03 -0.74260117356E+03  0.75234811863E+03  0.00000000000E+00 0. -1.
          3    1    5    5  503    0 -0.88273944992E+02 -0.37727733204E+02  0.91291398771E+02  0.13247562307E+03  0.00000000000E+00 0. -1.
         -4    1    5    5    0  503 -0.12116659181E+02  0.26638408620E+02  0.52234781607E+02  0.59873956384E+02  0.00000000000E+00 0.  1.
         -1    1    6    6    0  502  0.73252689785E+01  0.11765309968E+02 -0.42851991730E+03  0.42874398143E+03  0.00000000000E+00 0.  1.
<mgrwt>
<rscale>  0 0.17963167E+04</rscale>
<asrwt>0</asrwt>
<pdfrwt beam="1">  1        2 0.18763234E+00 0.17963167E+04</pdfrwt>
<pdfrwt beam="2">  1       -2 0.10175867E+00 0.17963167E+04</pdfrwt>
<totfact> 0.13799095E+01</totfact>
</mgrwt>
</event>
<event>
12    1  0.1506149E-007  0.1041388E+04  0.7818608E-02  0.9264280E-01
         -3   -1    0    0    0  501 -0.00000000000E+00  0.00000000000E+00  0.23728261998E+03  0.23728261998E+03  0.00000000000E+00 0.  1.
          3   -1    0    0  501    0  0.00000000000E+00 -0.00000000000E+00 -0.11426138186E+04  0.11426138186E+04  0.00000000000E+00 0. -1.
         23    2    1    2    0    0 -0.55364888216E+02 -0.38752475976E+02 -0.21999458966E+03  0.24771613538E+03  0.91644088754E+02 0.  0.
        254    2    1    2    0    0  0.55364888216E+02  0.38752475976E+02 -0.68533660901E+03  0.11321803033E+04  0.89865396354E+03 0.  0.
        -24    2    4    4    0    0  0.39951836699E+03 -0.53286830851E+02 -0.64610991942E+03  0.76521133222E+03  0.75072918458E+02 0.  0.
         24    2    4    4    0    0 -0.34415347877E+03  0.92039306827E+02 -0.39226689592E+02  0.36696897103E+03  0.78832998002E+02 0.  0.
         11    1    3    3    0    0  0.10741496255E+00 -0.55095159796E+02 -0.12327229615E+03  0.13502424660E+03  0.00000000000E+00 0.  1.
        -11    1    3    3    0    0 -0.55472303179E+02  0.16342683820E+02 -0.96722293507E+02  0.11269188877E+03  0.00000000000E+00 0. -1.
          4    1    6    6  502    0 -0.27065757403E+03  0.37420378547E+02 -0.32387045695E+02  0.27514492152E+03  0.00000000000E+00 0. -1.
          1    1    5    5  503    0  0.21105113854E+03  0.74895327947E+01 -0.35697973846E+03  0.41476886316E+03  0.00000000000E+00 0. -1.
         -2    1    5    5    0  503  0.18846722845E+03 -0.60776363646E+02 -0.28913018096E+03  0.35044246906E+03  0.00000000000E+00 0.  1.
         -1    1    6    6    0  502 -0.73495904740E+02  0.54618928280E+02 -0.68396438972E+01  0.91824049511E+02  0.00000000000E+00 0.  1.
<mgrwt>
<rscale>  0 0.10413883E+04</rscale>
<asrwt>0</asrwt>
<pdfrwt beam="1">  1        3 0.17578674E+00 0.10413883E+04</pdfrwt>
<pdfrwt beam="2">  1       -3 0.36505018E-01 0.10413883E+04</pdfrwt>
<totfact> 0.41229722E+00</totfact>
</mgrwt>
</event>
<event>
12    1  0.1506149E-007  0.2486292E+04  0.7818608E-02  0.8407885E-01
         -2   -1    0    0    0  501 -0.00000000000E+00  0.00000000000E+00  0.36141894560E+03  0.36141894560E+03  0.00000000000E+00 0.  1.
          2   -1    0    0  501    0  0.00000000000E+00 -0.00000000000E+00 -0.42759564124E+04  0.42759564124E+04  0.00000000000E+00 0. -1.
         23    2    1    2    0    0  0.76526750319E+03  0.37028049946E+03 -0.29559735417E+04  0.30771510530E+04  0.91307306667E+02 0.  0.
        254    2    1    2    0    0 -0.76526750319E+03 -0.37028049946E+03 -0.95856392513E+03  0.15602243050E+04  0.89034436239E+03 0.  0.
        -24    2    4    4    0    0 -0.48368973460E+03 -0.21799039358E+03  0.10228476046E+02  0.53666668885E+03  0.80193155214E+02 0.  0.
         24    2    4    4    0    0 -0.28157776858E+03 -0.15229010587E+03 -0.96879240117E+03  0.10235576161E+04  0.81444219525E+02 0.  0.
         11    1    3    3    0    0  0.61657375573E+03  0.31424150306E+03 -0.25127084209E+04  0.26062644775E+04  0.00000000000E+00 0. -1.
        -11    1    3    3    0    0  0.14869374745E+03  0.56038996398E+02 -0.44326512079E+03  0.47088657547E+03  0.00000000000E+00 0.  1.
          2    1    6    6  502    0 -0.16965940820E+03 -0.45593817342E+02 -0.51984270443E+03  0.54872538516E+03  0.00000000000E+00 0. -1.
          3    1    5    5  503    0 -0.35665212276E+03 -0.18765828940E+03  0.31911200298E+02  0.40427057146E+03  0.00000000000E+00 0. -1.
         -4    1    5    5    0  503 -0.12703761185E+03 -0.30332104186E+02 -0.21682724252E+02  0.13239611739E+03  0.00000000000E+00 0.  1.
         -1    1    6    6    0  502 -0.11191836038E+03 -0.10669628853E+03 -0.44894969674E+03  0.47483223099E+03  0.00000000000E+00 0.  1.
<mgrwt>
<rscale>  0 0.24862917E+04</rscale>
<asrwt>0</asrwt>
<pdfrwt beam="1">  1        2 0.65783943E+00 0.24862917E+04</pdfrwt>
<pdfrwt beam="2">  1       -2 0.55602916E-01 0.24862917E+04</pdfrwt>
<totfact> 0.54362248E-01</totfact>
</mgrwt>
</event>
<event>
12    1  0.1678148E-007  0.2707869E+04  0.7818608E-02  0.8332456E-01
         -2   -1    0    0    0  501 -0.00000000000E+00  0.00000000000E+00  0.12237823235E+04  0.12237823235E+04  0.00000000000E+00 0.  1.
          2   -1    0    0  501    0  0.00000000000E+00 -0.00000000000E+00 -0.14979284586E+04  0.14979284586E+04  0.00000000000E+00 0. -1.
         23    2    1    2    0    0  0.40959111798E+03  0.23241965590E+03  0.99334392240E+03  0.11031747150E+04  0.92078896579E+02 0.  0.
        254    2    1    2    0    0 -0.40959111798E+03 -0.23241965590E+03 -0.12674900575E+04  0.16185360671E+04  0.88957527748E+03 0.  0.
        -24    2    4    4    0    0 -0.59265099391E+03 -0.12524416093E+03 -0.42098605139E+03  0.74199481145E+03  0.80035894062E+02 0.  0.
         24    2    4    4    0    0  0.18305987592E+03 -0.10717549497E+03 -0.84650400614E+03  0.87654125568E+03  0.82207272194E+02 0.  0.
         13    1    3    3    0    0  0.27706642510E+03  0.13491726510E+03  0.73369882810E+03  0.79579045149E+03  0.00000000000E+00 0.  1.
        -13    1    3    3    0    0  0.13252469288E+03  0.97502390792E+02  0.25964509430E+03  0.30738426347E+03  0.00000000000E+00 0. -1.
          4    1    6    6  502    0 -0.27742158260E+01 -0.16907415487E+02 -0.32630957645E+02  0.36855615158E+02  0.00000000000E+00 0. -1.
          1    1    5    5  503    0 -0.16784352547E+03 -0.20388052375E+02 -0.15845238862E+03  0.23172026493E+03  0.00000000000E+00 0. -1.
         -2    1    5    5    0  503 -0.42480746844E+03 -0.10485610855E+03 -0.26253366277E+03  0.51027454652E+03  0.00000000000E+00 0.  1.
         -3    1    6    6    0  502  0.18583409175E+03 -0.90268079483E+02 -0.81387304850E+03  0.83968564052E+03  0.00000000000E+00 0.  1.
<mgrwt>
<rscale>  0 0.27078688E+04</rscale>
<asrwt>0</asrwt>
<pdfrwt beam="1">  1        2 0.23045053E+00 0.27078688E+04</pdfrwt>
<pdfrwt beam="2">  1       -2 0.18827420E+00 0.27078688E+04</pdfrwt>
<totfact> 0.17768024E+00</totfact>
</mgrwt>
</event>
<event>
12    1  0.1506149E-007  0.2246523E+04  0.7818608E-02  0.8499310E-01
          1   -1    0    0  501    0  0.00000000000E+00  0.00000000000E+00  0.13114872338E+04  0.13114872338E+04  0.00000000000E+00 0. -1.
         -1   -1    0    0    0  501 -0.00000000000E+00 -0.00000000000E+00 -0.96204979431E+03  0.96204979431E+03  0.00000000000E+00 0.  1.
         23    2    1    2    0    0  0.53804071639E+03 -0.17250593433E+03 -0.60117844021E+03  0.83016975817E+03  0.92304932354E+02 0.  0.
        254    2    1    2    0    0 -0.53804071639E+03  0.17250593433E+03  0.95061587965E+03  0.14433672699E+04  0.92757340157E+03 0.  0.
        -24    2    4    4    0    0  0.23414693028E+03  0.15583337108E+03  0.15814211762E+03  0.33315906184E+03  0.82928925113E+02 0.  0.
         24    2    4    4    0    0 -0.77218764667E+03  0.16672563250E+02  0.79247376202E+03  0.11102082081E+04  0.89419604706E+02 0.  0.
         13    1    3    3    0    0  0.45867510383E+03 -0.11171100413E+03 -0.48328299758E+03  0.67559207741E+03  0.00000000000E+00 0.  1.
        -13    1    3    3    0    0  0.79365612564E+02 -0.60794930202E+02 -0.11789544262E+03  0.15457768075E+03  0.00000000000E+00 0. -1.
          2    1    6    6  502    0 -0.75729230861E+03  0.37331934863E+01  0.76560938820E+03  0.10768766469E+04  0.00000000000E+00 0. -1.
          1    1    5    5  503    0  0.19881470283E+03  0.91537176832E+02  0.13007293918E+03  0.25460815052E+03  0.00000000000E+00 0. -1.
         -2    1    5    5    0  503  0.35332227450E+02  0.64296194248E+02  0.28069178439E+02  0.78550911322E+02  0.00000000000E+00 0.  1.
         -1    1    6    6    0  502 -0.14895338055E+02  0.12939369764E+02  0.26864373822E+02  0.33331561117E+02  0.00000000000E+00 0.  1.
<mgrwt>
<rscale>  0 0.22465227E+04</rscale>
<asrwt>0</asrwt>
<pdfrwt beam="1">  1        1 0.20176727E+00 0.22465227E+04</pdfrwt>
<pdfrwt beam="2">  1       -1 0.14800766E+00 0.22465227E+04</pdfrwt>
<totfact> 0.29154471E+00</totfact>
</mgrwt>
</event>
<event>
12    1  0.1506149E-007  0.2908331E+04  0.7818608E-02  0.8270403E-01
          2   -1    0    0  501    0  0.00000000000E+00  0.00000000000E+00  0.23862661670E+04  0.23862661670E+04  0.00000000000E+00 0.  1.
         -2   -1    0    0    0  501 -0.00000000000E+00 -0.00000000000E+00 -0.88615330854E+03  0.88615330854E+03  0.00000000000E+00 0. -1.
         23    2    1    2    0    0 -0.67472916131E+03  0.63540043659E+03 -0.32456832403E+03  0.98625220535E+03  0.91409297378E+02 0.  0.
        254    2    1    2    0    0  0.67472916131E+03 -0.63540043659E+03  0.18246811824E+04  0.22861672702E+04  0.10188749745E+04 0.  0.
        -24    2    4    4    0    0  0.76543898128E+03 -0.35902701384E+03  0.63916215405E+03  0.10628954789E+04  0.80133071248E+02 0.  0.
         24    2    4    4    0    0 -0.90709819964E+02 -0.27637342275E+03  0.11855190284E+04  0.12232717913E+04  0.79548528816E+02 0.  0.
         11    1    3    3    0    0 -0.36507177506E+03  0.32773243806E+03 -0.12495959497E+03  0.50626164409E+03  0.00000000000E+00 0.  1.
        -11    1    3    3    0    0 -0.30965738625E+03  0.30766799853E+03 -0.19960872906E+03  0.47999056125E+03  0.00000000000E+00 0. -1.
          2    1    6    6  502    0 -0.98484561011E+02 -0.22264227486E+03  0.10354301786E+04  0.10636655706E+04  0.00000000000E+00 0. -1.
          3    1    5    5  503    0  0.30468834442E+02 -0.32853401097E+02  0.27206552247E+02  0.52420342627E+02  0.00000000000E+00 0. -1.
         -4    1    5    5    0  503  0.73497014684E+03 -0.32617361274E+03  0.61195560180E+03  0.10104751362E+04  0.00000000000E+00 0.  1.
         -1    1    6    6    0  502  0.77747410467E+01 -0.53731147887E+02  0.15008884981E+03  0.15960622071E+03  0.00000000000E+00 0.  1.
<mgrwt>
<rscale>  0 0.29083312E+04</rscale>
<asrwt>0</asrwt>
<pdfrwt beam="1">  1        2 0.36711787E+00 0.29083312E+04</pdfrwt>
<pdfrwt beam="2">  1       -2 0.13633128E+00 0.29083312E+04</pdfrwt>
<totfact> 0.13430536E+00</totfact>
</mgrwt>
</event>
<event>
12    1  0.1506149E-007  0.1436724E+04  0.7818608E-02  0.8927656E-01
          2   -1    0    0  501    0  0.00000000000E+00  0.00000000000E+00  0.34667668125E+04  0.34667668125E+04  0.00000000000E+00 0.  1.
         -2   -1    0    0    0  501 -0.00000000000E+00 -0.00000000000E+00 -0.14885459720E+03  0.14885459720E+03  0.00000000000E+00 0. -1.
         23    2    1    2    0    0 -0.33314520425E+02  0.14583658138E+03  0.17718563211E+01  0.17496173275E+03  0.90721015814E+02 0.  0.
        254    2    1    2    0    0  0.33314520425E+02 -0.14583658138E+03  0.33161403589E+04  0.34406596769E+04  0.90497180421E+03 0.  0.
        -24    2    4    4    0    0  0.18372074166E+03 -0.33491085779E+03  0.61932166193E+03  0.73193777069E+03  0.79088467223E+02 0.  0.
         24    2    4    4    0    0 -0.15040622124E+03  0.18907427641E+03  0.26968186970E+04  0.27087219062E+04  0.77279798772E+02 0.  0.
         13    1    3    3    0    0  0.29608177539E+02  0.34179166491E+02 -0.98134736864E+01  0.46272711883E+02  0.00000000000E+00 0.  1.
        -13    1    3    3    0    0 -0.62922697964E+02  0.11165741489E+03  0.11585330008E+02  0.12868902086E+03  0.00000000000E+00 0. -1.
          4    1    6    6  502    0 -0.18322463686E+02 -0.98698214171E+00  0.36051157261E+03  0.36097822760E+03  0.00000000000E+00 0. -1.
          1    1    5    5  503    0  0.97997432344E+01 -0.22433505796E+01  0.42871502496E+02  0.44034456004E+02  0.00000000000E+00 0. -1.
         -2    1    5    5    0  503  0.17392099843E+03 -0.33266750721E+03  0.57645015943E+03  0.68790331469E+03  0.00000000000E+00 0.  1.
         -3    1    6    6    0  502 -0.13208375755E+03  0.19006125855E+03  0.23363071244E+04  0.23477436786E+04  0.00000000000E+00 0.  1.
<mgrwt>
<rscale>  0 0.14367243E+04</rscale>
<asrwt>0</asrwt>
<pdfrwt beam="1">  1        2 0.53334868E+00 0.14367243E+04</pdfrwt>
<pdfrwt beam="2">  1       -2 0.22900710E-01 0.14367243E+04</pdfrwt>
<totfact> 0.14208063E+01</totfact>
</mgrwt>
</event>
<event>
12    1  0.1506149E-007  0.1426824E+04  0.7818608E-02  0.8934627E-01
         -1   -1    0    0    0  501 -0.00000000000E+00  0.00000000000E+00  0.86912664826E+03  0.86912664826E+03  0.00000000000E+00 0.  1.
          1   -1    0    0  501    0  0.00000000000E+00 -0.00000000000E+00 -0.58559586402E+03  0.58559586402E+03  0.00000000000E+00 0. -1.
         23    2    1    2    0    0 -0.18628353805E+03 -0.12484742411E+03 -0.28312151824E+03  0.37016979179E+03  0.81113776956E+02 0.  0.
        254    2    1    2    0    0  0.18628353805E+03  0.12484742411E+03  0.56665230247E+03  0.10845527205E+04  0.89714621760E+03 0.  0.
        -24    2    4    4    0    0  0.31532792778E+03  0.29539605820E+03  0.69536913203E+03  0.82243567744E+03  0.78560043991E+02 0.  0.
         24    2    4    4    0    0 -0.12904438973E+03 -0.17054863409E+03 -0.12871682955E+03  0.26211704305E+03  0.79987692416E+02 0.  0.
         13    1    3    3    0    0 -0.38803390894E+02  0.84070593885E+01 -0.46555818679E+02  0.61186812674E+02  0.00000000000E+00 0. -1.
        -13    1    3    3    0    0 -0.14748014716E+03 -0.13325448350E+03 -0.23656569956E+03  0.30898297912E+03  0.00000000000E+00 0.  1.
          4    1    6    6  502    0 -0.13773054342E+03 -0.13943243283E+03 -0.10871917056E+03  0.22412265383E+03  0.00000000000E+00 0. -1.
          1    1    5    5  503    0  0.26444009283E+03  0.20252920298E+03  0.53752355229E+03  0.63235924127E+03  0.00000000000E+00 0. -1.
         -2    1    5    5    0  503  0.50887834950E+02  0.92866855211E+02  0.15784557974E+03  0.19007643617E+03  0.00000000000E+00 0.  1.
         -3    1    6    6    0  502  0.86861536900E+01 -0.31116201257E+02 -0.19997658996E+02  0.37994389216E+02  0.00000000000E+00 0.  1.
<mgrwt>
<rscale>  0 0.14268244E+04</rscale>
<asrwt>0</asrwt>
<pdfrwt beam="1">  1        1 0.90091671E-01 0.14268244E+04</pdfrwt>
<pdfrwt beam="2">  1       -1 0.13371179E+00 0.14268244E+04</pdfrwt>
<totfact> 0.16297715E+01</totfact>
</mgrwt>
</event>
<event>
12    1  0.1506149E-007  0.2168203E+04  0.7818608E-02  0.8531780E-01
          1   -1    0    0  501    0  0.00000000000E+00  0.00000000000E+00  0.94531057998E+03  0.94531057998E+03  0.00000000000E+00 0. -1.
         -1   -1    0    0    0  501 -0.00000000000E+00 -0.00000000000E+00 -0.12432696922E+04  0.12432696922E+04  0.00000000000E+00 0.  1.
         23    2    1    2    0    0  0.25134291496E+03 -0.37227028426E+03 -0.89209539751E+03  0.10029833018E+04  0.91558069396E+02 0.  0.
        254    2    1    2    0    0 -0.25134291496E+03  0.37227028426E+03  0.59413628525E+03  0.11855969704E+04  0.92243364274E+03 0.  0.
        -24    2    4    4    0    0  0.95870846558E+02 -0.20853828065E+03 -0.49752082257E+02  0.24795638077E+03  0.79546611250E+02 0.  0.
         24    2    4    4    0    0 -0.34721376152E+03  0.58080856491E+03  0.64388836751E+03  0.93764058960E+03  0.81741422702E+02 0.  0.
         13    1    3    3    0    0  0.48591714405E+02 -0.22325142761E+02 -0.89868944809E+02  0.10457530277E+03  0.00000000000E+00 0. -1.
        -13    1    3    3    0    0  0.20275120055E+03 -0.34994514150E+03 -0.80222645270E+03  0.89840799907E+03  0.00000000000E+00 0.  1.
          2    1    6    6  502    0 -0.31299892873E+03  0.51511245351E+03  0.53494016081E+03  0.80589710559E+03  0.00000000000E+00 0. -1.
          3    1    5    5  503    0  0.10710450717E+03 -0.18339009229E+03 -0.56164779106E+02  0.21967654362E+03  0.00000000000E+00 0. -1.
         -4    1    5    5    0  503 -0.11233660609E+02 -0.25148188363E+02  0.64126968491E+01  0.28279837154E+02  0.00000000000E+00 0.  1.
         -1    1    6    6    0  502 -0.34214832785E+02  0.65696111403E+02  0.10894820670E+03  0.13174348401E+03  0.00000000000E+00 0.  1.
<mgrwt>
<rscale>  0 0.21682029E+04</rscale>
<asrwt>0</asrwt>
<pdfrwt beam="1">  1        1 0.14543240E+00 0.21682029E+04</pdfrwt>
<pdfrwt beam="2">  1       -1 0.19127226E+00 0.21682029E+04</pdfrwt>
<totfact> 0.26458504E+00</totfact>
</mgrwt>
</event>
<event>
12    1  0.1506149E-007  0.1949945E+04  0.7818608E-02  0.8630387E-01
          2   -1    0    0  501    0  0.00000000000E+00  0.00000000000E+00  0.25771142452E+04  0.25771142452E+04  0.00000000000E+00 0. -1.
         -2   -1    0    0    0  501 -0.00000000000E+00 -0.00000000000E+00 -0.36885096762E+03  0.36885096762E+03  0.00000000000E+00 0.  1.
         23    2    1    2    0    0 -0.55316524014E+03  0.51507544117E+03  0.72162319536E+03  0.10487737203E+04  0.88835732460E+02 0.  0.
        254    2    1    2    0    0  0.55316524014E+03 -0.51507544117E+03  0.14866400822E+04  0.18971914925E+04  0.90440164312E+03 0.  0.
        -24    2    4    4    0    0  0.67700696037E+03 -0.49309129607E+03  0.69473194091E+03  0.10909896432E+04  0.78284616435E+02 0.  0.
         24    2    4    4    0    0 -0.12384172023E+03 -0.21984145102E+02  0.79190814129E+03  0.80620184928E+03  0.83802405917E+02 0.  0.
         11    1    3    3    0    0 -0.82203486450E+02  0.52352401346E+02  0.12822201755E+03  0.16105611722E+03  0.00000000000E+00 0. -1.
        -11    1    3    3    0    0 -0.47096175369E+03  0.46272303982E+03  0.59340117782E+03  0.88771760310E+03  0.00000000000E+00 0.  1.
          4    1    6    6  502    0 -0.75913954860E+02  0.14872138045E+02  0.27188242024E+03  0.28267323797E+03  0.00000000000E+00 0. -1.
          1    1    5    5  503    0  0.37602699988E+03 -0.26314312750E+03  0.33107659429E+03  0.56590840379E+03  0.00000000000E+00 0. -1.
         -4    1    5    5    0  503  0.30097996049E+03 -0.22994816857E+03  0.36365534661E+03  0.52508123939E+03  0.00000000000E+00 0.  1.
         -3    1    6    6    0  502 -0.47927765367E+02 -0.36856283147E+02  0.52002572105E+03  0.52352861130E+03  0.00000000000E+00 0.  1.
<mgrwt>
<rscale>  0 0.19499447E+04</rscale>
<asrwt>0</asrwt>
<pdfrwt beam="1">  1        2 0.39647910E+00 0.19499447E+04</pdfrwt>
<pdfrwt beam="2">  1       -2 0.56746304E-01 0.19499447E+04</pdfrwt>
<totfact> 0.85355187E+00</totfact>
</mgrwt>
</event>
<event>
12    1  0.1506149E-007  0.1502950E+04  0.7818608E-02  0.8882494E-01
         -2   -1    0    0    0  501 -0.00000000000E+00  0.00000000000E+00  0.13577739672E+04  0.13577739672E+04  0.00000000000E+00 0.  1.
          2   -1    0    0  501    0  0.00000000000E+00 -0.00000000000E+00 -0.41591192569E+03  0.41591192569E+03  0.00000000000E+00 0. -1.
         23    2    1    2    0    0 -0.28126435290E+03 -0.17363987802E+03 -0.99844745669E+02  0.35752017218E+03  0.92689032919E+02 0.  0.
        254    2    1    2    0    0  0.28126435290E+03  0.17363987802E+03  0.10417067872E+04  0.14161657208E+04  0.90061749629E+03 0.  0.
        -24    2    4    4    0    0 -0.10307492295E+03 -0.23210945200E+03  0.71710394413E+03  0.76509440183E+03  0.81437949275E+02 0.  0.
         24    2    4    4    0    0  0.38433927585E+03  0.40574933003E+03  0.32460284309E+03  0.65107131892E+03  0.78598083905E+02 0.  0.
         11    1    3    3    0    0 -0.32725030702E+02 -0.23304420185E+02  0.18041749352E+02  0.44040076684E+02  0.00000000000E+00 0.  1.
        -11    1    3    3    0    0 -0.24853932220E+03 -0.15033545784E+03 -0.11788649502E+03  0.31348009550E+03  0.00000000000E+00 0. -1.
          4    1    6    6  502    0  0.19337670584E+03  0.15037493395E+03  0.12694071696E+03  0.27590055590E+03  0.00000000000E+00 0. -1.
          1    1    5    5  503    0 -0.22134618053E+02 -0.69641505068E+01  0.11260108688E+03  0.11496714955E+03  0.00000000000E+00 0. -1.
         -2    1    5    5    0  503 -0.80940304895E+02 -0.22514530150E+03  0.60450285725E+03  0.65012725228E+03  0.00000000000E+00 0.  1.
         -3    1    6    6    0  502  0.19096257001E+03  0.25537439608E+03  0.19766212614E+03  0.37517076302E+03  0.00000000000E+00 0.  1.
<mgrwt>
<rscale>  0 0.15029496E+04</rscale>
<asrwt>0</asrwt>
<pdfrwt beam="1">  1        2 0.63986451E-01 0.15029496E+04</pdfrwt>
<pdfrwt beam="2">  1       -2 0.20888830E+00 0.15029496E+04</pdfrwt>
<totfact> 0.85483113E+00</totfact>
</mgrwt>
</event>
<event>
12    1  0.1506149E-007  0.3582851E+04  0.7818608E-02  0.8094431E-01
          2   -1    0    0  501    0  0.00000000000E+00  0.00000000000E+00  0.24815780907E+04  0.24815780907E+04  0.00000000000E+00 0. -1.
         -2   -1    0    0    0  501 -0.00000000000E+00 -0.00000000000E+00 -0.12932115023E+04  0.12932115023E+04  0.00000000000E+00 0.  1.
         23    2    1    2    0    0 -0.16024678532E+04 -0.46238943308E+03  0.35609208362E+03  0.17078751710E+04  0.91262365385E+02 0.  0.
        254    2    1    2    0    0  0.16024678532E+04  0.46238943308E+03  0.83227450483E+03  0.20669144221E+04  0.89316693206E+03 0.  0.
        -24    2    4    4    0    0  0.66194055455E+03  0.63567847068E+03  0.29971129378E+03  0.96925313303E+03  0.85862450555E+02 0.  0.
         24    2    4    4    0    0  0.94052729861E+03 -0.17328903761E+03  0.53256321104E+03  0.10976612890E+04  0.81339054009E+02 0.  0.
         11    1    3    3    0    0 -0.13165752397E+04 -0.35639849545E+03  0.26312419907E+03  0.13891092807E+04  0.00000000000E+00 0. -1.
        -11    1    3    3    0    0 -0.28589261341E+03 -0.10599093763E+03  0.92967884547E+02  0.31876589030E+03  0.00000000000E+00 0.  1.
          4    1    6    6  502    0  0.75747953981E+03 -0.14772626231E+03  0.39293180513E+03  0.86602176952E+03  0.00000000000E+00 0. -1.
          3    1    5    5  503    0  0.46871785256E+03  0.47952415663E+03  0.18492833018E+03  0.69558488296E+03  0.00000000000E+00 0. -1.
         -4    1    5    5    0  503  0.19322270199E+03  0.15615431406E+03  0.11478296360E+03  0.27366825007E+03  0.00000000000E+00 0.  1.
         -3    1    6    6    0  502  0.18304775881E+03 -0.25562775293E+02  0.13963140591E+03  0.23163951952E+03  0.00000000000E+00 0.  1.
<mgrwt>
<rscale>  0 0.35828510E+04</rscale>
<asrwt>0</asrwt>
<pdfrwt beam="1">  1        2 0.38178124E+00 0.35828510E+04</pdfrwt>
<pdfrwt beam="2">  1       -2 0.19895562E+00 0.35828510E+04</pdfrwt>
<totfact> 0.39342802E-01</totfact>
</mgrwt>
</event>
<event>
12    1  0.1506149E-007  0.1279233E+04  0.7818608E-02  0.9046197E-01
         -2   -1    0    0    0  501 -0.00000000000E+00  0.00000000000E+00  0.41755659260E+03  0.41755659260E+03  0.00000000000E+00 0.  1.
          2   -1    0    0  501    0  0.00000000000E+00 -0.00000000000E+00 -0.97977028167E+03  0.97977028167E+03  0.00000000000E+00 0. -1.
         23    2    1    2    0    0  0.10226564147E+02 -0.90343070139E+02  0.18643785946E+03  0.22632928035E+03  0.90550619930E+02 0.  0.
        254    2    1    2    0    0 -0.10226564147E+02  0.90343070139E+02 -0.74865154853E+03  0.11709975939E+04  0.89581793402E+03 0.  0.
        -24    2    4    4    0    0  0.40473478792E+03 -0.10628461476E+03 -0.27782121632E+03  0.50865293053E+03  0.80227848089E+02 0.  0.
         24    2    4    4    0    0 -0.41496135207E+03  0.19662768490E+03 -0.47083033221E+03  0.66234466339E+03  0.78510389170E+02 0.  0.
         13    1    3    3    0    0  0.42866995336E+02 -0.77355357205E+02  0.10276121451E+03  0.13557764486E+03  0.00000000000E+00 0. -1.
        -13    1    3    3    0    0 -0.32640431189E+02 -0.12987712934E+02  0.83676644951E+02  0.90751635499E+02  0.00000000000E+00 0.  1.
          4    1    6    6  502    0 -0.33499157440E+02  0.37442387662E+02 -0.32367593238E+02  0.59764429513E+02  0.00000000000E+00 0. -1.
          1    1    5    5  503    0  0.28582184466E+03 -0.56136419892E+02 -0.22956484510E+03  0.37087119413E+03  0.00000000000E+00 0. -1.
         -2    1    5    5    0  503  0.11891294326E+03 -0.50148194867E+02 -0.48256371212E+02  0.13778173640E+03  0.00000000000E+00 0.  1.
         -3    1    6    6    0  502 -0.38146219463E+03  0.15918529724E+03 -0.43846273898E+03  0.60258023388E+03  0.00000000000E+00 0.  1.
<mgrwt>
<rscale>  0 0.12792334E+04</rscale>
<asrwt>0</asrwt>
<pdfrwt beam="1">  1        2 0.15073389E+00 0.12792334E+04</pdfrwt>
<pdfrwt beam="2">  1       -2 0.64239477E-01 0.12792334E+04</pdfrwt>
<totfact> 0.57064189E+01</totfact>
</mgrwt>
</event>
<event>
12    1  0.1506149E-007  0.2083720E+04  0.7818608E-02  0.8568449E-01
         -2   -1    0    0    0  501 -0.00000000000E+00  0.00000000000E+00  0.38622694383E+03  0.38622694383E+03  0.00000000000E+00 0.  1.
          2   -1    0    0  501    0  0.00000000000E+00 -0.00000000000E+00 -0.28104512986E+04  0.28104512986E+04  0.00000000000E+00 0. -1.
         23    2    1    2    0    0 -0.41167208229E+03 -0.68778042522E+03 -0.13992864494E+04  0.16151805612E+04  0.91048676011E+02 0.  0.
        254    2    1    2    0    0  0.41167208229E+03  0.68778042522E+03 -0.10249379055E+04  0.15814976812E+04  0.89895572143E+03 0.  0.
        -24    2    4    4    0    0  0.16561442749E+02 -0.19981253703E+03 -0.10054375595E+03  0.23809347620E+03  0.79875685991E+02 0.  0.
         24    2    4    4    0    0  0.39511063954E+03  0.88759296224E+03 -0.92439414950E+03  0.13434042050E+04  0.79351309818E+02 0.  0.
         11    1    3    3    0    0 -0.51894608469E+02 -0.12521945498E+03 -0.29576076123E+03  0.32534195883E+03  0.00000000000E+00 0.  1.
        -11    1    3    3    0    0 -0.35977747382E+03 -0.56256097024E+03 -0.11035256881E+04  0.12898386024E+04  0.00000000000E+00 0. -1.
          4    1    6    6  502    0  0.20144289442E+03  0.35649032260E+03 -0.39225683697E+03  0.56703616813E+03  0.00000000000E+00 0. -1.
          3    1    5    5  503    0 -0.14632750997E+02 -0.20388558453E+02 -0.37997044616E+02  0.45536645870E+02  0.00000000000E+00 0. -1.
         -4    1    5    5    0  503  0.31194193745E+02 -0.17942397857E+03 -0.62546711333E+02  0.19255683033E+03  0.00000000000E+00 0.  1.
         -3    1    6    6    0  502  0.19366774512E+03  0.53110263964E+03 -0.53213731254E+03  0.77636803691E+03  0.00000000000E+00 0.  1.
<mgrwt>
<rscale>  0 0.20837198E+04</rscale>
<asrwt>0</asrwt>
<pdfrwt beam="1">  1        2 0.43237712E+00 0.20837198E+04</pdfrwt>
<pdfrwt beam="2">  1       -2 0.59419530E-01 0.20837198E+04</pdfrwt>
<totfact> 0.55660732E+00</totfact>
</mgrwt>
</event>
<event>
12    1  0.1506149E-007  0.1838278E+04  0.7818608E-02  0.8686205E-01
          1   -1    0    0  501    0  0.00000000000E+00  0.00000000000E+00  0.10954995436E+04  0.10954995436E+04  0.00000000000E+00 0. -1.
         -1   -1    0    0    0  501 -0.00000000000E+00 -0.00000000000E+00 -0.77116978928E+03  0.77116978928E+03  0.00000000000E+00 0.  1.
         23    2    1    2    0    0 -0.28604213325E+03  0.48928829453E+03 -0.27828328006E+03  0.63797216770E+03  0.91344215090E+02 0.  0.
        254    2    1    2    0    0  0.28604213325E+03 -0.48928829453E+03  0.60261303443E+03  0.12286971652E+04  0.90847736209E+03 0.  0.
        -24    2    4    4    0    0 -0.17982932119E+03 -0.48870008567E+03  0.53546164926E+03  0.75109763960E+03  0.79133607894E+02 0.  0.
         24    2    4    4    0    0  0.46587145443E+03 -0.58820886720E+00  0.67151385164E+02  0.47759952563E+03  0.80965673622E+02 0.  0.
         13    1    3    3    0    0 -0.29038447695E+03  0.46457578178E+03 -0.25735082700E+03  0.60529600167E+03  0.00000000000E+00 0.  1.
        -13    1    3    3    0    0  0.43423437025E+01  0.24712512751E+02 -0.20932453061E+02  0.32676166030E+02  0.00000000000E+00 0. -1.
          2    1    6    6  502    0  0.17684823405E+03  0.37220762942E+02  0.13583574014E+02  0.18123243794E+03  0.00000000000E+00 0. -1.
          1    1    5    5  503    0 -0.11292333868E+03 -0.39365119175E+03  0.43528494809E+03  0.59765033859E+03  0.00000000000E+00 0. -1.
         -2    1    5    5    0  503 -0.66905982508E+02 -0.95048893915E+02  0.10017670117E+03  0.15344730101E+03  0.00000000000E+00 0.  1.
         -3    1    6    6    0  502  0.28902322038E+03 -0.37808971810E+02  0.53567811150E+02  0.29636708768E+03  0.00000000000E+00 0.  1.
<mgrwt>
<rscale>  0 0.18382776E+04</rscale>
<asrwt>0</asrwt>
<pdfrwt beam="1">  1        1 0.16853839E+00 0.18382776E+04</pdfrwt>
<pdfrwt beam="2">  1       -1 0.11864151E+00 0.18382776E+04</pdfrwt>
<totfact> 0.76518084E+00</totfact>
</mgrwt>
</event>
<event>
12    1  0.1506149E-007  0.1295059E+04  0.7818608E-02  0.9033492E-01
         -2   -1    0    0    0  501 -0.00000000000E+00  0.00000000000E+00  0.34567444526E+03  0.34567444526E+03  0.00000000000E+00 0.  1.
          2   -1    0    0  501    0  0.00000000000E+00 -0.00000000000E+00 -0.12129754936E+04  0.12129754936E+04  0.00000000000E+00 0. -1.
         23    2    1    2    0    0  0.10283769336E+03  0.13931915129E+03 -0.61603582392E+03  0.64654549003E+03  0.92387863023E+02 0.  0.
        254    2    1    2    0    0 -0.10283769336E+03 -0.13931915129E+03 -0.25126522438E+03  0.91210444878E+03  0.85954342265E+03 0.  0.
        -24    2    4    4    0    0 -0.18053838610E+03  0.13852262338E+03 -0.47960408830E+03  0.53664635628E+03  0.78654968991E+02 0.  0.
         24    2    4    4    0    0  0.77700692739E+02 -0.27784177467E+03  0.22833886392E+03  0.37545809251E+03  0.74811048991E+02 0.  0.
         11    1    3    3    0    0  0.81591033911E+02  0.81078934507E+02 -0.24866159852E+03  0.27397715419E+03  0.00000000000E+00 0. -1.
        -11    1    3    3    0    0  0.21246659451E+02  0.58240216786E+02 -0.36737422539E+03  0.37256833584E+03  0.00000000000E+00 0.  1.
          4    1    6    6  502    0  0.67763324218E+02 -0.10967637344E+03  0.86648988173E+02  0.15533454913E+03  0.00000000000E+00 0. -1.
          1    1    5    5  503    0 -0.14783928410E+03  0.68017121380E+02 -0.33717543807E+03  0.37439292029E+03  0.00000000000E+00 0. -1.
         -2    1    5    5    0  503 -0.32699102000E+02  0.70505501997E+02 -0.14242865023E+03  0.16225343599E+03  0.00000000000E+00 0.  1.
         -3    1    6    6    0  502  0.99373685204E+01 -0.16816540123E+03  0.14168987574E+03  0.22012354338E+03  0.00000000000E+00 0.  1.
<mgrwt>
<rscale>  0 0.12950593E+04</rscale>
<asrwt>0</asrwt>
<pdfrwt beam="1">  1        2 0.18661161E+00 0.12950593E+04</pdfrwt>
<pdfrwt beam="2">  1       -2 0.53180685E-01 0.12950593E+04</pdfrwt>
<totfact> 0.60806838E+01</totfact>
</mgrwt>
</event>
<event>
12    1  0.1506149E-007  0.2044311E+04  0.7818608E-02  0.8586179E-01
          1   -1    0    0  501    0  0.00000000000E+00  0.00000000000E+00  0.10653710422E+04  0.10653710422E+04  0.00000000000E+00 0. -1.
         -1   -1    0    0    0  501 -0.00000000000E+00 -0.00000000000E+00 -0.98069328140E+03  0.98069328140E+03  0.00000000000E+00 0.  1.
         23    2    1    2    0    0  0.49556922762E+03  0.65435320294E+03  0.66081421594E+02  0.82852806662E+03  0.91241598670E+02 0.  0.
        254    2    1    2    0    0 -0.49556922762E+03 -0.65435320294E+03  0.18596339250E+02  0.12175362570E+04  0.89904490420E+03 0.  0.
        -24    2    4    4    0    0  0.21684111347E+03 -0.38533411487E+03  0.41943006884E+02  0.45120275111E+03  0.79512629235E+02 0.  0.
         24    2    4    4    0    0 -0.71241034109E+03 -0.26901908807E+03 -0.23346667635E+02  0.76633350592E+03  0.82596680092E+02 0.  0.
         13    1    3    3    0    0  0.49093018491E+03  0.65523699191E+03  0.70861572689E+02  0.82180856926E+03  0.00000000000E+00 0.  1.
        -13    1    3    3    0    0  0.46390427128E+01 -0.88378897135E+00 -0.47801510957E+01  0.67194973573E+01  0.00000000000E+00 0. -1.
          4    1    6    6  502    0 -0.11426620869E+03 -0.45723306695E+02  0.26605271299E+02  0.12591754320E+03  0.00000000000E+00 0. -1.
          3    1    5    5  503    0  0.77449396280E+02 -0.70462946140E+02  0.15440379970E+02  0.10583875045E+03  0.00000000000E+00 0. -1.
         -4    1    5    5    0  503  0.13939171719E+03 -0.31487116873E+03  0.26502626915E+02  0.34536400066E+03  0.00000000000E+00 0.  1.
         -3    1    6    6    0  502 -0.59814413239E+03 -0.22329578138E+03 -0.49951938934E+02  0.64041596272E+03  0.00000000000E+00 0.  1.
<mgrwt>
<rscale>  0 0.20443113E+04</rscale>
<asrwt>0</asrwt>
<pdfrwt beam="1">  1        1 0.16390324E+00 0.20443113E+04</pdfrwt>
<pdfrwt beam="2">  1       -1 0.15087589E+00 0.20443113E+04</pdfrwt>
<totfact> 0.42753737E+00</totfact>
</mgrwt>
</event>
<event>
12    1  0.1506149E-007  0.1515284E+04  0.7818608E-02  0.8874353E-01
         -2   -1    0    0    0  501 -0.00000000000E+00  0.00000000000E+00  0.77185997357E+03  0.77185997357E+03  0.00000000000E+00 0.  1.
          2   -1    0    0  501    0  0.00000000000E+00 -0.00000000000E+00 -0.74368559502E+03  0.74368559502E+03  0.00000000000E+00 0. -1.
         23    2    1    2    0    0 -0.20812479027E+03 -0.20306425795E+03 -0.37370987727E+03  0.48206078150E+03  0.90401899928E+02 0.  0.
        254    2    1    2    0    0  0.20812479027E+03  0.20306425795E+03  0.40188425582E+03  0.10334847871E+04  0.90665805510E+03 0.  0.
        -24    2    4    4    0    0  0.28474128024E+03  0.53021254687E+03  0.25910798775E+03  0.66016454098E+03  0.80481863303E+02 0.  0.
         24    2    4    4    0    0 -0.76616489978E+02 -0.32714828892E+03  0.14277626807E+03  0.37332024611E+03  0.78018292422E+02 0.  0.
         11    1    3    3    0    0 -0.15315128545E+03 -0.96649751949E+02 -0.18767995162E+03  0.26080693056E+03  0.00000000000E+00 0. -1.
        -11    1    3    3    0    0 -0.54973504815E+02 -0.10641450600E+03 -0.18602992565E+03  0.22125385094E+03  0.00000000000E+00 0.  1.
          4    1    6    6  502    0  0.10826177782E+02 -0.11198966571E+03  0.52253083090E+02  0.12405352088E+03  0.00000000000E+00 0. -1.
          3    1    5    5  503    0  0.88598072558E+02  0.24929607668E+03  0.11203918504E+03  0.28731677865E+03  0.00000000000E+00 0. -1.
         -4    1    5    5    0  503  0.19614320769E+03  0.28091647018E+03  0.14706880271E+03  0.37284776233E+03  0.00000000000E+00 0.  1.
         -3    1    6    6    0  502 -0.87442667760E+02 -0.21515862321E+03  0.90523184980E+02  0.24926672523E+03  0.00000000000E+00 0.  1.
<mgrwt>
<rscale>  0 0.15152837E+04</rscale>
<asrwt>0</asrwt>
<pdfrwt beam="1">  1        2 0.11441317E+00 0.15152837E+04</pdfrwt>
<pdfrwt beam="2">  1       -2 0.11874769E+00 0.15152837E+04</pdfrwt>
<totfact> 0.19940927E+01</totfact>
</mgrwt>
</event>
<event>
12    1  0.1506149E-007  0.1290363E+04  0.7818608E-02  0.9037243E-01
         -1   -1    0    0    0  501 -0.00000000000E+00  0.00000000000E+00  0.44263523475E+03  0.44263523475E+03  0.00000000000E+00 0.  1.
          1   -1    0    0  501    0  0.00000000000E+00 -0.00000000000E+00 -0.94041087019E+03  0.94041087019E+03  0.00000000000E+00 0. -1.
         23    2    1    2    0    0 -0.29571984462E+03  0.14639853871E+03 -0.17676818015E+03  0.38532752837E+03  0.91364960306E+02 0.  0.
        254    2    1    2    0    0  0.29571984462E+03 -0.14639853871E+03 -0.32100745530E+03  0.99771857657E+03  0.88516315617E+03 0.  0.
        -24    2    4    4    0    0  0.51963582191E+03 -0.27044401797E+03 -0.16773815785E+02  0.59173611200E+03  0.81907942739E+02 0.  0.
         24    2    4    4    0    0 -0.22391597729E+03  0.12404547926E+03 -0.30423363952E+03  0.40598246457E+03  0.82085372115E+02 0.  0.
         11    1    3    3    0    0 -0.20810540014E+03  0.77218767242E+02 -0.75084362615E+02  0.23432510982E+03  0.00000000000E+00 0. -1.
        -11    1    3    3    0    0 -0.87614444478E+02  0.69179771467E+02 -0.10168381753E+03  0.15100241855E+03  0.00000000000E+00 0.  1.
          4    1    6    6  502    0 -0.18396892700E+03  0.86964967631E+02 -0.28049540093E+03  0.34653303109E+03  0.00000000000E+00 0. -1.
          3    1    5    5  503    0  0.24586861586E+03 -0.17140003266E+03  0.53596901022E+01  0.29976336290E+03  0.00000000000E+00 0. -1.
         -4    1    5    5    0  503  0.27376720605E+03 -0.99043985316E+02 -0.22133505888E+02  0.29197274910E+03  0.00000000000E+00 0.  1.
         -1    1    6    6    0  502 -0.39947050288E+02  0.37080511632E+02 -0.23738238589E+02  0.59449433478E+02  0.00000000000E+00 0.  1.
<mgrwt>
<rscale>  0 0.12903627E+04</rscale>
<asrwt>0</asrwt>
<pdfrwt beam="1">  1        1 0.14467859E+00 0.12903627E+04</pdfrwt>
<pdfrwt beam="2">  1       -1 0.68097730E-01 0.12903627E+04</pdfrwt>
<totfact> 0.36220904E+01</totfact>
</mgrwt>
</event>
<event>
12    1  0.1506149E-007  0.1870164E+04  0.7818608E-02  0.8669852E-01
         -1   -1    0    0    0  501 -0.00000000000E+00  0.00000000000E+00  0.65519457259E+03  0.65519457259E+03  0.00000000000E+00 0.  1.
          1   -1    0    0  501    0  0.00000000000E+00 -0.00000000000E+00 -0.13345321698E+04  0.13345321698E+04  0.00000000000E+00 0. -1.
         23    2    1    2    0    0  0.57854500175E+03  0.19496077891E+03  0.13740097293E+03  0.63247835572E+03  0.91792258568E+02 0.  0.
        254    2    1    2    0    0 -0.57854500175E+03 -0.19496077891E+03 -0.81673857013E+03  0.13572483867E+04  0.89573280994E+03 0.  0.
        -24    2    4    4    0    0 -0.56689928476E+03 -0.13506442754E+03 -0.99252635480E+03  0.11538097256E+04  0.80938985045E+02 0.  0.
         24    2    4    4    0    0 -0.11645716991E+02 -0.59896351377E+02  0.17578778466E+03  0.20343866106E+03  0.82235928537E+02 0.  0.
         13    1    3    3    0    0  0.37633695167E+03  0.16811449764E+03  0.73181900528E+02  0.41862581869E+03  0.00000000000E+00 0.  1.
        -13    1    3    3    0    0  0.20220805008E+03  0.26846281271E+02  0.64219072406E+02  0.21385253703E+03  0.00000000000E+00 0. -1.
          2    1    6    6  502    0 -0.17375034200E+02 -0.16672414803E+02  0.18859793944E+01  0.24154050325E+02  0.00000000000E+00 0. -1.
          3    1    5    5  503    0 -0.69911548936E+02 -0.36686068649E+02 -0.17568087881E+03  0.19260649908E+03  0.00000000000E+00 0. -1.
         -2    1    5    5    0  503 -0.49698773582E+03 -0.98378358888E+02 -0.81684547599E+03  0.96120322653E+03  0.00000000000E+00 0.  1.
         -1    1    6    6    0  502  0.57293172098E+01 -0.43223936574E+02  0.17390180527E+03  0.17928461073E+03  0.00000000000E+00 0.  1.
<mgrwt>
<rscale>  0 0.18701639E+04</rscale>
<asrwt>0</asrwt>
<pdfrwt beam="1">  1        1 0.20531264E+00 0.18701639E+04</pdfrwt>
<pdfrwt beam="2">  1       -1 0.10079917E+00 0.18701639E+04</pdfrwt>
<totfact> 0.75028597E+00</totfact>
</mgrwt>
</event>
<event>
12    1  0.1506149E-007  0.1579298E+04  0.7818608E-02  0.8833368E-01
         -2   -1    0    0    0  501 -0.00000000000E+00  0.00000000000E+00  0.48315579020E+03  0.48315579020E+03  0.00000000000E+00 0.  1.
          2   -1    0    0  501    0  0.00000000000E+00 -0.00000000000E+00 -0.12905679801E+04  0.12905679801E+04  0.00000000000E+00 0. -1.
         23    2    1    2    0    0  0.49817735657E+03 -0.10640903517E+03 -0.48526722092E+03  0.70913086210E+03  0.88762280984E+02 0.  0.
        254    2    1    2    0    0 -0.49817735657E+03  0.10640903517E+03 -0.32214496899E+03  0.10645929082E+04  0.87754037959E+03 0.  0.
        -24    2    4    4    0    0  0.40946274742E+02  0.35298540598E+02 -0.48302943150E+03  0.49173482020E+03  0.74586307800E+02 0.  0.
         24    2    4    4    0    0 -0.53912363131E+03  0.71110494568E+02  0.16088446251E+03  0.57285808801E+03  0.81065322118E+02 0.  0.
         11    1    3    3    0    0  0.38728978653E+03 -0.86393771674E+02 -0.42460551078E+03  0.58116013483E+03  0.00000000000E+00 0. -1.
        -11    1    3    3    0    0  0.11088757003E+03 -0.20015263492E+02 -0.60661710148E+02  0.12797072727E+03  0.00000000000E+00 0.  1.
          4    1    6    6  502    0 -0.27041190821E+02  0.29048084936E+00  0.28357009462E+02  0.39184567954E+02  0.00000000000E+00 0. -1.
          1    1    5    5  503    0 -0.20954265038E+02  0.51522756209E+01 -0.79629719357E+02  0.82501632543E+02  0.00000000000E+00 0. -1.
         -2    1    5    5    0  503  0.61900539780E+02  0.30146264978E+02 -0.40339971215E+03  0.40923318765E+03  0.00000000000E+00 0.  1.
         -3    1    6    6    0  502 -0.51208244049E+03  0.70820013718E+02  0.13252745305E+03  0.53367352006E+03  0.00000000000E+00 0.  1.
<mgrwt>
<rscale>  0 0.15792978E+04</rscale>
<asrwt>0</asrwt>
<pdfrwt beam="1">  1        2 0.19854892E+00 0.15792978E+04</pdfrwt>
<pdfrwt beam="2">  1       -2 0.74331661E-01 0.15792978E+04</pdfrwt>
<totfact> 0.26193399E+01</totfact>
</mgrwt>
</event>
<event>
12    1  0.1506149E-007  0.1667911E+04  0.7818608E-02  0.8779880E-01
         -1   -1    0    0    0  501 -0.00000000000E+00  0.00000000000E+00  0.44922148253E+03  0.44922148253E+03  0.00000000000E+00 0.  1.
          1   -1    0    0  501    0  0.00000000000E+00 -0.00000000000E+00 -0.15481943218E+04  0.15481943218E+04  0.00000000000E+00 0. -1.
         23    2    1    2    0    0 -0.43617209961E+03 -0.26918511509E+03 -0.40101384512E+02  0.52362437857E+03  0.99336006181E+02 0.  0.
        254    2    1    2    0    0  0.43617209961E+03  0.26918511509E+03 -0.10588714548E+04  0.14737914258E+04  0.88777569367E+03 0.  0.
        -24    2    4    4    0    0  0.35170591937E+03 -0.22238058790E+03 -0.18012203162E+03  0.46019292598E+03  0.78634618696E+02 0.  0.
         24    2    4    4    0    0  0.84466180240E+02  0.49156570299E+03 -0.87874942316E+03  0.10135984998E+04  0.80062438832E+02 0.  0.
         11    1    3    3    0    0 -0.31364432731E+03 -0.19354604626E+03  0.16453503409E+02  0.36892215147E+03  0.00000000000E+00 0.  1.
        -11    1    3    3    0    0 -0.12252777231E+03 -0.75639068835E+02 -0.56554887921E+02  0.15470222710E+03  0.00000000000E+00 0. -1.
          4    1    6    6  502    0  0.80506275804E+02  0.42592587066E+03 -0.70236740946E+03  0.82535694437E+03  0.00000000000E+00 0. -1.
          3    1    5    5  503    0  0.26498717966E+03 -0.20126035307E+03 -0.12598142886E+03  0.35580227026E+03  0.00000000000E+00 0. -1.
         -4    1    5    5    0  503  0.86718739713E+02 -0.21120234826E+02 -0.54140602755E+02  0.10439065573E+03  0.00000000000E+00 0.  1.
         -1    1    6    6    0  502  0.39599044359E+01  0.65639832329E+02 -0.17638201370E+03  0.18824155543E+03  0.00000000000E+00 0.  1.
<mgrwt>
<rscale>  0 0.16679114E+04</rscale>
<asrwt>0</asrwt>
<pdfrwt beam="1">  1        1 0.23818375E+00 0.16679114E+04</pdfrwt>
<pdfrwt beam="2">  1       -1 0.69110996E-01 0.16679114E+04</pdfrwt>
<totfact> 0.12242865E+01</totfact>
</mgrwt>
</event>
<event>
12    1  0.1506149E-007  0.2266069E+04  0.7818608E-02  0.8491421E-01
          2   -1    0    0  501    0  0.00000000000E+00  0.00000000000E+00  0.17268609704E+04  0.17268609704E+04  0.00000000000E+00 0. -1.
         -2   -1    0    0    0  501 -0.00000000000E+00 -0.00000000000E+00 -0.74341114961E+03  0.74341114961E+03  0.00000000000E+00 0.  1.
         23    2    1    2    0    0  0.50881419681E+03  0.80277339437E+03  0.40017084521E+03  0.10352365296E+04  0.90779717909E+02 0.  0.
        254    2    1    2    0    0 -0.50881419681E+03 -0.80277339437E+03  0.58327897553E+03  0.14350355904E+04  0.90320306291E+03 0.  0.
        -24    2    4    4    0    0 -0.34615466036E+02 -0.77062993358E+03  0.55285295653E+03  0.95241202809E+03  0.79834545792E+02 0.  0.
         24    2    4    4    0    0 -0.47419873077E+03 -0.32143460800E+02  0.30426019007E+02  0.48262356232E+03  0.78116079862E+02 0.  0.
         11    1    3    3    0    0  0.35770168244E+03  0.52348549891E+03  0.22627974906E+03  0.67319394384E+03  0.00000000000E+00 0. -1.
        -11    1    3    3    0    0  0.15111251437E+03  0.27928789546E+03  0.17389109615E+03  0.36204258571E+03  0.00000000000E+00 0.  1.
          2    1    6    6  502    0 -0.27788723819E+03  0.42121289021E+01 -0.13317587047E+02  0.27823805869E+03  0.00000000000E+00 0. -1.
          1    1    5    5  503    0 -0.34385972207E+02 -0.14602657838E+03  0.89293072298E+02  0.17458353141E+03  0.00000000000E+00 0. -1.
         -2    1    5    5    0  503 -0.22949382904E+00 -0.62460335519E+03  0.46355988423E+03  0.77782849668E+03  0.00000000000E+00 0.  1.
         -1    1    6    6    0  502 -0.19631149258E+03 -0.36355589702E+02  0.43743606053E+02  0.20438550362E+03  0.00000000000E+00 0.  1.
<mgrwt>
<rscale>  0 0.22660695E+04</rscale>
<asrwt>0</asrwt>
<pdfrwt beam="1">  1        2 0.26567092E+00 0.22660695E+04</pdfrwt>
<pdfrwt beam="2">  1       -2 0.11437095E+00 0.22660695E+04</pdfrwt>
<totfact> 0.51482393E+00</totfact>
</mgrwt>
</event>
<event>
12    1  0.1506149E-007  0.1889831E+04  0.7818608E-02  0.8659935E-01
         -2   -1    0    0    0  501 -0.00000000000E+00  0.00000000000E+00  0.57092450103E+03  0.57092450103E+03  0.00000000000E+00 0.  1.
          2   -1    0    0  501    0  0.00000000000E+00 -0.00000000000E+00 -0.15638936844E+04  0.15638936844E+04  0.00000000000E+00 0. -1.
         23    2    1    2    0    0 -0.31409936184E+03  0.64934991382E+03 -0.28454495814E+03  0.78069774144E+03  0.90605797881E+02 0.  0.
        254    2    1    2    0    0  0.31409936184E+03 -0.64934991382E+03 -0.70842422521E+03  0.13541204440E+04  0.90081272983E+03 0.  0.
        -24    2    4    4    0    0  0.48368413781E+03 -0.71611899470E+03 -0.33374402688E+03  0.92992009048E+03  0.81175978416E+02 0.  0.
         24    2    4    4    0    0 -0.16958477598E+03  0.66769080879E+02 -0.37468019833E+03  0.42420035349E+03  0.79646609917E+02 0.  0.
         11    1    3    3    0    0 -0.20045731575E+03  0.38965888944E+03 -0.21843363608E+03  0.48962275164E+03  0.00000000000E+00 0. -1.
        -11    1    3    3    0    0 -0.11364204609E+03  0.25969102438E+03 -0.66111322060E+02  0.29107498980E+03  0.00000000000E+00 0.  1.
          2    1    6    6  502    0 -0.13868284446E+03  0.16299483274E+02 -0.25749999098E+03  0.29292464877E+03  0.00000000000E+00 0. -1.
          3    1    5    5  503    0  0.21704090259E+03 -0.26046151038E+03 -0.15222996622E+03  0.37164622210E+03  0.00000000000E+00 0. -1.
         -4    1    5    5    0  503  0.26664323523E+03 -0.45565748431E+03 -0.18151406066E+03  0.55827386838E+03  0.00000000000E+00 0.  1.
         -1    1    6    6    0  502 -0.30901931520E+02  0.50469597605E+02 -0.11718020735E+03  0.13127570472E+03  0.00000000000E+00 0.  1.
<mgrwt>
<rscale>  0 0.18898309E+04</rscale>
<asrwt>0</asrwt>
<pdfrwt beam="1">  1        2 0.24059902E+00 0.18898309E+04</pdfrwt>
<pdfrwt beam="2">  1       -2 0.87834541E-01 0.18898309E+04</pdfrwt>
<totfact> 0.12241996E+01</totfact>
</mgrwt>
</event>
<event>
12    1  0.1506149E-007  0.1843077E+04  0.7818608E-02  0.8683721E-01
          2   -1    0    0  501    0  0.00000000000E+00  0.00000000000E+00  0.11109864985E+04  0.11109864985E+04  0.00000000000E+00 0. -1.
         -2   -1    0    0    0  501 -0.00000000000E+00 -0.00000000000E+00 -0.76439541880E+03  0.76439541880E+03  0.00000000000E+00 0.  1.
         23    2    1    2    0    0  0.51528450025E+01 -0.55426406273E+03 -0.29440086572E+03  0.63742914781E+03  0.11139499855E+03 0.  0.
        254    2    1    2    0    0 -0.51528450025E+01  0.55426406273E+03  0.64099194545E+03  0.12379527695E+04  0.90245286990E+03 0.  0.
        -24    2    4    4    0    0 -0.32621360752E+03  0.46895527415E+03  0.68295153306E+03  0.89408174218E+03  0.81394092605E+02 0.  0.
         24    2    4    4    0    0  0.32106076252E+03  0.85308788581E+02 -0.41959587613E+02  0.34387102734E+03  0.78288401523E+02 0.  0.
         11    1    3    3    0    0  0.23625154816E+01 -0.17467675192E+02 -0.39345085981E+02  0.43113071647E+02  0.00000000000E+00 0. -1.
        -11    1    3    3    0    0  0.27903295209E+01 -0.53679638754E+03 -0.25505577974E+03  0.59431607617E+03  0.00000000000E+00 0.  1.
          4    1    6    6  502    0  0.16876813146E+02  0.11858756503E+02 -0.22227196961E+02  0.30323344350E+02  0.00000000000E+00 0. -1.
          3    1    5    5  503    0 -0.49063953472E+02  0.10832517822E+03  0.10510580089E+03  0.15870994030E+03  0.00000000000E+00 0. -1.
         -4    1    5    5    0  503 -0.27714965405E+03  0.36063009593E+03  0.57784573217E+03  0.73537180189E+03  0.00000000000E+00 0.  1.
         -3    1    6    6    0  502  0.30418394937E+03  0.73450032078E+02 -0.19732390651E+02  0.31354768299E+03  0.00000000000E+00 0.  1.
<mgrwt>
<rscale>  0 0.18430768E+04</rscale>
<asrwt>0</asrwt>
<pdfrwt beam="1">  1        2 0.17092100E+00 0.18430768E+04</pdfrwt>
<pdfrwt beam="2">  1       -2 0.11759929E+00 0.18430768E+04</pdfrwt>
<totfact> 0.11266529E+01</totfact>
</mgrwt>
</event>
<event>
12    1  0.1506149E-007  0.2521927E+04  0.7818608E-02  0.8395215E-01
         -1   -1    0    0    0  501 -0.00000000000E+00  0.00000000000E+00  0.18081264351E+04  0.18081264351E+04  0.00000000000E+00 0.  1.
          1   -1    0    0  501    0  0.00000000000E+00 -0.00000000000E+00 -0.87937934086E+03  0.87937934086E+03  0.00000000000E+00 0. -1.
         23    2    1    2    0    0  0.15546610122E+03  0.87309111794E+03 -0.27468999336E+03  0.93427918317E+03  0.10471480694E+03 0.  0.
        254    2    1    2    0    0 -0.15546610122E+03 -0.87309111794E+03  0.12034370876E+04  0.17532265927E+04  0.91601574928E+03 0.  0.
        -24    2    4    4    0    0 -0.31880716444E+03  0.51299812250E+02  0.29615797443E+03  0.44525174827E+03  0.79182666565E+02 0.  0.
         24    2    4    4    0    0  0.16334106322E+03 -0.92439093019E+03  0.90727911314E+03  0.13079748445E+04  0.80398444603E+02 0.  0.
         11    1    3    3    0    0 -0.14581143965E+01  0.77559805158E+02 -0.52018099591E+02  0.93399850957E+02  0.00000000000E+00 0.  1.
        -11    1    3    3    0    0  0.15692421562E+03  0.79553131278E+03 -0.22267189377E+03  0.84087933221E+03  0.00000000000E+00 0. -1.
          2    1    6    6  502    0  0.24948001959E+02 -0.53335743887E+02  0.74478068061E+02  0.94942545783E+02  0.00000000000E+00 0. -1.
          1    1    5    5  503    0 -0.36869012919E+01  0.60911387704E+01 -0.36085615320E+01  0.79822884555E+01  0.00000000000E+00 0. -1.
         -2    1    5    5    0  503 -0.31512026315E+03  0.45208673480E+02  0.29976653596E+03  0.43726945981E+03  0.00000000000E+00 0.  1.
         -1    1    6    6    0  502  0.13839306126E+03 -0.87105518630E+03  0.83280104507E+03  0.12130322987E+04  0.00000000000E+00 0.  1.
<mgrwt>
<rscale>  0 0.25219271E+04</rscale>
<asrwt>0</asrwt>
<pdfrwt beam="1">  1        1 0.13528913E+00 0.25219271E+04</pdfrwt>
<pdfrwt beam="2">  1       -1 0.27817330E+00 0.25219271E+04</pdfrwt>
<totfact> 0.76747388E-01</totfact>
</mgrwt>
</event>
<event>
12    1  0.1506149E-007  0.2997540E+04  0.7818608E-02  0.8244434E-01
         -2   -1    0    0    0  501 -0.00000000000E+00  0.00000000000E+00  0.10200308609E+04  0.10200308609E+04  0.00000000000E+00 0.  1.
          2   -1    0    0  501    0  0.00000000000E+00 -0.00000000000E+00 -0.22021999972E+04  0.22021999972E+04  0.00000000000E+00 0. -1.
         23    2    1    2    0    0  0.87151979503E+03 -0.56746470923E+03 -0.14920746955E+04  0.18209892222E+04  0.90287878324E+02 0.  0.
        254    2    1    2    0    0 -0.87151979503E+03  0.56746470923E+03  0.30990555928E+03  0.14012416360E+04  0.88649518741E+03 0.  0.
        -24    2    4    4    0    0 -0.68343738364E+03  0.29896820374E+03 -0.21214047561E+03  0.77964070467E+03  0.79796007307E+02 0.  0.
         24    2    4    4    0    0 -0.18808241139E+03  0.26849650549E+03  0.52204603489E+03  0.62160093128E+03  0.79939278809E+02 0.  0.
         11    1    3    3    0    0  0.64877636537E+03 -0.46365309223E+03 -0.11687998214E+04  0.14149127128E+04  0.00000000000E+00 0. -1.
        -11    1    3    3    0    0  0.22274342966E+03 -0.10381161700E+03 -0.32327487406E+03  0.40607650939E+03  0.00000000000E+00 0.  1.
          2    1    6    6  502    0 -0.11195002487E+03  0.21597279722E+03  0.40469994129E+03  0.47218545052E+03  0.00000000000E+00 0. -1.
          1    1    5    5  503    0 -0.34960034482E+03  0.16678825245E+03 -0.14932689964E+03  0.41513521317E+03  0.00000000000E+00 0. -1.
         -2    1    5    5    0  503 -0.33383703882E+03  0.13217995128E+03 -0.62813575971E+02  0.36450549150E+03  0.00000000000E+00 0.  1.
         -1    1    6    6    0  502 -0.76132386522E+02  0.52523708270E+02  0.11734609360E+03  0.14941548076E+03  0.00000000000E+00 0.  1.
<mgrwt>
<rscale>  0 0.29975403E+04</rscale>
<asrwt>0</asrwt>
<pdfrwt beam="1">  1        2 0.33880000E+00 0.29975403E+04</pdfrwt>
<pdfrwt beam="2">  1       -2 0.15692782E+00 0.29975403E+04</pdfrwt>
<totfact> 0.11705222E+00</totfact>
</mgrwt>
</event>
<event>
12    1  0.1506149E-007  0.1072248E+04  0.7818608E-02  0.9232671E-01
         -1   -1    0    0    0  501 -0.00000000000E+00  0.00000000000E+00  0.22681376653E+03  0.22681376653E+03  0.00000000000E+00 0.  1.
          1   -1    0    0  501    0  0.00000000000E+00 -0.00000000000E+00 -0.12672456582E+04  0.12672456582E+04  0.00000000000E+00 0. -1.
         23    2    1    2    0    0 -0.21988909748E+02 -0.95511723982E+02 -0.26001722244E+02  0.13653997388E+03  0.91438904940E+02 0.  0.
        254    2    1    2    0    0  0.21988909748E+02  0.95511723982E+02 -0.10144301694E+04  0.13575194509E+04  0.89676334070E+03 0.  0.
        -24    2    4    4    0    0  0.26223323514E+03  0.40530090584E+03 -0.66805838129E+03  0.82825359847E+03  0.81651262519E+02 0.  0.
         24    2    4    4    0    0 -0.24024432539E+03 -0.30978918186E+03 -0.34637178814E+03  0.52926585239E+03  0.80388144689E+02 0.  0.
         11    1    3    3    0    0  0.86768836652E+01 -0.76293733500E+02  0.18695301087E+02  0.79028705950E+02  0.00000000000E+00 0.  1.
        -11    1    3    3    0    0 -0.30665793414E+02 -0.19217990482E+02 -0.44697023331E+02  0.57511267926E+02  0.00000000000E+00 0. -1.
          4    1    6    6  502    0 -0.19842640655E+03 -0.19751766826E+03 -0.23153685274E+03  0.36331196274E+03  0.00000000000E+00 0. -1.
          1    1    5    5  503    0  0.13763073318E+03  0.14648748976E+03 -0.30558287408E+03  0.36576180269E+03  0.00000000000E+00 0. -1.
         -2    1    5    5    0  503  0.12460250196E+03  0.25881341608E+03 -0.36247550721E+03  0.46249179578E+03  0.00000000000E+00 0.  1.
         -3    1    6    6    0  502 -0.41817918840E+02 -0.11227151360E+03 -0.11483493540E+03  0.16595388965E+03  0.00000000000E+00 0.  1.
<mgrwt>
<rscale>  0 0.10722477E+04</rscale>
<asrwt>0</asrwt>
<pdfrwt beam="1">  1        1 0.19496087E+00 0.10722477E+04</pdfrwt>
<pdfrwt beam="2">  1       -1 0.34894426E-01 0.10722477E+04</pdfrwt>
<totfact> 0.74312829E+01</totfact>
</mgrwt>
</event>
<event>
12    1  0.1506149E-007  0.1706304E+04  0.7818608E-02  0.8757777E-01
         -2   -1    0    0    0  501 -0.00000000000E+00  0.00000000000E+00  0.26845883216E+03  0.26845883216E+03  0.00000000000E+00 0.  1.
          2   -1    0    0  501    0  0.00000000000E+00 -0.00000000000E+00 -0.27112832898E+04  0.27112832898E+04  0.00000000000E+00 0. -1.
         23    2    1    2    0    0 -0.26993353839E+03  0.24000650781E+03 -0.17454006147E+04  0.17858750888E+04  0.11162118094E+03 0.  0.
        254    2    1    2    0    0  0.26993353839E+03 -0.24000650781E+03 -0.69742384295E+03  0.11938670332E+04  0.89913916457E+03 0.  0.
        -24    2    4    4    0    0 -0.81033354271E+02 -0.28729095389E+03 -0.76414962382E+03  0.82419386200E+03  0.79173088150E+02 0.  0.
         24    2    4    4    0    0  0.35096689266E+03  0.47284446073E+02  0.66725780874E+02  0.36967317118E+03  0.82415684623E+02 0.  0.
         13    1    3    3    0    0 -0.32747059488E+02  0.90047262768E+02 -0.52006222118E+03  0.52881527336E+03  0.00000000000E+00 0.  1.
        -13    1    3    3    0    0 -0.23718647890E+03  0.14995924505E+03 -0.12253383935E+04  0.12570598154E+04  0.00000000000E+00 0. -1.
          2    1    6    6  502    0  0.24608074012E+03  0.54377002969E+02  0.78328899738E+02  0.26390908594E+03  0.00000000000E+00 0. -1.
          3    1    5    5  503    0 -0.21042398405E+00 -0.11941455427E+03 -0.24337877995E+03  0.27109612793E+03  0.00000000000E+00 0. -1.
         -4    1    5    5    0  503 -0.80822930287E+02 -0.16787639962E+03 -0.52077084387E+03  0.55309773407E+03  0.00000000000E+00 0.  1.
         -1    1    6    6    0  502  0.10488615254E+03 -0.70925568958E+01 -0.11603118864E+02  0.10576408524E+03  0.00000000000E+00 0.  1.
<mgrwt>
<rscale>  0 0.17063035E+04</rscale>
<asrwt>0</asrwt>
<pdfrwt beam="1">  1        2 0.41712051E+00 0.17063035E+04</pdfrwt>
<pdfrwt beam="2">  1       -2 0.41301358E-01 0.17063035E+04</pdfrwt>
<totfact> 0.13847869E+01</totfact>
</mgrwt>
</event>
<event>
12    1  0.1506149E-007  0.1167760E+04  0.7818608E-02  0.9141554E-01
          1   -1    0    0  501    0  0.00000000000E+00  0.00000000000E+00  0.32329657465E+04  0.32329657465E+04  0.00000000000E+00 0. -1.
         -1   -1    0    0    0  501 -0.00000000000E+00 -0.00000000000E+00 -0.10544983430E+03  0.10544983430E+03  0.00000000000E+00 0.  1.
         23    2    1    2    0    0  0.17396834906E+03  0.10584385468E+02  0.25452782201E+03  0.32248983228E+03  0.94012042076E+02 0.  0.
        254    2    1    2    0    0 -0.17396834906E+03 -0.10584385468E+02  0.28729880902E+04  0.30159257485E+04  0.90076108849E+03 0.  0.
        -24    2    4    4    0    0 -0.83776511026E+02 -0.13401536062E+03  0.28337229279E+04  0.28392237868E+04  0.78914248785E+02 0.  0.
         24    2    4    4    0    0 -0.90191838034E+02  0.12343097515E+03  0.39265162312E+02  0.17670196176E+03  0.79448455259E+02 0.  0.
         11    1    3    3    0    0  0.57284286081E+02 -0.32991246657E+02  0.13273157559E+03  0.14828210596E+03  0.00000000000E+00 0. -1.
        -11    1    3    3    0    0  0.11668406298E+03  0.43575632125E+02  0.12179624641E+03  0.17420772632E+03  0.00000000000E+00 0.  1.
          4    1    6    6  502    0 -0.55146892296E+02  0.10610319094E+03  0.58511498021E+02  0.13312648969E+03  0.00000000000E+00 0. -1.
          3    1    5    5  503    0 -0.93466822809E+02 -0.13529646909E+03  0.27537876294E+04  0.27586930764E+04  0.00000000000E+00 0. -1.
         -4    1    5    5    0  503  0.96903117830E+01  0.12811084659E+01  0.79935298435E+02  0.80530710398E+02  0.00000000000E+00 0.  1.
         -3    1    6    6    0  502 -0.35044945738E+02  0.17327784214E+02 -0.19246335710E+02  0.43575472066E+02  0.00000000000E+00 0.  1.
<mgrwt>
<rscale>  0 0.11677597E+04</rscale>
<asrwt>0</asrwt>
<pdfrwt beam="1">  1        1 0.49737927E+00 0.11677597E+04</pdfrwt>
<pdfrwt beam="2">  1       -1 0.16223054E-01 0.11677597E+04</pdfrwt>
<totfact> 0.11743660E+01</totfact>
</mgrwt>
</event>
<event>
12    1  0.1506149E-007  0.1584057E+04  0.7818608E-02  0.8830403E-01
          2   -1    0    0  501    0  0.00000000000E+00  0.00000000000E+00  0.15723385947E+04  0.15723385947E+04  0.00000000000E+00 0. -1.
         -2   -1    0    0    0  501 -0.00000000000E+00 -0.00000000000E+00 -0.39896564831E+03  0.39896564831E+03  0.00000000000E+00 0.  1.
         23    2    1    2    0    0  0.10025352234E+03 -0.48111873502E+03  0.16035665299E+03  0.52470909728E+03  0.89885341831E+02 0.  0.
        254    2    1    2    0    0 -0.10025352234E+03  0.48111873502E+03  0.10130162934E+04  0.14465951457E+04  0.90824528571E+03 0.  0.
        -24    2    4    4    0    0 -0.44994428369E+03  0.47762154045E+03  0.54329538902E+03  0.85563885710E+03  0.79848479796E+02 0.  0.
         24    2    4    4    0    0  0.34969076136E+03  0.34971945759E+01  0.46972090437E+03  0.59095628862E+03  0.79345750386E+02 0.  0.
         13    1    3    3    0    0  0.46796216511E+02 -0.25848154513E+03  0.13203299535E+03  0.29399882128E+03  0.00000000000E+00 0.  1.
        -13    1    3    3    0    0  0.53457305828E+02 -0.22263718989E+03  0.28323657646E+02  0.23071027600E+03  0.00000000000E+00 0. -1.
          4    1    6    6  502    0  0.42658855756E+02 -0.46197161495E+01  0.22570719948E+02  0.48482544804E+02  0.00000000000E+00 0. -1.
          3    1    5    5  503    0 -0.18292534683E+03  0.18915710535E+03  0.26911070689E+03  0.37638101119E+03  0.00000000000E+00 0. -1.
         -4    1    5    5    0  503 -0.26701893687E+03  0.28846443509E+03  0.27418468213E+03  0.47925784592E+03  0.00000000000E+00 0.  1.
         -3    1    6    6    0  502  0.30703190560E+03  0.81169107254E+01  0.44715018442E+03  0.54247374381E+03  0.00000000000E+00 0.  1.
<mgrwt>
<rscale>  0 0.15840569E+04</rscale>
<asrwt>0</asrwt>
<pdfrwt beam="1">  1        2 0.24189824E+00 0.15840569E+04</pdfrwt>
<pdfrwt beam="2">  1       -2 0.61379331E-01 0.15840569E+04</pdfrwt>
<totfact> 0.27381616E+01</totfact>
</mgrwt>
</event>
<event>
12    1  0.1506149E-007  0.1949812E+04  0.7818608E-02  0.8630451E-01
          2   -1    0    0  501    0  0.00000000000E+00  0.00000000000E+00  0.15637973098E+04  0.15637973098E+04  0.00000000000E+00 0.  1.
         -2   -1    0    0    0  501 -0.00000000000E+00 -0.00000000000E+00 -0.60777798921E+03  0.60777798921E+03  0.00000000000E+00 0. -1.
         23    2    1    2    0    0  0.23422843365E+03  0.37293798516E+03  0.10769774695E+04  0.11680620433E+04  0.10267797832E+03 0.  0.
        254    2    1    2    0    0 -0.23422843365E+03 -0.37293798516E+03 -0.12095814897E+03  0.10035132557E+04  0.89356716626E+03 0.  0.
        -24    2    4    4    0    0 -0.97295467670E+02  0.14764441116E+03  0.27055575835E+03  0.33313201569E+03  0.80692263115E+02 0.  0.
         24    2    4    4    0    0 -0.13693296598E+03 -0.52058239632E+03 -0.39151390732E+03  0.67038123998E+03  0.79819789299E+02 0.  0.
         13    1    3    3    0    0  0.15489571150E+03  0.30228545217E+03  0.72930314224E+03  0.80451988746E+03  0.00000000000E+00 0. -1.
        -13    1    3    3    0    0  0.79332722148E+02  0.70652532988E+02  0.34767432729E+03  0.36354215585E+03  0.00000000000E+00 0.  1.
          4    1    6    6  502    0 -0.65161878381E+02 -0.38291688073E+03 -0.29258457775E+03  0.48628915583E+03  0.00000000000E+00 0. -1.
          1    1    5    5  503    0 -0.61246314195E+02  0.11814670923E+03  0.13401354772E+03  0.18886340799E+03  0.00000000000E+00 0. -1.
         -2    1    5    5    0  503 -0.36049153475E+02  0.29497701933E+02  0.13654221063E+03  0.14426860771E+03  0.00000000000E+00 0.  1.
         -3    1    6    6    0  502 -0.71771087596E+02 -0.13766551559E+03 -0.98929329577E+02  0.18409208415E+03  0.00000000000E+00 0.  1.
<mgrwt>
<rscale>  0 0.19498119E+04</rscale>
<asrwt>0</asrwt>
<pdfrwt beam="1">  1        2 0.24058420E+00 0.19498119E+04</pdfrwt>
<pdfrwt beam="2">  1       -2 0.93504307E-01 0.19498119E+04</pdfrwt>
<totfact> 0.10543550E+01</totfact>
</mgrwt>
</event>
<event>
12    1  0.1506149E-007  0.1410982E+04  0.7818608E-02  0.8945907E-01
         -2   -1    0    0    0  501 -0.00000000000E+00  0.00000000000E+00  0.28771063316E+03  0.28771063316E+03  0.00000000000E+00 0.  1.
          2   -1    0    0  501    0  0.00000000000E+00 -0.00000000000E+00 -0.17299241590E+04  0.17299241590E+04  0.00000000000E+00 0. -1.
         23    2    1    2    0    0 -0.11005671276E+03 -0.11644302172E+03  0.11162505266E+03  0.21621242049E+03  0.92823494128E+02 0.  0.
        254    2    1    2    0    0  0.11005671276E+03  0.11644302172E+03 -0.15538385785E+04  0.18014223717E+04  0.89723841633E+03 0.  0.
        -24    2    4    4    0    0 -0.74314003041E+02 -0.29736659535E+03 -0.20775595612E+03  0.37885946689E+03  0.80140472124E+02 0.  0.
         24    2    4    4    0    0  0.18437071580E+03  0.41380961707E+03 -0.13460826224E+04  0.14225629048E+04  0.80720701858E+02 0.  0.
         13    1    3    3    0    0  0.98707245990E+01  0.56667794667E+01  0.17525313059E+02  0.20896894302E+02  0.00000000000E+00 0. -1.
        -13    1    3    3    0    0 -0.11992743736E+03 -0.12210980118E+03  0.94099739604E+02  0.19531552619E+03  0.00000000000E+00 0.  1.
          4    1    6    6  502    0  0.63922783322E+02  0.24160096791E+03 -0.71686158212E+03  0.75917565677E+03  0.00000000000E+00 0. -1.
          1    1    5    5  503    0 -0.30074467188E+02 -0.24536425770E+03 -0.14793075285E+03  0.28808262733E+03  0.00000000000E+00 0. -1.
         -2    1    5    5    0  503 -0.44239535853E+02 -0.52002337648E+02 -0.59825203270E+02  0.90776839555E+02  0.00000000000E+00 0.  1.
         -3    1    6    6    0  502  0.12044793248E+03  0.17220864916E+03 -0.62922104027E+03  0.66338724799E+03  0.00000000000E+00 0.  1.
<mgrwt>
<rscale>  0 0.14109820E+04</rscale>
<asrwt>0</asrwt>
<pdfrwt beam="1">  1        2 0.26614218E+00 0.14109820E+04</pdfrwt>
<pdfrwt beam="2">  1       -2 0.44263174E-01 0.14109820E+04</pdfrwt>
<totfact> 0.44425333E+01</totfact>
</mgrwt>
</event>
<event>
12    1  0.1506149E-007  0.2274796E+04  0.7818608E-02  0.8487926E-01
         -2   -1    0    0    0  501 -0.00000000000E+00  0.00000000000E+00  0.50049260124E+03  0.50049260124E+03  0.00000000000E+00 0. -1.
          2   -1    0    0  501    0  0.00000000000E+00 -0.00000000000E+00 -0.25848015601E+04  0.25848015601E+04  0.00000000000E+00 0.  1.
         23    2    1    2    0    0 -0.37325918127E+03  0.53400613292E+03 -0.18193562296E+04  0.19345883389E+04  0.89944339783E+02 0.  0.
        254    2    1    2    0    0  0.37325918127E+03 -0.53400613292E+03 -0.26495272924E+03  0.11507058225E+04  0.91073540324E+03 0.  0.
        -24    2    4    4    0    0 -0.49793772747E+01 -0.27009718798E+03 -0.53822900555E+03  0.60877112506E+03  0.89076007677E+02 0.  0.
         24    2    4    4    0    0  0.37823855855E+03 -0.26390894494E+03  0.27327627630E+03  0.54193469740E+03  0.79378552916E+02 0.  0.
         11    1    3    3    0    0 -0.33662334860E+03  0.50266403220E+03 -0.17347251865E+04  0.18371874920E+04  0.00000000000E+00 0.  1.
        -11    1    3    3    0    0 -0.36635832674E+02  0.31342100727E+02 -0.84631043187E+02  0.97400846940E+02  0.00000000000E+00 0. -1.
          2    1    6    6  502    0  0.35956974809E+02 -0.29284901967E+00  0.20880667286E+02  0.41581150349E+02  0.00000000000E+00 0. -1.
          3    1    5    5  503    0 -0.98284707943E+01 -0.23104360975E+03 -0.37259051985E+03  0.43852188535E+03  0.00000000000E+00 0. -1.
         -2    1    5    5    0  503  0.48490935197E+01 -0.39053578234E+02 -0.16563848569E+03  0.17024923972E+03  0.00000000000E+00 0.  1.
         -1    1    6    6    0  502  0.34228158374E+03 -0.26361609592E+03  0.25239560902E+03  0.50035354705E+03  0.00000000000E+00 0.  1.
<mgrwt>
<rscale>  0 0.22747959E+04</rscale>
<asrwt>0</asrwt>
<pdfrwt beam="1">  1        2 0.39766179E+00 0.22747959E+04</pdfrwt>
<pdfrwt beam="2">  1       -2 0.76998860E-01 0.22747959E+04</pdfrwt>
<totfact> 0.42504755E+00</totfact>
</mgrwt>
</event>
<event>
12    1  0.1506149E-007  0.1491054E+04  0.7818608E-02  0.8890424E-01
          2   -1    0    0  501    0  0.00000000000E+00  0.00000000000E+00  0.93627527549E+03  0.93627527549E+03  0.00000000000E+00 0. -1.
         -2   -1    0    0    0  501 -0.00000000000E+00 -0.00000000000E+00 -0.59364033201E+03  0.59364033201E+03  0.00000000000E+00 0.  1.
         23    2    1    2    0    0  0.23356453899E+02 -0.21699993019E+03 -0.32287141686E+03  0.40210702111E+03  0.99043480132E+02 0.  0.
        254    2    1    2    0    0 -0.23356453899E+02  0.21699993019E+03  0.66550636035E+03  0.11278085864E+04  0.88397907115E+03 0.  0.
        -24    2    4    4    0    0 -0.20040201906E+02  0.46808655558E+03  0.75263877767E+02  0.48154678310E+03  0.81951325860E+02 0.  0.
         24    2    4    4    0    0 -0.33162519928E+01 -0.25108662539E+03  0.59024248258E+03  0.64626180329E+03  0.78820296680E+02 0.  0.
         13    1    3    3    0    0  0.41428861104E+02 -0.55194840765E+02 -0.14729215644E+03  0.16265853906E+03  0.00000000000E+00 0. -1.
        -13    1    3    3    0    0 -0.18072407206E+02 -0.16180508942E+03 -0.17557926042E+03  0.23944848205E+03  0.00000000000E+00 0.  1.
          4    1    6    6  502    0 -0.24368291913E+02 -0.31879496384E+02  0.60803094183E+02  0.72850066593E+02  0.00000000000E+00 0. -1.
          3    1    5    5  503    0  0.80875328193E+01  0.19903389295E+02  0.19534465091E+02  0.29037018080E+02  0.00000000000E+00 0. -1.
         -4    1    5    5    0  503 -0.28127734725E+02  0.44818316628E+03  0.55729412676E+02  0.45250976502E+03  0.00000000000E+00 0.  1.
         -3    1    6    6    0  502  0.21052039920E+02 -0.21920712901E+03  0.52943938840E+03  0.57341173670E+03  0.00000000000E+00 0.  1.
<mgrwt>
<rscale>  0 0.14910543E+04</rscale>
<asrwt>0</asrwt>
<pdfrwt beam="1">  1        2 0.14404235E+00 0.14910543E+04</pdfrwt>
<pdfrwt beam="2">  1       -2 0.91329282E-01 0.14910543E+04</pdfrwt>
<totfact> 0.27389435E+01</totfact>
</mgrwt>
</event>
<event>
12    1  0.1506149E-007  0.1343037E+04  0.7818608E-02  0.8996116E-01
         -1   -1    0    0    0  501 -0.00000000000E+00  0.00000000000E+00  0.31903741167E+03  0.31903741167E+03  0.00000000000E+00 0.  1.
          1   -1    0    0  501    0  0.00000000000E+00 -0.00000000000E+00 -0.14134293596E+04  0.14134293596E+04  0.00000000000E+00 0. -1.
         23    2    1    2    0    0  0.26214448791E+03  0.23785848914E+03 -0.23793507722E+03  0.43594122730E+03  0.90195672254E+02 0.  0.
        254    2    1    2    0    0 -0.26214448791E+03 -0.23785848914E+03 -0.85645687072E+03  0.12965255440E+04  0.90673244199E+03 0.  0.
        -24    2    4    4    0    0  0.12699094382E+03 -0.21947318853E+03 -0.85834389676E+03  0.89870346380E+03  0.81354105228E+02 0.  0.
         24    2    4    4    0    0 -0.38913543173E+03 -0.18385300606E+02  0.18870260451E+01  0.39782208017E+03  0.80588107631E+02 0.  0.
         11    1    3    3    0    0  0.21830310918E+03  0.15242615723E+03 -0.14925907252E+03  0.30523474838E+03  0.00000000000E+00 0. -1.
        -11    1    3    3    0    0  0.43841378729E+02  0.85432331908E+02 -0.88676004698E+02  0.13070647893E+03  0.00000000000E+00 0.  1.
          2    1    6    6  502    0 -0.28026121837E+03 -0.43345508677E+02 -0.18832356096E+02  0.28421794680E+03  0.00000000000E+00 0. -1.
          3    1    5    5  503    0  0.74260196775E+02 -0.19316052528E+03 -0.64632397854E+03  0.67864589484E+03  0.00000000000E+00 0. -1.
         -2    1    5    5    0  503  0.52730747049E+02 -0.26312663252E+02 -0.21201991823E+03  0.22005756896E+03  0.00000000000E+00 0.  1.
         -1    1    6    6    0  502 -0.10887421336E+03  0.24960208071E+02  0.20719382141E+02  0.11360413337E+03  0.00000000000E+00 0.  1.
<mgrwt>
<rscale>  0 0.13430366E+04</rscale>
<asrwt>0</asrwt>
<pdfrwt beam="1">  1        1 0.21745067E+00 0.13430366E+04</pdfrwt>
<pdfrwt beam="2">  1       -1 0.49082678E-01 0.13430366E+04</pdfrwt>
<totfact> 0.30607720E+01</totfact>
</mgrwt>
</event>
<event>
12    1  0.1506149E-007  0.1242945E+04  0.7818608E-02  0.9076076E-01
         -1   -1    0    0    0  501 -0.00000000000E+00  0.00000000000E+00  0.38895939247E+03  0.38895939247E+03  0.00000000000E+00 0.  1.
          1   -1    0    0  501    0  0.00000000000E+00 -0.00000000000E+00 -0.99297743152E+03  0.99297743152E+03  0.00000000000E+00 0. -1.
         23    2    1    2    0    0 -0.20646084170E+03 -0.18456358716E+03 -0.12134373033E+03  0.31478855820E+03  0.87622706092E+02 0.  0.
        254    2    1    2    0    0  0.20646084170E+03  0.18456358716E+03 -0.48267430872E+03  0.10671482658E+04  0.91057187307E+03 0.  0.
        -24    2    4    4    0    0 -0.32003661464E+03  0.25129049243E+03 -0.20778708050E+03  0.46381126529E+03  0.79844052310E+02 0.  0.
         24    2    4    4    0    0  0.52649745633E+03 -0.66726905270E+02 -0.27488722822E+03  0.60333700051E+03  0.82465123119E+02 0.  0.
         11    1    3    3    0    0 -0.35957336688E+02 -0.63327719617E+02 -0.66236148246E+02  0.98440629153E+02  0.00000000000E+00 0.  1.
        -11    1    3    3    0    0 -0.17050350501E+03 -0.12123586754E+03 -0.55107582082E+02  0.21634792904E+03  0.00000000000E+00 0. -1.
          2    1    6    6  502    0  0.11867071639E+02 -0.11399025685E+02 -0.21421679083E+02  0.27012099337E+02  0.00000000000E+00 0. -1.
          3    1    5    5  503    0 -0.13439759579E+03  0.12347481931E+03 -0.51813510675E+02  0.18971922582E+03  0.00000000000E+00 0. -1.
         -4    1    5    5    0  503 -0.18563901885E+03  0.12781567312E+03 -0.15597356983E+03  0.27409203946E+03  0.00000000000E+00 0.  1.
         -3    1    6    6    0  502  0.51463038469E+03 -0.55327879585E+02 -0.25346554914E+03  0.57632490117E+03  0.00000000000E+00 0.  1.
<mgrwt>
<rscale>  0 0.12429447E+04</rscale>
<asrwt>0</asrwt>
<pdfrwt beam="1">  1        1 0.15276576E+00 0.12429447E+04</pdfrwt>
<pdfrwt beam="2">  1       -1 0.59839906E-01 0.12429447E+04</pdfrwt>
<totfact> 0.42811412E+01</totfact>
</mgrwt>
</event>
<event>
12    1  0.1506149E-007  0.2010476E+04  0.7818608E-02  0.8601738E-01
          2   -1    0    0  501    0  0.00000000000E+00  0.00000000000E+00  0.12095287620E+04  0.12095287620E+04  0.00000000000E+00 0.  1.
         -2   -1    0    0    0  501 -0.00000000000E+00 -0.00000000000E+00 -0.83545223949E+03  0.83545223949E+03  0.00000000000E+00 0. -1.
         23    2    1    2    0    0 -0.31041763221E+03 -0.14864544116E+03  0.87776204105E+03  0.94733004223E+03  0.92268275393E+02 0.  0.
        254    2    1    2    0    0  0.31041763221E+03  0.14864544116E+03 -0.50368551856E+03  0.10976509592E+04  0.91251517968E+03 0.  0.
        -24    2    4    4    0    0  0.66274007287E+02 -0.20593343744E+03  0.17599249168E+03  0.28919547530E+03  0.76549599050E+02 0.  0.
         24    2    4    4    0    0  0.24414362492E+03  0.35457887860E+03 -0.67967801023E+03  0.80845548393E+03  0.79408948922E+02 0.  0.
         13    1    3    3    0    0 -0.22666310207E+03 -0.14857720721E+03  0.63095622205E+03  0.68670015472E+03  0.00000000000E+00 0.  1.
        -13    1    3    3    0    0 -0.83754530134E+02 -0.68233947522E-01  0.24680581900E+03  0.26062988752E+03  0.00000000000E+00 0. -1.
          2    1    6    6  502    0  0.81830250045E+02  0.81362843256E+02 -0.23604880817E+03  0.26274539373E+03  0.00000000000E+00 0. -1.
          3    1    5    5  503    0 -0.16612362719E+02 -0.20662577515E+02  0.20366119397E+02  0.33431893814E+02  0.00000000000E+00 0. -1.
         -4    1    5    5    0  503  0.82886370006E+02 -0.18527085992E+03  0.15562637228E+03  0.25576358149E+03  0.00000000000E+00 0.  1.
         -1    1    6    6    0  502  0.16231337488E+03  0.27321603534E+03 -0.44362920206E+03  0.54571009021E+03  0.00000000000E+00 0.  1.
<mgrwt>
<rscale>  0 0.20104761E+04</rscale>
<asrwt>0</asrwt>
<pdfrwt beam="1">  1        2 0.18608135E+00 0.20104761E+04</pdfrwt>
<pdfrwt beam="2">  1       -2 0.12853111E+00 0.20104761E+04</pdfrwt>
<totfact> 0.77575770E+00</totfact>
</mgrwt>
</event>
<event>
12    1  0.1506149E-007  0.1256641E+04  0.7818608E-02  0.9064674E-01
         -1   -1    0    0    0  501 -0.00000000000E+00  0.00000000000E+00  0.40102424291E+03  0.40102424291E+03  0.00000000000E+00 0.  1.
          1   -1    0    0  501    0  0.00000000000E+00 -0.00000000000E+00 -0.98444533532E+03  0.98444533532E+03  0.00000000000E+00 0. -1.
         23    2    1    2    0    0 -0.19680273381E+03 -0.12892031126E+02  0.94092433141E+02  0.23697134564E+03  0.91676126542E+02 0.  0.
        254    2    1    2    0    0  0.19680273381E+03  0.12892031126E+02 -0.67751352556E+03  0.11484982326E+04  0.90616008103E+03 0.  0.
        -24    2    4    4    0    0  0.26310301992E+03 -0.27958680416E+03  0.12058058202E+02  0.39220663875E+03  0.79301138467E+02 0.  0.
         24    2    4    4    0    0 -0.66300286109E+02  0.29247883529E+03 -0.68957158376E+03  0.75629159383E+03  0.80798568975E+02 0.  0.
         13    1    3    3    0    0 -0.51787663656E+01  0.13992947815E+02 -0.92984593785E+01  0.17580772351E+02  0.00000000000E+00 0. -1.
        -13    1    3    3    0    0 -0.19162396744E+03 -0.26884978941E+02  0.10339089252E+03  0.21939057329E+03  0.00000000000E+00 0.  1.
          4    1    6    6  502    0  0.17830648970E+02  0.77218727872E+02 -0.16375188885E+03  0.18192126066E+03  0.00000000000E+00 0. -1.
          1    1    5    5  503    0  0.81343945214E+02 -0.62048804866E+02 -0.27609549512E+02  0.10596781980E+03  0.00000000000E+00 0. -1.
         -2    1    5    5    0  503  0.18175907470E+03 -0.21753799930E+03  0.39667607714E+02  0.28623881896E+03  0.00000000000E+00 0.  1.
         -3    1    6    6    0  502 -0.84130935079E+02  0.21526010742E+03 -0.52581969490E+03  0.57437033317E+03  0.00000000000E+00 0.  1.
<mgrwt>
<rscale>  0 0.12566407E+04</rscale>
<asrwt>0</asrwt>
<pdfrwt beam="1">  1        1 0.15145313E+00 0.12566407E+04</pdfrwt>
<pdfrwt beam="2">  1       -1 0.61696038E-01 0.12566407E+04</pdfrwt>
<totfact> 0.40876880E+01</totfact>
</mgrwt>
</event>
<event>
12    1  0.1506149E-007  0.2217397E+04  0.7818608E-02  0.8511222E-01
         -1   -1    0    0    0  501 -0.00000000000E+00  0.00000000000E+00  0.90233502247E+03  0.90233502247E+03  0.00000000000E+00 0.  1.
          1   -1    0    0  501    0  0.00000000000E+00 -0.00000000000E+00 -0.13622568595E+04  0.13622568595E+04  0.00000000000E+00 0. -1.
         23    2    1    2    0    0  0.87010065866E+03 -0.54042383366E+02 -0.50080438357E+03  0.10094999849E+04  0.91046436526E+02 0.  0.
        254    2    1    2    0    0 -0.87010065866E+03  0.54042383366E+02  0.40882546554E+02  0.12550918970E+04  0.90199143673E+03 0.  0.
        -24    2    4    4    0    0 -0.49377892753E+03  0.32644377815E+03  0.34929138214E+03  0.69192078494E+03  0.79791813117E+02 0.  0.
         24    2    4    4    0    0 -0.37632173113E+03 -0.27240139478E+03 -0.30840883558E+03  0.56317111207E+03  0.78899470256E+02 0.  0.
         11    1    3    3    0    0  0.35617273493E+03 -0.18037992191E+02 -0.15399795733E+03  0.38845817938E+03  0.00000000000E+00 0.  1.
        -11    1    3    3    0    0  0.51392792374E+03 -0.36004391175E+02 -0.34680642624E+03  0.62104180557E+03  0.00000000000E+00 0. -1.
          2    1    6    6  502    0 -0.46479451368E+02 -0.70516310887E+02 -0.58087649570E+02  0.10250397326E+03  0.00000000000E+00 0. -1.
          1    1    5    5  503    0 -0.42089398515E+02  0.32062190988E+02  0.71981609365E+01  0.53397706685E+02  0.00000000000E+00 0. -1.
         -2    1    5    5    0  503 -0.45168952902E+03  0.29438158716E+03  0.34209322120E+03  0.63852307826E+03  0.00000000000E+00 0.  1.
         -1    1    6    6    0  502 -0.32984227976E+03 -0.20188508389E+03 -0.25032118601E+03  0.46066713882E+03  0.00000000000E+00 0.  1.
<mgrwt>
<rscale>  0 0.22173967E+04</rscale>
<asrwt>0</asrwt>
<pdfrwt beam="1">  1        1 0.20957798E+00 0.22173967E+04</pdfrwt>
<pdfrwt beam="2">  1       -1 0.13882077E+00 0.22173967E+04</pdfrwt>
<totfact> 0.31868293E+00</totfact>
</mgrwt>
</event>
<event>
12    1  0.1506149E-007  0.1139873E+04  0.7818608E-02  0.9167177E-01
          1   -1    0    0  501    0  0.00000000000E+00  0.00000000000E+00  0.21622235799E+04  0.21622235799E+04  0.00000000000E+00 0. -1.
         -1   -1    0    0    0  501 -0.00000000000E+00 -0.00000000000E+00 -0.15022855592E+03  0.15022855592E+03  0.00000000000E+00 0.  1.
         23    2    1    2    0    0  0.19839897754E+03  0.68611331903E+02  0.48946140389E+03  0.54050029162E+03  0.92186930662E+02 0.  0.
        254    2    1    2    0    0 -0.19839897754E+03 -0.68611331903E+02  0.15225336201E+04  0.17719518442E+04  0.88183617796E+03 0.  0.
        -24    2    4    4    0    0  0.76519462926E+02  0.12906961600E+03  0.13891209366E+04  0.13992670911E+04  0.76008036752E+02 0.  0.
         24    2    4    4    0    0 -0.27491844047E+03 -0.19768094790E+03  0.13341268352E+03  0.37268475318E+03  0.80231384487E+02 0.  0.
         11    1    3    3    0    0  0.62251290105E+01  0.21383442959E+02  0.16226884485E+02  0.27555682609E+02  0.00000000000E+00 0. -1.
        -11    1    3    3    0    0  0.19217384853E+03  0.47227888944E+02  0.47323451941E+03  0.51294460901E+03  0.00000000000E+00 0.  1.
          4    1    6    6  502    0 -0.24565165607E+03 -0.15427145446E+03  0.87326559230E+02  0.30293620738E+03  0.00000000000E+00 0. -1.
          1    1    5    5  503    0  0.48708708777E+02  0.32390122827E+02  0.74994978448E+03  0.75222758365E+03  0.00000000000E+00 0. -1.
         -2    1    5    5    0  503  0.27810754149E+02  0.96679493173E+02  0.63917115211E+03  0.64703950740E+03  0.00000000000E+00 0.  1.
         -3    1    6    6    0  502 -0.29266784395E+02 -0.43409493440E+02  0.46086124293E+02  0.69748545805E+02  0.00000000000E+00 0.  1.
<mgrwt>
<rscale>  0 0.11398732E+04</rscale>
<asrwt>0</asrwt>
<pdfrwt beam="1">  1        1 0.33264976E+00 0.11398732E+04</pdfrwt>
<pdfrwt beam="2">  1       -1 0.23112087E-01 0.11398732E+04</pdfrwt>
<totfact> 0.36950066E+01</totfact>
</mgrwt>
</event>
<event>
12    1  0.1506149E-007  0.1432573E+04  0.7818608E-02  0.8930573E-01
          1   -1    0    0  501    0  0.00000000000E+00  0.00000000000E+00  0.60826235718E+03  0.60826235718E+03  0.00000000000E+00 0. -1.
         -1   -1    0    0    0  501 -0.00000000000E+00 -0.00000000000E+00 -0.84349462863E+03  0.84349462863E+03  0.00000000000E+00 0.  1.
         23    2    1    2    0    0 -0.33026033883E+03 -0.14987744933E+03  0.15679396355E+03  0.40582357691E+03  0.92592047997E+02 0.  0.
        254    2    1    2    0    0  0.33026033883E+03  0.14987744933E+03 -0.39202623500E+03  0.10459334089E+04  0.89930917136E+03 0.  0.
        -24    2    4    4    0    0 -0.14594311714E+03 -0.37421604120E+02  0.19823473128E+03  0.26052280267E+03  0.76650845568E+02 0.  0.
         24    2    4    4    0    0  0.47620345597E+03  0.18729905345E+03 -0.59026096629E+03  0.78541060623E+03  0.81308948833E+02 0.  0.
         13    1    3    3    0    0 -0.18711843982E+03 -0.11679189317E+03  0.13134465865E+03  0.25671983988E+03  0.00000000000E+00 0. -1.
        -13    1    3    3    0    0 -0.14314189900E+03 -0.33085556154E+02  0.25449304901E+02  0.14910373703E+03  0.00000000000E+00 0.  1.
          4    1    6    6  502    0  0.49718971544E+02  0.20542866144E+02 -0.10632431953E+03  0.11915891240E+03  0.00000000000E+00 0. -1.
          1    1    5    5  503    0 -0.26571628865E+02  0.13234578390E+02  0.88119094108E+01  0.30965388310E+02  0.00000000000E+00 0. -1.
         -2    1    5    5    0  503 -0.11937148828E+03 -0.50656182511E+02  0.18942282187E+03  0.22955741436E+03  0.00000000000E+00 0.  1.
         -3    1    6    6    0  502  0.42648448443E+03  0.16675618730E+03 -0.48393664676E+03  0.66625169383E+03  0.00000000000E+00 0.  1.
<mgrwt>
<rscale>  0 0.14325726E+04</rscale>
<asrwt>0</asrwt>
<pdfrwt beam="1">  1        1 0.93578824E-01 0.14325726E+04</pdfrwt>
<pdfrwt beam="2">  1       -1 0.12976840E+00 0.14325726E+04</pdfrwt>
<totfact> 0.16639832E+01</totfact>
</mgrwt>
</event>
<event>
12    1  0.1506149E-007  0.1945860E+04  0.7818608E-02  0.8632360E-01
          1   -1    0    0  501    0  0.00000000000E+00  0.00000000000E+00  0.11741409448E+04  0.11741409448E+04  0.00000000000E+00 0. -1.
         -1   -1    0    0    0  501 -0.00000000000E+00 -0.00000000000E+00 -0.80620050992E+03  0.80620050992E+03  0.00000000000E+00 0.  1.
         23    2    1    2    0    0 -0.16714962710E+03  0.38461589434E+03  0.80854664591E+03  0.91531503594E+03  0.90474042647E+02 0.  0.
        254    2    1    2    0    0  0.16714962710E+03 -0.38461589434E+03 -0.44060621100E+03  0.10650264188E+04  0.87423055057E+03 0.  0.
        -24    2    4    4    0    0 -0.24244391228E+03  0.69673523460E+02  0.58659942004E+02  0.27137816874E+03  0.81065844832E+02 0.  0.
         24    2    4    4    0    0  0.40959353938E+03 -0.45428941780E+03 -0.49926615301E+03  0.79364825006E+03  0.80405911883E+02 0.  0.
         11    1    3    3    0    0 -0.14709143556E+03  0.29039829444E+03  0.54626078651E+03  0.63589928975E+03  0.00000000000E+00 0.  1.
        -11    1    3    3    0    0 -0.20058191543E+02  0.94217599899E+02  0.26228585939E+03  0.27941574619E+03  0.00000000000E+00 0. -1.
          4    1    6    6  502    0  0.87779361572E+02 -0.11552116778E+03 -0.79024782986E+02  0.16521281079E+03  0.00000000000E+00 0. -1.
          3    1    5    5  503    0 -0.19723959382E+02  0.34093868661E+02  0.10187387343E+02  0.40684263725E+02  0.00000000000E+00 0. -1.
         -4    1    5    5    0  503 -0.22271995290E+03  0.35579654799E+02  0.48472554660E+02  0.23069390501E+03  0.00000000000E+00 0.  1.
         -3    1    6    6    0  502  0.32181417781E+03 -0.33876825002E+03 -0.42024137002E+03  0.62843543928E+03  0.00000000000E+00 0.  1.
<mgrwt>
<rscale>  0 0.19458603E+04</rscale>
<asrwt>0</asrwt>
<pdfrwt beam="1">  1        1 0.18063707E+00 0.19458603E+04</pdfrwt>
<pdfrwt beam="2">  1       -1 0.12403085E+00 0.19458603E+04</pdfrwt>
<totfact> 0.59369174E+00</totfact>
</mgrwt>
</event>
<event>
12    1  0.1506149E-007  0.1488729E+04  0.7818608E-02  0.8891983E-01
          2   -1    0    0  501    0  0.00000000000E+00  0.00000000000E+00  0.27505457369E+04  0.27505457369E+04  0.00000000000E+00 0. -1.
         -2   -1    0    0    0  501 -0.00000000000E+00 -0.00000000000E+00 -0.20144318536E+03  0.20144318536E+03  0.00000000000E+00 0.  1.
         23    2    1    2    0    0 -0.11032910771E+03  0.39125814145E+03  0.12430147831E+04  0.13108884912E+04  0.89930196219E+02 0.  0.
        254    2    1    2    0    0  0.11032910771E+03 -0.39125814145E+03  0.13060877685E+04  0.16411004311E+04  0.90669174508E+03 0.  0.
        -24    2    4    4    0    0  0.36157506912E+03 -0.37543616892E+03  0.12683792753E+04  0.13736685045E+04  0.80562564147E+02 0.  0.
         24    2    4    4    0    0 -0.25124596141E+03 -0.15821972537E+02  0.37708493198E+02  0.26743192656E+03  0.81994127514E+02 0.  0.
         13    1    3    3    0    0  0.15663031393E+02  0.45142249441E+02  0.12942048955E+03  0.13795947358E+03  0.00000000000E+00 0.  1.
        -13    1    3    3    0    0 -0.12599213910E+03  0.34611589201E+03  0.11135942935E+04  0.11729290176E+04  0.00000000000E+00 0. -1.
          4    1    6    6  502    0 -0.98600508430E+02 -0.43024873635E+02  0.32157176889E+02  0.11228216261E+03  0.00000000000E+00 0. -1.
          1    1    5    5  503    0  0.27286934699E+03 -0.22904575172E+03  0.85691171844E+03  0.92801795786E+03  0.00000000000E+00 0. -1.
         -2    1    5    5    0  503  0.88705722128E+02 -0.14639041720E+03  0.41146755684E+03  0.44565054664E+03  0.00000000000E+00 0.  1.
         -3    1    6    6    0  502 -0.15264545298E+03  0.27202901098E+02  0.55513163095E+01  0.15514976396E+03  0.00000000000E+00 0.  1.
<mgrwt>
<rscale>  0 0.14887292E+04</rscale>
<asrwt>0</asrwt>
<pdfrwt beam="1">  1        2 0.42316086E+00 0.14887292E+04</pdfrwt>
<pdfrwt beam="2">  1       -2 0.30991261E-01 0.14887292E+04</pdfrwt>
<totfact> 0.23224169E+01</totfact>
</mgrwt>
</event>
<event>
12    1  0.1506149E-007  0.1447022E+04  0.7818608E-02  0.8920468E-01
          2   -1    0    0  501    0  0.00000000000E+00  0.00000000000E+00  0.23206207553E+04  0.23206207553E+04  0.00000000000E+00 0.  1.
         -2   -1    0    0    0  501 -0.00000000000E+00 -0.00000000000E+00 -0.22557254975E+03  0.22557254975E+03  0.00000000000E+00 0. -1.
         23    2    1    2    0    0 -0.33920339280E+03  0.32591033506E+03  0.49302712702E+03  0.68771288178E+03  0.92718776998E+02 0.  0.
        254    2    1    2    0    0  0.33920339280E+03 -0.32591033506E+03  0.16020210786E+04  0.18584804233E+04  0.81621165111E+03 0.  0.
        -24    2    4    4    0    0  0.50573426529E+03 -0.24283042488E+02  0.12827584747E+04  0.13812480526E+04  0.77589078106E+02 0.  0.
         24    2    4    4    0    0 -0.16653087249E+03 -0.30162729257E+03  0.31926260384E+03  0.47723237071E+03  0.84324197764E+02 0.  0.
         11    1    3    3    0    0 -0.45308930343E+02  0.95166655830E+02  0.97124507240E+02  0.14332746233E+03  0.00000000000E+00 0.  1.
        -11    1    3    3    0    0 -0.29389446246E+03  0.23074367923E+03  0.39590261978E+03  0.54438541946E+03  0.00000000000E+00 0. -1.
          2    1    6    6  502    0 -0.14736697708E+03 -0.26728854083E+03  0.23831804744E+03  0.38724111575E+03  0.00000000000E+00 0. -1.
          1    1    5    5  503    0  0.29143760753E+03 -0.94565299255E+01  0.63372243613E+03  0.69758829627E+03  0.00000000000E+00 0. -1.
         -2    1    5    5    0  503  0.21429665776E+03 -0.14826512563E+02  0.64903603861E+03  0.68365975632E+03  0.00000000000E+00 0.  1.
         -1    1    6    6    0  502 -0.19163895412E+02 -0.34338751739E+02  0.80944556403E+02  0.89991254962E+02  0.00000000000E+00 0.  1.
<mgrwt>
<rscale>  0 0.14470222E+04</rscale>
<asrwt>0</asrwt>
<pdfrwt beam="1">  1        2 0.35701856E+00 0.14470222E+04</pdfrwt>
<pdfrwt beam="2">  1       -2 0.34703471E-01 0.14470222E+04</pdfrwt>
<totfact> 0.33396815E+01</totfact>
</mgrwt>
</event>
<event>
12    1  0.1506149E-007  0.1357302E+04  0.7818608E-02  0.8985319E-01
         -2   -1    0    0    0  501 -0.00000000000E+00  0.00000000000E+00  0.20889126657E+03  0.20889126657E+03  0.00000000000E+00 0.  1.
          2   -1    0    0  501    0  0.00000000000E+00 -0.00000000000E+00 -0.22048179609E+04  0.22048179609E+04  0.00000000000E+00 0. -1.
         23    2    1    2    0    0  0.21395623310E+01 -0.36964460079E+03 -0.60251336412E+03  0.71279565009E+03  0.91725548358E+02 0.  0.
        254    2    1    2    0    0 -0.21395623310E+01  0.36964460079E+03 -0.13934133302E+04  0.17009135774E+04  0.90269849912E+03 0.  0.
        -24    2    4    4    0    0 -0.14278971023E+03 -0.26958277171E+03 -0.48036493442E+03  0.57476957959E+03  0.80906286806E+02 0.  0.
         24    2    4    4    0    0  0.14065014790E+03  0.63922737250E+03 -0.91304839580E+03  0.11261439978E+04  0.78414494041E+02 0.  0.
         11    1    3    3    0    0 -0.25797609194E+02 -0.22781780210E+03 -0.30055534107E+03  0.37802113782E+03  0.00000000000E+00 0. -1.
        -11    1    3    3    0    0  0.27937171525E+02 -0.14182679869E+03 -0.30195802305E+03  0.33477451227E+03  0.00000000000E+00 0.  1.
          4    1    6    6  502    0  0.14615038862E+03  0.59527380062E+03 -0.87106780052E+03  0.10651149923E+04  0.00000000000E+00 0. -1.
          1    1    5    5  503    0 -0.13560811816E+03 -0.27063842317E+03 -0.48002585683E+03  0.56750289958E+03  0.00000000000E+00 0. -1.
         -2    1    5    5    0  503 -0.71815920677E+01  0.10556514627E+01 -0.33907758983E+00  0.72666800019E+01  0.00000000000E+00 0.  1.
         -3    1    6    6    0  502 -0.55002407184E+01  0.43953571883E+02 -0.41980595273E+02  0.61029005470E+02  0.00000000000E+00 0.  1.
<mgrwt>
<rscale>  0 0.13573021E+04</rscale>
<asrwt>0</asrwt>
<pdfrwt beam="1">  1        2 0.33920275E+00 0.13573021E+04</pdfrwt>
<pdfrwt beam="2">  1       -2 0.32137120E-01 0.13573021E+04</pdfrwt>
<totfact> 0.45225493E+01</totfact>
</mgrwt>
</event>
<event>
12    1  0.1506149E-007  0.1444806E+04  0.7818608E-02  0.8922009E-01
         -2   -1    0    0    0  501 -0.00000000000E+00  0.00000000000E+00  0.17502985420E+03  0.17502985420E+03  0.00000000000E+00 0.  1.
          2   -1    0    0  501    0  0.00000000000E+00 -0.00000000000E+00 -0.29815838217E+04  0.29815838217E+04  0.00000000000E+00 0. -1.
         23    2    1    2    0    0  0.41763054099E+03  0.11635349452E+03 -0.81383611772E+03  0.92657967199E+03  0.90924460844E+02 0.  0.
        254    2    1    2    0    0 -0.41763054099E+03 -0.11635349452E+03 -0.19927178498E+04  0.22300340039E+04  0.90231581241E+03 0.  0.
        -24    2    4    4    0    0 -0.62750894126E+03 -0.23425138209E+03 -0.10048765070E+04  0.12102509495E+04  0.79305642577E+02 0.  0.
         24    2    4    4    0    0  0.20987840027E+03  0.11789788757E+03 -0.98784134274E+03  0.10197830544E+04  0.78600921639E+02 0.  0.
         13    1    3    3    0    0  0.71525761741E+02 -0.36630259679E+01 -0.87315932123E+02  0.11293106018E+03  0.00000000000E+00 0. -1.
        -13    1    3    3    0    0  0.34610477925E+03  0.12001652049E+03 -0.72652018559E+03  0.81364861180E+03  0.00000000000E+00 0.  1.
          2    1    6    6  502    0  0.64422993031E+02  0.61542179657E+02 -0.24389588659E+03  0.25965932567E+03  0.00000000000E+00 0. -1.
          3    1    5    5  503    0 -0.11348705510E+03 -0.50749618168E+02 -0.24422083203E+03  0.27404132940E+03  0.00000000000E+00 0. -1.
         -4    1    5    5    0  503 -0.51402188616E+03 -0.18350176392E+03 -0.76065567499E+03  0.93620962007E+03  0.00000000000E+00 0.  1.
         -1    1    6    6    0  502  0.14545540724E+03  0.56355707917E+02 -0.74394545615E+03  0.76012372877E+03  0.00000000000E+00 0.  1.
<mgrwt>
<rscale>  0 0.14448061E+04</rscale>
<asrwt>0</asrwt>
<pdfrwt beam="1">  1        2 0.45870518E+00 0.14448061E+04</pdfrwt>
<pdfrwt beam="2">  1       -2 0.26927671E-01 0.14448061E+04</pdfrwt>
<totfact> 0.21905138E+01</totfact>
</mgrwt>
</event>
<event>
12    1  0.1506149E-007  0.3123082E+04  0.7818608E-02  0.8209432E-01
          1   -1    0    0  501    0  0.00000000000E+00  0.00000000000E+00  0.97099978732E+03  0.97099978732E+03  0.00000000000E+00 0. -1.
         -1   -1    0    0    0  501 -0.00000000000E+00 -0.00000000000E+00 -0.25112360122E+04  0.25112360122E+04  0.00000000000E+00 0.  1.
         23    2    1    2    0    0 -0.26322935066E+03 -0.54577052167E+02  0.85971645482E+03  0.90538059434E+03  0.91286867859E+02 0.  0.
        254    2    1    2    0    0  0.26322935066E+03  0.54577052167E+02 -0.23999526797E+04  0.25768552052E+04  0.89896692821E+03 0.  0.
        -24    2    4    4    0    0 -0.40847990308E+02 -0.55814512302E+01 -0.21950036250E+04  0.21969697822E+04  0.83280244279E+02 0.  0.
         24    2    4    4    0    0  0.30407734097E+03  0.60158503397E+02 -0.20494905466E+03  0.37988542298E+03  0.78909725413E+02 0.  0.
         13    1    3    3    0    0 -0.11257587123E+03 -0.23150173581E+02  0.51817435292E+03  0.53076729114E+03  0.00000000000E+00 0. -1.
        -13    1    3    3    0    0 -0.15065347943E+03 -0.31426878586E+02  0.34154210190E+03  0.37461330320E+03  0.00000000000E+00 0.  1.
          4    1    6    6  502    0  0.15565625148E+02 -0.12096472261E+02 -0.19910648539E+01  0.19813572789E+02  0.00000000000E+00 0. -1.
          3    1    5    5  503    0  0.23970404768E+02  0.10324433112E+02 -0.57555074512E+03  0.57614219983E+03  0.00000000000E+00 0. -1.
         -4    1    5    5    0  503 -0.64818395075E+02 -0.15905884342E+02 -0.16194528799E+04  0.16208275823E+04  0.00000000000E+00 0.  1.
         -3    1    6    6    0  502  0.28851171582E+03  0.72254975659E+02 -0.20295798981E+03  0.36007185019E+03  0.00000000000E+00 0.  1.
<mgrwt>
<rscale>  0 0.31230816E+04</rscale>
<asrwt>0</asrwt>
<pdfrwt beam="1">  1        1 0.14938459E+00 0.31230816E+04</pdfrwt>
<pdfrwt beam="2">  1       -1 0.38634399E+00 0.31230816E+04</pdfrwt>
<totfact> 0.11895352E-01</totfact>
</mgrwt>
</event>
<event>
12    1  0.1506149E-007  0.1858593E+04  0.7818608E-02  0.8675746E-01
         -2   -1    0    0    0  501 -0.00000000000E+00  0.00000000000E+00  0.40761289225E+03  0.40761289225E+03  0.00000000000E+00 0.  1.
          2   -1    0    0  501    0  0.00000000000E+00 -0.00000000000E+00 -0.21186576382E+04  0.21186576382E+04  0.00000000000E+00 0. -1.
         23    2    1    2    0    0  0.60990523824E+03  0.19636765887E+03 -0.10116323413E+04  0.12009315687E+04  0.91060318330E+02 0.  0.
        254    2    1    2    0    0 -0.60990523824E+03 -0.19636765887E+03 -0.69941240458E+03  0.13253389617E+04  0.92563545452E+03 0.  0.
        -24    2    4    4    0    0 -0.30896935807E+03  0.35991566332E+03 -0.23018666139E+03  0.53376005997E+03  0.83141768127E+02 0.  0.
         24    2    4    4    0    0 -0.30093588017E+03 -0.55628332219E+03 -0.46922574318E+03  0.79157890173E+03  0.80067603165E+02 0.  0.
         11    1    3    3    0    0  0.50131572864E+03  0.17438434258E+03 -0.77123697609E+03  0.93623385541E+03  0.00000000000E+00 0. -1.
        -11    1    3    3    0    0  0.10858950960E+03  0.21983316287E+02 -0.24039536524E+03  0.26469771329E+03  0.00000000000E+00 0.  1.
          4    1    6    6  502    0 -0.26566388936E+03 -0.48138343182E+03 -0.43850359470E+03  0.70327285822E+03  0.00000000000E+00 0. -1.
          1    1    5    5  503    0 -0.25085058710E+03  0.31579693812E+03 -0.22191302889E+03  0.46032501080E+03  0.00000000000E+00 0. -1.
         -2    1    5    5    0  503 -0.58118770968E+02  0.44118725200E+02 -0.82736325030E+01  0.73435049172E+02  0.00000000000E+00 0.  1.
         -3    1    6    6    0  502 -0.35271990810E+02 -0.74899890377E+02 -0.30722148485E+02  0.88306043517E+02  0.00000000000E+00 0.  1.
<mgrwt>
<rscale>  0 0.18585932E+04</rscale>
<asrwt>0</asrwt>
<pdfrwt beam="1">  1        2 0.32594733E+00 0.18585932E+04</pdfrwt>
<pdfrwt beam="2">  1       -2 0.62709675E-01 0.18585932E+04</pdfrwt>
<totfact> 0.12709422E+01</totfact>
</mgrwt>
</event>
<event>
12    1  0.1506149E-007  0.1601396E+04  0.7818608E-02  0.8819691E-01
         -2   -1    0    0    0  501 -0.00000000000E+00  0.00000000000E+00  0.22692365559E+03  0.22692365559E+03  0.00000000000E+00 0.  1.
          2   -1    0    0  501    0  0.00000000000E+00 -0.00000000000E+00 -0.28252550840E+04  0.28252550840E+04  0.00000000000E+00 0. -1.
         23    2    1    2    0    0 -0.14414976197E+03  0.52239956374E+03 -0.69834922554E+03  0.88916877280E+03  0.96171761089E+02 0.  0.
        254    2    1    2    0    0  0.14414976197E+03 -0.52239956374E+03 -0.18999822029E+04  0.21630099668E+04  0.88034043823E+03 0.  0.
        -24    2    4    4    0    0  0.21368961543E+03  0.19073804830E+03 -0.73864175849E+03  0.79612178240E+03  0.78574742929E+02 0.  0.
         24    2    4    4    0    0 -0.69539853456E+02 -0.71313761204E+03 -0.11613404444E+04  0.13668881844E+04  0.79187347256E+02 0.  0.
         11    1    3    3    0    0  0.86265176406E+01  0.35662854407E+01 -0.15173119020E+02  0.17814565368E+02  0.00000000000E+00 0. -1.
        -11    1    3    3    0    0 -0.15277627962E+03  0.51883327830E+03 -0.68317610652E+03  0.87135420743E+03  0.00000000000E+00 0.  1.
          4    1    6    6  502    0 -0.82755630247E+02 -0.65982211609E+03 -0.10526148917E+04  0.12450750296E+04  0.00000000000E+00 0. -1.
          1    1    5    5  503    0  0.18611302304E+03  0.13972698780E+03 -0.64793863397E+03  0.68846652922E+03  0.00000000000E+00 0. -1.
         -2    1    5    5    0  503  0.27576592389E+02  0.51011060499E+02 -0.90703124515E+02  0.10765525318E+03  0.00000000000E+00 0.  1.
         -3    1    6    6    0  502  0.13215776791E+02 -0.53315495955E+02 -0.10872555271E+03  0.12181315478E+03  0.00000000000E+00 0.  1.
<mgrwt>
<rscale>  0 0.16013959E+04</rscale>
<asrwt>0</asrwt>
<pdfrwt beam="1">  1        2 0.43465466E+00 0.16013959E+04</pdfrwt>
<pdfrwt beam="2">  1       -2 0.34911329E-01 0.16013959E+04</pdfrwt>
<totfact> 0.16549185E+01</totfact>
</mgrwt>
</event>
<event>
12    1  0.1506149E-007  0.2288399E+04  0.7818608E-02  0.8482509E-01
         -2   -1    0    0    0  501 -0.00000000000E+00  0.00000000000E+00  0.42825222372E+03  0.42825222372E+03  0.00000000000E+00 0.  1.
          2   -1    0    0  501    0  0.00000000000E+00 -0.00000000000E+00 -0.30570606492E+04  0.30570606492E+04  0.00000000000E+00 0. -1.
         23    2    1    2    0    0  0.61608765710E+03 -0.19663161191E+03 -0.22447522603E+02  0.65328331008E+03  0.89706186641E+02 0.  0.
        254    2    1    2    0    0 -0.61608765710E+03  0.19663161191E+03 -0.26063609029E+04  0.28320295629E+04  0.89947000880E+03 0.  0.
        -24    2    4    4    0    0  0.18410743482E+03 -0.41351067676E+02 -0.21082972863E+03  0.29395728918E+03  0.79726125166E+02 0.  0.
         24    2    4    4    0    0 -0.80019509192E+03  0.23798267959E+03 -0.23955311743E+04  0.25380722737E+04  0.79330439466E+02 0.  0.
         13    1    3    3    0    0  0.23999022622E+03 -0.12285034172E+03 -0.64468225007E+01  0.26968328955E+03  0.00000000000E+00 0. -1.
        -13    1    3    3    0    0  0.37609743089E+03 -0.73781270191E+02 -0.16000700102E+02  0.38360002054E+03  0.00000000000E+00 0.  1.
          2    1    6    6  502    0 -0.44568641416E+03  0.91323840113E+02 -0.13014949690E+04  0.13787188175E+04  0.00000000000E+00 0. -1.
          1    1    5    5  503    0  0.14870093176E+03  0.21476749664E+01 -0.15041635944E+03  0.21152224658E+03  0.00000000000E+00 0. -1.
         -2    1    5    5    0  503  0.35406503059E+02 -0.43498742642E+02 -0.60413369194E+02  0.82435042595E+02  0.00000000000E+00 0.  1.
         -1    1    6    6    0  502 -0.35450867777E+03  0.14665883947E+03 -0.10940362053E+04  0.11593534562E+04  0.00000000000E+00 0.  1.
<mgrwt>
<rscale>  0 0.22883995E+04</rscale>
<asrwt>0</asrwt>
<pdfrwt beam="1">  1        2 0.47031702E+00 0.22883995E+04</pdfrwt>
<pdfrwt beam="2">  1       -2 0.65884958E-01 0.22883995E+04</pdfrwt>
<totfact> 0.30870471E+00</totfact>
</mgrwt>
</event>
<event>
12    1  0.1506149E-007  0.2069616E+04  0.7818608E-02  0.8574747E-01
         -2   -1    0    0    0  501 -0.00000000000E+00  0.00000000000E+00  0.57572117591E+03  0.57572117591E+03  0.00000000000E+00 0.  1.
          2   -1    0    0  501    0  0.00000000000E+00 -0.00000000000E+00 -0.18599757543E+04  0.18599757543E+04  0.00000000000E+00 0. -1.
         23    2    1    2    0    0  0.30091960888E+03 -0.36817602298E+03  0.28423427926E+03  0.56149873356E+03  0.91572416028E+02 0.  0.
        254    2    1    2    0    0 -0.30091960888E+03  0.36817602298E+03 -0.15684888577E+04  0.18741981967E+04  0.90904091704E+03 0.  0.
        -24    2    4    4    0    0 -0.40462972066E+03  0.43935451604E+03 -0.16099149897E+04  0.17189863254E+04  0.79561995902E+02 0.  0.
         24    2    4    4    0    0  0.10371011178E+03 -0.71178493060E+02  0.41426132015E+02  0.15521187130E+03  0.80947114954E+02 0.  0.
         13    1    3    3    0    0  0.26815218832E+03 -0.29178803529E+03  0.26329100624E+03  0.47578147043E+03  0.00000000000E+00 0. -1.
        -13    1    3    3    0    0  0.32767420560E+02 -0.76387987689E+02  0.20943273021E+02  0.85717263128E+02  0.00000000000E+00 0.  1.
          2    1    6    6  502    0  0.92261829283E+02 -0.88981130593E+02  0.32461143088E+02  0.13222561232E+03  0.00000000000E+00 0. -1.
          3    1    5    5  503    0 -0.35999166600E+03  0.38840857359E+03 -0.13438195275E+04  0.14444051171E+04  0.00000000000E+00 0. -1.
         -4    1    5    5    0  503 -0.44638054656E+02  0.50945942450E+02 -0.26609546214E+03  0.27458120830E+03  0.00000000000E+00 0.  1.
         -1    1    6    6    0  502  0.11448282496E+02  0.17802637533E+02  0.89649889263E+01  0.22986258975E+02  0.00000000000E+00 0.  1.
<mgrwt>
<rscale>  0 0.20696158E+04</rscale>
<asrwt>0</asrwt>
<pdfrwt beam="1">  1        2 0.28615012E+00 0.20696158E+04</pdfrwt>
<pdfrwt beam="2">  1       -2 0.88572488E-01 0.20696158E+04</pdfrwt>
<totfact> 0.80952545E+00</totfact>
</mgrwt>
</event>
<event>
12    1  0.1562773E-007  0.1692376E+04  0.7818608E-02  0.8765725E-01
          2   -1    0    0  501    0  0.00000000000E+00  0.00000000000E+00  0.84034083848E+03  0.84034083848E+03  0.00000000000E+00 0. -1.
         -2   -1    0    0    0  501 -0.00000000000E+00 -0.00000000000E+00 -0.85207592240E+03  0.85207592240E+03  0.00000000000E+00 0.  1.
         23    2    1    2    0    0  0.35720871278E+03 -0.17643475079E+02  0.47184075439E+03  0.59918834367E+03  0.92106552378E+02 0.  0.
        254    2    1    2    0    0 -0.35720871278E+03  0.17643475079E+02 -0.48357583832E+03  0.10932284172E+04  0.91290384164E+03 0.  0.
        -24    2    4    4    0    0 -0.22417881479E+03 -0.33647645093E+03  0.69746890139E+02  0.41768065157E+03  0.78230141112E+02 0.  0.
         24    2    4    4    0    0 -0.13302989798E+03  0.35411992601E+03 -0.55332272846E+03  0.67554776564E+03  0.84266636821E+02 0.  0.
         11    1    3    3    0    0  0.23170077388E+03  0.56226678030E+01  0.36675633902E+03  0.43385144372E+03  0.00000000000E+00 0. -1.
        -11    1    3    3    0    0  0.12550793889E+03 -0.23266142882E+02  0.10508441537E+03  0.16533689995E+03  0.00000000000E+00 0.  1.
          2    1    6    6  502    0 -0.40021362431E+02  0.29666069715E+02 -0.78941995108E+02  0.93346792847E+02  0.00000000000E+00 0. -1.
          1    1    5    5  503    0  0.31541642483E+01 -0.31221825616E+01 -0.56712326175E+01  0.72013648328E+01  0.00000000000E+00 0. -1.
         -2    1    5    5    0  503 -0.22733297904E+03 -0.33335426837E+03  0.75418122756E+02  0.41047928673E+03  0.00000000000E+00 0.  1.
         -3    1    6    6    0  502 -0.93008535553E+02  0.32445385629E+03 -0.47438073335E+03  0.58220097279E+03  0.00000000000E+00 0.  1.
<mgrwt>
<rscale>  0 0.16923761E+04</rscale>
<asrwt>0</asrwt>
<pdfrwt beam="1">  1        2 0.12928321E+00 0.16923761E+04</pdfrwt>
<pdfrwt beam="2">  1       -2 0.13108860E+00 0.16923761E+04</pdfrwt>
<totfact> 0.13049300E+01</totfact>
</mgrwt>
</event>
<event>
12    1  0.1506149E-007  0.3229744E+04  0.7818608E-02  0.8181006E-01
         -2   -1    0    0    0  501 -0.00000000000E+00  0.00000000000E+00  0.15442824539E+04  0.15442824539E+04  0.00000000000E+00 0. -1.
          2   -1    0    0  501    0  0.00000000000E+00 -0.00000000000E+00 -0.16886882887E+04  0.16886882887E+04  0.00000000000E+00 0.  1.
         23    2    1    2    0    0 -0.48680353994E+03  0.63868146479E+03 -0.13158510675E+04  0.15442907455E+04  0.92077004993E+02 0.  0.
        254    2    1    2    0    0  0.48680353994E+03 -0.63868146479E+03  0.11714452327E+04  0.16886799970E+04  0.91349028420E+03 0.  0.
        -24    2    4    4    0    0  0.71711431471E+03 -0.47930203012E+03  0.10779910685E+04  0.13828684349E+04  0.79227444270E+02 0.  0.
         24    2    4    4    0    0 -0.23031077477E+03 -0.15937943467E+03  0.93454164160E+02  0.30581156218E+03  0.79637764875E+02 0.  0.
         13    1    3    3    0    0 -0.11221482385E+03  0.97639876711E+02 -0.28072743570E+03  0.31770049633E+03  0.00000000000E+00 0. -1.
        -13    1    3    3    0    0 -0.37458871609E+03  0.54104158808E+03 -0.10351236318E+04  0.12265902491E+04  0.00000000000E+00 0.  1.
          4    1    6    6  502    0 -0.12347492407E+03 -0.10175200486E+03  0.91696085461E+02  0.18441176604E+03  0.00000000000E+00 0. -1.
          3    1    5    5  503    0  0.51884696214E+02 -0.55137187657E+02  0.11911388962E+03  0.14113911529E+03  0.00000000000E+00 0. -1.
         -4    1    5    5    0  503  0.66522961849E+03 -0.42416484246E+03  0.95887717889E+03  0.12417293196E+04  0.00000000000E+00 0.  1.
         -3    1    6    6    0  502 -0.10683585070E+03 -0.57627429812E+02  0.17580786991E+01  0.12139979614E+03  0.00000000000E+00 0.  1.
<mgrwt>
<rscale>  0 0.32297441E+04</rscale>
<asrwt>0</asrwt>
<pdfrwt beam="1">  1        2 0.25979820E+00 0.32297441E+04</pdfrwt>
<pdfrwt beam="2">  1       -2 0.23758192E+00 0.32297441E+04</pdfrwt>
<totfact> 0.64093137E-01</totfact>
</mgrwt>
</event>
<event>
12    1  0.1701208E-007  0.2157037E+04  0.7818608E-02  0.8536526E-01
         -1   -1    0    0    0  501 -0.00000000000E+00  0.00000000000E+00  0.68324865097E+03  0.68324865097E+03  0.00000000000E+00 0.  1.
          1   -1    0    0  501    0  0.00000000000E+00 -0.00000000000E+00 -0.17024573422E+04  0.17024573422E+04  0.00000000000E+00 0. -1.
         23    2    1    2    0    0  0.57298319287E+03  0.63928333993E+03 -0.62715925625E+03  0.10673800731E+04  0.94755262711E+02 0.  0.
        254    2    1    2    0    0 -0.57298319287E+03 -0.63928333993E+03 -0.39204943497E+03  0.13183259200E+04  0.92048223444E+03 0.  0.
        -24    2    4    4    0    0 -0.77573359002E+03 -0.44060292571E+03 -0.47245036729E+03  0.10127976577E+04  0.81585569144E+02 0.  0.
         24    2    4    4    0    0  0.20275039715E+03 -0.19868041422E+03  0.80400932317E+02  0.30552826231E+03  0.79382483060E+02 0.  0.
         11    1    3    3    0    0  0.21757352459E+03  0.27487203700E+03 -0.30741040074E+03  0.46625532685E+03  0.00000000000E+00 0.  1.
        -11    1    3    3    0    0  0.35540966828E+03  0.36441130293E+03 -0.31974885551E+03  0.60112474629E+03  0.00000000000E+00 0. -1.
          4    1    6    6  502    0  0.18833039437E+03 -0.18768259839E+03  0.94899157131E+02  0.28231001613E+03  0.00000000000E+00 0. -1.
          3    1    5    5  503    0 -0.55423592175E+03 -0.31863509043E+03 -0.37914013618E+03  0.74327183498E+03  0.00000000000E+00 0. -1.
         -4    1    5    5    0  503 -0.22149766826E+03 -0.12196783527E+03 -0.93310231107E+02  0.26952582273E+03  0.00000000000E+00 0.  1.
         -3    1    6    6    0  502  0.14420002781E+02 -0.10997815828E+02 -0.14498224815E+02  0.23218246186E+02  0.00000000000E+00 0.  1.
<mgrwt>
<rscale>  0 0.21570366E+04</rscale>
<asrwt>0</asrwt>
<pdfrwt beam="1">  1        1 0.26191651E+00 0.21570366E+04</pdfrwt>
<pdfrwt beam="2">  1       -1 0.10511518E+00 0.21570366E+04</pdfrwt>
<totfact> 0.36891062E+00</totfact>
</mgrwt>
</event>
<event>
12    1  0.1506149E-007  0.1404185E+04  0.7818608E-02  0.8950795E-01
          2   -1    0    0  501    0  0.00000000000E+00  0.00000000000E+00  0.15417301651E+04  0.15417301651E+04  0.00000000000E+00 0. -1.
         -2   -1    0    0    0  501 -0.00000000000E+00 -0.00000000000E+00 -0.31972775408E+03  0.31972775408E+03  0.00000000000E+00 0.  1.
         23    2    1    2    0    0  0.15262133416E+03 -0.14243346475E+03 -0.13752287505E+03  0.26586736610E+03  0.90511610713E+02 0.  0.
        254    2    1    2    0    0 -0.15262133416E+03  0.14243346475E+03  0.13595252861E+04  0.15955905531E+04  0.80871481136E+03 0.  0.
        -24    2    4    4    0    0  0.91239291411E+02  0.42137301530E+03  0.56261319648E+03  0.71318074547E+03  0.78824745697E+02 0.  0.
         24    2    4    4    0    0 -0.24386062557E+03 -0.27893955055E+03  0.79691208958E+03  0.88240980761E+03  0.79390884161E+02 0.  0.
         13    1    3    3    0    0  0.30813817318E+02 -0.12508204237E+02 -0.66082003825E+02  0.73978224772E+02  0.00000000000E+00 0. -1.
        -13    1    3    3    0    0  0.12180751684E+03 -0.12992526051E+03 -0.71440871221E+02  0.19188914132E+03  0.00000000000E+00 0.  1.
          2    1    6    6  502    0 -0.28507018266E+02 -0.27002967228E+02  0.15606978261E+03  0.16093348742E+03  0.00000000000E+00 0. -1.
          1    1    5    5  503    0  0.44051134912E+01  0.37951022341E+02  0.20012355195E+02  0.43129798076E+02  0.00000000000E+00 0. -1.
         -2    1    5    5    0  503  0.86834177920E+02  0.38342199295E+03  0.54260084129E+03  0.67005094739E+03  0.00000000000E+00 0.  1.
         -1    1    6    6    0  502 -0.21535360730E+03 -0.25193658332E+03  0.64084230697E+03  0.72147632019E+03  0.00000000000E+00 0.  1.
<mgrwt>
<rscale>  0 0.14041851E+04</rscale>
<asrwt>0</asrwt>
<pdfrwt beam="1">  1        2 0.23718925E+00 0.14041851E+04</pdfrwt>
<pdfrwt beam="2">  1       -2 0.49188886E-01 0.14041851E+04</pdfrwt>
<totfact> 0.45766629E+01</totfact>
</mgrwt>
</event>
<event>
12    1  0.1506149E-007  0.1851668E+04  0.7818608E-02  0.8679295E-01
          1   -1    0    0  501    0  0.00000000000E+00  0.00000000000E+00  0.11125499398E+04  0.11125499398E+04  0.00000000000E+00 0. -1.
         -1   -1    0    0    0  501 -0.00000000000E+00 -0.00000000000E+00 -0.77045419520E+03  0.77045419520E+03  0.00000000000E+00 0.  1.
         23    2    1    2    0    0 -0.30566602512E+03  0.60817832685E+03 -0.52808365364E+02  0.68886667368E+03  0.91847561152E+02 0.  0.
        254    2    1    2    0    0  0.30566602512E+03 -0.60817832685E+03  0.39490411001E+03  0.11941374614E+04  0.89816614520E+03 0.  0.
        -24    2    4    4    0    0 -0.42012113142E+02 -0.73342810762E+03  0.18167881987E+03  0.76049633812E+03  0.75270711477E+02 0.  0.
         24    2    4    4    0    0  0.34767813827E+03  0.12524978077E+03  0.21322529014E+03  0.43364112325E+03  0.77537113740E+02 0.  0.
         13    1    3    3    0    0 -0.16635076636E+03  0.36009422796E+03  0.12828390533E+02  0.39686899360E+03  0.00000000000E+00 0. -1.
        -13    1    3    3    0    0 -0.13931525877E+03  0.24808409890E+03 -0.65636755897E+02  0.29199768008E+03  0.00000000000E+00 0.  1.
          4    1    6    6  502    0  0.66407437774E+02  0.48092213186E+02  0.22041207270E+02  0.84903613461E+02  0.00000000000E+00 0. -1.
          3    1    5    5  503    0  0.16320389259E+02 -0.30855066798E+03  0.91618001329E+02  0.32227895989E+03  0.00000000000E+00 0. -1.
         -4    1    5    5    0  503 -0.58332502401E+02 -0.42487743964E+03  0.90060818541E+02  0.43821737823E+03  0.00000000000E+00 0.  1.
         -3    1    6    6    0  502  0.28127070049E+03  0.77157567583E+02  0.19118408287E+03  0.34873750979E+03  0.00000000000E+00 0.  1.
<mgrwt>
<rscale>  0 0.18516682E+04</rscale>
<asrwt>0</asrwt>
<pdfrwt beam="1">  1        1 0.17116153E+00 0.18516682E+04</pdfrwt>
<pdfrwt beam="2">  1       -1 0.11853141E+00 0.18516682E+04</pdfrwt>
<totfact> 0.74372277E+00</totfact>
</mgrwt>
</event>
<event>
12    1  0.1506149E-007  0.1492822E+04  0.7818608E-02  0.8889240E-01
          2   -1    0    0  501    0  0.00000000000E+00  0.00000000000E+00  0.96486026372E+03  0.96486026372E+03  0.00000000000E+00 0. -1.
         -2   -1    0    0    0  501 -0.00000000000E+00 -0.00000000000E+00 -0.57742006758E+03  0.57742006758E+03  0.00000000000E+00 0.  1.
         23    2    1    2    0    0  0.13488698003E+03 -0.57170734274E+02  0.58096420949E+03  0.60618789868E+03  0.92094329644E+02 0.  0.
        254    2    1    2    0    0 -0.13488698003E+03  0.57170734274E+02 -0.19352401336E+03  0.93609243262E+03  0.90407660539E+03 0.  0.
        -24    2    4    4    0    0  0.23712251976E+03  0.26110101340E+03  0.14382069481E+03  0.38827122693E+03  0.75294919009E+02 0.  0.
         24    2    4    4    0    0 -0.37200949980E+03 -0.20393027912E+03 -0.33734470817E+03  0.54782120569E+03  0.79548693194E+02 0.  0.
         11    1    3    3    0    0  0.11770475230E+03 -0.47280560252E+02  0.56914060381E+03  0.58310452493E+03  0.00000000000E+00 0. -1.
        -11    1    3    3    0    0  0.17182227736E+02 -0.98901740211E+01  0.11823605682E+02  0.23083373746E+02  0.00000000000E+00 0.  1.
          2    1    6    6  502    0 -0.27896498400E+03 -0.14184163199E+03 -0.20310136240E+03  0.37308266413E+03  0.00000000000E+00 0. -1.
          3    1    5    5  503    0  0.13291378857E+03  0.14282230282E+03  0.38986300090E+02  0.19895782712E+03  0.00000000000E+00 0. -1.
         -4    1    5    5    0  503  0.10420873119E+03  0.11827871057E+03  0.10483439472E+03  0.18931339981E+03  0.00000000000E+00 0.  1.
         -1    1    6    6    0  502 -0.93044515793E+02 -0.62088647134E+02 -0.13424334577E+03  0.17473854156E+03  0.00000000000E+00 0.  1.
<mgrwt>
<rscale>  0 0.14928224E+04</rscale>
<asrwt>0</asrwt>
<pdfrwt beam="1">  1        2 0.14844004E+00 0.14928224E+04</pdfrwt>
<pdfrwt beam="2">  1       -2 0.88833857E-01 0.14928224E+04</pdfrwt>
<totfact> 0.27955881E+01</totfact>
</mgrwt>
</event>
<event>
12    1  0.1506149E-007  0.1654450E+04  0.7818608E-02  0.8787778E-01
         -2   -1    0    0    0  501 -0.00000000000E+00  0.00000000000E+00  0.32209156731E+03  0.32209156731E+03  0.00000000000E+00 0. -1.
          2   -1    0    0  501    0  0.00000000000E+00 -0.00000000000E+00 -0.21245549718E+04  0.21245549718E+04  0.00000000000E+00 0.  1.
         23    2    1    2    0    0  0.55597640913E+03 -0.81178108204E+02 -0.44933998448E+03  0.72668182298E+03  0.10227608439E+03 0.  0.
        254    2    1    2    0    0 -0.55597640913E+03  0.81178108204E+02 -0.13531234200E+04  0.17199647162E+04  0.90090842055E+03 0.  0.
        -24    2    4    4    0    0 -0.48940594076E+03 -0.34517207759E+03 -0.94036332913E+03  0.11173664462E+04  0.74583150930E+02 0.  0.
         24    2    4    4    0    0 -0.66570468374E+02  0.42635018580E+03 -0.41276009092E+03  0.60259826993E+03  0.80917699430E+02 0.  0.
         11    1    3    3    0    0  0.96730003345E+02  0.51627585888E+01 -0.37723638101E+02  0.10395393448E+03  0.00000000000E+00 0. -1.
        -11    1    3    3    0    0  0.45924640578E+03 -0.86340866793E+02 -0.41161634638E+03  0.62272788850E+03  0.00000000000E+00 0.  1.
          2    1    6    6  502    0 -0.98956601113E+00  0.21974165103E+03 -0.24004740360E+03  0.32543836347E+03  0.00000000000E+00 0. -1.
          1    1    5    5  503    0 -0.13434476510E+03 -0.89139866173E+02 -0.19559543208E+03  0.25347979151E+03  0.00000000000E+00 0. -1.
         -2    1    5    5    0  503 -0.35506117565E+03 -0.25603221142E+03 -0.74476789705E+03  0.86388665472E+03  0.00000000000E+00 0.  1.
         -1    1    6    6    0  502 -0.65580902362E+02  0.20660853476E+03 -0.17271268732E+03  0.27715990647E+03  0.00000000000E+00 0.  1.
<mgrwt>
<rscale>  0 0.16544500E+04</rscale>
<asrwt>0</asrwt>
<pdfrwt beam="1">  1        2 0.32685462E+00 0.16544500E+04</pdfrwt>
<pdfrwt beam="2">  1       -2 0.49552547E-01 0.16544500E+04</pdfrwt>
<totfact> 0.20961995E+01</totfact>
</mgrwt>
</event>
<event>
12    1  0.1506149E-007  0.3001656E+04  0.7818608E-02  0.8243258E-01
          2   -1    0    0  501    0  0.00000000000E+00  0.00000000000E+00  0.25161898653E+04  0.25161898653E+04  0.00000000000E+00 0. -1.
         -2   -1    0    0    0  501 -0.00000000000E+00 -0.00000000000E+00 -0.89519691654E+03  0.89519691654E+03  0.00000000000E+00 0.  1.
         23    2    1    2    0    0 -0.39464575241E+02 -0.92582711002E+03  0.18771432461E+04  0.20954260829E+04  0.91817274951E+02 0.  0.
        254    2    1    2    0    0  0.39464575241E+02  0.92582711002E+03 -0.25615029737E+03  0.13159606989E+04  0.89856902683E+03 0.  0.
        -24    2    4    4    0    0  0.31900191270E+03  0.60409945125E+03  0.16900074767E+03  0.70848781370E+03  0.81825192597E+02 0.  0.
         24    2    4    4    0    0 -0.27953733746E+03  0.32172765877E+03 -0.42515104504E+03  0.60747288524E+03  0.81363909399E+02 0.  0.
         13    1    3    3    0    0 -0.51446283118E+02 -0.43119440299E+03  0.80629337715E+03  0.91579710813E+03  0.00000000000E+00 0. -1.
        -13    1    3    3    0    0  0.11981707877E+02 -0.49463270704E+03  0.10708498690E+04  0.11796289747E+04  0.00000000000E+00 0.  1.
          4    1    6    6  502    0 -0.11829677810E+03  0.19683659895E+03 -0.23642667542E+03  0.32960028405E+03  0.00000000000E+00 0. -1.
          3    1    5    5  503    0  0.52314437594E+02  0.16730848347E+03  0.26838016612E+02  0.17733924596E+03  0.00000000000E+00 0. -1.
         -4    1    5    5    0  503  0.26668747511E+03  0.43679096778E+03  0.14216273106E+03  0.53114856774E+03  0.00000000000E+00 0.  1.
         -3    1    6    6    0  502 -0.16124055936E+03  0.12489105983E+03 -0.18872436962E+03  0.27787260119E+03  0.00000000000E+00 0.  1.
<mgrwt>
<rscale>  0 0.30016565E+04</rscale>
<asrwt>0</asrwt>
<pdfrwt beam="1">  1        2 0.38710613E+00 0.30016565E+04</pdfrwt>
<pdfrwt beam="2">  1       -2 0.13772260E+00 0.30016565E+04</pdfrwt>
<totfact> 0.10924856E+00</totfact>
</mgrwt>
</event>
<event>
12    1  0.1506149E-007  0.3480582E+04  0.7818608E-02  0.8118407E-01
          2   -1    0    0  501    0  0.00000000000E+00  0.00000000000E+00  0.26219322491E+04  0.26219322491E+04  0.00000000000E+00 0. -1.
         -2   -1    0    0    0  501 -0.00000000000E+00 -0.00000000000E+00 -0.11551071603E+04  0.11551071603E+04  0.00000000000E+00 0.  1.
         23    2    1    2    0    0 -0.37472441787E+03  0.15129476182E+03  0.24516188459E+04  0.24863710799E+04  0.91091640726E+02 0.  0.
        254    2    1    2    0    0  0.37472441787E+03 -0.15129476182E+03 -0.98479375708E+03  0.12906683295E+04  0.72986128722E+03 0.  0.
        -24    2    4    4    0    0 -0.99644309907E+02  0.15796371886E+03 -0.50406419940E+03  0.54357935698E+03  0.80723449165E+02 0.  0.
         24    2    4    4    0    0  0.47436872778E+03 -0.30925848068E+03 -0.48072955768E+03  0.74708897256E+03  0.79840638285E+02 0.  0.
         13    1    3    3    0    0 -0.11523672390E+03  0.92968401585E+02  0.83752722455E+03  0.85051424332E+03  0.00000000000E+00 0. -1.
        -13    1    3    3    0    0 -0.25948769397E+03  0.58326360237E+02  0.16140916214E+04  0.16358568366E+04  0.00000000000E+00 0.  1.
          2    1    6    6  502    0  0.29374974926E+03 -0.19298048881E+03 -0.24662681192E+03  0.42936600775E+03  0.00000000000E+00 0. -1.
          3    1    5    5  503    0 -0.95704145619E+02  0.14633899077E+03 -0.50140650998E+03  0.53102059467E+03  0.00000000000E+00 0. -1.
         -4    1    5    5    0  503 -0.39401642878E+01  0.11624728087E+02 -0.26576894147E+01  0.12558762309E+02  0.00000000000E+00 0.  1.
         -1    1    6    6    0  502  0.18061897852E+03 -0.11627799187E+03 -0.23410274576E+03  0.31772296480E+03  0.00000000000E+00 0.  1.
<mgrwt>
<rscale>  0 0.34805820E+04</rscale>
<asrwt>0</asrwt>
<pdfrwt beam="1">  1        2 0.40337419E+00 0.34805820E+04</pdfrwt>
<pdfrwt beam="2">  1       -2 0.17770880E+00 0.34805820E+04</pdfrwt>
<totfact> 0.45719392E-01</totfact>
</mgrwt>
</event>
<event>
12    1  0.1506149E-007  0.3389203E+04  0.7818608E-02  0.8140561E-01
         -1   -1    0    0    0  501 -0.00000000000E+00  0.00000000000E+00  0.15077961707E+04  0.15077961707E+04  0.00000000000E+00 0.  1.
          1   -1    0    0  501    0  0.00000000000E+00 -0.00000000000E+00 -0.19045510335E+04  0.19045510335E+04  0.00000000000E+00 0. -1.
         23    2    1    2    0    0  0.67385239030E+03 -0.22854248290E+03 -0.15965469886E+04  0.17503662696E+04  0.92255517602E+02 0.  0.
        254    2    1    2    0    0 -0.67385239030E+03  0.22854248290E+03  0.11997921258E+04  0.16619809346E+04  0.90353238524E+03 0.  0.
        -24    2    4    4    0    0  0.10465965220E+03 -0.17267275686E+03  0.64697089672E+02  0.22644208374E+03  0.79503333982E+02 0.  0.
         24    2    4    4    0    0 -0.77851204251E+03  0.40121523976E+03  0.11350950362E+04  0.14355388508E+04  0.72638709542E+02 0.  0.
         11    1    3    3    0    0  0.57183783197E+03 -0.22735491688E+03 -0.13800812836E+04  0.15110635704E+04  0.00000000000E+00 0. -1.
        -11    1    3    3    0    0  0.10201455834E+03 -0.11875660227E+01 -0.21646570502E+03  0.23930269926E+03  0.00000000000E+00 0.  1.
          4    1    6    6  502    0 -0.37655108364E+03  0.17132746858E+03  0.48656141790E+03  0.63865940333E+03  0.00000000000E+00 0. -1.
          1    1    5    5  503    0  0.41933232163E+02 -0.17560278729E+02  0.32936250228E+02  0.56138720397E+02  0.00000000000E+00 0. -1.
         -2    1    5    5    0  503  0.62726420041E+02 -0.15511247813E+03  0.31760839443E+02  0.17030336334E+03  0.00000000000E+00 0.  1.
         -3    1    6    6    0  502 -0.40196095887E+03  0.22988777119E+03  0.64853361828E+03  0.79687944749E+03  0.00000000000E+00 0.  1.
<mgrwt>
<rscale>  0 0.33892033E+04</rscale>
<asrwt>0</asrwt>
<pdfrwt beam="1">  1        1 0.29300785E+00 0.33892033E+04</pdfrwt>
<pdfrwt beam="2">  1       -1 0.23196864E+00 0.33892033E+04</pdfrwt>
<totfact> 0.26094475E-01</totfact>
</mgrwt>
</event>
<event>
12    1  0.1506149E-007  0.1082228E+04  0.7818608E-02  0.9222689E-01
          2   -1    0    0  501    0  0.00000000000E+00  0.00000000000E+00  0.69648771529E+03  0.69648771529E+03  0.00000000000E+00 0. -1.
         -2   -1    0    0    0  501 -0.00000000000E+00 -0.00000000000E+00 -0.42040104168E+03  0.42040104168E+03  0.00000000000E+00 0.  1.
         23    2    1    2    0    0  0.14279450986E+03  0.27451567158E+02  0.57555837166E+02  0.18067278877E+03  0.90477188421E+02 0.  0.
        254    2    1    2    0    0 -0.14279450986E+03 -0.27451567158E+02  0.21853083644E+03  0.93621596821E+03  0.89866609598E+03 0.  0.
        -24    2    4    4    0    0 -0.50347867293E+03  0.91478014805E+02  0.17078499505E+03  0.54536537679E+03  0.79980487446E+02 0.  0.
         24    2    4    4    0    0  0.36068416308E+03 -0.11892958196E+03  0.47745841386E+02  0.39085059142E+03  0.79039284421E+02 0.  0.
         13    1    3    3    0    0  0.49228206874E+02 -0.30100623449E+02  0.38015808109E+02  0.69098954770E+02  0.00000000000E+00 0. -1.
        -13    1    3    3    0    0  0.93566302983E+02  0.57552190607E+02  0.19540029057E+02  0.11157383400E+03  0.00000000000E+00 0.  1.
          4    1    6    6  502    0  0.27336940037E+03 -0.11188777928E+03  0.62761530627E+02  0.30197469089E+03  0.00000000000E+00 0. -1.
          3    1    5    5  503    0 -0.36937237934E+03  0.96789902901E+02  0.10568662444E+03  0.39619932169E+03  0.00000000000E+00 0. -1.
         -4    1    5    5    0  503 -0.13410629359E+03 -0.53118880963E+01  0.65098370616E+02  0.14916605510E+03  0.00000000000E+00 0.  1.
         -3    1    6    6    0  502  0.87314762704E+02 -0.70418026850E+01 -0.15015689241E+02  0.88875900527E+02  0.00000000000E+00 0.  1.
<mgrwt>
<rscale>  0 0.10822276E+04</rscale>
<asrwt>0</asrwt>
<pdfrwt beam="1">  1        2 0.10715196E+00 0.10822276E+04</pdfrwt>
<pdfrwt beam="2">  1       -2 0.64677083E-01 0.10822276E+04</pdfrwt>
<totfact> 0.90486837E+01</totfact>
</mgrwt>
</event>
<event>
12    1  0.1506149E-007  0.1546719E+04  0.7818608E-02  0.8853966E-01
         -1   -1    0    0    0  501 -0.00000000000E+00  0.00000000000E+00  0.48178126627E+03  0.48178126627E+03  0.00000000000E+00 0.  1.
          1   -1    0    0  501    0  0.00000000000E+00 -0.00000000000E+00 -0.12414039046E+04  0.12414039046E+04  0.00000000000E+00 0. -1.
         23    2    1    2    0    0  0.99029826575E+02  0.36997281329E+03  0.11183134870E+03  0.41075511807E+03  0.97604955496E+02 0.  0.
        254    2    1    2    0    0 -0.99029826575E+02 -0.36997281329E+03 -0.87145398704E+03  0.13124300528E+04  0.90352299519E+03 0.  0.
        -24    2    4    4    0    0  0.13306721383E+03 -0.27542519662E+03  0.79399046894E+02  0.32580053270E+03  0.79220301272E+02 0.  0.
         24    2    4    4    0    0 -0.23209704041E+03 -0.94547616676E+02 -0.95085303393E+03  0.98662952010E+03  0.80672360848E+02 0.  0.
         11    1    3    3    0    0  0.11806768383E+03  0.33094759034E+03  0.10550461674E+03  0.36687533260E+03  0.00000000000E+00 0.  1.
        -11    1    3    3    0    0 -0.19037857252E+02  0.39025222955E+02  0.63267319610E+01  0.43879785468E+02  0.00000000000E+00 0. -1.
          4    1    6    6  502    0 -0.11630555730E+03 -0.28825609004E+02 -0.58885854146E+03  0.60092618535E+03  0.00000000000E+00 0. -1.
          3    1    5    5  503    0  0.14711253033E+01 -0.30952887516E+01 -0.98662692517E+01  0.10444534028E+02  0.00000000000E+00 0. -1.
         -4    1    5    5    0  503  0.13159608853E+03 -0.27232990786E+03  0.89265316146E+02  0.31535599867E+03  0.00000000000E+00 0.  1.
         -3    1    6    6    0  502 -0.11579148311E+03 -0.65722007671E+02 -0.36199449248E+03  0.38570333475E+03  0.00000000000E+00 0.  1.
<mgrwt>
<rscale>  0 0.15467193E+04</rscale>
<asrwt>0</asrwt>
<pdfrwt beam="1">  1        1 0.19098521E+00 0.15467193E+04</pdfrwt>
<pdfrwt beam="2">  1       -1 0.74120197E-01 0.15467193E+04</pdfrwt>
<totfact> 0.17606208E+01</totfact>
</mgrwt>
</event>
<event>
12    1  0.1506149E-007  0.1279491E+04  0.7818608E-02  0.9045989E-01
          3   -1    0    0  501    0  0.00000000000E+00  0.00000000000E+00  0.14947086297E+04  0.14947086297E+04  0.00000000000E+00 0. -1.
         -3   -1    0    0    0  501 -0.00000000000E+00 -0.00000000000E+00 -0.27381525025E+03  0.27381525025E+03  0.00000000000E+00 0.  1.
         23    2    1    2    0    0 -0.20726026397E+03 -0.23481777302E+03  0.31145235657E+03  0.45116748714E+03  0.91941978950E+02 0.  0.
        254    2    1    2    0    0  0.20726026397E+03  0.23481777302E+03  0.90944102285E+03  0.13173563928E+04  0.90013814941E+03 0.  0.
        -24    2    4    4    0    0 -0.11877496866E+03 -0.29407592282E+03  0.29479886085E+03  0.44016579436E+03  0.79065900363E+02 0.  0.
         24    2    4    4    0    0  0.32603523263E+03  0.52889369584E+03  0.61464216200E+03  0.87719059843E+03  0.75172097579E+02 0.  0.
         11    1    3    3    0    0 -0.20283917377E+03 -0.24263882480E+03  0.29532037120E+03  0.43270249752E+03  0.00000000000E+00 0. -1.
        -11    1    3    3    0    0 -0.44210902059E+01  0.78210517847E+01  0.16131985376E+02  0.18464989623E+02  0.00000000000E+00 0.  1.
          2    1    6    6  502    0  0.27498814808E+03  0.41467355308E+03  0.52470757694E+03  0.72311180222E+03  0.00000000000E+00 0. -1.
          1    1    5    5  503    0 -0.93741927432E+02 -0.23449681000E+03  0.27316738298E+03  0.37201709905E+03  0.00000000000E+00 0. -1.
         -2    1    5    5    0  503 -0.25033041224E+02 -0.59579112825E+02  0.21631477871E+02  0.68148695312E+02  0.00000000000E+00 0.  1.
         -1    1    6    6    0  502  0.51047084544E+02  0.11422014276E+03  0.89934585064E+02  0.15407879621E+03  0.00000000000E+00 0.  1.
<mgrwt>
<rscale>  0 0.12794906E+04</rscale>
<asrwt>0</asrwt>
<pdfrwt beam="1">  1        3 0.22995517E+00 0.12794906E+04</pdfrwt>
<pdfrwt beam="2">  1       -3 0.42125424E-01 0.12794906E+04</pdfrwt>
<totfact> 0.13992510E+00</totfact>
</mgrwt>
</event>
<event>
12    1  0.1506149E-007  0.2048802E+04  0.7818608E-02  0.8584138E-01
          2   -1    0    0  501    0  0.00000000000E+00  0.00000000000E+00  0.23279567260E+04  0.23279567260E+04  0.00000000000E+00 0. -1.
         -2   -1    0    0    0  501 -0.00000000000E+00 -0.00000000000E+00 -0.45078034758E+03  0.45078034758E+03  0.00000000000E+00 0.  1.
         23    2    1    2    0    0  0.38980296278E+03  0.53062838554E+03  0.14214237035E+04  0.15693383750E+04  0.94152839173E+02 0.  0.
        254    2    1    2    0    0 -0.38980296278E+03 -0.53062838554E+03  0.45575267497E+03  0.12093986986E+04  0.90632327460E+03 0.  0.
        -24    2    4    4    0    0 -0.23204168607E+03  0.21218102771E+03  0.10183651881E+02  0.32554068213E+03  0.83719151713E+02 0.  0.
         24    2    4    4    0    0 -0.15776127671E+03 -0.74280941325E+03  0.44556902308E+03  0.88385801646E+03  0.77580887331E+02 0.  0.
         11    1    3    3    0    0  0.10707230634E+03  0.15851985987E+03  0.51808967452E+03  0.55227704605E+03  0.00000000000E+00 0. -1.
        -11    1    3    3    0    0  0.28273065644E+03  0.37210852567E+03  0.90333402895E+03  0.10170613289E+04  0.00000000000E+00 0.  1.
          2    1    6    6  502    0 -0.21042368116E+02 -0.59050043437E+02  0.15401185279E+02  0.64551416668E+02  0.00000000000E+00 0. -1.
          3    1    5    5  503    0 -0.44364054213E+01  0.34164367464E+02 -0.10028607364E+02  0.35881174214E+02  0.00000000000E+00 0. -1.
         -4    1    5    5    0  503 -0.22760528065E+03  0.17801666025E+03  0.20212259245E+02  0.28965950792E+03  0.00000000000E+00 0.  1.
         -1    1    6    6    0  502 -0.13671890859E+03 -0.68375936982E+03  0.43016783781E+03  0.81930659979E+03  0.00000000000E+00 0.  1.
<mgrwt>
<rscale>  0 0.20488017E+04</rscale>
<asrwt>0</asrwt>
<pdfrwt beam="1">  1        2 0.35814718E+00 0.20488017E+04</pdfrwt>
<pdfrwt beam="2">  1       -2 0.69350824E-01 0.20488017E+04</pdfrwt>
<totfact> 0.76741471E+00</totfact>
</mgrwt>
</event>
<event>
12    1  0.1506149E-007  0.1421219E+04  0.7818608E-02  0.8938601E-01
          2   -1    0    0  501    0  0.00000000000E+00  0.00000000000E+00  0.13752018278E+04  0.13752018278E+04  0.00000000000E+00 0.  1.
         -2   -1    0    0    0  501 -0.00000000000E+00 -0.00000000000E+00 -0.36719376613E+03  0.36719376613E+03  0.00000000000E+00 0. -1.
         23    2    1    2    0    0 -0.87832847846E+01  0.91947324122E+02 -0.17658905753E+03  0.21872417294E+03  0.90139403613E+02 0.  0.
        254    2    1    2    0    0  0.87832847846E+01 -0.91947324122E+02  0.11845971192E+04  0.15236714210E+04  0.95382011293E+03 0.  0.
        -24    2    4    4    0    0  0.41754970811E+03 -0.13953490381E+03  0.28236515886E+03  0.52882352101E+03  0.78144003692E+02 0.  0.
         24    2    4    4    0    0 -0.40876642333E+03  0.47587579688E+02  0.90223196031E+03  0.99484789996E+03  0.79657185878E+02 0.  0.
         13    1    3    3    0    0 -0.19115260920E+02  0.10752960001E+03 -0.13929425676E+03  0.17700536163E+03  0.00000000000E+00 0. -1.
        -13    1    3    3    0    0  0.10331976136E+02 -0.15582275890E+02 -0.37294800766E+02  0.41718811308E+02  0.00000000000E+00 0.  1.
          4    1    6    6  502    0 -0.72956795585E+02 -0.12732923634E+02  0.11400515290E+03  0.13594850589E+03  0.00000000000E+00 0. -1.
          3    1    5    5  503    0  0.21793161306E+03 -0.32924122599E+02  0.15079018585E+03  0.26705030606E+03  0.00000000000E+00 0. -1.
         -4    1    5    5    0  503  0.19961809506E+03 -0.10661078121E+03  0.13157497301E+03  0.26177321495E+03  0.00000000000E+00 0.  1.
         -3    1    6    6    0  502 -0.33580962774E+03  0.60320503322E+02  0.78822680741E+03  0.85889939407E+03  0.00000000000E+00 0.  1.
<mgrwt>
<rscale>  0 0.14212185E+04</rscale>
<asrwt>0</asrwt>
<pdfrwt beam="1">  1        2 0.21156951E+00 0.14212185E+04</pdfrwt>
<pdfrwt beam="2">  1       -2 0.56491349E-01 0.14212185E+04</pdfrwt>
<totfact> 0.42718617E+01</totfact>
</mgrwt>
</event>
<event>
12    1  0.1506149E-007  0.1480594E+04  0.7818608E-02  0.8897462E-01
         -1   -1    0    0    0  501 -0.00000000000E+00  0.00000000000E+00  0.54960223849E+03  0.54960223849E+03  0.00000000000E+00 0.  1.
          1   -1    0    0  501    0  0.00000000000E+00 -0.00000000000E+00 -0.99715627683E+03  0.99715627683E+03  0.00000000000E+00 0. -1.
         23    2    1    2    0    0 -0.41809440310E+03  0.12631045492E+03  0.17459131904E+02  0.44712198772E+03  0.94106268087E+02 0.  0.
        254    2    1    2    0    0  0.41809440310E+03 -0.12631045492E+03 -0.46501317024E+03  0.10996365276E+04  0.89565952427E+03 0.  0.
        -24    2    4    4    0    0  0.63721780725E+03  0.11183333560E+03 -0.38276916546E+03  0.75616154059E+03  0.81943960222E+02 0.  0.
         24    2    4    4    0    0 -0.21912340415E+03 -0.23814379052E+03 -0.82244004787E+02  0.34347498702E+03  0.80519930305E+02 0.  0.
         11    1    3    3    0    0 -0.31799453910E+03  0.12983378354E+03 -0.87433034328E+01  0.34358955689E+03  0.00000000000E+00 0.  1.
        -11    1    3    3    0    0 -0.10009986400E+03 -0.35233286240E+01  0.26202435337E+02  0.10353243083E+03  0.00000000000E+00 0. -1.
          4    1    6    6  502    0 -0.64208865042E+02 -0.11147521555E+03 -0.42830041080E+01  0.12871614567E+03  0.00000000000E+00 0. -1.
          1    1    5    5  503    0  0.24598568406E+03  0.82616330339E+02 -0.16393211237E+03  0.30693346554E+03  0.00000000000E+00 0. -1.
         -2    1    5    5    0  503  0.39123212319E+03  0.29217005263E+02 -0.21883705309E+03  0.44922807505E+03  0.00000000000E+00 0.  1.
         -3    1    6    6    0  502 -0.15491453911E+03 -0.12666857497E+03 -0.77961000679E+02  0.21475884135E+03  0.00000000000E+00 0.  1.
<mgrwt>
<rscale>  0 0.14805936E+04</rscale>
<asrwt>0</asrwt>
<pdfrwt beam="1">  1        1 0.15340866E+00 0.14805936E+04</pdfrwt>
<pdfrwt beam="2">  1       -1 0.84554191E-01 0.14805936E+04</pdfrwt>
<totfact> 0.20410464E+01</totfact>
</mgrwt>
</event>
<event>
12    1  0.1506149E-007  0.2809602E+04  0.7818608E-02  0.8300293E-01
          2   -1    0    0  501    0  0.00000000000E+00  0.00000000000E+00  0.25811654512E+04  0.25811654512E+04  0.00000000000E+00 0. -1.
         -2   -1    0    0    0  501 -0.00000000000E+00 -0.00000000000E+00 -0.76456394706E+03  0.76456394706E+03  0.00000000000E+00 0.  1.
         23    2    1    2    0    0  0.57011576541E+03  0.10299507731E+04  0.27596589889E+03  0.12125743344E+04  0.91371539235E+02 0.  0.
        254    2    1    2    0    0 -0.57011576541E+03 -0.10299507731E+04  0.15406356053E+04  0.21331550638E+04  0.88936037535E+03 0.  0.
        -24    2    4    4    0    0 -0.46772415064E+03 -0.11406905383E+04  0.15269328100E+04  0.19641449741E+04  0.80005547768E+02 0.  0.
         24    2    4    4    0    0 -0.10239161476E+03  0.11073976519E+03  0.13702795223E+02  0.16901008975E+03  0.75028697643E+02 0.  0.
         13    1    3    3    0    0  0.47218607748E+03  0.85251095287E+03  0.19241050791E+03  0.99335613960E+03  0.00000000000E+00 0.  1.
        -13    1    3    3    0    0  0.97929687929E+02  0.17743982022E+03  0.83555390971E+02  0.21921819482E+03  0.00000000000E+00 0. -1.
          2    1    6    6  502    0 -0.96835327519E+02  0.11622151992E+03 -0.22030609935E+01  0.15129235217E+03  0.00000000000E+00 0. -1.
          3    1    5    5  503    0 -0.38402460685E+03 -0.91302881101E+03  0.11761932828E+04  0.15377019045E+04  0.00000000000E+00 0. -1.
         -4    1    5    5    0  503 -0.83699543791E+02 -0.22766172728E+03  0.35073952721E+03  0.42644306964E+03  0.00000000000E+00 0.  1.
         -1    1    6    6    0  502 -0.55562872456E+01 -0.54817547247E+01  0.15905856216E+02  0.17717737575E+02  0.00000000000E+00 0.  1.
<mgrwt>
<rscale>  0 0.28096021E+04</rscale>
<asrwt>0</asrwt>
<pdfrwt beam="1">  1        2 0.39710237E+00 0.28096021E+04</pdfrwt>
<pdfrwt beam="2">  1       -2 0.11762522E+00 0.28096021E+04</pdfrwt>
<totfact> 0.15139493E+00</totfact>
</mgrwt>
</event>
<event>
12    1  0.1506149E-007  0.1547439E+04  0.7818608E-02  0.8853505E-01
         -1   -1    0    0    0  501 -0.00000000000E+00  0.00000000000E+00  0.60404114638E+03  0.60404114638E+03  0.00000000000E+00 0.  1.
          1   -1    0    0  501    0  0.00000000000E+00 -0.00000000000E+00 -0.99106100997E+03  0.99106100997E+03  0.00000000000E+00 0. -1.
         23    2    1    2    0    0 -0.22603652821E+03 -0.37736269766E+03  0.13075766297E+03  0.46762152252E+03  0.89873267607E+02 0.  0.
        254    2    1    2    0    0  0.22603652821E+03  0.37736269766E+03 -0.51777752655E+03  0.11274806338E+04  0.89979102851E+03 0.  0.
        -24    2    4    4    0    0  0.26246481598E+03  0.64583896997E+03 -0.45671706848E+03  0.83709215381E+03  0.78339252995E+02 0.  0.
         24    2    4    4    0    0 -0.36428287773E+02 -0.26847627231E+03 -0.61060458073E+02  0.29038848002E+03  0.84797174751E+02 0.  0.
         13    1    3    3    0    0 -0.21498418114E+03 -0.36923341924E+03  0.10743207086E+03  0.44056005932E+03  0.00000000000E+00 0.  1.
        -13    1    3    3    0    0 -0.11052347069E+02 -0.81292784258E+01  0.23325592104E+02  0.27061463199E+02  0.00000000000E+00 0. -1.
          4    1    6    6  502    0 -0.48004839393E+01 -0.21608622331E+03 -0.20804765634E+02  0.21713852451E+03  0.00000000000E+00 0. -1.
          1    1    5    5  503    0  0.18190720590E+03  0.37446463801E+03 -0.23957500214E+03  0.48032299375E+03  0.00000000000E+00 0. -1.
         -2    1    5    5    0  503  0.80557610079E+02  0.27137433197E+03 -0.21714206634E+03  0.35676916006E+03  0.00000000000E+00 0.  1.
         -3    1    6    6    0  502 -0.31627803834E+02 -0.52390048997E+02 -0.40255692439E+02  0.73249955516E+02  0.00000000000E+00 0.  1.
<mgrwt>
<rscale>  0 0.15474387E+04</rscale>
<asrwt>0</asrwt>
<pdfrwt beam="1">  1        1 0.15247092E+00 0.15474387E+04</pdfrwt>
<pdfrwt beam="2">  1       -1 0.92929409E-01 0.15474387E+04</pdfrwt>
<totfact> 0.16674280E+01</totfact>
</mgrwt>
</event>
<event>
12    1  0.1953333E-007  0.1363922E+04  0.7818608E-02  0.8980355E-01
         -2   -1    0    0    0  501 -0.00000000000E+00  0.00000000000E+00  0.32371206442E+03  0.32371206442E+03  0.00000000000E+00 0. -1.
          2   -1    0    0  501    0  0.00000000000E+00 -0.00000000000E+00 -0.14366815147E+04  0.14366815147E+04  0.00000000000E+00 0.  1.
         23    2    1    2    0    0  0.28059238398E+03  0.20152862626E+03 -0.53379096946E+03  0.64242556774E+03  0.91825583907E+02 0.  0.
        254    2    1    2    0    0 -0.28059238398E+03 -0.20152862626E+03 -0.57917848078E+03  0.11179680113E+04  0.89166074750E+03 0.  0.
        -24    2    4    4    0    0 -0.14403291126E+03 -0.46739852285E+03 -0.63362450039E+03  0.80424541206E+03  0.78254818655E+02 0.  0.
         24    2    4    4    0    0 -0.13655947272E+03  0.26586989659E+03  0.54446019608E+02  0.31372259928E+03  0.78244544520E+02 0.  0.
         11    1    3    3    0    0  0.22735879658E+02  0.70281686539E+01 -0.92817686850E+02  0.95819822431E+02  0.00000000000E+00 0. -1.
        -11    1    3    3    0    0  0.25785650432E+03  0.19450045761E+03 -0.44097328261E+03  0.54660574531E+03  0.00000000000E+00 0.  1.
          2    1    6    6  502    0 -0.93085983510E+02  0.19252027951E+03  0.73925203070E+02  0.22626089808E+03  0.00000000000E+00 0. -1.
          1    1    5    5  503    0 -0.15347336589E+03 -0.45079777650E+03 -0.60986879645E+03  0.77376524749E+03  0.00000000000E+00 0. -1.
         -2    1    5    5    0  503  0.94404546284E+01 -0.16600746345E+02 -0.23755703939E+02  0.30480164574E+02  0.00000000000E+00 0.  1.
         -1    1    6    6    0  502 -0.43473489210E+02  0.73349617072E+02 -0.19479183461E+02  0.87461701201E+02  0.00000000000E+00 0.  1.
<mgrwt>
<rscale>  0 0.13639225E+04</rscale>
<asrwt>0</asrwt>
<pdfrwt beam="1">  1        2 0.22102793E+00 0.13639225E+04</pdfrwt>
<pdfrwt beam="2">  1       -2 0.49801855E-01 0.13639225E+04</pdfrwt>
<totfact> 0.51319895E+01</totfact>
</mgrwt>
</event>
<event>
12    1  0.1506149E-007  0.2208963E+04  0.7818608E-02  0.8514707E-01
          2   -1    0    0  501    0  0.00000000000E+00  0.00000000000E+00  0.27314913554E+04  0.27314913554E+04  0.00000000000E+00 0. -1.
         -2   -1    0    0    0  501 -0.00000000000E+00 -0.00000000000E+00 -0.44659819550E+03  0.44659819550E+03  0.00000000000E+00 0.  1.
         23    2    1    2    0    0 -0.43704920450E+03 -0.60313357086E+03  0.18187307692E+03  0.77240755219E+03  0.93560136356E+02 0.  0.
        254    2    1    2    0    0  0.43704920450E+03  0.60313357086E+03  0.21030200830E+04  0.24056819987E+04  0.89990571621E+03 0.  0.
        -24    2    4    4    0    0  0.69932118114E+03  0.31610522926E+03  0.14245918875E+04  0.16201279054E+04  0.79873359984E+02 0.  0.
         24    2    4    4    0    0 -0.26227197664E+03  0.28702834161E+03  0.67842819545E+03  0.78555409327E+03  0.75223390335E+02 0.  0.
         11    1    3    3    0    0 -0.47904205615E+02 -0.56171975942E+02 -0.93986073854E+01  0.74420680040E+02  0.00000000000E+00 0. -1.
        -11    1    3    3    0    0 -0.38914499888E+03 -0.54696159492E+03  0.19127168431E+03  0.69798687215E+03  0.00000000000E+00 0.  1.
          4    1    6    6  502    0 -0.37331689815E+02  0.68890806616E+02  0.18671578238E+03  0.20249044839E+03  0.00000000000E+00 0. -1.
          3    1    5    5  503    0  0.23939525189E+03  0.69346811009E+02  0.43587466248E+03  0.50210137245E+03  0.00000000000E+00 0. -1.
         -4    1    5    5    0  503  0.45992592925E+03  0.24675841825E+03  0.98871722505E+03  0.11180265330E+04  0.00000000000E+00 0.  1.
         -3    1    6    6    0  502 -0.22494028682E+03  0.21813753499E+03  0.49171241307E+03  0.58306364488E+03  0.00000000000E+00 0.  1.
<mgrwt>
<rscale>  0 0.22089628E+04</rscale>
<asrwt>0</asrwt>
<pdfrwt beam="1">  1        2 0.42022943E+00 0.22089628E+04</pdfrwt>
<pdfrwt beam="2">  1       -2 0.68707416E-01 0.22089628E+04</pdfrwt>
<totfact> 0.44988550E+00</totfact>
</mgrwt>
</event>
<event>
12    1  0.1506149E-007  0.1341196E+04  0.7818608E-02  0.8997520E-01
          2   -1    0    0  501    0  0.00000000000E+00  0.00000000000E+00  0.19711922239E+04  0.19711922239E+04  0.00000000000E+00 0. -1.
         -2   -1    0    0    0  501 -0.00000000000E+00 -0.00000000000E+00 -0.22813688271E+03  0.22813688271E+03  0.00000000000E+00 0.  1.
         23    2    1    2    0    0  0.29771583677E+03 -0.57956753266E+02  0.17014449226E+03  0.35961806941E+03  0.91554917340E+02 0.  0.
        254    2    1    2    0    0 -0.29771583677E+03  0.57956753266E+02  0.15729108490E+04  0.18397110372E+04  0.90470683483E+03 0.  0.
        -24    2    4    4    0    0 -0.51224029024E+03  0.31469573592E+03  0.10826192724E+04  0.12409296948E+04  0.80115525749E+02 0.  0.
         24    2    4    4    0    0  0.21452445348E+03 -0.25673898266E+03  0.49029157660E+03  0.59878134239E+03  0.78851883659E+02 0.  0.
         13    1    3    3    0    0  0.64128064769E+02 -0.42244118896E+02  0.13600540122E+02  0.77986851225E+02  0.00000000000E+00 0. -1.
        -13    1    3    3    0    0  0.23358777200E+03 -0.15712634370E+02  0.15654395214E+03  0.28163121819E+03  0.00000000000E+00 0.  1.
          4    1    6    6  502    0  0.18582038213E+02 -0.65143915763E+02  0.12427918077E+03  0.14154270267E+03  0.00000000000E+00 0. -1.
          3    1    5    5  503    0 -0.18976385674E+03  0.11732449837E+03  0.32497207960E+03  0.39418550426E+03  0.00000000000E+00 0. -1.
         -4    1    5    5    0  503 -0.32247643350E+03  0.19737123755E+03  0.75764719276E+03  0.84674419057E+03  0.00000000000E+00 0.  1.
         -3    1    6    6    0  502  0.19594241526E+03 -0.19159506689E+03  0.36601239583E+03  0.45723863972E+03  0.00000000000E+00 0.  1.
<mgrwt>
<rscale>  0 0.13411960E+04</rscale>
<asrwt>0</asrwt>
<pdfrwt beam="1">  1        2 0.30326033E+00 0.13411960E+04</pdfrwt>
<pdfrwt beam="2">  1       -2 0.35097983E-01 0.13411960E+04</pdfrwt>
<totfact> 0.51662255E+01</totfact>
</mgrwt>
</event>
<event>
12    1  0.1506149E-007  0.1706825E+04  0.7818608E-02  0.8757481E-01
         -2   -1    0    0    0  501 -0.00000000000E+00  0.00000000000E+00  0.51815712589E+03  0.51815712589E+03  0.00000000000E+00 0.  1.
          2   -1    0    0  501    0  0.00000000000E+00 -0.00000000000E+00 -0.14055838445E+04  0.14055838445E+04  0.00000000000E+00 0. -1.
         23    2    1    2    0    0  0.69851519629E+02 -0.23659792408E+03 -0.95771519877E+03  0.99321378778E+03  0.91637403912E+02 0.  0.
        254    2    1    2    0    0 -0.69851519629E+02  0.23659792408E+03  0.70288480178E+02  0.93052718259E+03  0.89447333925E+03 0.  0.
        -24    2    4    4    0    0  0.27606764722E+03 -0.19942418778E+03  0.11175605521E+03  0.36675495865E+03  0.77694474078E+02 0.  0.
         24    2    4    4    0    0 -0.34591916685E+03  0.43602211186E+03 -0.41467575029E+02  0.56377222395E+03  0.79650541041E+02 0.  0.
         11    1    3    3    0    0  0.52247499098E+02 -0.14991894379E+03 -0.76313077378E+03  0.77947037709E+03  0.00000000000E+00 0.  1.
        -11    1    3    3    0    0  0.17604020530E+02 -0.86678980286E+02 -0.19458442499E+03  0.21374341069E+03  0.00000000000E+00 0. -1.
          4    1    6    6  502    0 -0.39154904180E+02  0.64747874387E+02  0.19973662515E+02  0.78258168604E+02  0.00000000000E+00 0. -1.
          1    1    5    5  503    0  0.43308858250E+02 -0.19009938063E+02 -0.95585138212E+01  0.48253498676E+02  0.00000000000E+00 0. -1.
         -2    1    5    5    0  503  0.23275878897E+03 -0.18041424972E+03  0.12131456903E+03  0.31850145997E+03  0.00000000000E+00 0.  1.
         -3    1    6    6    0  502 -0.30676426267E+03  0.37127423747E+03 -0.61441237545E+02  0.48551405534E+03  0.00000000000E+00 0.  1.
<mgrwt>
<rscale>  0 0.17068255E+04</rscale>
<asrwt>0</asrwt>
<pdfrwt beam="1">  1        2 0.21624367E+00 0.17068255E+04</pdfrwt>
<pdfrwt beam="2">  1       -2 0.79716481E-01 0.17068255E+04</pdfrwt>
<totfact> 0.19035820E+01</totfact>
</mgrwt>
</event>
<event>
12    1  0.1506149E-007  0.1311478E+04  0.7818608E-02  0.9020512E-01
         -1   -1    0    0    0  501 -0.00000000000E+00  0.00000000000E+00  0.70996045248E+03  0.70996045248E+03  0.00000000000E+00 0.  1.
          1   -1    0    0  501    0  0.00000000000E+00 -0.00000000000E+00 -0.60565902823E+03  0.60565902823E+03  0.00000000000E+00 0. -1.
         23    2    1    2    0    0 -0.14259061948E+02 -0.38993756989E+02  0.38987857319E+03  0.40257849032E+03  0.91325270865E+02 0.  0.
        254    2    1    2    0    0  0.14259061948E+02  0.38993756989E+02 -0.28557714895E+03  0.91304099039E+03  0.86623651978E+03 0.  0.
        -24    2    4    4    0    0  0.34131319538E+03 -0.12860355532E+02 -0.42125274934E+03  0.54785506903E+03  0.77660876546E+02 0.  0.
         24    2    4    4    0    0 -0.32705413343E+03  0.51854112521E+02  0.13567560039E+03  0.36518592136E+03  0.72798581294E+02 0.  0.
         11    1    3    3    0    0 -0.39565017863E+02  0.10912844752E+02  0.21771850254E+03  0.22155321520E+03  0.00000000000E+00 0. -1.
        -11    1    3    3    0    0  0.25305955915E+02 -0.49906601742E+02  0.17216007066E+03  0.18102527512E+03  0.00000000000E+00 0.  1.
          4    1    6    6  502    0 -0.22411619599E+03  0.49532649450E+02  0.12582727050E+03  0.26175189525E+03  0.00000000000E+00 0. -1.
          1    1    5    5  503    0  0.33829850442E+03 -0.11299172386E+02 -0.38994131939E+03  0.51636012816E+03  0.00000000000E+00 0. -1.
         -2    1    5    5    0  503  0.30146909601E+01 -0.15611831461E+01 -0.31311429951E+02  0.31494940863E+02  0.00000000000E+00 0.  1.
         -3    1    6    6    0  502 -0.10293793744E+03  0.23214630713E+01  0.98483298927E+01  0.10343402611E+03  0.00000000000E+00 0.  1.
<mgrwt>
<rscale>  0 0.13114785E+04</rscale>
<asrwt>0</asrwt>
<pdfrwt beam="1">  1        1 0.93178312E-01 0.13114785E+04</pdfrwt>
<pdfrwt beam="2">  1       -1 0.10922468E+00 0.13114785E+04</pdfrwt>
<totfact> 0.25751316E+01</totfact>
</mgrwt>
</event>
<event>
12    1  0.1506149E-007  0.2998756E+04  0.7818608E-02  0.8244086E-01
          2   -1    0    0  501    0  0.00000000000E+00  0.00000000000E+00  0.91996784888E+03  0.91996784888E+03  0.00000000000E+00 0. -1.
         -2   -1    0    0    0  501 -0.00000000000E+00 -0.00000000000E+00 -0.24437089550E+04  0.24437089550E+04  0.00000000000E+00 0.  1.
         23    2    1    2    0    0  0.28600900498E+03  0.60692030626E+03  0.63532438219E+03  0.92851186092E+03  0.91344382274E+02 0.  0.
        254    2    1    2    0    0 -0.28600900498E+03 -0.60692030626E+03 -0.21590654883E+04  0.24351649429E+04  0.90460549828E+03 0.  0.
        -24    2    4    4    0    0 -0.25007704088E+03 -0.75252406942E+03 -0.21143879030E+04  0.22596445173E+04  0.80784519158E+02 0.  0.
         24    2    4    4    0    0 -0.35931964104E+02  0.14560376316E+03 -0.44677585272E+02  0.17552042568E+03  0.79496989339E+02 0.  0.
         11    1    3    3    0    0  0.17576561648E+03  0.26715673630E+03  0.29097069091E+03  0.43235427216E+03  0.00000000000E+00 0.  1.
        -11    1    3    3    0    0  0.11024338850E+03  0.33976356997E+03  0.34435369128E+03  0.49615758876E+03  0.00000000000E+00 0. -1.
          4    1    6    6  502    0 -0.94138961107E+01  0.78118798734E+02  0.16800241945E+02  0.80457543369E+02  0.00000000000E+00 0. -1.
          3    1    5    5  503    0 -0.92424054341E+02 -0.35593038594E+03 -0.10696911613E+04  0.11311356355E+04  0.00000000000E+00 0. -1.
         -4    1    5    5    0  503 -0.15765298654E+03 -0.39659368348E+03 -0.10446967417E+04  0.11285088817E+04  0.00000000000E+00 0.  1.
         -1    1    6    6    0  502 -0.26518067993E+02  0.67484964425E+02 -0.61477827217E+02  0.95062882309E+02  0.00000000000E+00 0.  1.
<mgrwt>
<rscale>  0 0.29987555E+04</rscale>
<asrwt>0</asrwt>
<pdfrwt beam="1">  1        2 0.14153352E+00 0.29987555E+04</pdfrwt>
<pdfrwt beam="2">  1       -2 0.37595522E+00 0.29987555E+04</pdfrwt>
<totfact> 0.25862045E-01</totfact>
</mgrwt>
</event>
<event>
12    1  0.1506149E-007  0.3260080E+04  0.7818608E-02  0.8173128E-01
         -1   -1    0    0    0  501 -0.00000000000E+00  0.00000000000E+00  0.36458071821E+04  0.36458071821E+04  0.00000000000E+00 0.  1.
          1   -1    0    0  501    0  0.00000000000E+00 -0.00000000000E+00 -0.72879081246E+03  0.72879081246E+03  0.00000000000E+00 0. -1.
         23    2    1    2    0    0  0.68994023583E+03  0.34293034391E+03  0.30742884858E+04  0.31705019697E+04  0.84937014659E+02 0.  0.
        254    2    1    2    0    0 -0.68994023583E+03 -0.34293034391E+03 -0.15727211611E+03  0.12040960249E+04  0.91186291120E+03 0.  0.
        -24    2    4    4    0    0 -0.35153973776E+02 -0.48725608761E+03  0.50376227456E+02  0.49758044610E+03  0.79963987263E+02 0.  0.
         24    2    4    4    0    0 -0.65478626205E+03  0.14432574370E+03 -0.20764834356E+03  0.70651557877E+03  0.80445380203E+02 0.  0.
         11    1    3    3    0    0  0.48360238099E+02  0.25479771423E+02  0.14337631852E+03  0.15344282353E+03  0.00000000000E+00 0. -1.
        -11    1    3    3    0    0  0.64157999773E+03  0.31745057249E+03  0.29309121672E+04  0.30170591462E+04  0.00000000000E+00 0.  1.
          2    1    6    6  502    0 -0.50700382060E+03  0.81016899011E+02 -0.14073625905E+03  0.53237515592E+03  0.00000000000E+00 0. -1.
          3    1    5    5  503    0  0.20282385847E+02 -0.23988830012E+03  0.10618673257E+02  0.24097827274E+03  0.00000000000E+00 0. -1.
         -4    1    5    5    0  503 -0.55436359624E+02 -0.24736778749E+03  0.39757554199E+02  0.25660217336E+03  0.00000000000E+00 0.  1.
         -1    1    6    6    0  502 -0.14778244145E+03  0.63308844692E+02 -0.66912084511E+02  0.17414042285E+03  0.00000000000E+00 0.  1.
<mgrwt>
<rscale>  0 0.32600802E+04</rscale>
<asrwt>0</asrwt>
<pdfrwt beam="1">  1        1 0.11212167E+00 0.32600802E+04</pdfrwt>
<pdfrwt beam="2">  1       -1 0.56089340E+00 0.32600802E+04</pdfrwt>
<totfact> 0.13981214E-02</totfact>
</mgrwt>
</event>
<event>
12    1  0.1506149E-007  0.2160569E+04  0.7818608E-02  0.8535022E-01
         -3   -1    0    0    0  501 -0.00000000000E+00  0.00000000000E+00  0.13087382110E+04  0.13087382110E+04  0.00000000000E+00 0.  1.
          3   -1    0    0  501    0  0.00000000000E+00 -0.00000000000E+00 -0.89171008961E+03  0.89171008961E+03  0.00000000000E+00 0. -1.
         23    2    1    2    0    0  0.54404270024E+03 -0.32157161495E+03  0.80605788103E+03  0.10284816545E+04  0.93029258235E+02 0.  0.
        254    2    1    2    0    0 -0.54404270024E+03  0.32157161495E+03 -0.38902975964E+03  0.11719666461E+04  0.90706719841E+03 0.  0.
        -24    2    4    4    0    0 -0.77700578629E+03  0.31374092314E+03 -0.20642566697E+03  0.86630577785E+03  0.75516792696E+02 0.  0.
         24    2    4    4    0    0  0.23296308604E+03  0.78306918091E+01 -0.18260409267E+03  0.30566086824E+03  0.75836617292E+02 0.  0.
         13    1    3    3    0    0  0.43607448462E+03 -0.24580328409E+03  0.69219207071E+03  0.85423069095E+03  0.00000000000E+00 0.  1.
        -13    1    3    3    0    0  0.10796821563E+03 -0.75768330856E+02  0.11386581032E+03  0.17425096357E+03  0.00000000000E+00 0. -1.
          2    1    6    6  502    0  0.16285136572E+02 -0.13708806289E+02  0.30025360957E+00  0.21289133267E+02  0.00000000000E+00 0. -1.
          1    1    5    5  503    0 -0.39707440906E+03  0.17810441224E+03 -0.72148989655E+02  0.44112894340E+03  0.00000000000E+00 0. -1.
         -2    1    5    5    0  503 -0.37993137722E+03  0.13563651090E+03 -0.13427667731E+03  0.42517683445E+03  0.00000000000E+00 0.  1.
         -1    1    6    6    0  502  0.21667794947E+03  0.21539498098E+02 -0.18290434628E+03  0.28437173497E+03  0.00000000000E+00 0.  1.
<mgrwt>
<rscale>  0 0.21605694E+04</rscale>
<asrwt>0</asrwt>
<pdfrwt beam="1">  1        3 0.13718617E+00 0.21605694E+04</pdfrwt>
<pdfrwt beam="2">  1       -3 0.20134434E+00 0.21605694E+04</pdfrwt>
<totfact> 0.13974958E-01</totfact>
</mgrwt>
</event>
<event>
12    1  0.1506149E-007  0.1733702E+04  0.7818608E-02  0.8742373E-01
          2   -1    0    0  501    0  0.00000000000E+00  0.00000000000E+00  0.82259344119E+03  0.82259344119E+03  0.00000000000E+00 0. -1.
         -2   -1    0    0    0  501 -0.00000000000E+00 -0.00000000000E+00 -0.91348949625E+03  0.91348949625E+03  0.00000000000E+00 0.  1.
         23    2    1    2    0    0 -0.99003496231E+02  0.50439181739E+03  0.32332440477E+03  0.61369767192E+03  0.88731978911E+02 0.  0.
        254    2    1    2    0    0  0.99003496231E+02 -0.50439181739E+03 -0.41422045982E+03  0.11223852655E+04  0.90772093575E+03 0.  0.
        -24    2    4    4    0    0 -0.14917095662E+03 -0.58209617635E+03  0.23443661245E+02  0.60716640808E+03  0.83746695611E+02 0.  0.
         24    2    4    4    0    0  0.24817445286E+03  0.77704358956E+02 -0.43766412107E+03  0.51521885744E+03  0.79196349265E+02 0.  0.
         13    1    3    3    0    0 -0.30305275422E+02  0.24240745051E+03  0.10537307698E+03  0.26605124908E+03  0.00000000000E+00 0.  1.
        -13    1    3    3    0    0 -0.68698220809E+02  0.26198436688E+03  0.21795132778E+03  0.34764642284E+03  0.00000000000E+00 0. -1.
          2    1    6    6  502    0  0.18189150831E+03  0.90324436118E+02 -0.34919625596E+03  0.40395674240E+03  0.00000000000E+00 0. -1.
          1    1    5    5  503    0 -0.13801375497E+03 -0.47735696003E+03  0.47340458486E+02  0.49915787368E+03  0.00000000000E+00 0. -1.
         -2    1    5    5    0  503 -0.11157201656E+02 -0.10473921632E+03 -0.23896797241E+02  0.10800853440E+03  0.00000000000E+00 0.  1.
         -1    1    6    6    0  502  0.66282944546E+02 -0.12620077162E+02 -0.88467865106E+02  0.11126211503E+03  0.00000000000E+00 0.  1.
<mgrwt>
<rscale>  0 0.17337018E+04</rscale>
<asrwt>0</asrwt>
<pdfrwt beam="1">  1        2 0.12655284E+00 0.17337018E+04</pdfrwt>
<pdfrwt beam="2">  1       -2 0.14053684E+00 0.17337018E+04</pdfrwt>
<totfact> 0.11195644E+01</totfact>
</mgrwt>
</event>
<event>
12    1  0.1506149E-007  0.1353065E+04  0.7818608E-02  0.8988511E-01
         -2   -1    0    0    0  501 -0.00000000000E+00  0.00000000000E+00  0.43425702312E+03  0.43425702312E+03  0.00000000000E+00 0.  1.
          2   -1    0    0  501    0  0.00000000000E+00 -0.00000000000E+00 -0.10539757812E+04  0.10539757812E+04  0.00000000000E+00 0. -1.
         23    2    1    2    0    0 -0.26972135213E+03  0.25126345315E+03 -0.87901056009E+02  0.38971191234E+03  0.90916710704E+02 0.  0.
        254    2    1    2    0    0  0.26972135213E+03 -0.25126345315E+03 -0.53181770208E+03  0.10985208920E+04  0.88771343981E+03 0.  0.
        -24    2    4    4    0    0 -0.17008074730E+03  0.15440622450E+03 -0.41858913699E+03  0.48438632558E+03  0.81513827237E+02 0.  0.
         24    2    4    4    0    0  0.43980209944E+03 -0.40566967765E+03 -0.11322856508E+03  0.61413456642E+03  0.79666703700E+02 0.  0.
         11    1    3    3    0    0 -0.14710583846E+02 -0.44971940172E+01 -0.14538835965E+02  0.21166099838E+02  0.00000000000E+00 0. -1.
        -11    1    3    3    0    0 -0.25501076829E+03  0.25576064717E+03 -0.73362220044E+02  0.36854581250E+03  0.00000000000E+00 0.  1.
          4    1    6    6  502    0  0.52458950324E+02 -0.70233794716E+02 -0.40624114223E+02  0.96618042030E+02  0.00000000000E+00 0. -1.
          3    1    5    5  503    0  0.89929183959E+01  0.38308684197E+01 -0.17516716959E+02  0.20059499175E+02  0.00000000000E+00 0. -1.
         -4    1    5    5    0  503 -0.17907366570E+03  0.15057535608E+03 -0.40107242003E+03  0.46432682640E+03  0.00000000000E+00 0.  1.
         -3    1    6    6    0  502  0.38734314911E+03 -0.33543588294E+03 -0.72604450861E+02  0.51751652439E+03  0.00000000000E+00 0.  1.
<mgrwt>
<rscale>  0 0.13530652E+04</rscale>
<asrwt>0</asrwt>
<pdfrwt beam="1">  1        2 0.16215012E+00 0.13530652E+04</pdfrwt>
<pdfrwt beam="2">  1       -2 0.66808773E-01 0.13530652E+04</pdfrwt>
<totfact> 0.46772977E+01</totfact>
</mgrwt>
</event>
<event>
12    1  0.1506149E-007  0.1364653E+04  0.7818608E-02  0.8979810E-01
          2   -1    0    0  501    0  0.00000000000E+00  0.00000000000E+00  0.19764765868E+04  0.19764765868E+04  0.00000000000E+00 0. -1.
         -2   -1    0    0    0  501 -0.00000000000E+00 -0.00000000000E+00 -0.23555516594E+03  0.23555516594E+03  0.00000000000E+00 0.  1.
         23    2    1    2    0    0 -0.23499717204E+02  0.27695610523E+03  0.90551464112E+03  0.95241571241E+03  0.99408264438E+02 0.  0.
        254    2    1    2    0    0  0.23499717204E+02 -0.27695610523E+03  0.83540677976E+03  0.12596160403E+04  0.90081694060E+03 0.  0.
        -24    2    4    4    0    0  0.87710853267E+02  0.26702711070E+02  0.91933967158E+03  0.92774708505E+03  0.84397828900E+02 0.  0.
         24    2    4    4    0    0 -0.64211136063E+02 -0.30365881630E+03 -0.83932891816E+02  0.33186895529E+03  0.82222420578E+02 0.  0.
         13    1    3    3    0    0  0.23723646752E+02  0.14947781772E+03  0.58503827565E+03  0.60429811632E+03  0.00000000000E+00 0. -1.
        -13    1    3    3    0    0 -0.47223363956E+02  0.12747828751E+03  0.32047636546E+03  0.34811759609E+03  0.00000000000E+00 0.  1.
          4    1    6    6  502    0 -0.82981657855E+02 -0.22576386344E+03 -0.70289175024E+02  0.25059099286E+03  0.00000000000E+00 0. -1.
          1    1    5    5  503    0  0.44460878102E+02  0.97025802829E+01  0.14407976345E+03  0.15109562529E+03  0.00000000000E+00 0. -1.
         -2    1    5    5    0  503  0.43249975166E+02  0.17000130787E+02  0.77525990813E+03  0.77665145976E+03  0.00000000000E+00 0.  1.
         -3    1    6    6    0  502  0.18770521791E+02 -0.77894952860E+02 -0.13643716791E+02  0.81277962433E+02  0.00000000000E+00 0.  1.
<mgrwt>
<rscale>  0 0.13646527E+04</rscale>
<asrwt>0</asrwt>
<pdfrwt beam="1">  1        2 0.30407331E+00 0.13646527E+04</pdfrwt>
<pdfrwt beam="2">  1       -2 0.36239258E-01 0.13646527E+04</pdfrwt>
<totfact> 0.48171930E+01</totfact>
</mgrwt>
</event>
<event>
12    1  0.1506149E-007  0.2311681E+04  0.7818608E-02  0.8473330E-01
          1   -1    0    0  501    0  0.00000000000E+00  0.00000000000E+00  0.10832276149E+04  0.10832276149E+04  0.00000000000E+00 0. -1.
         -1   -1    0    0    0  501 -0.00000000000E+00 -0.00000000000E+00 -0.12333205634E+04  0.12333205634E+04  0.00000000000E+00 0.  1.
         23    2    1    2    0    0  0.35334692441E+03  0.90697905413E+03 -0.59881953597E+02  0.98119608285E+03  0.10814273442E+03 0.  0.
        254    2    1    2    0    0 -0.35334692441E+03 -0.90697905413E+03 -0.90210994963E+02  0.13353520954E+04  0.90970442536E+03 0.  0.
        -24    2    4    4    0    0 -0.54137804580E+03 -0.67913858173E+03  0.22035292031E+03  0.89953211519E+03  0.79266733943E+02 0.  0.
         24    2    4    4    0    0  0.18803112139E+03 -0.22784047241E+03 -0.31056391528E+03  0.43581998024E+03  0.78880455277E+02 0.  0.
         11    1    3    3    0    0  0.29674770292E+02  0.86372736113E+02  0.25825329894E+02  0.94909373613E+02  0.00000000000E+00 0. -1.
        -11    1    3    3    0    0  0.32367215412E+03  0.82060631802E+03 -0.85707283491E+02  0.88628670924E+03  0.00000000000E+00 0.  1.
          4    1    6    6  502    0  0.11273002645E+03 -0.12503882485E+03 -0.23010073069E+03  0.28511245650E+03  0.00000000000E+00 0. -1.
          1    1    5    5  503    0 -0.27627854624E+03 -0.35446106463E+03  0.73444211691E+02  0.45537515708E+03  0.00000000000E+00 0. -1.
         -2    1    5    5    0  503 -0.26509949955E+03 -0.32467751709E+03  0.14690870862E+03  0.44415695811E+03  0.00000000000E+00 0.  1.
         -3    1    6    6    0  502  0.75301094940E+02 -0.10280164755E+03 -0.80463184584E+02  0.15070752374E+03  0.00000000000E+00 0.  1.
<mgrwt>
<rscale>  0 0.23116807E+04</rscale>
<asrwt>0</asrwt>
<pdfrwt beam="1">  1        1 0.16665040E+00 0.23116807E+04</pdfrwt>
<pdfrwt beam="2">  1       -1 0.18974162E+00 0.23116807E+04</pdfrwt>
<totfact> 0.20916711E+00</totfact>
</mgrwt>
</event>
<event>
12    1  0.1738920E-007  0.3271482E+04  0.7818608E-02  0.8170190E-01
          1   -1    0    0  501    0  0.00000000000E+00  0.00000000000E+00  0.22386038897E+04  0.22386038897E+04  0.00000000000E+00 0. -1.
         -1   -1    0    0    0  501 -0.00000000000E+00 -0.00000000000E+00 -0.11952308640E+04  0.11952308640E+04  0.00000000000E+00 0.  1.
         23    2    1    2    0    0 -0.65003144100E+03  0.30572969157E+03  0.18746030388E+04  0.20095176880E+04  0.89516852430E+02 0.  0.
        254    2    1    2    0    0  0.65003144100E+03 -0.30572969157E+03 -0.83123001309E+03  0.14243170657E+04  0.90649007183E+03 0.  0.
        -24    2    4    4    0    0  0.45054288950E+03  0.49724399418E+02 -0.89289895034E+03  0.10042948098E+04  0.76668887016E+02 0.  0.
         24    2    4    4    0    0  0.19948855149E+03 -0.35545409098E+03  0.61668937253E+02  0.42002225590E+03  0.80450883507E+02 0.  0.
         11    1    3    3    0    0 -0.47929710177E+03  0.21149155434E+03  0.14651625593E+04  0.15560063350E+04  0.00000000000E+00 0. -1.
        -11    1    3    3    0    0 -0.17073433922E+03  0.94238137226E+02  0.40944047948E+03  0.45351135304E+03  0.00000000000E+00 0.  1.
          2    1    6    6  502    0  0.46708571994E+02 -0.14266065972E+03 -0.32151228938E+01  0.15014689988E+03  0.00000000000E+00 0. -1.
          3    1    5    5  503    0  0.10175474877E+03  0.73268085950E+01 -0.13780995509E+03  0.17146222541E+03  0.00000000000E+00 0. -1.
         -4    1    5    5    0  503  0.34878814073E+03  0.42397590823E+02 -0.75508899524E+03  0.83283258435E+03  0.00000000000E+00 0.  1.
         -1    1    6    6    0  502  0.15277997950E+03 -0.21279343126E+03  0.64884060146E+02  0.26987535602E+03  0.00000000000E+00 0.  1.
<mgrwt>
<rscale>  0 0.32714819E+04</rscale>
<asrwt>0</asrwt>
<pdfrwt beam="1">  1        1 0.34440060E+00 0.32714819E+04</pdfrwt>
<pdfrwt beam="2">  1       -1 0.18388167E+00 0.32714819E+04</pdfrwt>
<totfact> 0.33281872E-01</totfact>
</mgrwt>
</event>
<event>
12    1  0.1506149E-007  0.1292025E+04  0.7818608E-02  0.9035913E-01
          1   -1    0    0  501    0  0.00000000000E+00  0.00000000000E+00  0.54199923295E+03  0.54199923295E+03  0.00000000000E+00 0. -1.
         -1   -1    0    0    0  501 -0.00000000000E+00 -0.00000000000E+00 -0.76998699735E+03  0.76998699735E+03  0.00000000000E+00 0.  1.
         23    2    1    2    0    0  0.56317486030E+02  0.23183418774E+03 -0.26601799208E+03  0.36891623647E+03  0.91732587343E+02 0.  0.
        254    2    1    2    0    0 -0.56317486030E+02 -0.23183418774E+03  0.38030227676E+02  0.94306999384E+03  0.91160077075E+03 0.  0.
        -24    2    4    4    0    0  0.40729417543E+03  0.12807566568E+01  0.55650871348E+02  0.41872538102E+03  0.79647596039E+02 0.  0.
         24    2    4    4    0    0 -0.46361166146E+03 -0.23311494440E+03 -0.17620643672E+02  0.52434461282E+03  0.73133001905E+02 0.  0.
         11    1    3    3    0    0  0.64433452855E+02  0.10914809836E+03 -0.17434468166E+03  0.21554824343E+03  0.00000000000E+00 0. -1.
        -11    1    3    3    0    0 -0.81159668248E+01  0.12268608938E+03 -0.91673310415E+02  0.15336799303E+03  0.00000000000E+00 0.  1.
          4    1    6    6  502    0 -0.38243815490E+03 -0.21461792935E+03 -0.32602579431E+02  0.43975302854E+03  0.00000000000E+00 0. -1.
          1    1    5    5  503    0  0.12738793640E+03 -0.25189864939E+02 -0.92266952709E+01  0.13018197856E+03  0.00000000000E+00 0. -1.
         -2    1    5    5    0  503  0.27990623903E+03  0.26470621596E+02  0.64877566619E+02  0.28854340247E+03  0.00000000000E+00 0.  1.
         -3    1    6    6    0  502 -0.81173506552E+02 -0.18497015052E+02  0.14981935759E+02  0.84591584279E+02  0.00000000000E+00 0.  1.
<mgrwt>
<rscale>  0 0.12920253E+04</rscale>
<asrwt>0</asrwt>
<pdfrwt beam="1">  1        1 0.83384498E-01 0.12920253E+04</pdfrwt>
<pdfrwt beam="2">  1       -1 0.11845954E+00 0.12920253E+04</pdfrwt>
<totfact> 0.24887432E+01</totfact>
</mgrwt>
</event>
<event>
12    1  0.1506149E-007  0.1562252E+04  0.7818608E-02  0.8844080E-01
         -1   -1    0    0    0  501 -0.00000000000E+00  0.00000000000E+00  0.10749894149E+04  0.10749894149E+04  0.00000000000E+00 0.  1.
          1   -1    0    0  501    0  0.00000000000E+00 -0.00000000000E+00 -0.56759407854E+03  0.56759407854E+03  0.00000000000E+00 0. -1.
         23    2    1    2    0    0  0.10057560840E+03 -0.47159724569E+03  0.15734672918E+02  0.49106956671E+03  0.91555034140E+02 0.  0.
        254    2    1    2    0    0 -0.10057560840E+03  0.47159724569E+03  0.49166066345E+03  0.11515139267E+04  0.92289473957E+03 0.  0.
        -24    2    4    4    0    0 -0.14421168375E+03  0.13386062952E+03 -0.25207009537E+03  0.33050226718E+03  0.83526868530E+02 0.  0.
         24    2    4    4    0    0  0.43636075345E+02  0.33773661616E+03  0.74373075882E+03  0.82101165955E+03  0.70388738701E+02 0.  0.
         13    1    3    3    0    0  0.42802927606E+02 -0.35972901373E+03  0.33947426972E+02  0.36385365427E+03  0.00000000000E+00 0. -1.
        -13    1    3    3    0    0  0.57772680799E+02 -0.11186823196E+03 -0.18212754054E+02  0.12721591244E+03  0.00000000000E+00 0.  1.
          4    1    6    6  502    0  0.16081977887E+02  0.29468279328E+03  0.65884883588E+03  0.72192684339E+03  0.00000000000E+00 0. -1.
          3    1    5    5  503    0 -0.12070929316E+03  0.13847583923E+03 -0.19148250293E+03  0.26535229495E+03  0.00000000000E+00 0. -1.
         -4    1    5    5    0  503 -0.23502390592E+02 -0.46152097110E+01 -0.60587592445E+02  0.65149972237E+02  0.00000000000E+00 0.  1.
         -3    1    6    6    0  502  0.27554097458E+02  0.43053822887E+02  0.84881922941E+02  0.99084816163E+02  0.00000000000E+00 0.  1.
<mgrwt>
<rscale>  0 0.15622517E+04</rscale>
<asrwt>0</asrwt>
<pdfrwt beam="1">  1        1 0.87322166E-01 0.15622517E+04</pdfrwt>
<pdfrwt beam="2">  1       -1 0.16538299E+00 0.15622517E+04</pdfrwt>
<totfact> 0.95044495E+00</totfact>
</mgrwt>
</event>
<event>
12    1  0.2095440E-007  0.1451993E+04  0.7818608E-02  0.8917020E-01
          1   -1    0    0  501    0  0.00000000000E+00  0.00000000000E+00  0.94218521306E+03  0.94218521306E+03  0.00000000000E+00 0. -1.
         -1   -1    0    0    0  501 -0.00000000000E+00 -0.00000000000E+00 -0.55941305809E+03  0.55941305809E+03  0.00000000000E+00 0.  1.
         23    2    1    2    0    0  0.15985745961E+03 -0.17132581910E+03 -0.26169960079E+03  0.36252401523E+03  0.89610473079E+02 0.  0.
        254    2    1    2    0    0 -0.15985745961E+03  0.17132581910E+03  0.64447175577E+03  0.11390742559E+04  0.90952700500E+03 0.  0.
        -24    2    4    4    0    0 -0.67368027746E+02  0.33080508922E+03  0.80780802670E+03  0.87927751147E+03  0.81269157521E+02 0.  0.
         24    2    4    4    0    0 -0.92489431862E+02 -0.15947927012E+03 -0.16333627093E+03  0.25979674444E+03  0.82629767127E+02 0.  0.
         11    1    3    3    0    0  0.15318396761E+03 -0.18171298340E+03 -0.24137231799E+03  0.33874109902E+03  0.00000000000E+00 0.  1.
        -11    1    3    3    0    0  0.66734919966E+01  0.10387164307E+02 -0.20327282800E+02  0.23782916217E+02  0.00000000000E+00 0. -1.
          2    1    6    6  502    0 -0.66280673566E+02 -0.15721676551E+03 -0.15883762745E+03  0.23310862477E+03  0.00000000000E+00 0. -1.
          3    1    5    5  503    0 -0.76231872441E+02  0.24171299404E+03  0.65274252818E+03  0.70022087798E+03  0.00000000000E+00 0. -1.
         -4    1    5    5    0  503  0.88638446952E+01  0.89092095182E+02  0.15506549852E+03  0.17905663349E+03  0.00000000000E+00 0.  1.
         -1    1    6    6    0  502 -0.26208758296E+02 -0.22625046087E+01 -0.44986434806E+01  0.26688119673E+02  0.00000000000E+00 0.  1.
<mgrwt>
<rscale>  0 0.14519927E+04</rscale>
<asrwt>0</asrwt>
<pdfrwt beam="1">  1        1 0.14495157E+00 0.14519927E+04</pdfrwt>
<pdfrwt beam="2">  1       -1 0.86063548E-01 0.14519927E+04</pdfrwt>
<totfact> 0.21766098E+01</totfact>
</mgrwt>
</event>
<event>
12    1  0.1506149E-007  0.1885664E+04  0.7818608E-02  0.8662025E-01
          2   -1    0    0  501    0  0.00000000000E+00  0.00000000000E+00  0.26064900911E+04  0.26064900911E+04  0.00000000000E+00 0. -1.
         -2   -1    0    0    0  501 -0.00000000000E+00 -0.00000000000E+00 -0.34104572838E+03  0.34104572838E+03  0.00000000000E+00 0.  1.
         23    2    1    2    0    0 -0.62841049891E+03 -0.34105610459E+03  0.10683282191E+04  0.12886202110E+04  0.89430660012E+02 0.  0.
        254    2    1    2    0    0  0.62841049891E+03  0.34105610459E+03  0.11971161436E+04  0.16589156084E+04  0.89871848374E+03 0.  0.
        -24    2    4    4    0    0  0.20898848531E+03 -0.14076736357E+03  0.92116820199E+03  0.95839326996E+03  0.80468415600E+02 0.  0.
         24    2    4    4    0    0  0.41942201360E+03  0.48182346816E+03  0.27594794163E+03  0.70052233848E+03  0.80719268221E+02 0.  0.
         13    1    3    3    0    0 -0.31827847405E+03 -0.13697028377E+03  0.45908096233E+03  0.57516725885E+03  0.00000000000E+00 0.  1.
        -13    1    3    3    0    0 -0.31013202486E+03 -0.20408582082E+03  0.60924725673E+03  0.71345295215E+03  0.00000000000E+00 0. -1.
          2    1    6    6  502    0  0.39411689542E+03  0.44540568620E+03  0.23288960438E+03  0.63871114002E+03  0.00000000000E+00 0. -1.
          1    1    5    5  503    0  0.13197600193E+03 -0.13249975636E+03  0.65931425318E+03  0.68532410943E+03  0.00000000000E+00 0. -1.
         -2    1    5    5    0  503  0.77012483383E+02 -0.82676072176E+01  0.26185394881E+03  0.27306916053E+03  0.00000000000E+00 0.  1.
         -1    1    6    6    0  502  0.25305118182E+02  0.36417781959E+02  0.43058337250E+02  0.61811198465E+02  0.00000000000E+00 0.  1.
<mgrwt>
<rscale>  0 0.18856641E+04</rscale>
<asrwt>0</asrwt>
<pdfrwt beam="1">  1        2 0.40099846E+00 0.18856641E+04</pdfrwt>
<pdfrwt beam="2">  1       -2 0.52468575E-01 0.18856641E+04</pdfrwt>
<totfact> 0.97075973E+00</totfact>
</mgrwt>
</event>
<event>
12    1  0.1506149E-007  0.1412384E+04  0.7818608E-02  0.8944903E-01
         -2   -1    0    0    0  501 -0.00000000000E+00  0.00000000000E+00  0.79491089523E+03  0.79491089523E+03  0.00000000000E+00 0. -1.
          2   -1    0    0  501    0  0.00000000000E+00 -0.00000000000E+00 -0.62737450157E+03  0.62737450157E+03  0.00000000000E+00 0.  1.
         23    2    1    2    0    0  0.15104993110E+03 -0.17541617511E+03 -0.28796690615E+03  0.37995973960E+03  0.88642814139E+02 0.  0.
        254    2    1    2    0    0 -0.15104993110E+03  0.17541617511E+03  0.45550329981E+03  0.10423256572E+04  0.90850019447E+03 0.  0.
        -24    2    4    4    0    0 -0.23599732758E+03 -0.37773097479E+02 -0.21349989961E+03  0.33054502161E+03  0.80970727188E+02 0.  0.
         24    2    4    4    0    0  0.84947396478E+02  0.21318927259E+03  0.66900319942E+03  0.71178063559E+03  0.80004163930E+02 0.  0.
         11    1    3    3    0    0  0.71664573068E+02 -0.29307886931E+02 -0.12564216393E+03  0.14758291441E+03  0.00000000000E+00 0.  1.
        -11    1    3    3    0    0  0.79385358032E+02 -0.14610828818E+03 -0.16232474222E+03  0.23237682518E+03  0.00000000000E+00 0. -1.
          2    1    6    6  502    0  0.15656106578E+02  0.36375391145E+01  0.10336183971E+03  0.10460408821E+03  0.00000000000E+00 0. -1.
          1    1    5    5  503    0 -0.87791180070E+01  0.11879063133E+02 -0.32953558012E+02  0.36112629918E+02  0.00000000000E+00 0. -1.
         -2    1    5    5    0  503 -0.22721820957E+03 -0.49652160612E+02 -0.18054634160E+03  0.29443239170E+03  0.00000000000E+00 0.  1.
         -1    1    6    6    0  502  0.69291289900E+02  0.20955173347E+03  0.56564135972E+03  0.60717654737E+03  0.00000000000E+00 0.  1.
<mgrwt>
<rscale>  0 0.14123836E+04</rscale>
<asrwt>0</asrwt>
<pdfrwt beam="1">  1        2 0.96519154E-01 0.14123836E+04</pdfrwt>
<pdfrwt beam="2">  1       -2 0.12229398E+00 0.14123836E+04</pdfrwt>
<totfact> 0.23129824E+01</totfact>
</mgrwt>
</event>
<event>
12    1  0.1506149E-007  0.1644585E+04  0.7818608E-02  0.8793616E-01
          2   -1    0    0  501    0  0.00000000000E+00  0.00000000000E+00  0.57455019365E+03  0.57455019365E+03  0.00000000000E+00 0. -1.
         -2   -1    0    0    0  501 -0.00000000000E+00 -0.00000000000E+00 -0.11768599354E+04  0.11768599354E+04  0.00000000000E+00 0.  1.
         23    2    1    2    0    0 -0.34019238163E+02 -0.38465309598E+03  0.25021235128E+03  0.46919161831E+03  0.91756422910E+02 0.  0.
        254    2    1    2    0    0  0.34019238163E+02  0.38465309598E+03 -0.85252209306E+03  0.12822185108E+04  0.87645597574E+03 0.  0.
        -24    2    4    4    0    0  0.21713962915E+03  0.56993233120E+03 -0.79109463094E+03  0.10029217460E+04  0.89715287838E+02 0.  0.
         24    2    4    4    0    0 -0.18312039099E+03 -0.18527923522E+03 -0.61427462123E+02  0.27929676474E+03  0.79824038307E+02 0.  0.
         11    1    3    3    0    0 -0.32047351387E+02 -0.38159739716E+03  0.22589403965E+03  0.44460288281E+03  0.00000000000E+00 0. -1.
        -11    1    3    3    0    0 -0.19718867757E+01 -0.30556988151E+01  0.24318311636E+02  0.24588735501E+02  0.00000000000E+00 0.  1.
          4    1    6    6  502    0 -0.85313834503E+02 -0.51704622835E+02 -0.54321516128E+02  0.11358981246E+03  0.00000000000E+00 0. -1.
          3    1    5    5  503    0 -0.28827653845E+01  0.71842577178E+01 -0.30844190019E+02  0.31800753971E+02  0.00000000000E+00 0. -1.
         -4    1    5    5    0  503  0.22002239453E+03  0.56274807348E+03 -0.76025044092E+03  0.97112099206E+03  0.00000000000E+00 0.  1.
         -3    1    6    6    0  502 -0.97806556484E+02 -0.13357461239E+03 -0.71059459947E+01  0.16570695228E+03  0.00000000000E+00 0.  1.
<mgrwt>
<rscale>  0 0.16445852E+04</rscale>
<asrwt>0</asrwt>
<pdfrwt beam="1">  1        2 0.88392339E-01 0.16445852E+04</pdfrwt>
<pdfrwt beam="2">  1       -2 0.18105537E+00 0.16445852E+04</pdfrwt>
<totfact> 0.88961742E+00</totfact>
</mgrwt>
</event>
<event>
12    1  0.1506149E-007  0.1771991E+04  0.7818608E-02  0.8721338E-01
         -1   -1    0    0    0  501 -0.00000000000E+00  0.00000000000E+00  0.35182413752E+03  0.35182413752E+03  0.00000000000E+00 0.  1.
          1   -1    0    0  501    0  0.00000000000E+00 -0.00000000000E+00 -0.22311951178E+04  0.22311951178E+04  0.00000000000E+00 0. -1.
         23    2    1    2    0    0  0.21110505478E+03  0.19565126664E+03 -0.15545455554E+04  0.15835809247E+04  0.90949981944E+02 0.  0.
        254    2    1    2    0    0 -0.21110505478E+03 -0.19565126664E+03 -0.32482542489E+03  0.99943833055E+03  0.90028920777E+03 0.  0.
        -24    2    4    4    0    0 -0.47621416451E+03  0.11968398100E+03 -0.29431788333E+03  0.57792085070E+03  0.79153695015E+02 0.  0.
         24    2    4    4    0    0  0.26510910974E+03 -0.31533524764E+03 -0.30507541565E+02  0.42151747986E+03  0.83827902673E+02 0.  0.
         13    1    3    3    0    0  0.18350591163E+03  0.20113776549E+03 -0.13573600873E+04  0.13843977849E+04  0.00000000000E+00 0. -1.
        -13    1    3    3    0    0  0.27599143147E+02 -0.54864988481E+01 -0.19718546808E+03  0.19918313983E+03  0.00000000000E+00 0.  1.
          4    1    6    6  502    0  0.21081173911E+03 -0.25987386083E+03  0.83205287746E+01  0.33473160008E+03  0.00000000000E+00 0. -1.
          3    1    5    5  503    0 -0.36044103938E+03  0.12361324302E+03 -0.21488129891E+03  0.43746079749E+03  0.00000000000E+00 0. -1.
         -4    1    5    5    0  503 -0.11577312513E+03 -0.39292620241E+01 -0.79436584417E+02  0.14046005321E+03  0.00000000000E+00 0.  1.
         -3    1    6    6    0  502  0.54297370629E+02 -0.55461386802E+02 -0.38828070340E+02  0.86785879782E+02  0.00000000000E+00 0.  1.
<mgrwt>
<rscale>  0 0.17719913E+04</rscale>
<asrwt>0</asrwt>
<pdfrwt beam="1">  1        1 0.34326079E+00 0.17719913E+04</pdfrwt>
<pdfrwt beam="2">  1       -1 0.54126790E-01 0.17719913E+04</pdfrwt>
<totfact> 0.67654027E+00</totfact>
</mgrwt>
</event>
<event>
12    1  0.1506149E-007  0.1535728E+04  0.7818608E-02  0.8861035E-01
          2   -1    0    0  501    0  0.00000000000E+00  0.00000000000E+00  0.34189602416E+03  0.34189602416E+03  0.00000000000E+00 0. -1.
         -2   -1    0    0    0  501 -0.00000000000E+00 -0.00000000000E+00 -0.17245461970E+04  0.17245461970E+04  0.00000000000E+00 0.  1.
         23    2    1    2    0    0  0.10168528963E+02 -0.28400456405E+03 -0.98680649636E+03  0.10306676837E+04  0.87902341485E+02 0.  0.
        254    2    1    2    0    0 -0.10168528963E+02  0.28400456405E+03 -0.39584367645E+03  0.10357745374E+04  0.91398833952E+03 0.  0.
        -24    2    4    4    0    0  0.92946723323E+02  0.59586984373E+03 -0.18181378214E+03  0.63501158346E+03  0.80520157177E+02 0.  0.
         24    2    4    4    0    0 -0.10311525229E+03 -0.31186527968E+03 -0.21402989430E+03  0.40076295395E+03  0.83123051422E+02 0.  0.
         11    1    3    3    0    0  0.11733785063E+02 -0.43500023496E+02 -0.73377826935E+02  0.86105976806E+02  0.00000000000E+00 0. -1.
        -11    1    3    3    0    0 -0.15652560996E+01 -0.24050454055E+03 -0.91342866943E+03  0.94456170692E+03  0.00000000000E+00 0.  1.
          2    1    6    6  502    0 -0.33137023695E+02 -0.19287197692E+03 -0.15902233450E+03  0.25216217934E+03  0.00000000000E+00 0. -1.
          3    1    5    5  503    0  0.43269165161E+01  0.28403119779E+03 -0.92544415470E+02  0.29875895360E+03  0.00000000000E+00 0. -1.
         -4    1    5    5    0  503  0.88619806807E+02  0.31183864594E+03 -0.89269366673E+02  0.33625262986E+03  0.00000000000E+00 0.  1.
         -1    1    6    6    0  502 -0.69978228591E+02 -0.11899330276E+03 -0.55007559807E+02  0.14860077461E+03  0.00000000000E+00 0.  1.
<mgrwt>
<rscale>  0 0.15357285E+04</rscale>
<asrwt>0</asrwt>
<pdfrwt beam="1">  1        2 0.52599388E-01 0.15357285E+04</pdfrwt>
<pdfrwt beam="2">  1       -2 0.26531480E+00 0.15357285E+04</pdfrwt>
<totfact> 0.47385637E+00</totfact>
</mgrwt>
</event>
<event>
12    1  0.1506149E-007  0.1086773E+04  0.7818608E-02  0.9218180E-01
          2   -1    0    0  501    0  0.00000000000E+00  0.00000000000E+00  0.52803125200E+03  0.52803125200E+03  0.00000000000E+00 0. -1.
         -2   -1    0    0    0  501 -0.00000000000E+00 -0.00000000000E+00 -0.55918858870E+03  0.55918858870E+03  0.00000000000E+00 0.  1.
         23    2    1    2    0    0 -0.40602952105E+02 -0.36160429743E+01  0.16181870123E+03  0.19009798236E+03  0.91050949167E+02 0.  0.
        254    2    1    2    0    0  0.40602952105E+02  0.36160429743E+01 -0.19297603793E+03  0.89712185835E+03  0.87517209852E+03 0.  0.
        -24    2    4    4    0    0  0.18231102997E+03  0.17195884297E+03 -0.46734797139E+03  0.53619980793E+03  0.79302915075E+02 0.  0.
         24    2    4    4    0    0 -0.14170807786E+03 -0.16834280000E+03  0.27437193346E+03  0.36092205042E+03  0.81020312047E+02 0.  0.
         11    1    3    3    0    0 -0.50288357717E+02 -0.25229430287E+02  0.48348467220E+02  0.74182325098E+02  0.00000000000E+00 0.  1.
        -11    1    3    3    0    0  0.96854056118E+01  0.21613387312E+02  0.11347023401E+03  0.11591565726E+03  0.00000000000E+00 0. -1.
          4    1    6    6  502    0 -0.90006802549E+02 -0.95297955383E+02  0.99808404423E+02  0.16475631217E+03  0.00000000000E+00 0. -1.
          3    1    5    5  503    0  0.21191160474E+02 -0.37764492663E+01 -0.20494387499E+02  0.29721150217E+02  0.00000000000E+00 0. -1.
         -4    1    5    5    0  503  0.16111986950E+03  0.17573529224E+03 -0.44685358389E+03  0.50647865771E+03  0.00000000000E+00 0.  1.
         -3    1    6    6    0  502 -0.51701275315E+02 -0.73044844617E+02  0.17456352903E+03  0.19616573825E+03  0.00000000000E+00 0.  1.
<mgrwt>
<rscale>  0 0.10867733E+04</rscale>
<asrwt>0</asrwt>
<pdfrwt beam="1">  1        2 0.81235577E-01 0.10867733E+04</pdfrwt>
<pdfrwt beam="2">  1       -2 0.86029013E-01 0.10867733E+04</pdfrwt>
<totfact> 0.67327973E+01</totfact>
</mgrwt>
</event>
<event>
12    1  0.1506149E-007  0.3576025E+04  0.7818608E-02  0.8096006E-01
          2   -1    0    0  501    0  0.00000000000E+00  0.00000000000E+00  0.21963448353E+04  0.21963448353E+04  0.00000000000E+00 0. -1.
         -2   -1    0    0    0  501 -0.00000000000E+00 -0.00000000000E+00 -0.14555948588E+04  0.14555948588E+04  0.00000000000E+00 0.  1.
         23    2    1    2    0    0  0.12641786917E+04 -0.79530242209E+03 -0.36902210107E+03  0.15410986936E+04  0.90300416727E+02 0.  0.
        254    2    1    2    0    0 -0.12641786917E+04  0.79530242209E+03  0.11097720775E+04  0.21108410005E+04  0.99669551933E+03 0.  0.
        -24    2    4    4    0    0 -0.12541333043E+04  0.30204378381E+03  0.86036621888E+03  0.15527016622E+04  0.81065584794E+02 0.  0.
         24    2    4    4    0    0 -0.10045387399E+02  0.49325863828E+03  0.24940585862E+03  0.55813933826E+03  0.76884618448E+02 0.  0.
         13    1    3    3    0    0  0.46101422296E+03 -0.27841101497E+03 -0.89731132908E+02  0.54598395878E+03  0.00000000000E+00 0.  1.
        -13    1    3    3    0    0  0.80316446873E+03 -0.51689140712E+03 -0.27929096817E+03  0.99511473483E+03  0.00000000000E+00 0. -1.
          2    1    6    6  502    0  0.31067729025E+02  0.13689158070E+03  0.77508560307E+02  0.16034988486E+03  0.00000000000E+00 0. -1.
          3    1    5    5  503    0 -0.18794565504E+03  0.46654324170E+02  0.95525358824E+02  0.21592889892E+03  0.00000000000E+00 0. -1.
         -4    1    5    5    0  503 -0.10661876493E+04  0.25538945964E+03  0.76484086005E+03  0.13367727633E+04  0.00000000000E+00 0.  1.
         -1    1    6    6    0  502 -0.41113116424E+02  0.35636705758E+03  0.17189729831E+03  0.39778945340E+03  0.00000000000E+00 0.  1.
<mgrwt>
<rscale>  0 0.35760247E+04</rscale>
<asrwt>0</asrwt>
<pdfrwt beam="1">  1        2 0.33789921E+00 0.35760247E+04</pdfrwt>
<pdfrwt beam="2">  1       -2 0.22393767E+00 0.35760247E+04</pdfrwt>
<totfact> 0.39545329E-01</totfact>
</mgrwt>
</event>
<event>
12    1  0.1506149E-007  0.1499510E+04  0.7818608E-02  0.8884779E-01
          2   -1    0    0  501    0  0.00000000000E+00  0.00000000000E+00  0.84206589526E+03  0.84206589526E+03  0.00000000000E+00 0. -1.
         -2   -1    0    0    0  501 -0.00000000000E+00 -0.00000000000E+00 -0.66756405723E+03  0.66756405723E+03  0.00000000000E+00 0.  1.
         23    2    1    2    0    0  0.32331761439E+03 -0.32886994017E+03 -0.53672789183E+02  0.47315795436E+03  0.91148034271E+02 0.  0.
        254    2    1    2    0    0 -0.32331761439E+03  0.32886994017E+03  0.22817462721E+03  0.10364719981E+04  0.89973375233E+03 0.  0.
        -24    2    4    4    0    0 -0.20519158121E+03  0.39140167174E+03 -0.26404122159E+03  0.52092634165E+03  0.79672034536E+02 0.  0.
         24    2    4    4    0    0 -0.11812603318E+03 -0.62531731571E+02  0.49221584879E+03  0.51554565648E+03  0.75145891043E+02 0.  0.
         13    1    3    3    0    0  0.24099702612E+03 -0.26622972518E+03 -0.76644051586E+02  0.36719496703E+03  0.00000000000E+00 0.  1.
        -13    1    3    3    0    0  0.82320588279E+02 -0.62640214991E+02  0.22971262403E+02  0.10596298734E+03  0.00000000000E+00 0. -1.
          2    1    6    6  502    0 -0.12299359230E+03 -0.38599817265E+02  0.41277900166E+03  0.43243944530E+03  0.00000000000E+00 0. -1.
          3    1    5    5  503    0 -0.10248293556E+03  0.24103249408E+03 -0.19350640033E+03  0.32564419579E+03  0.00000000000E+00 0. -1.
         -4    1    5    5    0  503 -0.10270864565E+03  0.15036917766E+03 -0.70534821252E+02  0.19528214586E+03  0.00000000000E+00 0.  1.
         -1    1    6    6    0  502  0.48675591125E+01 -0.23931914305E+02  0.79436847136E+02  0.83106211182E+02  0.00000000000E+00 0.  1.
<mgrwt>
<rscale>  0 0.14995105E+04</rscale>
<asrwt>0</asrwt>
<pdfrwt beam="1">  1        2 0.12954860E+00 0.14995105E+04</pdfrwt>
<pdfrwt beam="2">  1       -2 0.10270216E+00 0.14995105E+04</pdfrwt>
<totfact> 0.24081581E+01</totfact>
</mgrwt>
</event>
<event>
12    1  0.1506149E-007  0.3365374E+04  0.7818608E-02  0.8146457E-01
         -1   -1    0    0    0  501 -0.00000000000E+00  0.00000000000E+00  0.22764718277E+04  0.22764718277E+04  0.00000000000E+00 0.  1.
          1   -1    0    0  501    0  0.00000000000E+00 -0.00000000000E+00 -0.12437825663E+04  0.12437825663E+04  0.00000000000E+00 0. -1.
         23    2    1    2    0    0 -0.93276836268E+03 -0.52425006672E+02  0.17963573495E+04  0.20268640930E+04  0.92049577453E+02 0.  0.
        254    2    1    2    0    0  0.93276836268E+03  0.52425006672E+02 -0.76366808816E+03  0.14933903009E+04  0.87989797265E+03 0.  0.
        -24    2    4    4    0    0  0.69817651201E+03  0.99104091431E+02 -0.22618498049E+02  0.71046865550E+03  0.83558668805E+02 0.  0.
         24    2    4    4    0    0  0.23459185067E+03 -0.46679084759E+02 -0.74104959011E+03  0.78292164543E+03  0.81237519187E+02 0.  0.
         13    1    3    3    0    0 -0.61841454123E+03 -0.58917388685E+02  0.12688609631E+04  0.14127688938E+04  0.00000000000E+00 0. -1.
        -13    1    3    3    0    0 -0.31435382145E+03  0.64923820137E+01  0.52749638642E+03  0.61409519927E+03  0.00000000000E+00 0.  1.
          2    1    6    6  502    0  0.10453729981E+02  0.14599624376E+02 -0.31078733328E+02  0.35893135384E+02  0.00000000000E+00 0. -1.
          1    1    5    5  503    0  0.24793944183E+03  0.62071430978E+01 -0.35632094759E+02  0.25056364784E+03  0.00000000000E+00 0. -1.
         -4    1    5    5    0  503  0.45023707017E+03  0.92896948333E+02  0.13013596709E+02  0.45990500766E+03  0.00000000000E+00 0.  1.
         -1    1    6    6    0  502  0.22413812069E+03 -0.61278709135E+02 -0.70997085678E+03  0.74702851004E+03  0.00000000000E+00 0.  1.
<mgrwt>
<rscale>  0 0.33653743E+04</rscale>
<asrwt>0</asrwt>
<pdfrwt beam="1">  1        1 0.19135116E+00 0.33653743E+04</pdfrwt>
<pdfrwt beam="2">  1       -1 0.35022643E+00 0.33653743E+04</pdfrwt>
<totfact> 0.12679577E-01</totfact>
</mgrwt>
</event>
<event>
12    1  0.1506149E-007  0.1520982E+04  0.7818608E-02  0.8870619E-01
          1   -1    0    0  501    0  0.00000000000E+00  0.00000000000E+00  0.18867030661E+04  0.18867030661E+04  0.00000000000E+00 0. -1.
         -1   -1    0    0    0  501 -0.00000000000E+00 -0.00000000000E+00 -0.30653826788E+03  0.30653826788E+03  0.00000000000E+00 0.  1.
         23    2    1    2    0    0 -0.97682555642E+02 -0.17713767258E+03  0.11635069108E+04  0.11843493225E+04  0.89528484108E+02 0.  0.
        254    2    1    2    0    0  0.97682555642E+02  0.17713767258E+03  0.41665788735E+03  0.10088920114E+04  0.89629217273E+03 0.  0.
        -24    2    4    4    0    0  0.10051708020E+03 -0.25965640288E+03 -0.11933192614E+03  0.31303495469E+03  0.78902745802E+02 0.  0.
         24    2    4    4    0    0 -0.28345245539E+01  0.43679407546E+03  0.53598981349E+03  0.69585705673E+03  0.78325374889E+02 0.  0.
         11    1    3    3    0    0  0.67859453448E+00 -0.25779572680E+02  0.49524400866E+02  0.55836485735E+02  0.00000000000E+00 0.  1.
        -11    1    3    3    0    0 -0.98361150176E+02 -0.15135809990E+03  0.11139825100E+04  0.11285128368E+04  0.00000000000E+00 0. -1.
          2    1    6    6  502    0  0.15205460270E+02  0.60880706501E+02  0.11624068256E+03  0.13209679303E+03  0.00000000000E+00 0. -1.
          3    1    5    5  503    0  0.85954384748E+02 -0.11643679065E+03 -0.48844268351E+02  0.15274634210E+03  0.00000000000E+00 0. -1.
         -4    1    5    5    0  503  0.14562695448E+02 -0.14321961223E+03 -0.70487657789E+02  0.16028861259E+03  0.00000000000E+00 0.  1.
         -1    1    6    6    0  502 -0.18039984824E+02  0.37591336896E+03  0.41974913092E+03  0.56376026370E+03  0.00000000000E+00 0.  1.
<mgrwt>
<rscale>  0 0.15209822E+04</rscale>
<asrwt>0</asrwt>
<pdfrwt beam="1">  1        1 0.29026200E+00 0.15209822E+04</pdfrwt>
<pdfrwt beam="2">  1       -1 0.47159735E-01 0.15209822E+04</pdfrwt>
<totfact> 0.15411135E+01</totfact>
</mgrwt>
</event>
<event>
12    1  0.1506149E-007  0.1252971E+04  0.7818608E-02  0.9067715E-01
          2   -1    0    0  501    0  0.00000000000E+00  0.00000000000E+00  0.81763497484E+03  0.81763497484E+03  0.00000000000E+00 0. -1.
         -2   -1    0    0    0  501 -0.00000000000E+00 -0.00000000000E+00 -0.48002322750E+03  0.48002322750E+03  0.00000000000E+00 0.  1.
         23    2    1    2    0    0  0.89453911928E+02  0.18809762624E+03  0.29444806725E+03  0.37268897437E+03  0.93886569590E+02 0.  0.
        254    2    1    2    0    0 -0.89453911928E+02 -0.18809762624E+03  0.43163680091E+02  0.92496922798E+03  0.90017901001E+03 0.  0.
        -24    2    4    4    0    0 -0.60561777015E+02 -0.10749997391E+03 -0.42120748053E+03  0.44616995297E+03  0.80174260525E+02 0.  0.
         24    2    4    4    0    0 -0.28892134913E+02 -0.80597652336E+02  0.46437116062E+03  0.47879927501E+03  0.79230258817E+02 0.  0.
         11    1    3    3    0    0  0.16157263918E+02  0.10653007024E+03  0.20331910084E+03  0.23010512773E+03  0.00000000000E+00 0. -1.
        -11    1    3    3    0    0  0.73296648009E+02  0.81567556005E+02  0.91128966410E+02  0.14258384663E+03  0.00000000000E+00 0.  1.
          2    1    6    6  502    0  0.19648802677E+01 -0.26932503713E+02  0.31355137248E+02  0.41380733953E+02  0.00000000000E+00 0. -1.
          3    1    5    5  503    0  0.17735150701E+02 -0.36658989496E+02 -0.13958121829E+03  0.14540059691E+03  0.00000000000E+00 0. -1.
         -4    1    5    5    0  503 -0.78296927716E+02 -0.70840984412E+02 -0.28162626224E+03  0.30076935606E+03  0.00000000000E+00 0.  1.
         -1    1    6    6    0  502 -0.30857015180E+02 -0.53665148624E+02  0.43301602337E+03  0.43741854106E+03  0.00000000000E+00 0.  1.
<mgrwt>
<rscale>  0 0.12529705E+04</rscale>
<asrwt>0</asrwt>
<pdfrwt beam="1">  1        2 0.12579000E+00 0.12529705E+04</pdfrwt>
<pdfrwt beam="2">  1       -2 0.73849727E-01 0.12529705E+04</pdfrwt>
<totfact> 0.54382451E+01</totfact>
</mgrwt>
</event>
<event>
12    1  0.1506149E-007  0.2732876E+04  0.7818608E-02  0.8324416E-01
         -1   -1    0    0    0  501 -0.00000000000E+00  0.00000000000E+00  0.13481706523E+04  0.13481706523E+04  0.00000000000E+00 0.  1.
          1   -1    0    0  501    0  0.00000000000E+00 -0.00000000000E+00 -0.13849524895E+04  0.13849524895E+04  0.00000000000E+00 0. -1.
         23    2    1    2    0    0  0.92597760539E+03 -0.50252672678E+03  0.56900392907E+03  0.12017433881E+04  0.10224511099E+03 0.  0.
        254    2    1    2    0    0 -0.92597760539E+03  0.50252672678E+03 -0.60578576629E+03  0.15313797537E+04  0.93176172841E+03 0.  0.
        -24    2    4    4    0    0 -0.88738703979E+03  0.53820844719E+03 -0.13394410907E+03  0.10496822104E+04  0.82265590860E+02 0.  0.
         24    2    4    4    0    0 -0.38590565597E+02 -0.35681720411E+02 -0.47184165721E+03  0.48169754329E+03  0.81458927097E+02 0.  0.
         13    1    3    3    0    0  0.86715082970E+03 -0.49653973732E+03  0.54128475977E+03  0.11364380596E+04  0.00000000000E+00 0. -1.
        -13    1    3    3    0    0  0.58826775688E+02 -0.59869894579E+01  0.27719169300E+02  0.65305328475E+02  0.00000000000E+00 0.  1.
          2    1    6    6  502    0  0.22742163264E+02 -0.57740530615E+00 -0.17949357320E+03  0.18092949513E+03  0.00000000000E+00 0. -1.
          3    1    5    5  503    0 -0.37234718212E+03  0.18219605783E+03 -0.38089663168E+02  0.41627953344E+03  0.00000000000E+00 0. -1.
         -4    1    5    5    0  503 -0.51503985767E+03  0.35601238936E+03 -0.95854445906E+02  0.63340267695E+03  0.00000000000E+00 0.  1.
         -1    1    6    6    0  502 -0.61332728862E+02 -0.35104315105E+02 -0.29234808401E+03  0.30076804816E+03  0.00000000000E+00 0.  1.
<mgrwt>
<rscale>  0 0.27328756E+04</rscale>
<asrwt>0</asrwt>
<pdfrwt beam="1">  1        1 0.21306961E+00 0.27328756E+04</pdfrwt>
<pdfrwt beam="2">  1       -1 0.20741087E+00 0.27328756E+04</pdfrwt>
<totfact> 0.91774131E-01</totfact>
</mgrwt>
</event>
<event>
12    1  0.1506149E-007  0.1173894E+04  0.7818608E-02  0.9136019E-01
          2   -1    0    0  501    0  0.00000000000E+00  0.00000000000E+00  0.15079928883E+04  0.15079928883E+04  0.00000000000E+00 0. -1.
         -2   -1    0    0    0  501 -0.00000000000E+00 -0.00000000000E+00 -0.22845396672E+03  0.22845396672E+03  0.00000000000E+00 0.  1.
         23    2    1    2    0    0  0.15867032285E+03  0.17229576667E+03  0.30478430730E+03  0.39411411957E+03  0.87007831272E+02 0.  0.
        254    2    1    2    0    0 -0.15867032285E+03 -0.17229576667E+03  0.97475461428E+03  0.13423327354E+04  0.89266371720E+03 0.  0.
        -24    2    4    4    0    0  0.28019302316E+03  0.18433548548E+03  0.44864617164E+03  0.56591478514E+03  0.80550948316E+02 0.  0.
         24    2    4    4    0    0 -0.43886334602E+03 -0.35663125216E+03  0.52610844263E+03  0.77641795030E+03  0.79043365562E+02 0.  0.
         11    1    3    3    0    0  0.14679971978E+03  0.12193631566E+03  0.27400282087E+03  0.33391042010E+03  0.00000000000E+00 0. -1.
        -11    1    3    3    0    0  0.11870603074E+02  0.50359451012E+02  0.30781486423E+02  0.60203699471E+02  0.00000000000E+00 0.  1.
          4    1    6    6  502    0 -0.95944586385E+02 -0.92934138062E+02  0.83518094060E+02  0.15753536019E+03  0.00000000000E+00 0. -1.
          1    1    5    5  503    0  0.76604727306E+02  0.22665465824E+02  0.67702571101E+02  0.10471697914E+03  0.00000000000E+00 0. -1.
         -2    1    5    5    0  503  0.20358829586E+03  0.16167001966E+03  0.38094360054E+03  0.46119780600E+03  0.00000000000E+00 0.  1.
         -3    1    6    6    0  502 -0.34291875963E+03 -0.26369711410E+03  0.44259034857E+03  0.61888259011E+03  0.00000000000E+00 0.  1.
<mgrwt>
<rscale>  0 0.11738943E+04</rscale>
<asrwt>0</asrwt>
<pdfrwt beam="1">  1        2 0.23199890E+00 0.11738943E+04</pdfrwt>
<pdfrwt beam="2">  1       -2 0.35146765E-01 0.11738943E+04</pdfrwt>
<totfact> 0.94304419E+01</totfact>
</mgrwt>
</event>
<event>
12    1  0.1506149E-007  0.1130860E+04  0.7818608E-02  0.9175625E-01
          2   -1    0    0  501    0  0.00000000000E+00  0.00000000000E+00  0.97354230899E+03  0.97354230899E+03  0.00000000000E+00 0. -1.
         -2   -1    0    0    0  501 -0.00000000000E+00 -0.00000000000E+00 -0.32839986755E+03  0.32839986755E+03  0.00000000000E+00 0.  1.
         23    2    1    2    0    0  0.16224169680E+03  0.17671288286E+02 -0.94964985906E+00  0.18594074821E+03  0.89097796839E+02 0.  0.
        254    2    1    2    0    0 -0.16224169680E+03 -0.17671288286E+02  0.64609209130E+03  0.11160014283E+04  0.89520363884E+03 0.  0.
        -24    2    4    4    0    0 -0.23133339431E+03 -0.26212175957E+03 -0.56688238903E+02  0.36450929186E+03  0.86200413335E+02 0.  0.
         24    2    4    4    0    0  0.69091697511E+02  0.24445047128E+03  0.70278033020E+03  0.75149213648E+03  0.79438926855E+02 0.  0.
         11    1    3    3    0    0 -0.34643011888E+01 -0.12525140558E+02 -0.11253878453E+02  0.17190994996E+02  0.00000000000E+00 0.  1.
        -11    1    3    3    0    0  0.16570599798E+03  0.30196428844E+02  0.10304228594E+02  0.16874975321E+03  0.00000000000E+00 0. -1.
          4    1    6    6  502    0  0.82043369054E+02  0.23157402979E+03  0.67427415203E+03  0.71763728845E+03  0.00000000000E+00 0. -1.
          1    1    5    5  503    0 -0.22865270588E+03 -0.23487982056E+03 -0.68195866605E+02  0.33481527181E+03  0.00000000000E+00 0. -1.
         -4    1    5    5    0  503 -0.26806884256E+01 -0.27241939008E+02  0.11507627703E+02  0.29694020049E+02  0.00000000000E+00 0.  1.
         -3    1    6    6    0  502 -0.12951671543E+02  0.12876441488E+02  0.28506178172E+02  0.33854848030E+02  0.00000000000E+00 0.  1.
<mgrwt>
<rscale>  0 0.11308601E+04</rscale>
<asrwt>0</asrwt>
<pdfrwt beam="1">  1        2 0.14977574E+00 0.11308601E+04</pdfrwt>
<pdfrwt beam="2">  1       -2 0.50523057E-01 0.11308601E+04</pdfrwt>
<totfact> 0.96182072E+01</totfact>
</mgrwt>
</event>
<event>
12    1  0.1506149E-007  0.1162188E+04  0.7818608E-02  0.9146613E-01
         -2   -1    0    0    0  501 -0.00000000000E+00  0.00000000000E+00  0.48083301063E+03  0.48083301063E+03  0.00000000000E+00 0.  1.
          2   -1    0    0  501    0  0.00000000000E+00 -0.00000000000E+00 -0.70226104944E+03  0.70226104944E+03  0.00000000000E+00 0. -1.
         23    2    1    2    0    0  0.15102070480E+03 -0.97622647253E+02  0.84586622166E+02  0.21753231367E+03  0.88475851534E+02 0.  0.
        254    2    1    2    0    0 -0.15102070480E+03  0.97622647253E+02 -0.30601466097E+03  0.96556174641E+03  0.89795716984E+03 0.  0.
        -24    2    4    4    0    0 -0.64255488562E+02  0.22307502694E+03 -0.58613376287E+03  0.63599165364E+03  0.83912812345E+02 0.  0.
         24    2    4    4    0    0 -0.86765216239E+02 -0.12545237969E+03  0.28011910190E+03  0.32957009276E+03  0.82965248631E+02 0.  0.
         13    1    3    3    0    0  0.14920166563E+03 -0.59352554107E+02  0.57281529628E+02  0.17048470999E+03  0.00000000000E+00 0. -1.
        -13    1    3    3    0    0  0.18190391737E+01 -0.38270093146E+02  0.27305092538E+02  0.47047603674E+02  0.00000000000E+00 0.  1.
          2    1    6    6  502    0 -0.12663370537E+02 -0.35589765030E+02  0.16220749982E+02  0.41110887344E+02  0.00000000000E+00 0. -1.
          1    1    5    5  503    0 -0.22453816956E+02  0.46212045619E+02 -0.58100354214E+02  0.77558869357E+02  0.00000000000E+00 0. -1.
         -2    1    5    5    0  503 -0.41801671606E+02  0.17686298132E+03 -0.52803340865E+03  0.55843278429E+03  0.00000000000E+00 0.  1.
         -1    1    6    6    0  502 -0.74101845703E+02 -0.89862614656E+02  0.26389835191E+03  0.28845920542E+03  0.00000000000E+00 0.  1.
<mgrwt>
<rscale>  0 0.11621881E+04</rscale>
<asrwt>0</asrwt>
<pdfrwt beam="1">  1        2 0.10804016E+00 0.11621881E+04</pdfrwt>
<pdfrwt beam="2">  1       -2 0.73974309E-01 0.11621881E+04</pdfrwt>
<totfact> 0.66483608E+01</totfact>
</mgrwt>
</event>
<event>
12    1  0.1506149E-007  0.1658773E+04  0.7818608E-02  0.8785233E-01
         -1   -1    0    0    0  501 -0.00000000000E+00  0.00000000000E+00  0.38696320826E+03  0.38696320826E+03  0.00000000000E+00 0.  1.
          1   -1    0    0  501    0  0.00000000000E+00 -0.00000000000E+00 -0.17776413689E+04  0.17776413689E+04  0.00000000000E+00 0. -1.
         23    2    1    2    0    0 -0.35798528159E+03  0.44975743992E+03 -0.56323970321E+03  0.80989989463E+03  0.90904672322E+02 0.  0.
        254    2    1    2    0    0  0.35798528159E+03 -0.44975743992E+03 -0.82743845739E+03  0.13547046825E+04  0.90561314004E+03 0.  0.
        -24    2    4    4    0    0 -0.10993488413E+03 -0.53445382149E+03 -0.61936599324E+03  0.82938075112E+03  0.80818504617E+02 0.  0.
         24    2    4    4    0    0  0.46792016572E+03  0.84696381573E+02 -0.20807246414E+03  0.52532393137E+03  0.80921715253E+02 0.  0.
         13    1    3    3    0    0 -0.33809232043E+03  0.42227503862E+03 -0.55494258003E+03  0.77497347858E+03  0.00000000000E+00 0. -1.
        -13    1    3    3    0    0 -0.19892961160E+02  0.27482401298E+02 -0.82971231817E+01  0.34926416047E+02  0.00000000000E+00 0.  1.
          2    1    6    6  502    0  0.23354239127E+03  0.74633969595E+02 -0.79140206323E+02  0.25763433427E+03  0.00000000000E+00 0. -1.
          3    1    5    5  503    0  0.90050554565E+01 -0.20559597416E+02 -0.14027231914E+02  0.26467929742E+02  0.00000000000E+00 0. -1.
         -4    1    5    5    0  503 -0.11893993958E+03 -0.51389422408E+03 -0.60533876133E+03  0.80291282138E+03  0.00000000000E+00 0.  1.
         -1    1    6    6    0  502  0.23437777445E+03  0.10062411978E+02 -0.12893225782E+03  0.26768959710E+03  0.00000000000E+00 0.  1.
<mgrwt>
<rscale>  0 0.16587728E+04</rscale>
<asrwt>0</asrwt>
<pdfrwt beam="1">  1        1 0.27348329E+00 0.16587728E+04</pdfrwt>
<pdfrwt beam="2">  1       -1 0.59532801E-01 0.16587728E+04</pdfrwt>
<totfact> 0.11525163E+01</totfact>
</mgrwt>
</event>
<event>
12    1  0.1506149E-007  0.2920772E+04  0.7818608E-02  0.8266724E-01
          1   -1    0    0  501    0  0.00000000000E+00  0.00000000000E+00  0.17319372895E+04  0.17319372895E+04  0.00000000000E+00 0. -1.
         -1   -1    0    0    0  501 -0.00000000000E+00 -0.00000000000E+00 -0.12314115560E+04  0.12314115560E+04  0.00000000000E+00 0.  1.
         23    2    1    2    0    0 -0.35403435173E+03  0.12559006952E+04  0.15726135114E+03  0.13174652331E+04  0.91414602114E+02 0.  0.
        254    2    1    2    0    0  0.35403435173E+03 -0.12559006952E+04  0.34326438242E+03  0.16458836123E+04  0.94258981038E+03 0.  0.
        -24    2    4    4    0    0  0.34985443920E+03 -0.20805074284E+03 -0.20260807252E+03  0.46150212486E+03  0.79062886255E+02 0.  0.
         24    2    4    4    0    0  0.41799125351E+01 -0.10478499524E+04  0.54587245494E+03  0.11843814875E+04  0.82315104443E+02 0.  0.
         11    1    3    3    0    0 -0.13157835342E+03  0.44561365126E+03  0.99821195318E+02  0.47523537359E+03  0.00000000000E+00 0. -1.
        -11    1    3    3    0    0 -0.22245599831E+03  0.81028704397E+03  0.57440155819E+02  0.84222985954E+03  0.00000000000E+00 0.  1.
          4    1    6    6  502    0 -0.52804362102E+01 -0.32996894188E+03  0.13004550593E+03  0.35471004952E+03  0.00000000000E+00 0. -1.
          3    1    5    5  503    0  0.13195393340E+03 -0.92210156890E+02 -0.12167734031E+03  0.20179179547E+03  0.00000000000E+00 0. -1.
         -4    1    5    5    0  503  0.21790050579E+03 -0.11584058595E+03 -0.80930732210E+02  0.25971032940E+03  0.00000000000E+00 0.  1.
         -3    1    6    6    0  502  0.94603487453E+01 -0.71788101050E+03  0.41582694901E+03  0.82967143795E+03  0.00000000000E+00 0.  1.
<mgrwt>
<rscale>  0 0.29207722E+04</rscale>
<asrwt>0</asrwt>
<pdfrwt beam="1">  1        1 0.26645189E+00 0.29207722E+04</pdfrwt>
<pdfrwt beam="2">  1       -1 0.18944793E+00 0.29207722E+04</pdfrwt>
<totfact> 0.69246644E-01</totfact>
</mgrwt>
</event>
<event>
12    1  0.1506149E-007  0.1428461E+04  0.7818608E-02  0.8933471E-01
          2   -1    0    0  501    0  0.00000000000E+00  0.00000000000E+00  0.14644252188E+04  0.14644252188E+04  0.00000000000E+00 0. -1.
         -2   -1    0    0    0  501 -0.00000000000E+00 -0.00000000000E+00 -0.34834507573E+03  0.34834507573E+03  0.00000000000E+00 0.  1.
         23    2    1    2    0    0  0.34518357723E+03 -0.12698212193E+02  0.65498753974E+03  0.74617454269E+03  0.91950118899E+02 0.  0.
        254    2    1    2    0    0 -0.34518357723E+03  0.12698212193E+02  0.46109260331E+03  0.10665957518E+04  0.89761192193E+03 0.  0.
        -24    2    4    4    0    0 -0.61742175213E+03  0.15785923893E+03  0.29413643169E+03  0.70647385357E+03  0.80373540484E+02 0.  0.
         24    2    4    4    0    0  0.27223817490E+03 -0.14516102674E+03  0.16695617162E+03  0.36012189825E+03  0.81412964592E+02 0.  0.
         11    1    3    3    0    0  0.11185813520E+03 -0.46856736849E+02  0.20684819348E+03  0.23977900522E+03  0.00000000000E+00 0.  1.
        -11    1    3    3    0    0  0.23332544203E+03  0.34158524656E+02  0.44813934627E+03  0.50639553748E+03  0.00000000000E+00 0. -1.
          2    1    6    6  502    0  0.29979211605E+02  0.81644101908E+01  0.71234223461E+01  0.31877168446E+02  0.00000000000E+00 0. -1.
          1    1    5    5  503    0 -0.17842243897E+03  0.18983417377E+02  0.11074351939E+03  0.21085318103E+03  0.00000000000E+00 0. -1.
         -4    1    5    5    0  503 -0.43899931316E+03  0.13887582156E+03  0.18339291231E+03  0.49562067254E+03  0.00000000000E+00 0.  1.
         -1    1    6    6    0  502  0.24225896329E+03 -0.15332543693E+03  0.15983274928E+03  0.32824472981E+03  0.00000000000E+00 0.  1.
<mgrwt>
<rscale>  0 0.14284611E+04</rscale>
<asrwt>0</asrwt>
<pdfrwt beam="1">  1        2 0.22529619E+00 0.14284611E+04</pdfrwt>
<pdfrwt beam="2">  1       -2 0.53591551E-01 0.14284611E+04</pdfrwt>
<totfact> 0.42367154E+01</totfact>
</mgrwt>
</event>
<event>
12    1  0.1506149E-007  0.2192048E+04  0.7818608E-02  0.8521745E-01
          2   -1    0    0  501    0  0.00000000000E+00  0.00000000000E+00  0.17466412251E+04  0.17466412251E+04  0.00000000000E+00 0. -1.
         -2   -1    0    0    0  501 -0.00000000000E+00 -0.00000000000E+00 -0.68775948206E+03  0.68775948206E+03  0.00000000000E+00 0.  1.
         23    2    1    2    0    0 -0.88033785522E+03 -0.62901416954E+02  0.88636535725E+03  0.12542146992E+04  0.91976287608E+02 0.  0.
        254    2    1    2    0    0  0.88033785522E+03  0.62901416954E+02  0.17251638579E+03  0.11801860080E+04  0.76428121952E+03 0.  0.
        -24    2    4    4    0    0  0.83715390237E+03 -0.18255553188E+03 -0.11181793377E+02  0.86059949740E+03  0.79707489894E+02 0.  0.
         24    2    4    4    0    0  0.43183952852E+02  0.24545694884E+03  0.18369817917E+03  0.31958651060E+03  0.79224675496E+02 0.  0.
         11    1    3    3    0    0 -0.78610577658E+02  0.50399971573E+01  0.48137523912E+02  0.92316009985E+02  0.00000000000E+00 0. -1.
        -11    1    3    3    0    0 -0.80172727757E+03 -0.67941414112E+02  0.83822783334E+03  0.11618986892E+04  0.00000000000E+00 0.  1.
          2    1    6    6  502    0  0.32213020329E+02  0.23573479562E+03  0.14602724754E+03  0.27916398330E+03  0.00000000000E+00 0. -1.
          3    1    5    5  503    0  0.79078292581E+03 -0.17962940853E+03 -0.27389665713E+02  0.81139050645E+03  0.00000000000E+00 0. -1.
         -4    1    5    5    0  503  0.46370976559E+02 -0.29261233537E+01  0.16207872336E+02  0.49208990952E+02  0.00000000000E+00 0.  1.
         -1    1    6    6    0  502  0.10970932522E+02  0.97221532179E+01  0.37670931628E+02  0.40422527300E+02  0.00000000000E+00 0.  1.
<mgrwt>
<rscale>  0 0.21920484E+04</rscale>
<asrwt>0</asrwt>
<pdfrwt beam="1">  1        2 0.26871403E+00 0.21920484E+04</pdfrwt>
<pdfrwt beam="2">  1       -2 0.10580915E+00 0.21920484E+04</pdfrwt>
<totfact> 0.60978790E+00</totfact>
</mgrwt>
</event>
<event>
12    1  0.1506149E-007  0.1146471E+04  0.7818608E-02  0.9161045E-01
         -1   -1    0    0    0  501 -0.00000000000E+00  0.00000000000E+00  0.36192628330E+03  0.36192628330E+03  0.00000000000E+00 0.  1.
          1   -1    0    0  501    0  0.00000000000E+00 -0.00000000000E+00 -0.90791693695E+03  0.90791693695E+03  0.00000000000E+00 0. -1.
         23    2    1    2    0    0  0.92358144642E+02  0.19965099409E+02  0.92811831110E+02  0.16139190977E+03  0.92220824486E+02 0.  0.
        254    2    1    2    0    0 -0.92358144642E+02 -0.19965099409E+02 -0.63880248476E+03  0.11084513105E+04  0.90092566902E+03 0.  0.
        -24    2    4    4    0    0  0.19942208613E+03 -0.32763875454E+03 -0.53829358931E+03  0.66575144146E+03  0.79678551688E+02 0.  0.
         24    2    4    4    0    0 -0.29178023077E+03  0.30767365513E+03 -0.10050889545E+03  0.44269986902E+03  0.77989453361E+02 0.  0.
         13    1    3    3    0    0  0.61449586316E+02  0.11669360745E+02  0.10889142924E+03  0.12557694455E+03  0.00000000000E+00 0.  1.
        -13    1    3    3    0    0  0.30908558326E+02  0.82957386640E+01 -0.16079598135E+02  0.35814965224E+02  0.00000000000E+00 0. -1.
          2    1    6    6  502    0 -0.11670971683E+03  0.12943835806E+03 -0.80754236489E+02  0.19208511981E+03  0.00000000000E+00 0. -1.
          1    1    5    5  503    0  0.77490228267E+02 -0.18220822452E+03 -0.22752357795E+03  0.30161490527E+03  0.00000000000E+00 0. -1.
         -4    1    5    5    0  503  0.12193185786E+03 -0.14543053002E+03 -0.31077001136E+03  0.36413653618E+03  0.00000000000E+00 0.  1.
         -1    1    6    6    0  502 -0.17507051394E+03  0.17823529707E+03 -0.19754658965E+02  0.25061474922E+03  0.00000000000E+00 0.  1.
<mgrwt>
<rscale>  0 0.11464711E+04</rscale>
<asrwt>0</asrwt>
<pdfrwt beam="1">  1        1 0.13967953E+00 0.11464711E+04</pdfrwt>
<pdfrwt beam="2">  1       -1 0.55680967E-01 0.11464711E+04</pdfrwt>
<totfact> 0.58085930E+01</totfact>
</mgrwt>
</event>
<event>
12    1  0.1506149E-007  0.2206464E+04  0.7818608E-02  0.8515743E-01
         -2   -1    0    0    0  501 -0.00000000000E+00  0.00000000000E+00  0.64473499740E+03  0.64473499740E+03  0.00000000000E+00 0.  1.
          2   -1    0    0  501    0  0.00000000000E+00 -0.00000000000E+00 -0.18877844960E+04  0.18877844960E+04  0.00000000000E+00 0. -1.
         23    2    1    2    0    0 -0.54433116059E+03 -0.28536193589E+03 -0.13119254209E+04  0.14515231405E+04  0.89684282230E+02 0.  0.
        254    2    1    2    0    0  0.54433116059E+03  0.28536193589E+03  0.68875922331E+02  0.10809963529E+04  0.88661230278E+03 0.  0.
        -24    2    4    4    0    0 -0.18828924569E+02 -0.26821801409E+03  0.60508779571E+02  0.28692635287E+03  0.79812205104E+02 0.  0.
         24    2    4    4    0    0  0.56316008516E+03  0.55357994999E+03  0.83671427605E+01  0.79407000002E+03  0.82928362469E+02 0.  0.
         11    1    3    3    0    0 -0.27170393856E+03 -0.10120826720E+03 -0.55440197668E+03  0.62564182671E+03  0.00000000000E+00 0. -1.
        -11    1    3    3    0    0 -0.27262722203E+03 -0.18415366869E+03 -0.75752344425E+03  0.82588131379E+03  0.00000000000E+00 0.  1.
          4    1    6    6  502    0  0.17143823558E+03  0.20131755506E+03 -0.28561120779E+02  0.26596158409E+03  0.00000000000E+00 0. -1.
          3    1    5    5  503    0 -0.23327806599E+02 -0.26264247769E+03  0.41898272395E+02  0.26698449932E+03  0.00000000000E+00 0. -1.
         -4    1    5    5    0  503  0.44988820306E+01 -0.55755364010E+01  0.18610507176E+02  0.19941853550E+02  0.00000000000E+00 0.  1.
         -3    1    6    6    0  502  0.39172184959E+03  0.35226239493E+03  0.36928263539E+02  0.52810841593E+03  0.00000000000E+00 0.  1.
<mgrwt>
<rscale>  0 0.22064639E+04</rscale>
<asrwt>0</asrwt>
<pdfrwt beam="1">  1        2 0.29042838E+00 0.22064639E+04</pdfrwt>
<pdfrwt beam="2">  1       -2 0.99190000E-01 0.22064639E+04</pdfrwt>
<totfact> 0.59332102E+00</totfact>
</mgrwt>
</event>
<event>
12    1  0.1506149E-007  0.1046296E+04  0.7818608E-02  0.9259177E-01
          1   -1    0    0  501    0  0.00000000000E+00  0.00000000000E+00  0.96403990120E+03  0.96403990120E+03  0.00000000000E+00 0. -1.
         -1   -1    0    0    0  501 -0.00000000000E+00 -0.00000000000E+00 -0.28389254679E+03  0.28389254679E+03  0.00000000000E+00 0.  1.
         23    2    1    2    0    0  0.29816333347E+02  0.66332019516E+02  0.16441796402E+03  0.20188009952E+03  0.91833311710E+02 0.  0.
        254    2    1    2    0    0 -0.29816333347E+02 -0.66332019516E+02  0.51572939039E+03  0.10460523485E+04  0.90717129644E+03 0.  0.
        -24    2    4    4    0    0  0.10196818276E+03 -0.18323232655E+02  0.75032056605E+03  0.76162298441E+03  0.79720558100E+02 0.  0.
         24    2    4    4    0    0 -0.13178451611E+03 -0.48008786861E+02 -0.23459117566E+03  0.28442936407E+03  0.78708583667E+02 0.  0.
         13    1    3    3    0    0  0.11025431315E+02  0.66988718234E+02  0.46064922449E+02  0.82042827758E+02  0.00000000000E+00 0.  1.
        -13    1    3    3    0    0  0.18790902032E+02 -0.65669871810E+00  0.11835304157E+03  0.11983727176E+03  0.00000000000E+00 0. -1.
          2    1    6    6  502    0 -0.62734838131E+02  0.15480875370E+02 -0.12046881436E+03  0.13670425250E+03  0.00000000000E+00 0. -1.
          3    1    5    5  503    0  0.44361726067E+02 -0.45389577373E+02  0.28581390188E+03  0.29277596039E+03  0.00000000000E+00 0. -1.
         -4    1    5    5    0  503  0.57606456692E+02  0.27066344718E+02  0.46450666417E+03  0.46884702402E+03  0.00000000000E+00 0.  1.
         -1    1    6    6    0  502 -0.69049677975E+02 -0.63489662231E+02 -0.11412236130E+03  0.14772511157E+03  0.00000000000E+00 0.  1.
<mgrwt>
<rscale>  0 0.10462958E+04</rscale>
<asrwt>0</asrwt>
<pdfrwt beam="1">  1        1 0.14831383E+00 0.10462958E+04</pdfrwt>
<pdfrwt beam="2">  1       -1 0.43675777E-01 0.10462958E+04</pdfrwt>
<totfact> 0.83569500E+01</totfact>
</mgrwt>
</event>
<event>
12    1  0.1506149E-007  0.1277793E+04  0.7818608E-02  0.9047363E-01
          2   -1    0    0  501    0  0.00000000000E+00  0.00000000000E+00  0.36180355234E+04  0.36180355234E+04  0.00000000000E+00 0. -1.
         -2   -1    0    0    0  501 -0.00000000000E+00 -0.00000000000E+00 -0.11282053167E+03  0.11282053167E+03  0.00000000000E+00 0.  1.
         23    2    1    2    0    0 -0.24342173861E+03 -0.14951074660E+03  0.57728076080E+03  0.65018838157E+03  0.88793291203E+02 0.  0.
        254    2    1    2    0    0  0.24342173861E+03  0.14951074660E+03  0.29279342309E+04  0.30806676735E+04  0.91438878367E+03 0.  0.
        -24    2    4    4    0    0  0.14733078029E+03 -0.37308198049E+03  0.10512937899E+04  0.11287216118E+04  0.88866873507E+02 0.  0.
         24    2    4    4    0    0  0.96090958326E+02  0.52259272709E+03  0.18766404410E+04  0.19519460617E+04  0.77313985203E+02 0.  0.
         13    1    3    3    0    0 -0.16023199466E+03 -0.10910077646E+03  0.47082567028E+03  0.50916999453E+03  0.00000000000E+00 0. -1.
        -13    1    3    3    0    0 -0.83189743954E+02 -0.40409970140E+02  0.10645509052E+03  0.14101838704E+03  0.00000000000E+00 0.  1.
          2    1    6    6  502    0  0.55781548589E+02  0.34381067534E+03  0.10927864298E+04  0.11469522844E+04  0.00000000000E+00 0. -1.
          1    1    5    5  503    0  0.92912133323E+02 -0.30236690122E+03  0.88771283423E+03  0.94238658921E+03  0.00000000000E+00 0. -1.
         -2    1    5    5    0  503  0.54418646963E+02 -0.70715079268E+02  0.16358095568E+03  0.18633502257E+03  0.00000000000E+00 0.  1.
         -1    1    6    6    0  502  0.40309409737E+02  0.17878205175E+03  0.78385401125E+03  0.80499377730E+03  0.00000000000E+00 0.  1.
<mgrwt>
<rscale>  0 0.12777929E+04</rscale>
<asrwt>0</asrwt>
<pdfrwt beam="1">  1        2 0.55662076E+00 0.12777929E+04</pdfrwt>
<pdfrwt beam="2">  1       -2 0.17357008E-01 0.12777929E+04</pdfrwt>
<totfact> 0.18445002E+01</totfact>
</mgrwt>
</event>
<event>
12    1  0.1506149E-007  0.1517446E+04  0.7818608E-02  0.8872934E-01
         -2   -1    0    0    0  501 -0.00000000000E+00  0.00000000000E+00  0.22460531989E+04  0.22460531989E+04  0.00000000000E+00 0.  1.
          2   -1    0    0  501    0  0.00000000000E+00 -0.00000000000E+00 -0.25629860327E+03  0.25629860327E+03  0.00000000000E+00 0. -1.
         23    2    1    2    0    0  0.48637232888E+02 -0.22753445603E+03 -0.50641259143E+02  0.25717912318E+03  0.97154800018E+02 0.  0.
        254    2    1    2    0    0 -0.48637232888E+02  0.22753445603E+03  0.20403958547E+04  0.22451726790E+04  0.90744013865E+03 0.  0.
        -24    2    4    4    0    0 -0.58825124139E+02  0.13766927400E+03 -0.32078587624E+02  0.16923627252E+03  0.72101705386E+02 0.  0.
         24    2    4    4    0    0  0.10187891251E+02  0.89865182028E+02  0.20724744424E+04  0.20759364064E+04  0.78626364968E+02 0.  0.
         13    1    3    3    0    0  0.14274607620E+01 -0.18607964097E+03 -0.55442032427E+02  0.19416871372E+03  0.00000000000E+00 0. -1.
        -13    1    3    3    0    0  0.47209772126E+02 -0.41454815058E+02  0.48007732833E+01  0.63010409456E+02  0.00000000000E+00 0.  1.
          4    1    6    6  502    0  0.18424105816E+02  0.69153710735E+02  0.19582684961E+04  0.19595757669E+04  0.00000000000E+00 0. -1.
          1    1    5    5  503    0 -0.61266898963E+02  0.12565051799E+03 -0.54254344698E+01  0.13989682240E+03  0.00000000000E+00 0. -1.
         -2    1    5    5    0  503  0.24417748239E+01  0.12018756016E+02 -0.26653153154E+02  0.29339450123E+02  0.00000000000E+00 0.  1.
         -3    1    6    6    0  502 -0.82362145648E+01  0.20711471293E+02  0.11420594622E+03  0.11636063950E+03  0.00000000000E+00 0.  1.
<mgrwt>
<rscale>  0 0.15174456E+04</rscale>
<asrwt>0</asrwt>
<pdfrwt beam="1">  1        2 0.39430556E-01 0.15174456E+04</pdfrwt>
<pdfrwt beam="2">  1       -2 0.34554663E+00 0.15174456E+04</pdfrwt>
<totfact> 0.21100084E+00</totfact>
</mgrwt>
</event>
<event>
12    1  0.1506149E-007  0.1289049E+04  0.7818608E-02  0.9038295E-01
         -1   -1    0    0    0  501 -0.00000000000E+00  0.00000000000E+00  0.39332233657E+03  0.39332233657E+03  0.00000000000E+00 0.  1.
          1   -1    0    0  501    0  0.00000000000E+00 -0.00000000000E+00 -0.10561613836E+04  0.10561613836E+04  0.00000000000E+00 0. -1.
         23    2    1    2    0    0  0.21767911639E+03  0.12534920004E+03  0.44989847817E+02  0.27218889867E+03  0.94689442317E+02 0.  0.
        254    2    1    2    0    0 -0.21767911639E+03 -0.12534920004E+03 -0.70782889487E+03  0.11772948215E+04  0.90658961649E+03 0.  0.
        -24    2    4    4    0    0 -0.69726109184E+02  0.31902943968E+03 -0.13129262532E+02  0.33623584061E+03  0.78997780321E+02 0.  0.
         24    2    4    4    0    0 -0.14795300721E+03 -0.44437863972E+03 -0.69469963233E+03  0.84105898092E+03  0.73553806425E+02 0.  0.
         13    1    3    3    0    0  0.60169299324E+02  0.61962378647E+02  0.54516770267E+02  0.10213598381E+03  0.00000000000E+00 0. -1.
        -13    1    3    3    0    0  0.15750981707E+03  0.63386821394E+02 -0.95269224493E+01  0.17005291486E+03  0.00000000000E+00 0.  1.
          2    1    6    6  502    0 -0.31526993428E+02 -0.29512775717E+02 -0.65739989170E+02  0.78655587349E+02  0.00000000000E+00 0. -1.
          3    1    5    5  503    0  0.14805157188E+02  0.34073528083E+02 -0.11878009334E+02  0.39003654971E+02  0.00000000000E+00 0. -1.
         -4    1    5    5    0  503 -0.84531266372E+02  0.28495591159E+03 -0.12512531982E+01  0.29723218564E+03  0.00000000000E+00 0.  1.
         -1    1    6    6    0  502 -0.11642601378E+03 -0.41486586400E+03 -0.62895964317E+03  0.76240339357E+03  0.00000000000E+00 0.  1.
<mgrwt>
<rscale>  0 0.12890490E+04</rscale>
<asrwt>0</asrwt>
<pdfrwt beam="1">  1        1 0.16248637E+00 0.12890490E+04</pdfrwt>
<pdfrwt beam="2">  1       -1 0.60511129E-01 0.12890490E+04</pdfrwt>
<totfact> 0.37281037E+01</totfact>
</mgrwt>
</event>
<event>
12    1  0.1506149E-007  0.1887721E+04  0.7818608E-02  0.8660993E-01
          1   -1    0    0  501    0  0.00000000000E+00  0.00000000000E+00  0.15579756205E+04  0.15579756205E+04  0.00000000000E+00 0. -1.
         -1   -1    0    0    0  501 -0.00000000000E+00 -0.00000000000E+00 -0.57181432050E+03  0.57181432050E+03  0.00000000000E+00 0.  1.
         23    2    1    2    0    0 -0.11083361859E+03  0.70376441736E+03  0.51410429647E+03  0.88258854219E+03  0.84207250286E+02 0.  0.
        254    2    1    2    0    0  0.11083361859E+03 -0.70376441736E+03  0.47205700348E+03  0.12472013988E+04  0.90835294263E+03 0.  0.
        -24    2    4    4    0    0  0.24643985761E+03 -0.70825182674E+03  0.65995673292E+03  0.10021430921E+04  0.79966457001E+02 0.  0.
         24    2    4    4    0    0 -0.13560623903E+03  0.44874093793E+01 -0.18789972944E+03  0.24505830665E+03  0.79612036970E+02 0.  0.
         11    1    3    3    0    0 -0.81866350230E+02  0.33089439699E+03  0.20821590081E+03  0.39943342701E+03  0.00000000000E+00 0. -1.
        -11    1    3    3    0    0 -0.28967268357E+02  0.37287002037E+03  0.30588839566E+03  0.48315511518E+03  0.00000000000E+00 0.  1.
          4    1    6    6  502    0 -0.88375492126E+01 -0.10982260867E+02 -0.69478210394E+02  0.70893822364E+02  0.00000000000E+00 0. -1.
          3    1    5    5  503    0  0.42399474808E+02 -0.74160249859E+02  0.50170036260E+02  0.99068111224E+02  0.00000000000E+00 0. -1.
         -4    1    5    5    0  503  0.20404038280E+03 -0.63409157688E+03  0.60978669666E+03  0.90307498089E+03  0.00000000000E+00 0.  1.
         -3    1    6    6    0  502 -0.12676868981E+03  0.15469670246E+02 -0.11842151904E+03  0.17416448429E+03  0.00000000000E+00 0.  1.
<mgrwt>
<rscale>  0 0.18877211E+04</rscale>
<asrwt>0</asrwt>
<pdfrwt beam="1">  1        1 0.23968856E+00 0.18877211E+04</pdfrwt>
<pdfrwt beam="2">  1       -1 0.87971435E-01 0.18877211E+04</pdfrwt>
<totfact> 0.70950572E+00</totfact>
</mgrwt>
</event>
<event>
12    1  0.1506149E-007  0.1861969E+04  0.7818608E-02  0.8674022E-01
          2   -1    0    0  501    0  0.00000000000E+00  0.00000000000E+00  0.92180272763E+03  0.92180272763E+03  0.00000000000E+00 0. -1.
         -2   -1    0    0    0  501 -0.00000000000E+00 -0.00000000000E+00 -0.94025752711E+03  0.94025752711E+03  0.00000000000E+00 0.  1.
         23    2    1    2    0    0  0.64323158078E+03  0.55628879619E+01 -0.30916241116E+03  0.72008194767E+03  0.95701633543E+02 0.  0.
        254    2    1    2    0    0 -0.64323158078E+03 -0.55628879619E+01  0.29070761168E+03  0.11419783071E+04  0.89767796346E+03 0.  0.
        -24    2    4    4    0    0 -0.38856888690E+03 -0.52172639250E+02  0.60579232964E+03  0.72595538253E+03  0.79492808637E+02 0.  0.
         24    2    4    4    0    0 -0.25466269388E+03  0.46609751288E+02 -0.31508471797E+03  0.41602292453E+03  0.82286922837E+02 0.  0.
         13    1    3    3    0    0  0.64539552500E+03  0.76157252214E+01 -0.31112250989E+03  0.71651280458E+03  0.00000000000E+00 0.  1.
        -13    1    3    3    0    0 -0.21639442276E+01 -0.20528372595E+01  0.19600987261E+01  0.35691430975E+01  0.00000000000E+00 0. -1.
          2    1    6    6  502    0 -0.11025996071E+03  0.36086793054E+01 -0.19213848824E+03  0.22155694565E+03  0.00000000000E+00 0. -1.
          1    1    5    5  503    0 -0.91059753157E+02  0.20905620394E+02  0.13087201033E+03  0.16079927455E+03  0.00000000000E+00 0. -1.
         -2    1    5    5    0  503 -0.29750913374E+03 -0.73078259644E+02  0.47492031931E+03  0.56515610798E+03  0.00000000000E+00 0.  1.
         -1    1    6    6    0  502 -0.14440273317E+03  0.43001071982E+02 -0.12294622973E+03  0.19446597888E+03  0.00000000000E+00 0.  1.
<mgrwt>
<rscale>  0 0.18619688E+04</rscale>
<asrwt>0</asrwt>
<pdfrwt beam="1">  1        2 0.14181580E+00 0.18619688E+04</pdfrwt>
<pdfrwt beam="2">  1       -2 0.14465500E+00 0.18619688E+04</pdfrwt>
<totfact> 0.87790432E+00</totfact>
</mgrwt>
</event>
<event>
12    1  0.2186465E-007  0.1679796E+04  0.7818608E-02  0.8772972E-01
         -3   -1    0    0    0  501 -0.00000000000E+00  0.00000000000E+00  0.57667478942E+03  0.57667478942E+03  0.00000000000E+00 0.  1.
          3   -1    0    0  501    0  0.00000000000E+00 -0.00000000000E+00 -0.12232693292E+04  0.12232693292E+04  0.00000000000E+00 0. -1.
         23    2    1    2    0    0 -0.49376814143E+02 -0.17001377598E+03 -0.84022030736E+03  0.86351819091E+03  0.91382423555E+02 0.  0.
        254    2    1    2    0    0  0.49376814143E+02  0.17001377598E+03  0.19362576757E+03  0.93642592773E+03  0.89892147958E+03 0.  0.
        -24    2    4    4    0    0  0.10828705937E+03  0.43877355884E+03 -0.15566065946E+03  0.48435458494E+03  0.78235541089E+02 0.  0.
         24    2    4    4    0    0 -0.58910245224E+02 -0.26875978286E+03  0.34928642703E+03  0.45207134278E+03  0.81641000665E+02 0.  0.
         13    1    3    3    0    0  0.11217262159E+02 -0.47574988605E+02 -0.10640653069E+03  0.11709635470E+03  0.00000000000E+00 0.  1.
        -13    1    3    3    0    0 -0.60594076302E+02 -0.12243878738E+03 -0.73381377668E+03  0.74642183621E+03  0.00000000000E+00 0. -1.
          2    1    6    6  502    0 -0.57869187339E+02 -0.25861143902E+03  0.29382291064E+03  0.39567742171E+03  0.00000000000E+00 0. -1.
          1    1    5    5  503    0  0.10116513492E+03  0.43867675865E+03 -0.14799961002E+03  0.47389404688E+03  0.00000000000E+00 0. -1.
         -2    1    5    5    0  503  0.71219244453E+01  0.96800190692E-01 -0.76610494373E+01  0.10460538063E+02  0.00000000000E+00 0.  1.
         -1    1    6    6    0  502 -0.10410578848E+01 -0.10148343834E+02  0.55463516383E+02  0.56393921070E+02  0.00000000000E+00 0.  1.
<mgrwt>
<rscale>  0 0.16797959E+04</rscale>
<asrwt>0</asrwt>
<pdfrwt beam="1">  1        3 0.18819528E+00 0.16797959E+04</pdfrwt>
<pdfrwt beam="2">  1       -3 0.88719199E-01 0.16797959E+04</pdfrwt>
<totfact> 0.50377506E-01</totfact>
</mgrwt>
</event>
<event>
12    1  0.1506149E-007  0.1553874E+04  0.7818608E-02  0.8849397E-01
         -2   -1    0    0    0  501 -0.00000000000E+00  0.00000000000E+00  0.38489443778E+03  0.38489443778E+03  0.00000000000E+00 0.  1.
          2   -1    0    0  501    0  0.00000000000E+00 -0.00000000000E+00 -0.15683039103E+04  0.15683039103E+04  0.00000000000E+00 0. -1.
         23    2    1    2    0    0 -0.14114897346E+03  0.36567998844E+03  0.21903193950E+02  0.39945110682E+03  0.73732965329E+02 0.  0.
        254    2    1    2    0    0  0.14114897346E+03 -0.36567998844E+03 -0.12053126665E+04  0.15537472413E+04  0.89872519667E+03 0.  0.
        -24    2    4    4    0    0  0.26794378039E+03  0.21992263491E+03 -0.30546233502E+03  0.46944917785E+03  0.83159230861E+02 0.  0.
         24    2    4    4    0    0 -0.12679480693E+03 -0.58560262335E+03 -0.89985033149E+03  0.10842980634E+04  0.83452476108E+02 0.  0.
         13    1    3    3    0    0 -0.84095687160E+01  0.67530585477E+02 -0.18693124777E+02  0.70572896602E+02  0.00000000000E+00 0. -1.
        -13    1    3    3    0    0 -0.13273940474E+03  0.29814940297E+03  0.40596318726E+02  0.32887821022E+03  0.00000000000E+00 0.  1.
          2    1    6    6  502    0 -0.13496085115E+03 -0.56093661890E+03 -0.87664146066E+03  0.10494591809E+04  0.00000000000E+00 0. -1.
          1    1    5    5  503    0  0.25467996777E+03  0.19300133693E+03 -0.24753473429E+03  0.40420891470E+03  0.00000000000E+00 0. -1.
         -2    1    5    5    0  503  0.13263812616E+02  0.26921297973E+02 -0.57927600737E+02  0.65240263157E+02  0.00000000000E+00 0.  1.
         -1    1    6    6    0  502  0.81660442213E+01 -0.24666004452E+02 -0.23208870830E+02  0.34838882575E+02  0.00000000000E+00 0.  1.
<mgrwt>
<rscale>  0 0.15538745E+04</rscale>
<asrwt>0</asrwt>
<pdfrwt beam="1">  1        2 0.24127753E+00 0.15538745E+04</pdfrwt>
<pdfrwt beam="2">  1       -2 0.59214528E-01 0.15538745E+04</pdfrwt>
<totfact> 0.29768539E+01</totfact>
</mgrwt>
</event>
<event>
12    1  0.1506149E-007  0.1491803E+04  0.7818608E-02  0.8889922E-01
         -2   -1    0    0    0  501 -0.00000000000E+00  0.00000000000E+00  0.37570685132E+03  0.37570685132E+03  0.00000000000E+00 0.  1.
          2   -1    0    0  501    0  0.00000000000E+00 -0.00000000000E+00 -0.14808590555E+04  0.14808590555E+04  0.00000000000E+00 0. -1.
         23    2    1    2    0    0 -0.92295718388E+01 -0.46169569491E+03 -0.28459311735E+03  0.55085910263E+03  0.95939610280E+02 0.  0.
        254    2    1    2    0    0  0.92295718388E+01  0.46169569491E+03 -0.82055908682E+03  0.13057068042E+04  0.90460209143E+03 0.  0.
        -24    2    4    4    0    0  0.35225092423E+03  0.40867882282E+03 -0.77240029988E+03  0.94622380111E+03  0.87396594313E+02 0.  0.
         24    2    4    4    0    0 -0.34302135239E+03  0.53016872082E+02 -0.48158786945E+02  0.35948300307E+03  0.80214236978E+02 0.  0.
         13    1    3    3    0    0 -0.22798111194E+02 -0.45162651178E+03 -0.26190674730E+03  0.52257191304E+03  0.00000000000E+00 0.  1.
        -13    1    3    3    0    0  0.13568539355E+02 -0.10069183122E+02 -0.22686370046E+02  0.28287189589E+02  0.00000000000E+00 0. -1.
          4    1    6    6  502    0 -0.20016182858E+03  0.52501560907E+02  0.51595639975E+01  0.20699708360E+03  0.00000000000E+00 0. -1.
          3    1    5    5  503    0  0.34644461442E+03  0.39635317598E+03 -0.71899570652E+03  0.89110859999E+03  0.00000000000E+00 0. -1.
         -2    1    5    5    0  503  0.58063098037E+01  0.12325646839E+02 -0.53404593353E+02  0.55115201122E+02  0.00000000000E+00 0.  1.
         -3    1    6    6    0  502 -0.14285952381E+03  0.51531117406E+00 -0.53318350942E+02  0.15248591947E+03  0.00000000000E+00 0.  1.
<mgrwt>
<rscale>  0 0.14918028E+04</rscale>
<asrwt>0</asrwt>
<pdfrwt beam="1">  1        2 0.22782447E+00 0.14918028E+04</pdfrwt>
<pdfrwt beam="2">  1       -2 0.57801054E-01 0.14918028E+04</pdfrwt>
<totfact> 0.35251859E+01</totfact>
</mgrwt>
</event>
<event>
12    1  0.1874153E-007  0.1480589E+04  0.7818608E-02  0.8897465E-01
         -2   -1    0    0    0  501 -0.00000000000E+00  0.00000000000E+00  0.24969556504E+03  0.24969556504E+03  0.00000000000E+00 0.  1.
          2   -1    0    0  501    0  0.00000000000E+00 -0.00000000000E+00 -0.21948166106E+04  0.21948166106E+04  0.00000000000E+00 0. -1.
         23    2    1    2    0    0 -0.26324399815E+03 -0.22122456076E+03 -0.10841629073E+04  0.11404132498E+04  0.83038918972E+02 0.  0.
        254    2    1    2    0    0  0.26324399815E+03  0.22122456076E+03 -0.86095813834E+03  0.13040989258E+04  0.91716268108E+03 0.  0.
        -24    2    4    4    0    0 -0.14506223388E+03 -0.22262433117E+03 -0.37366436608E+02  0.28029272285E+03  0.81013056808E+02 0.  0.
         24    2    4    4    0    0  0.40830623203E+03  0.44384889192E+03 -0.82359170174E+03  0.10238062030E+04  0.78485872259E+02 0.  0.
         11    1    3    3    0    0 -0.19873651067E+03 -0.15029331392E+03 -0.65795925683E+03  0.70355857221E+03  0.00000000000E+00 0.  1.
        -11    1    3    3    0    0 -0.64507487487E+02 -0.70931246838E+02 -0.42620365042E+03  0.43685467762E+03  0.00000000000E+00 0. -1.
          2    1    6    6  502    0  0.30572791146E+02  0.12463198077E+02 -0.64870948455E+02  0.72789194378E+02  0.00000000000E+00 0. -1.
          3    1    5    5  503    0 -0.10700854206E+01 -0.34438001275E+01  0.12792683196E+02  0.13291259740E+02  0.00000000000E+00 0. -1.
         -4    1    5    5    0  503 -0.14399214846E+03 -0.21918053104E+03 -0.50159119803E+02  0.26700146311E+03  0.00000000000E+00 0.  1.
         -1    1    6    6    0  502  0.37773344089E+03  0.43138569385E+03 -0.75872075328E+03  0.95101700862E+03  0.00000000000E+00 0.  1.
<mgrwt>
<rscale>  0 0.14805890E+04</rscale>
<asrwt>0</asrwt>
<pdfrwt beam="1">  1        2 0.33766410E+00 0.14805890E+04</pdfrwt>
<pdfrwt beam="2">  1       -2 0.38414702E-01 0.14805890E+04</pdfrwt>
<totfact> 0.32231883E+01</totfact>
</mgrwt>
</event>
<event>
12    1  0.1506149E-007  0.1569827E+04  0.7818608E-02  0.8839302E-01
         -2   -1    0    0    0  501 -0.00000000000E+00  0.00000000000E+00  0.56737867077E+03  0.56737867077E+03  0.00000000000E+00 0. -1.
          2   -1    0    0  501    0  0.00000000000E+00 -0.00000000000E+00 -0.10858525192E+04  0.10858525192E+04  0.00000000000E+00 0.  1.
         23    2    1    2    0    0  0.18061771814E+03  0.36222329001E+03 -0.51585459007E+03  0.66193137753E+03  0.90657148218E+02 0.  0.
        254    2    1    2    0    0 -0.18061771814E+03 -0.36222329001E+03 -0.26192583518E+01  0.99129981244E+03  0.90489777638E+03 0.  0.
        -24    2    4    4    0    0 -0.28292902342E+03  0.17757464950E+03  0.20354335957E+03  0.39908695256E+03  0.79113260876E+02 0.  0.
         24    2    4    4    0    0  0.10231130528E+03 -0.53979793951E+03 -0.20616261792E+03  0.59221285988E+03  0.79772349169E+02 0.  0.
         13    1    3    3    0    0  0.46176857780E+02  0.15826687267E+03 -0.26260499755E+03  0.31006787953E+03  0.00000000000E+00 0.  1.
        -13    1    3    3    0    0  0.13444086036E+03  0.20395641734E+03 -0.25324959253E+03  0.35186349799E+03  0.00000000000E+00 0. -1.
          2    1    6    6  502    0  0.22091375051E+02 -0.10021357106E+03 -0.66027540145E+01  0.10283182891E+03  0.00000000000E+00 0. -1.
          3    1    5    5  503    0 -0.15350982730E+02 -0.58096565085E+01  0.55588287705E+00  0.16422965179E+02  0.00000000000E+00 0. -1.
         -4    1    5    5    0  503 -0.26757804069E+03  0.18338430601E+03  0.20298747669E+03  0.38266398738E+03  0.00000000000E+00 0.  1.
         -1    1    6    6    0  502  0.80219930227E+02 -0.43958436845E+03 -0.19955986390E+03  0.48938103097E+03  0.00000000000E+00 0.  1.
<mgrwt>
<rscale>  0 0.15698275E+04</rscale>
<asrwt>0</asrwt>
<pdfrwt beam="1">  1        2 0.16705423E+00 0.15698275E+04</pdfrwt>
<pdfrwt beam="2">  1       -2 0.87289027E-01 0.15698275E+04</pdfrwt>
<totfact> 0.24231781E+01</totfact>
</mgrwt>
</event>
<event>
12    1  0.1506149E-007  0.2183045E+04  0.7818608E-02  0.8525518E-01
         -1   -1    0    0    0  501 -0.00000000000E+00  0.00000000000E+00  0.16659288028E+04  0.16659288028E+04  0.00000000000E+00 0.  1.
          1   -1    0    0  501    0  0.00000000000E+00 -0.00000000000E+00 -0.71516968639E+03  0.71516968639E+03  0.00000000000E+00 0. -1.
         23    2    1    2    0    0  0.44698135624E+03  0.51401183455E+03  0.10399832332E+04  0.12467441108E+04  0.93836313071E+02 0.  0.
        254    2    1    2    0    0 -0.44698135624E+03 -0.51401183455E+03 -0.89224116715E+02  0.11343543784E+04  0.90266184918E+03 0.  0.
        -24    2    4    4    0    0 -0.59341146813E+02  0.17156966948E+03  0.20882364008E+03  0.28850297773E+03  0.81664755612E+02 0.  0.
         24    2    4    4    0    0 -0.38764020942E+03 -0.68558150404E+03 -0.29804775680E+03  0.84585140070E+03  0.79656739152E+02 0.  0.
         11    1    3    3    0    0  0.17199782816E+03  0.17325505353E+03  0.29845894315E+03  0.38558826125E+03  0.00000000000E+00 0. -1.
        -11    1    3    3    0    0  0.27498352808E+03  0.34075678102E+03  0.74152429001E+03  0.86115584954E+03  0.00000000000E+00 0.  1.
          2    1    6    6  502    0 -0.24698857501E+03 -0.45323447361E+03 -0.15529679138E+03  0.53901942235E+03  0.00000000000E+00 0. -1.
          1    1    5    5  503    0 -0.38635665090E+02  0.16693639252E+03  0.20459179650E+03  0.26686752698E+03  0.00000000000E+00 0. -1.
         -2    1    5    5    0  503 -0.20705481723E+02  0.46332769683E+01  0.42318435823E+01  0.21635450745E+02  0.00000000000E+00 0.  1.
         -1    1    6    6    0  502 -0.14065163441E+03 -0.23234703042E+03 -0.14275096542E+03  0.30683197835E+03  0.00000000000E+00 0.  1.
<mgrwt>
<rscale>  0 0.21830454E+04</rscale>
<asrwt>0</asrwt>
<pdfrwt beam="1">  1        1 0.11002611E+00 0.21830454E+04</pdfrwt>
<pdfrwt beam="2">  1       -1 0.25629674E+00 0.21830454E+04</pdfrwt>
<totfact> 0.15268397E+00</totfact>
</mgrwt>
</event>
<event>
12    1  0.1506149E-007  0.1231129E+04  0.7818608E-02  0.9086037E-01
          3   -1    0    0  501    0  0.00000000000E+00  0.00000000000E+00  0.14166943257E+04  0.14166943257E+04  0.00000000000E+00 0. -1.
         -3   -1    0    0    0  501 -0.00000000000E+00 -0.00000000000E+00 -0.26746759811E+03  0.26746759811E+03  0.00000000000E+00 0.  1.
         23    2    1    2    0    0  0.31581925807E+03  0.17767464031E+03  0.36388447514E+03  0.52144954234E+03  0.90485536872E+02 0.  0.
        254    2    1    2    0    0 -0.31581925807E+03 -0.17767464031E+03  0.78534225240E+03  0.11627123814E+04  0.77706341243E+03 0.  0.
        -24    2    4    4    0    0  0.19750238787E+03 -0.25340044482E+03  0.28621552085E+03  0.43777550227E+03  0.80678915215E+02 0.  0.
         24    2    4    4    0    0 -0.51332164594E+03  0.75725804517E+02  0.49912673155E+03  0.72493687915E+03  0.84690465570E+02 0.  0.
         11    1    3    3    0    0  0.29856044944E+03  0.13790647913E+03  0.33440848416E+03  0.46902619675E+03  0.00000000000E+00 0.  1.
        -11    1    3    3    0    0  0.17258808627E+02  0.39768161181E+02  0.29475990980E+02  0.52423345594E+02  0.00000000000E+00 0. -1.
          4    1    6    6  502    0 -0.35426146601E+03  0.87976196437E+02  0.32445004004E+03  0.48837365401E+03  0.00000000000E+00 0. -1.
          1    1    5    5  503    0  0.93596281928E+02 -0.18295933716E+03  0.17008205732E+03  0.26676260845E+03  0.00000000000E+00 0. -1.
         -2    1    5    5    0  503  0.10390610594E+03 -0.70441107661E+02  0.11613346353E+03  0.17101289381E+03  0.00000000000E+00 0.  1.
         -3    1    6    6    0  502 -0.15906017992E+03 -0.12250391920E+02  0.17467669150E+03  0.23656322515E+03  0.00000000000E+00 0.  1.
<mgrwt>
<rscale>  0 0.12311293E+04</rscale>
<asrwt>0</asrwt>
<pdfrwt beam="1">  1        3 0.21795297E+00 0.12311293E+04</pdfrwt>
<pdfrwt beam="2">  1       -3 0.41148862E-01 0.12311293E+04</pdfrwt>
<totfact> 0.17349459E+00</totfact>
</mgrwt>
</event>
<event>
12    1  0.1506149E-007  0.1178022E+04  0.7818608E-02  0.9132314E-01
          2   -1    0    0  501    0  0.00000000000E+00  0.00000000000E+00  0.35391723103E+04  0.35391723103E+04  0.00000000000E+00 0. -1.
         -2   -1    0    0    0  501 -0.00000000000E+00 -0.00000000000E+00 -0.98026870680E+02  0.98026870680E+02  0.00000000000E+00 0.  1.
         23    2    1    2    0    0  0.22970213949E+03 -0.26975642750E+02  0.71177325180E+03  0.75393886119E+03  0.91169546695E+02 0.  0.
        254    2    1    2    0    0 -0.22970213949E+03  0.26975642750E+02  0.27293721878E+04  0.28832603198E+04  0.90012597666E+03 0.  0.
        -24    2    4    4    0    0  0.11506261617E+03  0.17878638236E+03  0.14077581243E+03  0.26618378167E+03  0.76367533036E+02 0.  0.
         24    2    4    4    0    0 -0.34476475566E+03 -0.15181073961E+03  0.25885963754E+04  0.26170765381E+04  0.79681706108E+02 0.  0.
         13    1    3    3    0    0  0.15121540625E+03 -0.16023715458E+02  0.32079636291E+03  0.35501149982E+03  0.00000000000E+00 0. -1.
        -13    1    3    3    0    0  0.78486733237E+02 -0.10951927293E+02  0.39097688889E+03  0.39892736137E+03  0.00000000000E+00 0.  1.
          2    1    6    6  502    0 -0.68966436618E+01 -0.12759047020E+02  0.21885019399E+03  0.21933026327E+03  0.00000000000E+00 0. -1.
          1    1    5    5  503    0  0.68060012749E+02  0.44066541029E+02  0.68988934546E+02  0.10645890505E+03  0.00000000000E+00 0. -1.
         -4    1    5    5    0  503  0.47002603421E+02  0.13471984133E+03  0.71786877883E+02  0.15972487662E+03  0.00000000000E+00 0.  1.
         -1    1    6    6    0  502 -0.33786811200E+03 -0.13905169259E+03  0.23697461814E+04  0.23977462749E+04  0.00000000000E+00 0.  1.
<mgrwt>
<rscale>  0 0.11780220E+04</rscale>
<asrwt>0</asrwt>
<pdfrwt beam="1">  1        2 0.54448795E+00 0.11780220E+04</pdfrwt>
<pdfrwt beam="2">  1       -2 0.15081060E-01 0.11780220E+04</pdfrwt>
<totfact> 0.26978008E+01</totfact>
</mgrwt>
</event>
<event>
12    1  0.1506149E-007  0.1219837E+04  0.7818608E-02  0.9095668E-01
         -1   -1    0    0    0  501 -0.00000000000E+00  0.00000000000E+00  0.11993286767E+03  0.11993286767E+03  0.00000000000E+00 0.  1.
          1   -1    0    0  501    0  0.00000000000E+00 -0.00000000000E+00 -0.31017415921E+04  0.31017415921E+04  0.00000000000E+00 0. -1.
         23    2    1    2    0    0 -0.15659937836E+03 -0.18281896734E+03 -0.73595695859E+03  0.77970681757E+03  0.91454558902E+02 0.  0.
        254    2    1    2    0    0  0.15659937836E+03  0.18281896734E+03 -0.22458517659E+04  0.24419676422E+04  0.92812158218E+03 0.  0.
        -24    2    4    4    0    0  0.30040517911E+02  0.26366395956E+03 -0.22545843817E+04  0.22715498895E+04  0.79793796873E+02 0.  0.
         24    2    4    4    0    0  0.12655886045E+03 -0.80844992220E+02  0.87326158117E+01  0.17041775274E+03  0.80080546614E+02 0.  0.
         13    1    3    3    0    0 -0.71568413837E+02 -0.83696110348E+02 -0.20260928594E+03  0.23060268753E+03  0.00000000000E+00 0.  1.
        -13    1    3    3    0    0 -0.85030964521E+02 -0.99122856995E+02 -0.53334767265E+03  0.54910413004E+03  0.00000000000E+00 0. -1.
          2    1    6    6  502    0  0.11648386073E+03 -0.44213187888E+02 -0.15199620621E+02  0.12551623107E+03  0.00000000000E+00 0. -1.
          3    1    5    5  503    0  0.21694172298E+02  0.25280479721E+03 -0.22183430136E+04  0.22328068946E+04  0.00000000000E+00 0. -1.
         -4    1    5    5    0  503  0.83463456133E+01  0.10859162358E+02 -0.36241368096E+02  0.38742994898E+02  0.00000000000E+00 0.  1.
         -1    1    6    6    0  502  0.10074999712E+02 -0.36631804332E+02  0.23932236432E+02  0.44901521672E+02  0.00000000000E+00 0.  1.
<mgrwt>
<rscale>  0 0.12198373E+04</rscale>
<asrwt>0</asrwt>
<pdfrwt beam="1">  1        1 0.47719096E+00 0.12198373E+04</pdfrwt>
<pdfrwt beam="2">  1       -1 0.18451213E-01 0.12198373E+04</pdfrwt>
<totfact> 0.11802095E+01</totfact>
</mgrwt>
</event>
<event>
12    1  0.1506149E-007  0.1286872E+04  0.7818608E-02  0.9040041E-01
         -4   -1    0    0    0  501 -0.00000000000E+00  0.00000000000E+00  0.27405416553E+03  0.27405416553E+03  0.00000000000E+00 0. -1.
          4   -1    0    0  501    0  0.00000000000E+00 -0.00000000000E+00 -0.15106856474E+04  0.15106856474E+04  0.00000000000E+00 0.  1.
         23    2    1    2    0    0  0.16922064267E+03  0.22949155985E+03 -0.10481501168E+03  0.31720997562E+03  0.91290634834E+02 0.  0.
        254    2    1    2    0    0 -0.16922064267E+03 -0.22949155985E+03 -0.11318164702E+04  0.14675298373E+04  0.88956916495E+03 0.  0.
        -24    2    4    4    0    0 -0.25000200600E+03 -0.50197301324E+03 -0.98856048673E+03  0.11393011620E+04  0.79229999354E+02 0.  0.
         24    2    4    4    0    0  0.80781363323E+02  0.27248145339E+03 -0.14325598343E+03  0.32822867527E+03  0.80249706413E+02 0.  0.
         13    1    3    3    0    0  0.40709735214E+02  0.81124545890E+02 -0.76874934791E+02  0.11894633280E+03  0.00000000000E+00 0.  1.
        -13    1    3    3    0    0  0.12851090746E+03  0.14836701396E+03 -0.27940076891E+02  0.19826364282E+03  0.00000000000E+00 0. -1.
          2    1    6    6  502    0  0.51800139690E+02  0.16319873206E+03 -0.41637130267E+02  0.17621217675E+03  0.00000000000E+00 0. -1.
          1    1    5    5  503    0 -0.22733257561E+03 -0.48197742074E+03 -0.95845119058E+03  0.10966362290E+04  0.00000000000E+00 0. -1.
         -2    1    5    5    0  503 -0.22669430385E+02 -0.19995592498E+02 -0.30109296150E+02  0.42664933001E+02  0.00000000000E+00 0.  1.
         -1    1    6    6    0  502  0.28981223633E+02  0.10928272133E+03 -0.10161885316E+03  0.15201649852E+03  0.00000000000E+00 0.  1.
<mgrwt>
<rscale>  0 0.12868717E+04</rscale>
<asrwt>0</asrwt>
<pdfrwt beam="1">  1        4 0.23241317E+00 0.12868717E+04</pdfrwt>
<pdfrwt beam="2">  1       -4 0.42162180E-01 0.12868717E+04</pdfrwt>
<totfact> 0.87683839E-01</totfact>
</mgrwt>
</event>
<event>
12    1  0.1506149E-007  0.1494567E+04  0.7818608E-02  0.8888074E-01
          2   -1    0    0  501    0  0.00000000000E+00  0.00000000000E+00  0.93215029320E+03  0.93215029320E+03  0.00000000000E+00 0. -1.
         -2   -1    0    0    0  501 -0.00000000000E+00 -0.00000000000E+00 -0.59907993190E+03  0.59907993190E+03  0.00000000000E+00 0.  1.
         23    2    1    2    0    0  0.13913971799E+03 -0.28533172153E+03 -0.24988863688E+03  0.41522742892E+03  0.95892827956E+02 0.  0.
        254    2    1    2    0    0 -0.13913971799E+03  0.28533172153E+03  0.58295899818E+03  0.11160027962E+04  0.89713265189E+03 0.  0.
        -24    2    4    4    0    0 -0.18494265980E+03  0.39980510474E+03  0.76225007500E+03  0.88399415957E+03  0.79828491882E+02 0.  0.
         24    2    4    4    0    0  0.45802941809E+02 -0.11447338321E+03 -0.17929107682E+03  0.23200863662E+03  0.80502498690E+02 0.  0.
         11    1    3    3    0    0  0.13015218939E+03 -0.21706462963E+03 -0.15096206899E+03  0.29469677995E+03  0.00000000000E+00 0. -1.
        -11    1    3    3    0    0  0.89875286014E+01 -0.68267091897E+02 -0.98926567890E+02  0.12053064897E+03  0.00000000000E+00 0.  1.
          4    1    6    6  502    0  0.43024744200E+02 -0.95778734209E+02 -0.82894296506E+02  0.13377652609E+03  0.00000000000E+00 0. -1.
          3    1    5    5  503    0 -0.62024049121E+01  0.88193906252E+02  0.14606172656E+03  0.17073565208E+03  0.00000000000E+00 0. -1.
         -4    1    5    5    0  503 -0.17874025489E+03  0.31161119849E+03  0.61618834844E+03  0.71325850748E+03  0.00000000000E+00 0.  1.
         -3    1    6    6    0  502  0.27781976090E+01 -0.18694649003E+02 -0.96396780313E+02  0.98232110525E+02  0.00000000000E+00 0.  1.
<mgrwt>
<rscale>  0 0.14945669E+04</rscale>
<asrwt>0</asrwt>
<pdfrwt beam="1">  1        2 0.14340774E+00 0.14945669E+04</pdfrwt>
<pdfrwt beam="2">  1       -2 0.92166143E-01 0.14945669E+04</pdfrwt>
<totfact> 0.26978669E+01</totfact>
</mgrwt>
</event>
<event>
12    1  0.1506149E-007  0.1567221E+04  0.7818608E-02  0.8840942E-01
          2   -1    0    0  501    0  0.00000000000E+00  0.00000000000E+00  0.35494897532E+03  0.35494897532E+03  0.00000000000E+00 0. -1.
         -2   -1    0    0    0  501 -0.00000000000E+00 -0.00000000000E+00 -0.17299545330E+04  0.17299545330E+04  0.00000000000E+00 0.  1.
         23    2    1    2    0    0  0.33567371761E+03  0.11231722011E+03  0.49395211005E+02  0.36769361497E+03  0.86410097767E+02 0.  0.
        254    2    1    2    0    0 -0.33567371761E+03 -0.11231722011E+03 -0.14244007687E+04  0.17172098934E+04  0.89140353677E+03 0.  0.
        -24    2    4    4    0    0 -0.51721759230E+03  0.18511119680E+03 -0.59222593071E+03  0.81171673735E+03  0.79826785710E+02 0.  0.
         24    2    4    4    0    0  0.18154387470E+03 -0.29742841691E+03 -0.83217483799E+03  0.90549315602E+03  0.77337267751E+02 0.  0.
         13    1    3    3    0    0  0.34703671810E+02 -0.14490569586E+02  0.18006554683E+01  0.37650548523E+02  0.00000000000E+00 0. -1.
        -13    1    3    3    0    0  0.30097004580E+03  0.12680778969E+03  0.47594555537E+02  0.33004306645E+03  0.00000000000E+00 0.  1.
          4    1    6    6  502    0  0.14977303060E+03 -0.27836671339E+03 -0.77893078841E+03  0.84062664778E+03  0.00000000000E+00 0. -1.
          3    1    5    5  503    0 -0.30078059847E+03  0.90689186470E+02 -0.28451409264E+03  0.42384167548E+03  0.00000000000E+00 0. -1.
         -4    1    5    5    0  503 -0.21643699383E+03  0.94422010335E+02 -0.30771183807E+03  0.38787506187E+03  0.00000000000E+00 0.  1.
         -3    1    6    6    0  502  0.31770844093E+02 -0.19061703522E+02 -0.53244049579E+02  0.64866508239E+02  0.00000000000E+00 0.  1.
<mgrwt>
<rscale>  0 0.15672212E+04</rscale>
<asrwt>0</asrwt>
<pdfrwt beam="1">  1        2 0.54607534E-01 0.15672212E+04</pdfrwt>
<pdfrwt beam="2">  1       -2 0.26614685E+00 0.15672212E+04</pdfrwt>
<totfact> 0.44796821E+00</totfact>
</mgrwt>
</event>
<event>
12    1  0.1506149E-007  0.2225339E+04  0.7818608E-02  0.8507955E-01
          1   -1    0    0  501    0  0.00000000000E+00  0.00000000000E+00  0.58276323106E+03  0.58276323106E+03  0.00000000000E+00 0. -1.
         -1   -1    0    0    0  501 -0.00000000000E+00 -0.00000000000E+00 -0.21244196997E+04  0.21244196997E+04  0.00000000000E+00 0.  1.
         23    2    1    2    0    0 -0.35845761837E+03  0.58371009357E+03  0.11538205507E+03  0.70055903376E+03  0.90887862988E+02 0.  0.
        254    2    1    2    0    0  0.35845761837E+03 -0.58371009357E+03 -0.16570385237E+04  0.20066238970E+04  0.90086261850E+03 0.  0.
        -24    2    4    4    0    0  0.61533830221E+03 -0.20575954632E+03 -0.11211354980E+04  0.12978264305E+04  0.80189910283E+02 0.  0.
         24    2    4    4    0    0 -0.25688068384E+03 -0.37795054725E+03 -0.53590302563E+03  0.70879746644E+03  0.79796576714E+02 0.  0.
         13    1    3    3    0    0 -0.10544112209E+03  0.16013941045E+03 -0.82727883989E+01  0.19191378281E+03  0.00000000000E+00 0.  1.
        -13    1    3    3    0    0 -0.25301649629E+03  0.42357068312E+03  0.12365484346E+03  0.50864525094E+03  0.00000000000E+00 0. -1.
          2    1    6    6  502    0 -0.22082387717E+03 -0.28230855649E+03 -0.37987166878E+03  0.52226792984E+03  0.00000000000E+00 0. -1.
          1    1    5    5  503    0  0.52063230546E+03 -0.19828000374E+03 -0.92318110293E+03  0.10782561413E+04  0.00000000000E+00 0. -1.
         -2    1    5    5    0  503  0.94705996751E+02 -0.74795425774E+01 -0.19795439510E+03  0.21957028924E+03  0.00000000000E+00 0.  1.
         -1    1    6    6    0  502 -0.36056806665E+02 -0.95641990760E+02 -0.15603135685E+03  0.18652953660E+03  0.00000000000E+00 0.  1.
<mgrwt>
<rscale>  0 0.22253392E+04</rscale>
<asrwt>0</asrwt>
<pdfrwt beam="1">  1        1 0.89655882E-01 0.22253392E+04</pdfrwt>
<pdfrwt beam="2">  1       -1 0.32683380E+00 0.22253392E+04</pdfrwt>
<totfact> 0.71797491E-01</totfact>
</mgrwt>
</event>
<event>
12    1  0.1506149E-007  0.1273069E+04  0.7818608E-02  0.9051198E-01
         -2   -1    0    0    0  501 -0.00000000000E+00  0.00000000000E+00  0.59995436441E+03  0.59995436441E+03  0.00000000000E+00 0.  1.
          2   -1    0    0  501    0  0.00000000000E+00 -0.00000000000E+00 -0.67534547251E+03  0.67534547251E+03  0.00000000000E+00 0. -1.
         23    2    1    2    0    0 -0.10127695665E+02 -0.63032225989E+02 -0.32747980287E+03  0.33862085224E+03  0.57839679771E+02 0.  0.
        254    2    1    2    0    0  0.10127695665E+02  0.63032225989E+02  0.25208869477E+03  0.93667898467E+03  0.89985731011E+03 0.  0.
        -24    2    4    4    0    0 -0.23081823425E+03 -0.34135819771E+03  0.68447496284E+02  0.42516268618E+03  0.79219780141E+02 0.  0.
         24    2    4    4    0    0  0.24094592991E+03  0.40439042370E+03  0.18364119848E+03  0.51151629849E+03  0.79613302421E+02 0.  0.
         13    1    3    3    0    0 -0.24543163989E+02 -0.49567382948E+02 -0.14691681020E+03  0.15698357070E+03  0.00000000000E+00 0.  1.
        -13    1    3    3    0    0  0.14415468325E+02 -0.13464843041E+02 -0.18056299267E+03  0.18163728154E+03  0.00000000000E+00 0. -1.
          2    1    6    6  502    0  0.21468380149E+03  0.30896252554E+03  0.16491579601E+03  0.41078485437E+03  0.00000000000E+00 0. -1.
          3    1    5    5  503    0 -0.23275512337E+03 -0.34050666553E+03  0.74161083420E+02  0.41906992617E+03  0.00000000000E+00 0. -1.
         -4    1    5    5    0  503  0.19368891218E+01 -0.85153217499E+00 -0.57135871364E+01  0.60927600052E+01  0.00000000000E+00 0.  1.
         -1    1    6    6    0  502  0.26262128424E+02  0.95427898162E+02  0.18725402476E+02  0.10073144412E+03  0.00000000000E+00 0.  1.
<mgrwt>
<rscale>  0 0.12730695E+04</rscale>
<asrwt>0</asrwt>
<pdfrwt beam="1">  1        2 0.10389930E+00 0.12730695E+04</pdfrwt>
<pdfrwt beam="2">  1       -2 0.92300672E-01 0.12730695E+04</pdfrwt>
<totfact> 0.41976290E+01</totfact>
</mgrwt>
</event>
<event>
12    1  0.1506149E-007  0.1349390E+04  0.7818608E-02  0.8991290E-01
          2   -1    0    0  501    0  0.00000000000E+00  0.00000000000E+00  0.28291046540E+04  0.28291046540E+04  0.00000000000E+00 0. -1.
         -2   -1    0    0    0  501 -0.00000000000E+00 -0.00000000000E+00 -0.16090377085E+03  0.16090377085E+03  0.00000000000E+00 0.  1.
         23    2    1    2    0    0 -0.43346793607E+02  0.46448778345E+02  0.15169266089E+04  0.15221153185E+04  0.10831561479E+03 0.  0.
        254    2    1    2    0    0  0.43346793607E+02 -0.46448778345E+02  0.11512742742E+04  0.14678931063E+04  0.90842791881E+03 0.  0.
        -24    2    4    4    0    0 -0.34037135504E+02 -0.23336829109E+03 -0.43756827523E+02  0.25323056299E+03  0.81189729622E+02 0.  0.
         24    2    4    4    0    0  0.77383929112E+02  0.18691951275E+03  0.11950311017E+04  0.12146625434E+04  0.79866034063E+02 0.  0.
         11    1    3    3    0    0 -0.12831673365E+01  0.22094181113E+02  0.12830746054E+04  0.12832654606E+04  0.00000000000E+00 0. -1.
        -11    1    3    3    0    0 -0.42063626271E+02  0.24354597232E+02  0.23385200348E+03  0.23884985785E+03  0.00000000000E+00 0.  1.
          4    1    6    6  502    0  0.61211086208E+02  0.69993575741E+02  0.38460758400E+03  0.39568787117E+03  0.00000000000E+00 0. -1.
          1    1    5    5  503    0 -0.17485681289E+02 -0.19112177943E+03 -0.65668226290E+02  0.20284378119E+03  0.00000000000E+00 0. -1.
         -4    1    5    5    0  503 -0.16551454215E+02 -0.42246511659E+02  0.21911398767E+02  0.50386781798E+02  0.00000000000E+00 0.  1.
         -3    1    6    6    0  502  0.16172842904E+02  0.11692593701E+03  0.81042351773E+03  0.81897467219E+03  0.00000000000E+00 0.  1.
<mgrwt>
<rscale>  0 0.13493904E+04</rscale>
<asrwt>0</asrwt>
<pdfrwt beam="1">  1        2 0.43524683E+00 0.13493904E+04</pdfrwt>
<pdfrwt beam="2">  1       -2 0.24754428E-01 0.13493904E+04</pdfrwt>
<totfact> 0.31926011E+01</totfact>
</mgrwt>
</event>
<event>
12    1  0.1506149E-007  0.1632453E+04  0.7818608E-02  0.8800855E-01
          1   -1    0    0  501    0  0.00000000000E+00  0.00000000000E+00  0.66150462768E+03  0.66150462768E+03  0.00000000000E+00 0. -1.
         -1   -1    0    0    0  501 -0.00000000000E+00 -0.00000000000E+00 -0.10071367965E+04  0.10071367965E+04  0.00000000000E+00 0.  1.
         23    2    1    2    0    0 -0.14209992375E+03  0.18274833035E+03  0.40467883243E+03  0.47473027375E+03  0.89523934348E+02 0.  0.
        254    2    1    2    0    0  0.14209992375E+03 -0.18274833035E+03 -0.75031100124E+03  0.11939111504E+04  0.89937083337E+03 0.  0.
        -24    2    4    4    0    0  0.45865740587E+02  0.15553395693E+03  0.14337465722E+03  0.23080101570E+03  0.80114534235E+02 0.  0.
         24    2    4    4    0    0  0.96234183158E+02 -0.33828228728E+03 -0.89368565846E+03  0.96311013471E+03  0.72188306146E+02 0.  0.
         13    1    3    3    0    0 -0.78923169256E+02  0.15155814466E+03  0.33265076439E+03  0.37397228361E+03  0.00000000000E+00 0. -1.
        -13    1    3    3    0    0 -0.63176754489E+02  0.31190185688E+02  0.72028068040E+02  0.10075799014E+03  0.00000000000E+00 0.  1.
          2    1    6    6  502    0  0.99106663131E+02 -0.25969152378E+03 -0.73977384960E+03  0.79027031245E+03  0.00000000000E+00 0. -1.
          3    1    5    5  503    0  0.23072480591E+02  0.12873142083E+03  0.14539356219E+03  0.19555921353E+03  0.00000000000E+00 0. -1.
         -4    1    5    5    0  503  0.22793259996E+02  0.26802536108E+02 -0.20189049720E+01  0.35241802172E+02  0.00000000000E+00 0.  1.
         -1    1    6    6    0  502 -0.28724799731E+01 -0.78590763505E+02 -0.15391180887E+03  0.17283982226E+03  0.00000000000E+00 0.  1.
<mgrwt>
<rscale>  0 0.16324529E+04</rscale>
<asrwt>0</asrwt>
<pdfrwt beam="1">  1        1 0.10176994E+00 0.16324529E+04</pdfrwt>
<pdfrwt beam="2">  1       -1 0.15494412E+00 0.16324529E+04</pdfrwt>
<totfact> 0.90705987E+00</totfact>
</mgrwt>
</event>
<event>
12    1  0.1506149E-007  0.1233024E+04  0.7818608E-02  0.9084432E-01
         -1   -1    0    0    0  501 -0.00000000000E+00  0.00000000000E+00  0.32653404198E+03  0.32653404198E+03  0.00000000000E+00 0.  1.
          1   -1    0    0  501    0  0.00000000000E+00 -0.00000000000E+00 -0.11640036897E+04  0.11640036897E+04  0.00000000000E+00 0. -1.
         23    2    1    2    0    0  0.26165978586E+03 -0.51920226327E+02 -0.28517484984E+03  0.40117491479E+03  0.91951421086E+02 0.  0.
        254    2    1    2    0    0 -0.26165978586E+03  0.51920226327E+02 -0.55229479792E+03  0.10893628169E+04  0.90028898119E+03 0.  0.
        -24    2    4    4    0    0 -0.13962100151E+03 -0.14531679835E+03  0.20230012158E+03  0.29569293298E+03  0.76798277823E+02 0.  0.
         24    2    4    4    0    0 -0.12203878435E+03  0.19723702468E+03 -0.75459491950E+03  0.79366988395E+03  0.81868695808E+02 0.  0.
         13    1    3    3    0    0  0.19741662320E+03 -0.31868326166E+01 -0.16979756309E+03  0.26041254088E+03  0.00000000000E+00 0. -1.
        -13    1    3    3    0    0  0.64243162662E+02 -0.48733393711E+02 -0.11537728675E+03  0.14076237391E+03  0.00000000000E+00 0.  1.
          4    1    6    6  502    0 -0.10647086769E+02  0.91050827262E+02 -0.26016772498E+03  0.27584571544E+03  0.00000000000E+00 0. -1.
          3    1    5    5  503    0  0.36396676704E+01  0.32289870689E+01 -0.20363624646E+01  0.52744962157E+01  0.00000000000E+00 0. -1.
         -4    1    5    5    0  503 -0.14326066918E+03 -0.14854578542E+03  0.20433648405E+03  0.29041843677E+03  0.00000000000E+00 0.  1.
         -3    1    6    6    0  502 -0.11139169758E+03  0.10618619742E+03 -0.49442719452E+03  0.51782416851E+03  0.00000000000E+00 0.  1.
<mgrwt>
<rscale>  0 0.12330236E+04</rscale>
<asrwt>0</asrwt>
<pdfrwt beam="1">  1        1 0.17907749E+00 0.12330236E+04</pdfrwt>
<pdfrwt beam="2">  1       -1 0.50236007E-01 0.12330236E+04</pdfrwt>
<totfact> 0.44598692E+01</totfact>
</mgrwt>
</event>
<event>
12    1  0.1506149E-007  0.1468606E+04  0.7818608E-02  0.8905603E-01
          2   -1    0    0  501    0  0.00000000000E+00  0.00000000000E+00  0.12067925148E+04  0.12067925148E+04  0.00000000000E+00 0.  1.
         -2   -1    0    0    0  501 -0.00000000000E+00 -0.00000000000E+00 -0.44680467644E+03  0.44680467644E+03  0.00000000000E+00 0. -1.
         23    2    1    2    0    0 -0.27603610421E+03 -0.28447659174E+03  0.49828433190E+03  0.64316273585E+03  0.90819421356E+02 0.  0.
        254    2    1    2    0    0  0.27603610421E+03  0.28447659174E+03  0.26170350641E+03  0.10104344553E+04  0.89183305680E+03 0.  0.
        -24    2    4    4    0    0  0.50777591157E+03  0.28614343530E+03 -0.75915531105E+02  0.59353926146E+03  0.82530267703E+02 0.  0.
         24    2    4    4    0    0 -0.23173980736E+03 -0.16668435658E+01  0.33761903752E+03  0.41689519389E+03  0.78159270131E+02 0.  0.
         13    1    3    3    0    0 -0.11717189822E+02 -0.35289823780E+02  0.18959667986E+02  0.41738869293E+02  0.00000000000E+00 0. -1.
        -13    1    3    3    0    0 -0.26431891439E+03 -0.24918676796E+03  0.47932466391E+03  0.60142386656E+03  0.00000000000E+00 0.  1.
          4    1    6    6  502    0 -0.56111807732E+01 -0.52752116998E+01  0.52063234890E+02  0.52629778978E+02  0.00000000000E+00 0. -1.
          1    1    5    5  503    0  0.15416697890E+03  0.51697632636E+02 -0.41371955127E+00  0.16260465482E+03  0.00000000000E+00 0. -1.
         -2    1    5    5    0  503  0.35360893267E+03  0.23444580267E+03 -0.75501811554E+02  0.43093460664E+03  0.00000000000E+00 0.  1.
         -3    1    6    6    0  502 -0.22612862659E+03  0.36083681340E+01  0.28555580263E+03  0.36426541491E+03  0.00000000000E+00 0.  1.
<mgrwt>
<rscale>  0 0.14686055E+04</rscale>
<asrwt>0</asrwt>
<pdfrwt beam="1">  1        2 0.18566039E+00 0.14686055E+04</pdfrwt>
<pdfrwt beam="2">  1       -2 0.68739181E-01 0.14686055E+04</pdfrwt>
<totfact> 0.35150698E+01</totfact>
</mgrwt>
</event>
<event>
12    1  0.1506149E-007  0.1528107E+04  0.7818608E-02  0.8865974E-01
          1   -1    0    0  501    0  0.00000000000E+00  0.00000000000E+00  0.17044896993E+04  0.17044896993E+04  0.00000000000E+00 0. -1.
         -1   -1    0    0    0  501 -0.00000000000E+00 -0.00000000000E+00 -0.34249428347E+03  0.34249428347E+03  0.00000000000E+00 0.  1.
         23    2    1    2    0    0  0.14862268326E+03  0.39207870871E+03  0.79755996882E+03  0.90562576406E+03  0.90783835910E+02 0.  0.
        254    2    1    2    0    0 -0.14862268326E+03 -0.39207870871E+03  0.56443544699E+03  0.11413582187E+04  0.89905327637E+03 0.  0.
        -24    2    4    4    0    0 -0.13462257411E+03 -0.45272309074E+03 -0.82806511977E+02  0.48636675927E+03  0.81328173160E+02 0.  0.
         24    2    4    4    0    0 -0.14000109147E+02  0.60644382026E+02  0.64724195897E+03  0.65499145942E+03  0.78853752860E+02 0.  0.
         13    1    3    3    0    0  0.11611101589E+03  0.19372863150E+03  0.46709052004E+03  0.51883147995E+03  0.00000000000E+00 0. -1.
        -13    1    3    3    0    0  0.32511667367E+02  0.19835007721E+03  0.33046944878E+03  0.38679428411E+03  0.00000000000E+00 0.  1.
          4    1    6    6  502    0 -0.34102875932E+02  0.41462288044E+02  0.57640587285E+03  0.57890055945E+03  0.00000000000E+00 0. -1.
          3    1    5    5  503    0 -0.12038333709E+03 -0.40684630475E+03 -0.98990670214E+02  0.43567788138E+03  0.00000000000E+00 0. -1.
         -4    1    5    5    0  503 -0.14239237022E+02 -0.45876785987E+02  0.16184158237E+02  0.50688877886E+02  0.00000000000E+00 0.  1.
         -3    1    6    6    0  502  0.20102766785E+02  0.19182093982E+02  0.70836086118E+02  0.76090899972E+02  0.00000000000E+00 0.  1.
<mgrwt>
<rscale>  0 0.15281073E+04</rscale>
<asrwt>0</asrwt>
<pdfrwt beam="1">  1        1 0.26222918E+00 0.15281073E+04</pdfrwt>
<pdfrwt beam="2">  1       -1 0.52691429E-01 0.15281073E+04</pdfrwt>
<totfact> 0.16581615E+01</totfact>
</mgrwt>
</event>
<event>
12    1  0.1506149E-007  0.1098385E+04  0.7818608E-02  0.9206768E-01
         -2   -1    0    0    0  501 -0.00000000000E+00  0.00000000000E+00  0.10062009910E+04  0.10062009910E+04  0.00000000000E+00 0. -1.
          2   -1    0    0  501    0  0.00000000000E+00 -0.00000000000E+00 -0.29975344942E+03  0.29975344942E+03  0.00000000000E+00 0.  1.
         23    2    1    2    0    0  0.13865747790E+03  0.28396747045E+02  0.60313268267E+02  0.17878115464E+03  0.91064479935E+02 0.  0.
        254    2    1    2    0    0 -0.13865747790E+03 -0.28396747045E+02  0.64613427336E+03  0.11271732858E+04  0.91268715651E+03 0.  0.
        -24    2    4    4    0    0 -0.21196790234E+03 -0.15428668049E+03 -0.15091707593E+03  0.31300284079E+03  0.80374393531E+02 0.  0.
         24    2    4    4    0    0  0.73310424439E+02  0.12588993345E+03  0.79705134929E+03  0.81417044504E+03  0.79749398111E+02 0.  0.
         11    1    3    3    0    0  0.12930423216E+03  0.51919967803E+02  0.36531619883E+02  0.14404800160E+03  0.00000000000E+00 0.  1.
        -11    1    3    3    0    0  0.93532457324E+01 -0.23523220758E+02  0.23781648383E+02  0.34733153044E+02  0.00000000000E+00 0. -1.
          2    1    6    6  502    0  0.55751615370E+02  0.81978125774E+02  0.32574648586E+03  0.34049879409E+03  0.00000000000E+00 0. -1.
          3    1    5    5  503    0 -0.10125894737E+03 -0.97912513853E+02 -0.39915169292E+02  0.14640169238E+03  0.00000000000E+00 0. -1.
         -4    1    5    5    0  503 -0.11070895497E+03 -0.56374166639E+02 -0.11100190664E+03  0.16660114841E+03  0.00000000000E+00 0.  1.
         -1    1    6    6    0  502  0.17558809069E+02  0.43911807673E+02  0.47130486342E+03  0.47367165095E+03  0.00000000000E+00 0.  1.
<mgrwt>
<rscale>  0 0.10983847E+04</rscale>
<asrwt>0</asrwt>
<pdfrwt beam="1">  1        2 0.46115916E-01 0.10983847E+04</pdfrwt>
<pdfrwt beam="2">  1       -2 0.15480015E+00 0.10983847E+04</pdfrwt>
<totfact> 0.30025822E+01</totfact>
</mgrwt>
</event>
<event>
12    1  0.1506149E-007  0.1375220E+04  0.7818608E-02  0.8971953E-01
         -2   -1    0    0    0  501 -0.00000000000E+00  0.00000000000E+00  0.72068990380E+03  0.72068990380E+03  0.00000000000E+00 0.  1.
          2   -1    0    0  501    0  0.00000000000E+00 -0.00000000000E+00 -0.65604877503E+03  0.65604877503E+03  0.00000000000E+00 0. -1.
         23    2    1    2    0    0 -0.29266837096E+03 -0.28690950429E+02  0.25685396759E+03  0.40106030312E+03  0.91637656437E+02 0.  0.
        254    2    1    2    0    0  0.29266837096E+03  0.28690950429E+02 -0.19221283881E+03  0.97567837571E+03  0.91023325111E+03 0.  0.
        -24    2    4    4    0    0 -0.19832718709E+03 -0.33660149916E+02  0.23266021053E+03  0.31811880614E+03  0.81253445643E+02 0.  0.
         24    2    4    4    0    0  0.49099555805E+03  0.62351100345E+02 -0.42487304934E+03  0.65755956956E+03  0.83085388221E+02 0.  0.
         11    1    3    3    0    0 -0.67613507432E+02 -0.45612734462E+02  0.80988958019E+02  0.11494050310E+03  0.00000000000E+00 0.  1.
        -11    1    3    3    0    0 -0.22505486353E+03  0.16921784033E+02  0.17586500957E+03  0.28611980002E+03  0.00000000000E+00 0. -1.
          2    1    6    6  502    0  0.15200489098E+03  0.51734470323E+02 -0.10882115736E+03  0.19396903513E+03  0.00000000000E+00 0. -1.
          3    1    5    5  503    0 -0.50958950209E+02  0.17751832040E+02  0.28177603973E+02  0.60876263953E+02  0.00000000000E+00 0. -1.
         -4    1    5    5    0  503 -0.14736823688E+03 -0.51411981956E+02  0.20448260655E+03  0.25724254219E+03  0.00000000000E+00 0.  1.
         -1    1    6    6    0  502  0.33899066707E+03  0.10616630022E+02 -0.31605189197E+03  0.46359053443E+03  0.00000000000E+00 0.  1.
<mgrwt>
<rscale>  0 0.13752203E+04</rscale>
<asrwt>0</asrwt>
<pdfrwt beam="1">  1        2 0.10093058E+00 0.13752203E+04</pdfrwt>
<pdfrwt beam="2">  1       -2 0.11087537E+00 0.13752203E+04</pdfrwt>
<totfact> 0.27933005E+01</totfact>
</mgrwt>
</event>
<event>
12    1  0.1506149E-007  0.1761230E+04  0.7818608E-02  0.8727193E-01
         -2   -1    0    0    0  501 -0.00000000000E+00  0.00000000000E+00  0.36102614210E+03  0.36102614210E+03  0.00000000000E+00 0.  1.
          2   -1    0    0  501    0  0.00000000000E+00 -0.00000000000E+00 -0.21479957798E+04  0.21479957798E+04  0.00000000000E+00 0. -1.
         23    2    1    2    0    0 -0.22628699791E+03 -0.57348692755E+03 -0.98257630707E+03  0.11641271187E+04  0.98197188148E+02 0.  0.
        254    2    1    2    0    0  0.22628699791E+03  0.57348692755E+03 -0.80439333067E+03  0.13448948032E+04  0.88408163644E+03 0.  0.
        -24    2    4    4    0    0 -0.89290463201E+02 -0.17182237588E+03 -0.36386695789E+03  0.41989670068E+03  0.80114671082E+02 0.  0.
         24    2    4    4    0    0  0.31557746111E+03  0.74530930343E+03 -0.44052637278E+03  0.92499810257E+03  0.80516538094E+02 0.  0.
         13    1    3    3    0    0 -0.16659409792E+03 -0.44743458349E+03 -0.82911059282E+03  0.95675267184E+03  0.00000000000E+00 0. -1.
        -13    1    3    3    0    0 -0.59692899985E+02 -0.12605234406E+03 -0.15346571425E+03  0.20737444684E+03  0.00000000000E+00 0.  1.
          2    1    6    6  502    0  0.30214080951E+03  0.70656379996E+03 -0.43654849142E+03  0.88379638919E+03  0.00000000000E+00 0. -1.
          3    1    5    5  503    0 -0.92092884841E+02 -0.16073760180E+03 -0.28309838731E+03  0.33832288271E+03  0.00000000000E+00 0. -1.
         -4    1    5    5    0  503  0.28024216399E+01 -0.11084774085E+02 -0.80768570583E+02  0.81573817967E+02  0.00000000000E+00 0.  1.
         -1    1    6    6    0  502  0.13436651598E+02  0.38745503468E+02 -0.39778813574E+01  0.41201713377E+02  0.00000000000E+00 0.  1.
<mgrwt>
<rscale>  0 0.17612298E+04</rscale>
<asrwt>0</asrwt>
<pdfrwt beam="1">  1        2 0.33046088E+00 0.17612298E+04</pdfrwt>
<pdfrwt beam="2">  1       -2 0.55542484E-01 0.17612298E+04</pdfrwt>
<totfact> 0.15936173E+01</totfact>
</mgrwt>
</event>
<event>
12    1  0.1506149E-007  0.1806169E+04  0.7818608E-02  0.8703026E-01
          1   -1    0    0  501    0  0.00000000000E+00  0.00000000000E+00  0.75571653256E+03  0.75571653256E+03  0.00000000000E+00 0. -1.
         -1   -1    0    0    0  501 -0.00000000000E+00 -0.00000000000E+00 -0.10791895681E+04  0.10791895681E+04  0.00000000000E+00 0.  1.
         23    2    1    2    0    0 -0.37520138483E+03  0.53890450885E+03 -0.14763554352E+03  0.67920362347E+03  0.91253271640E+02 0.  0.
        254    2    1    2    0    0  0.37520138483E+03 -0.53890450885E+03 -0.17583749205E+03  0.11557024772E+04  0.93463107343E+03 0.  0.
        -24    2    4    4    0    0  0.15152768754E+03  0.20566120914E+03 -0.25528373270E+03  0.36989697990E+03  0.79980113314E+02 0.  0.
         24    2    4    4    0    0  0.22367369729E+03 -0.74456571798E+03  0.79446240651E+02  0.78580549732E+03  0.82283310646E+02 0.  0.
         13    1    3    3    0    0 -0.21518660801E+03  0.26627498992E+03 -0.11613877994E+03  0.36151882763E+03  0.00000000000E+00 0. -1.
        -13    1    3    3    0    0 -0.16001477682E+03  0.27262951892E+03 -0.31496763583E+02  0.31768479584E+03  0.00000000000E+00 0.  1.
          4    1    6    6  502    0  0.11887007166E+03 -0.51518712320E+03  0.36434370380E+02  0.52997672514E+03  0.00000000000E+00 0. -1.
          1    1    5    5  503    0  0.12667861804E+03  0.14623444622E+03 -0.23036469171E+03  0.30083197423E+03  0.00000000000E+00 0. -1.
         -2    1    5    5    0  503  0.24849069498E+02  0.59426762912E+02 -0.24919040993E+02  0.69065005676E+02  0.00000000000E+00 0.  1.
         -3    1    6    6    0  502  0.10480362563E+03 -0.22937859478E+03  0.43011870271E+02  0.25582877218E+03  0.00000000000E+00 0.  1.
<mgrwt>
<rscale>  0 0.18061688E+04</rscale>
<asrwt>0</asrwt>
<pdfrwt beam="1">  1        1 0.11626408E+00 0.18061688E+04</pdfrwt>
<pdfrwt beam="2">  1       -1 0.16602916E+00 0.18061688E+04</pdfrwt>
<totfact> 0.60098856E+00</totfact>
</mgrwt>
</event>
<event>
12    1  0.1654606E-007  0.2071186E+04  0.7818608E-02  0.8574043E-01
         -2   -1    0    0    0  501 -0.00000000000E+00  0.00000000000E+00  0.62123595128E+03  0.62123595128E+03  0.00000000000E+00 0. -1.
          2   -1    0    0  501    0  0.00000000000E+00 -0.00000000000E+00 -0.17263212416E+04  0.17263212416E+04  0.00000000000E+00 0.  1.
         23    2    1    2    0    0  0.39394219524E+03 -0.65398391330E+03 -0.59386581146E+02  0.77116153161E+03  0.90983128998E+02 0.  0.
        254    2    1    2    0    0 -0.39394219524E+03  0.65398391330E+03 -0.10456987091E+04  0.15763956612E+04  0.89925084288E+03 0.  0.
        -24    2    4    4    0    0  0.12415459901E+03  0.63727148965E+03 -0.60768332457E+03  0.89295184604E+03  0.80960857215E+02 0.  0.
         24    2    4    4    0    0 -0.51809679425E+03  0.16712423651E+02 -0.43801538456E+03  0.68344381520E+03  0.80835500233E+02 0.  0.
         13    1    3    3    0    0  0.34601791705E+03 -0.61994223100E+03 -0.51249210703E+02  0.71181686570E+03  0.00000000000E+00 0. -1.
        -13    1    3    3    0    0  0.47924278193E+02 -0.34041682306E+02 -0.81373704424E+01  0.59344665912E+02  0.00000000000E+00 0.  1.
          2    1    6    6  502    0 -0.92315649302E+02  0.51384904282E+01 -0.40902798574E+02  0.10110203816E+03  0.00000000000E+00 0. -1.
          1    1    5    5  503    0  0.31752704590E+02  0.82132858497E+02 -0.11605050303E+03  0.14567690259E+03  0.00000000000E+00 0. -1.
         -2    1    5    5    0  503  0.92401894422E+02  0.55513863116E+03 -0.49163282154E+03  0.74727494345E+03  0.00000000000E+00 0.  1.
         -1    1    6    6    0  502 -0.42578114495E+03  0.11573933223E+02 -0.39711258599E+03  0.58234177703E+03  0.00000000000E+00 0.  1.
<mgrwt>
<rscale>  0 0.20711860E+04</rscale>
<asrwt>0</asrwt>
<pdfrwt beam="1">  1        2 0.26558788E+00 0.20711860E+04</pdfrwt>
<pdfrwt beam="2">  1       -2 0.95574764E-01 0.20711860E+04</pdfrwt>
<totfact> 0.80485338E+00</totfact>
</mgrwt>
</event>
<event>
12    1  0.1506149E-007  0.1696158E+04  0.7818608E-02  0.8763559E-01
         -2   -1    0    0    0  501 -0.00000000000E+00  0.00000000000E+00  0.12104031992E+04  0.12104031992E+04  0.00000000000E+00 0.  1.
          2   -1    0    0  501    0  0.00000000000E+00 -0.00000000000E+00 -0.59421353728E+03  0.59421353728E+03  0.00000000000E+00 0. -1.
         23    2    1    2    0    0 -0.35714879066E+03 -0.43644252612E+03  0.24240795526E+02  0.57147151106E+03  0.89189318329E+02 0.  0.
        254    2    1    2    0    0  0.35714879066E+03  0.43644252612E+03  0.59194886642E+03  0.12331452254E+04  0.92315023117E+03 0.  0.
        -24    2    4    4    0    0  0.31938999330E+02  0.64200847175E+03  0.19982366613E+03  0.67794934364E+03  0.80565734140E+02 0.  0.
         24    2    4    4    0    0  0.32520979133E+03 -0.20556594563E+03  0.39212520029E+03  0.55519588181E+03  0.80383630767E+02 0.  0.
         11    1    3    3    0    0 -0.79504756740E+02 -0.16239255516E+03  0.10494195319E+02  0.18111453959E+03  0.00000000000E+00 0.  1.
        -11    1    3    3    0    0 -0.27764403392E+03 -0.27404997097E+03  0.13746600207E+02  0.39035697147E+03  0.00000000000E+00 0. -1.
          4    1    6    6  502    0  0.24670460896E+03 -0.19357763336E+03  0.30969460758E+03  0.44073372253E+03  0.00000000000E+00 0. -1.
          3    1    5    5  503    0  0.42500253435E+02  0.43780748599E+03  0.16876614869E+03  0.47113021478E+03  0.00000000000E+00 0. -1.
         -4    1    5    5    0  503 -0.10561254105E+02  0.20420098576E+03  0.31057517434E+02  0.20681912886E+03  0.00000000000E+00 0.  1.
         -3    1    6    6    0  502  0.78505182379E+02 -0.11988312272E+02  0.82430592714E+02  0.11446215928E+03  0.00000000000E+00 0.  1.
<mgrwt>
<rscale>  0 0.16961580E+04</rscale>
<asrwt>0</asrwt>
<pdfrwt beam="1">  1        2 0.91417468E-01 0.16961580E+04</pdfrwt>
<pdfrwt beam="2">  1       -2 0.18621588E+00 0.16961580E+04</pdfrwt>
<totfact> 0.78449177E+00</totfact>
</mgrwt>
</event>
<event>
12    1  0.1506149E-007  0.1160802E+04  0.7818608E-02  0.9147876E-01
          1   -1    0    0  501    0  0.00000000000E+00  0.00000000000E+00  0.25739358321E+04  0.25739358321E+04  0.00000000000E+00 0. -1.
         -1   -1    0    0    0  501 -0.00000000000E+00 -0.00000000000E+00 -0.13087548894E+03  0.13087548894E+03  0.00000000000E+00 0.  1.
         23    2    1    2    0    0  0.11789484551E+03 -0.56169633236E+02  0.98290135974E+02  0.18676364785E+03  0.90363084457E+02 0.  0.
        254    2    1    2    0    0 -0.11789484551E+03  0.56169633236E+02  0.23447702072E+04  0.25180476732E+04  0.90860472024E+03 0.  0.
        -24    2    4    4    0    0 -0.56580924207E+02 -0.25917897214E+03  0.18791456454E+03  0.33593189441E+03  0.84635769801E+02 0.  0.
         24    2    4    4    0    0 -0.61313921306E+02  0.31534860538E+03  0.21568556426E+04  0.21821157788E+04  0.79992930406E+02 0.  0.
         11    1    3    3    0    0  0.38406212188E+02  0.12457873783E+02  0.65143683371E+02  0.76641602521E+02  0.00000000000E+00 0. -1.
        -11    1    3    3    0    0  0.79488633325E+02 -0.68627507020E+02  0.33146452602E+02  0.11012204533E+03  0.00000000000E+00 0.  1.
          2    1    6    6  502    0 -0.41300785732E+02  0.49968453341E+02  0.44441052216E+03  0.44911392033E+03  0.00000000000E+00 0. -1.
          1    1    5    5  503    0 -0.13008389474E+02 -0.13705628656E+03  0.14352866499E+03  0.19888218009E+03  0.00000000000E+00 0. -1.
         -2    1    5    5    0  503 -0.43572534732E+02 -0.12212268558E+03  0.44385899549E+02  0.13704971432E+03  0.00000000000E+00 0.  1.
         -1    1    6    6    0  502 -0.20013135573E+02  0.26538015204E+03  0.17124451205E+04  0.17330018584E+04  0.00000000000E+00 0.  1.
<mgrwt>
<rscale>  0 0.11608016E+04</rscale>
<asrwt>0</asrwt>
<pdfrwt beam="1">  1        1 0.39599009E+00 0.11608016E+04</pdfrwt>
<pdfrwt beam="2">  1       -1 0.20134693E-01 0.11608016E+04</pdfrwt>
<totfact> 0.24351776E+01</totfact>
</mgrwt>
</event>
<event>
12    1  0.1506149E-007  0.1925378E+04  0.7818608E-02  0.8642326E-01
         -2   -1    0    0    0  501 -0.00000000000E+00  0.00000000000E+00  0.28594642023E+03  0.28594642023E+03  0.00000000000E+00 0.  1.
          2   -1    0    0  501    0  0.00000000000E+00 -0.00000000000E+00 -0.32410609740E+04  0.32410609740E+04  0.00000000000E+00 0. -1.
         23    2    1    2    0    0  0.30868362736E+03 -0.44109990786E+03 -0.21756826219E+03  0.58812247628E+03  0.93259787049E+02 0.  0.
        254    2    1    2    0    0 -0.30868362736E+03  0.44109990786E+03 -0.27375462916E+04  0.29388849180E+04  0.92359631435E+03 0.  0.
        -24    2    4    4    0    0  0.27614118779E+03 -0.58581145212E+02 -0.80409161599E+03  0.85650448820E+03  0.85737420307E+02 0.  0.
         24    2    4    4    0    0 -0.58482481516E+03  0.49968105307E+03 -0.19334546756E+04  0.20823804298E+04  0.79749936589E+02 0.  0.
         13    1    3    3    0    0  0.10820971264E+03 -0.19464649003E+03 -0.47272652839E+02  0.22766488903E+03  0.00000000000E+00 0.  1.
        -13    1    3    3    0    0  0.20047391472E+03 -0.24645341784E+03 -0.17029560935E+03  0.36045758726E+03  0.00000000000E+00 0. -1.
          2    1    6    6  502    0 -0.17493025414E+03  0.17802980347E+03 -0.71035317502E+03  0.75292551956E+03  0.00000000000E+00 0. -1.
          3    1    5    5  503    0  0.20480780169E+03 -0.43510998343E+02 -0.46965766996E+03  0.51421568389E+03  0.00000000000E+00 0. -1.
         -4    1    5    5    0  503  0.71333386099E+02 -0.15070146869E+02 -0.33443394603E+03  0.34228880431E+03  0.00000000000E+00 0.  1.
         -1    1    6    6    0  502 -0.40989456101E+03  0.32165124960E+03 -0.12231015006E+04  0.13294549102E+04  0.00000000000E+00 0.  1.
<mgrwt>
<rscale>  0 0.19253777E+04</rscale>
<asrwt>0</asrwt>
<pdfrwt beam="1">  1        2 0.49862474E+00 0.19253777E+04</pdfrwt>
<pdfrwt beam="2">  1       -2 0.43991759E-01 0.19253777E+04</pdfrwt>
<totfact> 0.56068274E+00</totfact>
</mgrwt>
</event>
<event>
12    1  0.1506149E-007  0.1182743E+04  0.7818608E-02  0.9128097E-01
         -4   -1    0    0    0  501 -0.00000000000E+00  0.00000000000E+00  0.39031195611E+03  0.39031195611E+03  0.00000000000E+00 0.  1.
          4   -1    0    0  501    0  0.00000000000E+00 -0.00000000000E+00 -0.89600180727E+03  0.89600180727E+03  0.00000000000E+00 0. -1.
         23    2    1    2    0    0  0.17961731481E+03  0.14595230726E+03 -0.44568926257E+02  0.25276726210E+03  0.91326030395E+02 0.  0.
        254    2    1    2    0    0 -0.17961731481E+03 -0.14595230726E+03 -0.46112092491E+03  0.10335465013E+04  0.89555647904E+03 0.  0.
        -24    2    4    4    0    0 -0.29864605411E+03 -0.23816197493E+01 -0.67199667779E+03  0.73974021998E+03  0.80255344675E+02 0.  0.
         24    2    4    4    0    0  0.11902873930E+03 -0.14357068751E+03  0.21087575288E+03  0.29380628130E+03  0.84102108696E+02 0.  0.
         11    1    3    3    0    0  0.10415311330E+03  0.82406865261E+02 -0.71047462480E+02  0.15062039828E+03  0.00000000000E+00 0. -1.
        -11    1    3    3    0    0  0.75464201511E+02  0.63545441996E+02  0.26478536223E+02  0.10214686382E+03  0.00000000000E+00 0.  1.
          2    1    6    6  502    0  0.88525521852E+02 -0.45468784745E+02  0.81709021607E+02  0.12876545584E+03  0.00000000000E+00 0. -1.
          1    1    5    5  503    0 -0.13716836002E+03  0.23704835325E+02 -0.38514963319E+03  0.40953304891E+03  0.00000000000E+00 0. -1.
         -2    1    5    5    0  503 -0.16147769409E+03 -0.26086455074E+02 -0.28684704461E+03  0.33020717107E+03  0.00000000000E+00 0.  1.
         -1    1    6    6    0  502  0.30503217443E+02 -0.98101902763E+02  0.12916673128E+03  0.16504082546E+03  0.00000000000E+00 0.  1.
<mgrwt>
<rscale>  0 0.11827429E+04</rscale>
<asrwt>0</asrwt>
<pdfrwt beam="1">  1        4 0.13784643E+00 0.11827429E+04</pdfrwt>
<pdfrwt beam="2">  1       -4 0.60047994E-01 0.11827429E+04</pdfrwt>
<totfact> 0.19182246E+00</totfact>
</mgrwt>
</event>
<event>
12    1  0.1506149E-007  0.3101686E+04  0.7818608E-02  0.8215275E-01
          2   -1    0    0  501    0  0.00000000000E+00  0.00000000000E+00  0.14590133556E+04  0.14590133556E+04  0.00000000000E+00 0.  1.
         -2   -1    0    0    0  501 -0.00000000000E+00 -0.00000000000E+00 -0.16484520890E+04  0.16484520890E+04  0.00000000000E+00 0. -1.
         23    2    1    2    0    0  0.10874148902E+04 -0.35750008549E+03 -0.92537996867E+03  0.14747806188E+04  0.91500450816E+02 0.  0.
        254    2    1    2    0    0 -0.10874148902E+04  0.35750008549E+03  0.73594123526E+03  0.16326848259E+04  0.90209355626E+03 0.  0.
        -24    2    4    4    0    0 -0.12349654789E+04  0.35464231049E+03  0.68167867367E+03  0.14566179436E+04  0.78352516751E+02 0.  0.
         24    2    4    4    0    0  0.14755058870E+03  0.28577749942E+01  0.54262561584E+02  0.17606688229E+03  0.79219810313E+02 0.  0.
         13    1    3    3    0    0  0.66176689953E+03 -0.20288379933E+03 -0.61344022267E+03  0.92488170710E+03  0.00000000000E+00 0. -1.
        -13    1    3    3    0    0  0.42564799067E+03 -0.15461628615E+03 -0.31193974600E+03  0.54989891166E+03  0.00000000000E+00 0.  1.
          4    1    6    6  502    0  0.79104992540E+02 -0.36065966273E+02  0.41367138206E+02  0.96278730213E+02  0.00000000000E+00 0. -1.
          1    1    5    5  503    0 -0.35167908183E+03  0.10154423772E+03  0.15471457534E+03  0.39739905465E+03  0.00000000000E+00 0. -1.
         -2    1    5    5    0  503 -0.88328639707E+03  0.25309807277E+03  0.52696409834E+03  0.10592188889E+04  0.00000000000E+00 0.  1.
         -3    1    6    6    0  502  0.68445596160E+02  0.38923741267E+02  0.12895423377E+02  0.79788152078E+02  0.00000000000E+00 0.  1.
<mgrwt>
<rscale>  0 0.31016857E+04</rscale>
<asrwt>0</asrwt>
<pdfrwt beam="1">  1        2 0.22446359E+00 0.31016857E+04</pdfrwt>
<pdfrwt beam="2">  1       -2 0.25360801E+00 0.31016857E+04</pdfrwt>
<totfact> 0.69414359E-01</totfact>
</mgrwt>
</event>
<event>
12    1  0.1506149E-007  0.1443111E+04  0.7818608E-02  0.8923191E-01
         -2   -1    0    0    0  501 -0.00000000000E+00  0.00000000000E+00  0.48586300688E+03  0.48586300688E+03  0.00000000000E+00 0.  1.
          2   -1    0    0  501    0  0.00000000000E+00 -0.00000000000E+00 -0.10715823757E+04  0.10715823757E+04  0.00000000000E+00 0. -1.
         23    2    1    2    0    0 -0.33103017988E+02  0.36226397760E+03  0.81535336800E+02  0.38359681865E+03  0.90374271033E+02 0.  0.
        254    2    1    2    0    0  0.33103017988E+02 -0.36226397760E+03 -0.66725470557E+03  0.11738485639E+04  0.89462875515E+03 0.  0.
        -24    2    4    4    0    0  0.32961937933E+02  0.25639076469E+03 -0.42609610709E+03  0.50505517280E+03  0.81854270060E+02 0.  0.
         24    2    4    4    0    0  0.14108005486E+00 -0.61865474230E+03 -0.24115859848E+03  0.66879339107E+03  0.79958866022E+02 0.  0.
         13    1    3    3    0    0 -0.31734167215E+02  0.11828682155E+03  0.66000208868E+02  0.13912173479E+03  0.00000000000E+00 0. -1.
        -13    1    3    3    0    0 -0.13688507732E+01  0.24397715606E+03  0.15535127932E+02  0.24447508386E+03  0.00000000000E+00 0.  1.
          2    1    6    6  502    0 -0.13517447503E+02 -0.53754214990E+03 -0.23337146968E+03  0.58617107330E+03  0.00000000000E+00 0. -1.
          3    1    5    5  503    0 -0.62902468402E+00  0.21908552909E+03 -0.36796163858E+03  0.42824599495E+03  0.00000000000E+00 0. -1.
         -4    1    5    5    0  503  0.33590962617E+02  0.37305235606E+02 -0.58134468510E+02  0.76809177851E+02  0.00000000000E+00 0.  1.
         -1    1    6    6    0  502  0.13658527558E+02 -0.81112592395E+02 -0.77871287945E+01  0.82622317778E+02  0.00000000000E+00 0.  1.
<mgrwt>
<rscale>  0 0.14431109E+04</rscale>
<asrwt>0</asrwt>
<pdfrwt beam="1">  1        2 0.16485883E+00 0.14431109E+04</pdfrwt>
<pdfrwt beam="2">  1       -2 0.74748155E-01 0.14431109E+04</pdfrwt>
<totfact> 0.35424710E+01</totfact>
</mgrwt>
</event>
<event>
12    1  0.1506149E-007  0.2071249E+04  0.7818608E-02  0.8574015E-01
          2   -1    0    0  501    0  0.00000000000E+00  0.00000000000E+00  0.98328471356E+03  0.98328471356E+03  0.00000000000E+00 0. -1.
         -2   -1    0    0    0  501 -0.00000000000E+00 -0.00000000000E+00 -0.10907507524E+04  0.10907507524E+04  0.00000000000E+00 0.  1.
         23    2    1    2    0    0 -0.12879310833E+03 -0.66829505341E+03 -0.54020080900E+03  0.87379298120E+03  0.92148341206E+02 0.  0.
        254    2    1    2    0    0  0.12879310833E+03  0.66829505341E+03  0.43273477017E+03  0.12002424847E+04  0.88888508690E+03 0.  0.
        -24    2    4    4    0    0  0.14534482968E+03  0.87148513636E+03  0.41859510636E+03  0.98086977287E+03  0.79197132869E+02 0.  0.
         24    2    4    4    0    0 -0.16551721350E+02 -0.20319008295E+03  0.14139663811E+02  0.21937271187E+03  0.79776483566E+02 0.  0.
         13    1    3    3    0    0 -0.11803600103E+02 -0.70743995883E+02 -0.97198931660E+02  0.12079598605E+03  0.00000000000E+00 0.  1.
        -13    1    3    3    0    0 -0.11698950823E+03 -0.59755105753E+03 -0.44300187734E+03  0.75299699515E+03  0.00000000000E+00 0. -1.
          4    1    6    6  502    0 -0.25772778847E+02 -0.15785755855E+03  0.42000315896E+02  0.16537010448E+03  0.00000000000E+00 0. -1.
          3    1    5    5  503    0  0.13438207470E+03  0.75918314012E+03  0.39211157016E+03  0.86496766743E+03  0.00000000000E+00 0. -1.
         -2    1    5    5    0  503  0.10962754981E+02  0.11230199624E+03  0.26483536192E+02  0.11590210544E+03  0.00000000000E+00 0.  1.
         -3    1    6    6    0  502  0.92210574973E+01 -0.45332524406E+02 -0.27860652085E+02  0.54002607391E+02  0.00000000000E+00 0.  1.
<mgrwt>
<rscale>  0 0.20712494E+04</rscale>
<asrwt>0</asrwt>
<pdfrwt beam="1">  1        2 0.15127457E+00 0.20712494E+04</pdfrwt>
<pdfrwt beam="2">  1       -2 0.16780781E+00 0.20712494E+04</pdfrwt>
<totfact> 0.52695450E+00</totfact>
</mgrwt>
</event>
<event>
12    1  0.1506149E-007  0.1526876E+04  0.7818608E-02  0.8866775E-01
         -1   -1    0    0    0  501 -0.00000000000E+00  0.00000000000E+00  0.52935634892E+03  0.52935634892E+03  0.00000000000E+00 0.  1.
          1   -1    0    0  501    0  0.00000000000E+00 -0.00000000000E+00 -0.11010305787E+04  0.11010305787E+04  0.00000000000E+00 0. -1.
         23    2    1    2    0    0  0.18815035049E+03 -0.43951942402E+01  0.30255222695E+03  0.36582900251E+03  0.82904384230E+02 0.  0.
        254    2    1    2    0    0 -0.18815035049E+03  0.43951942402E+01 -0.87422645671E+03  0.12645579251E+04  0.89410009293E+03 0.  0.
        -24    2    4    4    0    0 -0.15963264513E+03 -0.32887803003E+03 -0.83893642769E+03  0.91881835749E+03  0.82276997526E+02 0.  0.
         24    2    4    4    0    0 -0.28517705361E+02  0.33327322427E+03 -0.35290029012E+02  0.34573956760E+03  0.80038496506E+02 0.  0.
         13    1    3    3    0    0  0.88752559460E+02 -0.14020840219E+02  0.21500150041E+03  0.23302198598E+03  0.00000000000E+00 0.  1.
        -13    1    3    3    0    0  0.99397791033E+02  0.96256459790E+01  0.87550726536E+02  0.13280701653E+03  0.00000000000E+00 0. -1.
          2    1    6    6  502    0 -0.52153685523E+02  0.16622384101E+03 -0.47093129459E+01  0.17427722130E+03  0.00000000000E+00 0. -1.
          1    1    5    5  503    0 -0.74124207902E+02 -0.11739822002E+03 -0.41195886187E+03  0.43472617144E+03  0.00000000000E+00 0. -1.
         -4    1    5    5    0  503 -0.85508437230E+02 -0.21147981001E+03 -0.42697756582E+03  0.48409218605E+03  0.00000000000E+00 0.  1.
         -1    1    6    6    0  502  0.23635980163E+02  0.16704938326E+03 -0.30580716066E+02  0.17146234630E+03  0.00000000000E+00 0.  1.
<mgrwt>
<rscale>  0 0.15268759E+04</rscale>
<asrwt>0</asrwt>
<pdfrwt beam="1">  1        1 0.16938932E+00 0.15268759E+04</pdfrwt>
<pdfrwt beam="2">  1       -1 0.81439439E-01 0.15268759E+04</pdfrwt>
<totfact> 0.18345928E+01</totfact>
</mgrwt>
</event>
<event>
12    1  0.1506149E-007  0.1463723E+04  0.7818608E-02  0.8908942E-01
         -1   -1    0    0    0  501 -0.00000000000E+00  0.00000000000E+00  0.73829014055E+03  0.73829014055E+03  0.00000000000E+00 0.  1.
          1   -1    0    0  501    0  0.00000000000E+00 -0.00000000000E+00 -0.72548840975E+03  0.72548840975E+03  0.00000000000E+00 0. -1.
         23    2    1    2    0    0 -0.16945165325E+03 -0.16639883297E+03 -0.37992424322E+03  0.45703470110E+03  0.90198963534E+02 0.  0.
        254    2    1    2    0    0  0.16945165325E+03  0.16639883297E+03  0.39272597402E+03  0.10067438492E+04  0.89604522923E+03 0.  0.
        -24    2    4    4    0    0  0.13091536964E+03  0.13576385983E+03 -0.26809754364E+03  0.33925340730E+03  0.87440961861E+02 0.  0.
         24    2    4    4    0    0  0.38536283606E+02  0.30634973135E+02  0.66082351767E+03  0.66749044190E+03  0.80201133411E+02 0.  0.
         13    1    3    3    0    0 -0.53540887758E+02 -0.73875831229E+02 -0.75576304939E+02  0.11847380710E+03  0.00000000000E+00 0.  1.
        -13    1    3    3    0    0 -0.11591076549E+03 -0.92523001737E+02 -0.30434793829E+03  0.33856089400E+03  0.00000000000E+00 0. -1.
          2    1    6    6  502    0 -0.14380367539E+02 -0.15319532143E+02  0.92191097211E+02  0.94555176699E+02  0.00000000000E+00 0. -1.
          1    1    5    5  503    0  0.69092653051E+02  0.15617587019E+02 -0.71046306671E+02  0.10032587613E+03  0.00000000000E+00 0. -1.
         -2    1    5    5    0  503  0.61822716590E+02  0.12014627281E+03 -0.19705123697E+03  0.23892753117E+03  0.00000000000E+00 0.  1.
         -1    1    6    6    0  502  0.52916651144E+02  0.45954505278E+02  0.56863242045E+03  0.57293526520E+03  0.00000000000E+00 0.  1.
<mgrwt>
<rscale>  0 0.14637226E+04</rscale>
<asrwt>0</asrwt>
<pdfrwt beam="1">  1        1 0.11161360E+00 0.14637226E+04</pdfrwt>
<pdfrwt beam="2">  1       -1 0.11358310E+00 0.14637226E+04</pdfrwt>
<totfact> 0.17699116E+01</totfact>
</mgrwt>
</event>
<event>
12    1  0.1708652E-007  0.1838734E+04  0.7818608E-02  0.8685968E-01
         -1   -1    0    0    0  501 -0.00000000000E+00  0.00000000000E+00  0.37584426521E+03  0.37584426521E+03  0.00000000000E+00 0.  1.
          1   -1    0    0  501    0  0.00000000000E+00 -0.00000000000E+00 -0.22488989766E+04  0.22488989766E+04  0.00000000000E+00 0. -1.
         23    2    1    2    0    0 -0.32574485840E+03  0.41730302174E+03 -0.71198552952E+02  0.54284916365E+03  0.96770118353E+02 0.  0.
        254    2    1    2    0    0  0.32574485840E+03 -0.41730302174E+03 -0.18018561585E+04  0.20818940782E+04  0.89852424131E+03 0.  0.
        -24    2    4    4    0    0 -0.12338044623E+03 -0.40954599293E+03 -0.14251766138E+04  0.14901509117E+04  0.80440688179E+02 0.  0.
         24    2    4    4    0    0  0.44912530463E+03 -0.77570288154E+01 -0.37667954465E+03  0.59174316645E+03  0.80615041566E+02 0.  0.
         11    1    3    3    0    0 -0.22026012601E+03  0.30294479255E+03 -0.72032066401E+01  0.37462241874E+03  0.00000000000E+00 0.  1.
        -11    1    3    3    0    0 -0.10548473239E+03  0.11435822920E+03 -0.63995346312E+02  0.16822674491E+03  0.00000000000E+00 0. -1.
          4    1    6    6  502    0  0.35315344913E+03 -0.36017549209E+02 -0.27447085879E+03  0.44871914914E+03  0.00000000000E+00 0. -1.
          1    1    5    5  503    0 -0.13407634592E+03 -0.39156038223E+03 -0.13694242447E+04  0.14306008393E+04  0.00000000000E+00 0. -1.
         -2    1    5    5    0  503  0.10695899694E+02 -0.17985610702E+02 -0.55752369116E+02  0.59550072416E+02  0.00000000000E+00 0.  1.
         -3    1    6    6    0  502  0.95971855506E+02  0.28260520394E+02 -0.10220868586E+03  0.14302401731E+03  0.00000000000E+00 0.  1.
<mgrwt>
<rscale>  0 0.18387341E+04</rscale>
<asrwt>0</asrwt>
<pdfrwt beam="1">  1        1 0.34598446E+00 0.18387341E+04</pdfrwt>
<pdfrwt beam="2">  1       -1 0.57822195E-01 0.18387341E+04</pdfrwt>
<totfact> 0.57505131E+00</totfact>
</mgrwt>
</event>
<event>
12    1  0.1506149E-007  0.1700714E+04  0.7818608E-02  0.8760957E-01
          1   -1    0    0  501    0  0.00000000000E+00  0.00000000000E+00  0.16183958436E+04  0.16183958436E+04  0.00000000000E+00 0. -1.
         -1   -1    0    0    0  501 -0.00000000000E+00 -0.00000000000E+00 -0.44680505803E+03  0.44680505803E+03  0.00000000000E+00 0.  1.
         23    2    1    2    0    0  0.33350408870E+03  0.44009687395E+03  0.27836475433E+03  0.62543540042E+03  0.93660386525E+02 0.  0.
        254    2    1    2    0    0 -0.33350408870E+03 -0.44009687395E+03  0.89322603127E+03  0.14397655012E+04  0.98496787765E+03 0.  0.
        -24    2    4    4    0    0 -0.17650648703E+03  0.10229922754E+03 -0.13918551642E+03  0.26030505428E+03  0.82258381848E+02 0.  0.
         24    2    4    4    0    0 -0.15699760166E+03 -0.54239610149E+03  0.10324115477E+04  0.11794604470E+04  0.80072244290E+02 0.  0.
         13    1    3    3    0    0  0.30277652190E+03  0.42966167771E+03  0.27380606400E+03  0.59266562258E+03  0.00000000000E+00 0.  1.
        -13    1    3    3    0    0  0.30727566802E+02  0.10435196246E+02  0.45586903251E+01  0.32769777841E+02  0.00000000000E+00 0. -1.
          2    1    6    6  502    0 -0.11910969432E+03 -0.40244161650E+03  0.69002836645E+03  0.80764195067E+03  0.00000000000E+00 0. -1.
          1    1    5    5  503    0 -0.10061361472E+03  0.95975186996E+02 -0.11487692482E+03  0.18036364335E+03  0.00000000000E+00 0. -1.
         -2    1    5    5    0  503 -0.75892872314E+02  0.63240405435E+01 -0.24308591602E+02  0.79941410936E+02  0.00000000000E+00 0.  1.
         -1    1    6    6    0  502 -0.37887907349E+02 -0.13995448499E+03  0.34238318124E+03  0.37181849629E+03  0.00000000000E+00 0.  1.
<mgrwt>
<rscale>  0 0.17007145E+04</rscale>
<asrwt>0</asrwt>
<pdfrwt beam="1">  1        1 0.24898397E+00 0.17007145E+04</pdfrwt>
<pdfrwt beam="2">  1       -1 0.68739241E-01 0.17007145E+04</pdfrwt>
<totfact> 0.11045188E+01</totfact>
</mgrwt>
</event>
<event>
12    1  0.1506149E-007  0.2707890E+04  0.7818608E-02  0.8332449E-01
         -2   -1    0    0    0  501 -0.00000000000E+00  0.00000000000E+00  0.14373154164E+04  0.14373154164E+04  0.00000000000E+00 0. -1.
          2   -1    0    0  501    0  0.00000000000E+00 -0.00000000000E+00 -0.12754107832E+04  0.12754107832E+04  0.00000000000E+00 0.  1.
         23    2    1    2    0    0  0.77451797721E+03 -0.82708325058E+03  0.48700460661E+03  0.12367512854E+04  0.91844730945E+02 0.  0.
        254    2    1    2    0    0 -0.77451797721E+03  0.82708325058E+03 -0.32509997337E+03  0.14759749142E+04  0.88818193758E+03 0.  0.
        -24    2    4    4    0    0 -0.80792385373E+03  0.97138368106E+03 -0.24360751267E+03  0.12892755777E+04  0.80991886386E+02 0.  0.
         24    2    4    4    0    0  0.33405876523E+02 -0.14430043048E+03 -0.81492460697E+02  0.18669933654E+03  0.79227863102E+02 0.  0.
         11    1    3    3    0    0  0.20701350204E+03 -0.23839078851E+03  0.93377031091E+02  0.32924766971E+03  0.00000000000E+00 0. -1.
        -11    1    3    3    0    0  0.56750447516E+03 -0.58869246207E+03  0.39362757552E+03  0.90750361566E+03  0.00000000000E+00 0.  1.
          2    1    6    6  502    0 -0.40895880134E+01 -0.37760748712E+01 -0.32882477666E+02  0.33350274497E+02  0.00000000000E+00 0. -1.
          3    1    5    5  503    0 -0.83298816734E+02  0.66892502826E+02 -0.27864979153E+02  0.11040723195E+03  0.00000000000E+00 0. -1.
         -2    1    5    5    0  503 -0.72462503700E+03  0.90449117823E+03 -0.21574253352E+03  0.11788683457E+04  0.00000000000E+00 0.  1.
         -1    1    6    6    0  502  0.37495464536E+02 -0.14052435560E+03 -0.48609983031E+02  0.15334906204E+03  0.00000000000E+00 0.  1.
<mgrwt>
<rscale>  0 0.27078904E+04</rscale>
<asrwt>0</asrwt>
<pdfrwt beam="1">  1        2 0.19621704E+00 0.27078904E+04</pdfrwt>
<pdfrwt beam="2">  1       -2 0.22112545E+00 0.27078904E+04</pdfrwt>
<totfact> 0.14566741E+00</totfact>
</mgrwt>
</event>
<event>
12    1  0.1506149E-007  0.1905254E+04  0.7818608E-02  0.8652245E-01
         -1   -1    0    0    0  501 -0.00000000000E+00  0.00000000000E+00  0.45178385057E+03  0.45178385057E+03  0.00000000000E+00 0.  1.
          1   -1    0    0  501    0  0.00000000000E+00 -0.00000000000E+00 -0.20087001817E+04  0.20087001817E+04  0.00000000000E+00 0. -1.
         23    2    1    2    0    0 -0.37982037684E+03 -0.21522765312E+03  0.15602384694E+03  0.47153755433E+03  0.86126436145E+02 0.  0.
        254    2    1    2    0    0  0.37982037684E+03  0.21522765312E+03 -0.17129401780E+04  0.19889464779E+04  0.91167843954E+03 0.  0.
        -24    2    4    4    0    0  0.30974004478E+03  0.11143197176E+03 -0.78675839472E+02  0.34785221746E+03  0.80344867933E+02 0.  0.
         24    2    4    4    0    0  0.70080332057E+02  0.10379568136E+03 -0.16342643386E+04  0.16410942605E+04  0.81765805533E+02 0.  0.
         11    1    3    3    0    0 -0.99440670055E+02 -0.55610444149E+02  0.18179498104E+01  0.11394855550E+03  0.00000000000E+00 0. -1.
        -11    1    3    3    0    0 -0.28037970678E+03 -0.15961720897E+03  0.15420589713E+03  0.35758899883E+03  0.00000000000E+00 0.  1.
          4    1    6    6  502    0  0.45340985543E+02  0.20264350369E+02 -0.30861653295E+03  0.31258696914E+03  0.00000000000E+00 0. -1.
          1    1    5    5  503    0  0.16203877256E+03  0.71532114091E+02 -0.81165195254E+02  0.19483633152E+03  0.00000000000E+00 0. -1.
         -4    1    5    5    0  503  0.14770127223E+03  0.39899857669E+02  0.24893557813E+01  0.15301588594E+03  0.00000000000E+00 0.  1.
         -3    1    6    6    0  502  0.24739346514E+02  0.83531330995E+02 -0.13256478056E+04  0.13285072913E+04  0.00000000000E+00 0.  1.
<mgrwt>
<rscale>  0 0.19052541E+04</rscale>
<asrwt>0</asrwt>
<pdfrwt beam="1">  1        1 0.30903080E+00 0.19052541E+04</pdfrwt>
<pdfrwt beam="2">  1       -1 0.69505208E-01 0.19052541E+04</pdfrwt>
<totfact> 0.57556792E+00</totfact>
</mgrwt>
</event>
<event>
12    1  0.1506149E-007  0.1137174E+04  0.7818608E-02  0.9169699E-01
         -2   -1    0    0    0  501 -0.00000000000E+00  0.00000000000E+00  0.20998097709E+03  0.20998097709E+03  0.00000000000E+00 0.  1.
          2   -1    0    0  501    0  0.00000000000E+00 -0.00000000000E+00 -0.15396201294E+04  0.15396201294E+04  0.00000000000E+00 0. -1.
         23    2    1    2    0    0 -0.58432071318E+02 -0.15172194761E+03 -0.43867695702E+03  0.47571194511E+03  0.86200497426E+02 0.  0.
        254    2    1    2    0    0  0.58432071318E+02  0.15172194761E+03 -0.89096219529E+03  0.12738891614E+04  0.89584937669E+03 0.  0.
        -24    2    4    4    0    0 -0.27832129397E+03 -0.17301113007E+03 -0.10076290879E+03  0.35188452110E+03  0.79208324025E+02 0.  0.
         24    2    4    4    0    0  0.33675336529E+03  0.32473307768E+03 -0.79019928650E+03  0.92200464029E+03  0.82602927035E+02 0.  0.
         11    1    3    3    0    0  0.42939453364E+01 -0.14869141389E+02 -0.14378961766E+03  0.14462013511E+03  0.00000000000E+00 0. -1.
        -11    1    3    3    0    0 -0.62726016655E+02 -0.13685280622E+03 -0.29488733936E+03  0.33109181000E+03  0.00000000000E+00 0.  1.
          2    1    6    6  502    0  0.13862913464E+03  0.94361359596E+02 -0.33628719125E+03  0.37578075810E+03  0.00000000000E+00 0. -1.
          1    1    5    5  503    0 -0.14698289996E+03 -0.52371267476E+02 -0.24583237761E+02  0.15795903936E+03  0.00000000000E+00 0. -1.
         -2    1    5    5    0  503 -0.13133839401E+03 -0.12063986259E+03 -0.76179671029E+02  0.19392548174E+03  0.00000000000E+00 0.  1.
         -1    1    6    6    0  502  0.19812423065E+03  0.23037171809E+03 -0.45391209525E+03  0.54622388219E+03  0.00000000000E+00 0.  1.
<mgrwt>
<rscale>  0 0.11371736E+04</rscale>
<asrwt>0</asrwt>
<pdfrwt beam="1">  1        2 0.23686464E+00 0.11371736E+04</pdfrwt>
<pdfrwt beam="2">  1       -2 0.32304765E-01 0.11371736E+04</pdfrwt>
<totfact> 0.10651237E+02</totfact>
</mgrwt>
</event>
<event>
12    1  0.1506149E-007  0.1406648E+04  0.7818608E-02  0.8949021E-01
         -2   -1    0    0    0  501 -0.00000000000E+00  0.00000000000E+00  0.79766826351E+03  0.79766826351E+03  0.00000000000E+00 0.  1.
          2   -1    0    0  501    0  0.00000000000E+00 -0.00000000000E+00 -0.62013792543E+03  0.62013792543E+03  0.00000000000E+00 0. -1.
         23    2    1    2    0    0 -0.31350324359E+03 -0.12184582032E+03  0.29156993764E+03  0.45390587880E+03  0.88807829611E+02 0.  0.
        254    2    1    2    0    0  0.31350324359E+03  0.12184582032E+03 -0.11403959955E+03  0.96390031014E+03  0.89608486761E+03 0.  0.
        -24    2    4    4    0    0 -0.23128689842E+03 -0.52290775268E+02 -0.26759391169E+03  0.36622075202E+03  0.79266531904E+02 0.  0.
         24    2    4    4    0    0  0.54479014201E+03  0.17413659559E+03  0.15355431214E+03  0.59767955812E+03  0.80759362739E+02 0.  0.
         13    1    3    3    0    0 -0.26163031957E+03 -0.65889132958E+02  0.24548625293E+03  0.36476746338E+03  0.00000000000E+00 0.  1.
        -13    1    3    3    0    0 -0.51872924020E+02 -0.55956687365E+02  0.46083684703E+02  0.89138415417E+02  0.00000000000E+00 0. -1.
          4    1    6    6  502    0  0.37005995810E+03  0.11795373450E+03  0.64675591100E+02  0.39375168337E+03  0.00000000000E+00 0. -1.
          3    1    5    5  503    0 -0.20976561642E+03 -0.24065124568E+02 -0.20514499428E+03  0.29438955948E+03  0.00000000000E+00 0. -1.
         -4    1    5    5    0  503 -0.21521281996E+02 -0.28225650700E+02 -0.62448917409E+02  0.71831192540E+02  0.00000000000E+00 0.  1.
         -3    1    6    6    0  502  0.17473018390E+03  0.56182861096E+02  0.88878721037E+02  0.20392787475E+03  0.00000000000E+00 0.  1.
<mgrwt>
<rscale>  0 0.14066476E+04</rscale>
<asrwt>0</asrwt>
<pdfrwt beam="1">  1        2 0.95405834E-01 0.14066476E+04</pdfrwt>
<pdfrwt beam="2">  1       -2 0.12271820E+00 0.14066476E+04</pdfrwt>
<totfact> 0.23267901E+01</totfact>
</mgrwt>
</event>
<event>
12    1  0.1506149E-007  0.2381792E+04  0.7818608E-02  0.8446352E-01
          1   -1    0    0  501    0  0.00000000000E+00  0.00000000000E+00  0.11112927628E+04  0.11112927628E+04  0.00000000000E+00 0. -1.
         -1   -1    0    0    0  501 -0.00000000000E+00 -0.00000000000E+00 -0.12762017900E+04  0.12762017900E+04  0.00000000000E+00 0.  1.
         23    2    1    2    0    0  0.24540997134E+03 -0.92903509264E+03  0.25116400267E+03  0.99734256978E+03  0.90975754314E+02 0.  0.
        254    2    1    2    0    0 -0.24540997134E+03  0.92903509264E+03 -0.41607302991E+03  0.13901519831E+04  0.91437055531E+03 0.  0.
        -24    2    4    4    0    0 -0.14495982491E+03  0.76475682852E+03 -0.69178804558E+03  0.10443437069E+04  0.78846183152E+02 0.  0.
         24    2    4    4    0    0 -0.10045014644E+03  0.16427826412E+03  0.27571501567E+03  0.34580827613E+03  0.80542001437E+02 0.  0.
         13    1    3    3    0    0  0.24530325401E+03 -0.92470927933E+03  0.24142394574E+03  0.98668457943E+03  0.00000000000E+00 0. -1.
        -13    1    3    3    0    0  0.10671733530E+00 -0.43258133141E+01  0.97400569339E+01  0.10657990359E+02  0.00000000000E+00 0.  1.
          2    1    6    6  502    0 -0.96640808039E+02  0.87115313924E+02  0.15351241795E+03  0.20123266674E+03  0.00000000000E+00 0. -1.
          3    1    5    5  503    0 -0.69025823638E+02  0.18494219687E+03 -0.16472936250E+03  0.25710687152E+03  0.00000000000E+00 0. -1.
         -4    1    5    5    0  503 -0.75934001271E+02  0.57981463165E+03 -0.52705868308E+03  0.78723683542E+03  0.00000000000E+00 0.  1.
         -1    1    6    6    0  502 -0.38093383967E+01  0.77162950195E+02  0.12220259772E+03  0.14457560939E+03  0.00000000000E+00 0.  1.
<mgrwt>
<rscale>  0 0.23817924E+04</rscale>
<asrwt>0</asrwt>
<pdfrwt beam="1">  1        1 0.17096812E+00 0.23817924E+04</pdfrwt>
<pdfrwt beam="2">  1       -1 0.19633874E+00 0.23817924E+04</pdfrwt>
<totfact> 0.17805109E+00</totfact>
</mgrwt>
</event>
<event>
12    1  0.1506149E-007  0.1476350E+04  0.7818608E-02  0.8900334E-01
          2   -1    0    0  501    0  0.00000000000E+00  0.00000000000E+00  0.20940311835E+04  0.20940311835E+04  0.00000000000E+00 0.  1.
         -2   -1    0    0    0  501 -0.00000000000E+00 -0.00000000000E+00 -0.26021699221E+03  0.26021699221E+03  0.00000000000E+00 0. -1.
         23    2    1    2    0    0 -0.72880624418E+02 -0.33049106443E+03  0.11413446054E+03  0.36882543155E+03  0.92030401421E+02 0.  0.
        254    2    1    2    0    0  0.72880624418E+02  0.33049106443E+03  0.17196797307E+04  0.19854227442E+04  0.93277498231E+03 0.  0.
        -24    2    4    4    0    0  0.19912755818E+03 -0.20715752281E+03  0.11494384544E+04  0.11875289125E+04  0.80312726342E+02 0.  0.
         24    2    4    4    0    0 -0.12624693376E+03  0.53764858724E+03  0.57024127639E+03  0.79789383165E+03  0.80344020626E+02 0.  0.
         13    1    3    3    0    0 -0.12655188018E+02 -0.24933584857E+03  0.80458324475E+02  0.26230146996E+03  0.00000000000E+00 0. -1.
        -13    1    3    3    0    0 -0.60225436400E+02 -0.81155215861E+02  0.33676136067E+02  0.10652396158E+03  0.00000000000E+00 0.  1.
          2    1    6    6  502    0 -0.84214974779E+01  0.27299616217E+02  0.84045582280E+01  0.29779645135E+02  0.00000000000E+00 0. -1.
          3    1    5    5  503    0  0.91617869070E+02 -0.40861399100E+02  0.39246901851E+03  0.40508692692E+03  0.00000000000E+00 0. -1.
         -4    1    5    5    0  503  0.10750968911E+03 -0.16629612371E+03  0.75696943584E+03  0.78244198559E+03  0.00000000000E+00 0.  1.
         -1    1    6    6    0  502 -0.11782543628E+03  0.51034897102E+03  0.56183671816E+03  0.76811418652E+03  0.00000000000E+00 0.  1.
<mgrwt>
<rscale>  0 0.14763502E+04</rscale>
<asrwt>0</asrwt>
<pdfrwt beam="1">  1        2 0.32215863E+00 0.14763502E+04</pdfrwt>
<pdfrwt beam="2">  1       -2 0.40033385E-01 0.14763502E+04</pdfrwt>
<totfact> 0.33865000E+01</totfact>
</mgrwt>
</event>
<event>
12    1  0.1506149E-007  0.1004558E+04  0.7818608E-02  0.9303560E-01
         -1   -1    0    0    0  501 -0.00000000000E+00  0.00000000000E+00  0.90285258714E+03  0.90285258714E+03  0.00000000000E+00 0.  1.
          1   -1    0    0  501    0  0.00000000000E+00 -0.00000000000E+00 -0.27942999200E+03  0.27942999200E+03  0.00000000000E+00 0. -1.
         23    2    1    2    0    0  0.23570224266E+01  0.34598803120E+01  0.12252687840E+01  0.93546485868E+02  0.93444729162E+02 0.  0.
        254    2    1    2    0    0 -0.23570224266E+01 -0.34598803120E+01  0.62219732635E+03  0.10887360933E+04  0.89341996931E+03 0.  0.
        -24    2    4    4    0    0  0.51993285667E+02  0.19194470752E+03 -0.16578522335E+03  0.27096900876E+03  0.79958682648E+02 0.  0.
         24    2    4    4    0    0 -0.54350308094E+02 -0.19540458783E+03  0.78798254970E+03  0.81776708451E+03  0.81789956266E+02 0.  0.
         11    1    3    3    0    0  0.45551018514E+02  0.15369958420E+02 -0.49021819589E+01  0.48323517023E+02  0.00000000000E+00 0. -1.
        -11    1    3    3    0    0 -0.43193996087E+02 -0.11910078108E+02  0.61274507429E+01  0.45222968845E+02  0.00000000000E+00 0.  1.
          4    1    6    6  502    0  0.34524579843E+01 -0.13154681543E+03  0.43795379550E+03  0.45729641493E+03  0.00000000000E+00 0. -1.
          1    1    5    5  503    0  0.10085298905E+02  0.14172433481E+03 -0.14331299904E+03  0.20180712580E+03  0.00000000000E+00 0. -1.
         -2    1    5    5    0  503  0.41907986762E+02  0.50220372706E+02 -0.22472224314E+02  0.69161882961E+02  0.00000000000E+00 0.  1.
         -3    1    6    6    0  502 -0.57802766078E+02 -0.63857772402E+02  0.35002875420E+03  0.36047066958E+03  0.00000000000E+00 0.  1.
<mgrwt>
<rscale>  0 0.10045578E+04</rscale>
<asrwt>0</asrwt>
<pdfrwt beam="1">  1        1 0.42989230E-01 0.10045578E+04</pdfrwt>
<pdfrwt beam="2">  1       -1 0.13890040E+00 0.10045578E+04</pdfrwt>
<totfact> 0.41269242E+01</totfact>
</mgrwt>
</event>
<event>
12    1  0.1506149E-007  0.1438465E+04  0.7818608E-02  0.8926437E-01
          2   -1    0    0  501    0  0.00000000000E+00  0.00000000000E+00  0.14467333969E+04  0.14467333969E+04  0.00000000000E+00 0. -1.
         -2   -1    0    0    0  501 -0.00000000000E+00 -0.00000000000E+00 -0.35756106007E+03  0.35756106007E+03  0.00000000000E+00 0.  1.
         23    2    1    2    0    0 -0.22923516451E+03 -0.12876465628E+03 -0.62518410662E+02  0.28578115653E+03  0.92915124695E+02 0.  0.
        254    2    1    2    0    0  0.22923516451E+03  0.12876465628E+03  0.11516907475E+04  0.15185133005E+04  0.95412890556E+03 0.  0.
        -24    2    4    4    0    0  0.50724205442E+03 -0.15527853695E+03  0.41676574330E+03  0.67908710409E+03  0.77843974301E+02 0.  0.
         24    2    4    4    0    0 -0.27800688991E+03  0.28404319323E+03  0.73492500423E+03  0.83942619640E+03  0.80951904834E+02 0.  0.
         13    1    3    3    0    0 -0.14241410213E+03 -0.96386181433E+02 -0.82899439415E+02  0.19090413697E+03  0.00000000000E+00 0.  1.
        -13    1    3    3    0    0 -0.86821062387E+02 -0.32378474850E+02  0.20381028753E+02  0.94877019561E+02  0.00000000000E+00 0. -1.
          2    1    6    6  502    0 -0.18360668347E+03  0.20405771660E+03  0.42757137046E+03  0.50810259078E+03  0.00000000000E+00 0. -1.
          1    1    5    5  503    0  0.68002457715E+02 -0.47841446357E+02  0.78828074680E+02  0.11457313648E+03  0.00000000000E+00 0. -1.
         -2    1    5    5    0  503  0.43923959671E+03 -0.10743709059E+03  0.33793766862E+03  0.56451396761E+03  0.00000000000E+00 0.  1.
         -1    1    6    6    0  502 -0.94400206440E+02  0.79985476625E+02  0.30735363377E+03  0.33132360561E+03  0.00000000000E+00 0.  1.
<mgrwt>
<rscale>  0 0.14384652E+04</rscale>
<asrwt>0</asrwt>
<pdfrwt beam="1">  1        2 0.22257437E+00 0.14384652E+04</pdfrwt>
<pdfrwt beam="2">  1       -2 0.55009395E-01 0.14384652E+04</pdfrwt>
<totfact> 0.41042123E+01</totfact>
</mgrwt>
</event>
<event>
12    1  0.1506149E-007  0.1333967E+04  0.7818608E-02  0.9003054E-01
          1   -1    0    0  501    0  0.00000000000E+00  0.00000000000E+00  0.11081408913E+04  0.11081408913E+04  0.00000000000E+00 0. -1.
         -1   -1    0    0    0  501 -0.00000000000E+00 -0.00000000000E+00 -0.40145372591E+03  0.40145372591E+03  0.00000000000E+00 0.  1.
         23    2    1    2    0    0 -0.15152527177E+03  0.31587927334E+03  0.20921324893E+03  0.42393297151E+03  0.11493196898E+03 0.  0.
        254    2    1    2    0    0  0.15152527177E+03 -0.31587927334E+03  0.49747391646E+03  0.10856616457E+04  0.89913363195E+03 0.  0.
        -24    2    4    4    0    0 -0.19108979729E+03 -0.34514913549E+03 -0.78872702814E+02  0.40986842823E+03  0.78281471985E+02 0.  0.
         24    2    4    4    0    0  0.34261506905E+03  0.29269862155E+02  0.57634661928E+03  0.67579321748E+03  0.79241635929E+02 0.  0.
         11    1    3    3    0    0 -0.13442358037E+03  0.22327305768E+03  0.20153309398E+03  0.32944824360E+03  0.00000000000E+00 0. -1.
        -11    1    3    3    0    0 -0.17101691399E+02  0.92606215653E+02  0.76801549528E+01  0.94484727900E+02  0.00000000000E+00 0.  1.
          2    1    6    6  502    0  0.15169089746E+03  0.44092469057E+02  0.21442400133E+03  0.26633048369E+03  0.00000000000E+00 0. -1.
          3    1    5    5  503    0 -0.38361257754E+02 -0.13858254978E+03 -0.45456366841E+02  0.15080779319E+03  0.00000000000E+00 0. -1.
         -4    1    5    5    0  503 -0.15272853953E+03 -0.20656658571E+03 -0.33416335973E+02  0.25906063505E+03  0.00000000000E+00 0.  1.
         -1    1    6    6    0  502  0.19092417159E+03 -0.14822606901E+02  0.36192261795E+03  0.40946273378E+03  0.00000000000E+00 0.  1.
<mgrwt>
<rscale>  0 0.13339675E+04</rscale>
<asrwt>0</asrwt>
<pdfrwt beam="1">  1        1 0.17048321E+00 0.13339675E+04</pdfrwt>
<pdfrwt beam="2">  1       -1 0.61762112E-01 0.13339675E+04</pdfrwt>
<totfact> 0.32575545E+01</totfact>
</mgrwt>
</event>
<event>
12    1  0.1506149E-007  0.2529794E+04  0.7818608E-02  0.8392447E-01
          2   -1    0    0  501    0  0.00000000000E+00  0.00000000000E+00  0.16056658789E+04  0.16056658789E+04  0.00000000000E+00 0.  1.
         -2   -1    0    0    0  501 -0.00000000000E+00 -0.00000000000E+00 -0.99644939578E+03  0.99644939578E+03  0.00000000000E+00 0. -1.
         23    2    1    2    0    0 -0.95481834663E+03 -0.28613786960E+03 -0.21860925491E+03  0.10245880115E+04  0.91856581487E+02 0.  0.
        254    2    1    2    0    0  0.95481834663E+03  0.28613786960E+03  0.82782573800E+03  0.15775272631E+04  0.89985768758E+03 0.  0.
        -24    2    4    4    0    0  0.79006545662E+03 -0.20276297405E+03  0.53903883742E+03  0.98089980784E+03  0.79279980948E+02 0.  0.
         24    2    4    4    0    0  0.16475289001E+03  0.48890084365E+03  0.28878690058E+03  0.59662745528E+03  0.79993104449E+02 0.  0.
         11    1    3    3    0    0 -0.86139208533E+03 -0.26880310937E+03 -0.17142779784E+03  0.91849819061E+03  0.00000000000E+00 0. -1.
        -11    1    3    3    0    0 -0.93426261305E+02 -0.17334760229E+02 -0.47181457069E+02  0.10608982093E+03  0.00000000000E+00 0.  1.
          2    1    6    6  502    0  0.12196724385E+03  0.42378313460E+03  0.26781218728E+03  0.51593751695E+03  0.00000000000E+00 0. -1.
          3    1    5    5  503    0  0.72094840224E+03 -0.16239640233E+03  0.49587891618E+03  0.88996353279E+03  0.00000000000E+00 0. -1.
         -4    1    5    5    0  503  0.69117054386E+02 -0.40366571716E+02  0.43159921243E+02  0.90936275054E+02  0.00000000000E+00 0.  1.
         -1    1    6    6    0  502  0.42785646162E+02  0.65117709045E+02  0.20974713303E+02  0.80689938325E+02  0.00000000000E+00 0.  1.
<mgrwt>
<rscale>  0 0.25297943E+04</rscale>
<asrwt>0</asrwt>
<pdfrwt beam="1">  1        2 0.24702552E+00 0.25297943E+04</pdfrwt>
<pdfrwt beam="2">  1       -2 0.15329991E+00 0.25297943E+04</pdfrwt>
<totfact> 0.27854408E+00</totfact>
</mgrwt>
</event>
<event>
12    1  0.1506149E-007  0.2791112E+04  0.7818608E-02  0.8306033E-01
          2   -1    0    0  501    0  0.00000000000E+00  0.00000000000E+00  0.26270877892E+04  0.26270877892E+04  0.00000000000E+00 0. -1.
         -2   -1    0    0    0  501 -0.00000000000E+00 -0.00000000000E+00 -0.74134409127E+03  0.74134409127E+03  0.00000000000E+00 0.  1.
         23    2    1    2    0    0 -0.79996654785E+03  0.72762619681E+03  0.16469988666E+04  0.19720899104E+04  0.84539860633E+02 0.  0.
        254    2    1    2    0    0  0.79996654785E+03 -0.72762619681E+03  0.23874483136E+03  0.13963419701E+04  0.85052068941E+03 0.  0.
        -24    2    4    4    0    0  0.29572866369E+03 -0.74613434689E+03  0.34089878146E+03  0.87558314830E+03  0.79132573868E+02 0.  0.
         24    2    4    4    0    0  0.50423788416E+03  0.18508150088E+02 -0.10215395010E+03  0.52075882184E+03  0.78459706626E+02 0.  0.
         11    1    3    3    0    0 -0.44760904547E+03  0.45314856548E+03  0.92431847542E+03  0.11225248879E+04  0.00000000000E+00 0.  1.
        -11    1    3    3    0    0 -0.35235750238E+03  0.27447763133E+03  0.72268039119E+03  0.84956502247E+03  0.00000000000E+00 0. -1.
          2    1    6    6  502    0  0.40670801182E+02  0.44524288540E+01 -0.31483849954E+02  0.51625294182E+02  0.00000000000E+00 0. -1.
          3    1    5    5  503    0  0.71349680316E+02 -0.20990874192E+03  0.13132476526E+03  0.25767935654E+03  0.00000000000E+00 0. -1.
         -4    1    5    5    0  503  0.22437898338E+03 -0.53622560498E+03  0.20957401620E+03  0.61790379177E+03  0.00000000000E+00 0.  1.
         -1    1    6    6    0  502  0.46356708297E+03  0.14055721234E+02 -0.70670100142E+02  0.46913352766E+03  0.00000000000E+00 0.  1.
<mgrwt>
<rscale>  0 0.27911116E+04</rscale>
<asrwt>0</asrwt>
<pdfrwt beam="1">  1        2 0.40416735E+00 0.27911116E+04</pdfrwt>
<pdfrwt beam="2">  1       -2 0.11405294E+00 0.27911116E+04</pdfrwt>
<totfact> 0.15364969E+00</totfact>
</mgrwt>
</event>
<event>
12    1  0.1506149E-007  0.2670188E+04  0.7818608E-02  0.8344743E-01
          2   -1    0    0  501    0  0.00000000000E+00  0.00000000000E+00  0.67924929380E+03  0.67924929380E+03  0.00000000000E+00 0. -1.
         -2   -1    0    0    0  501 -0.00000000000E+00 -0.00000000000E+00 -0.26241861164E+04  0.26241861164E+04  0.00000000000E+00 0.  1.
         23    2    1    2    0    0 -0.43712426959E+03  0.44594216634E+02  0.49348985895E+03  0.66725930723E+03  0.92932615264E+02 0.  0.
        254    2    1    2    0    0  0.43712426959E+03 -0.44594216634E+02 -0.24384266816E+04  0.26361761030E+04  0.90024079745E+03 0.  0.
        -24    2    4    4    0    0 -0.15211477839E+03  0.27641002976E+03 -0.76702517839E+03  0.83320860259E+03  0.79796872094E+02 0.  0.
         24    2    4    4    0    0  0.58923904798E+03 -0.32100424640E+03 -0.16714015032E+04  0.18029675004E+04  0.82839850304E+02 0.  0.
         11    1    3    3    0    0 -0.37313131260E+03  0.36985683449E+01  0.41233894014E+03  0.55611514761E+03  0.00000000000E+00 0. -1.
        -11    1    3    3    0    0 -0.63992956984E+02  0.40895648290E+02  0.81150918815E+02  0.11114415962E+03  0.00000000000E+00 0.  1.
          2    1    6    6  502    0  0.25084496440E+03 -0.11178675374E+03 -0.59254515771E+03  0.65309205967E+03  0.00000000000E+00 0. -1.
          1    1    5    5  503    0 -0.29978691329E+02  0.25155170734E+02 -0.16414859647E+03  0.16874912228E+03  0.00000000000E+00 0. -1.
         -2    1    5    5    0  503 -0.12213608706E+03  0.25125485903E+03 -0.60287658192E+03  0.66445948031E+03  0.00000000000E+00 0.  1.
         -1    1    6    6    0  502  0.33839408357E+03 -0.20921749266E+03 -0.10788563455E+04  0.11498754408E+04  0.00000000000E+00 0.  1.
<mgrwt>
<rscale>  0 0.26701884E+04</rscale>
<asrwt>0</asrwt>
<pdfrwt beam="1">  1        2 0.10449989E+00 0.26701884E+04</pdfrwt>
<pdfrwt beam="2">  1       -2 0.40372094E+00 0.26701884E+04</pdfrwt>
<totfact> 0.26258919E-01</totfact>
</mgrwt>
</event>
<event>
12    1  0.1506149E-007  0.1286479E+04  0.7818608E-02  0.9040357E-01
          1   -1    0    0  501    0  0.00000000000E+00  0.00000000000E+00  0.12108936497E+04  0.12108936497E+04  0.00000000000E+00 0. -1.
         -1   -1    0    0    0  501 -0.00000000000E+00 -0.00000000000E+00 -0.34169545192E+03  0.34169545192E+03  0.00000000000E+00 0.  1.
         23    2    1    2    0    0  0.26742440483E+03 -0.13622753119E+03  0.40889487400E+03  0.51612356265E+03  0.95471259472E+02 0.  0.
        254    2    1    2    0    0 -0.26742440483E+03  0.13622753119E+03  0.46030332375E+03  0.10364655389E+04  0.87881050915E+03 0.  0.
        -24    2    4    4    0    0 -0.43076629869E+03 -0.14781376362E+03  0.51794951456E+03  0.69411649960E+03  0.78214465243E+02 0.  0.
         24    2    4    4    0    0  0.16334189386E+03  0.28404129482E+03 -0.57646190817E+02  0.34234903934E+03  0.80744968693E+02 0.  0.
         11    1    3    3    0    0  0.11559224704E+03 -0.89148588113E+02  0.26074986736E+03  0.29883027234E+03  0.00000000000E+00 0.  1.
        -11    1    3    3    0    0  0.15183215780E+03 -0.47078943081E+02  0.14814500664E+03  0.21729329031E+03  0.00000000000E+00 0. -1.
          2    1    6    6  502    0  0.31080069823E+02  0.25855312477E+02 -0.31174375362E+02  0.51052028389E+02  0.00000000000E+00 0. -1.
          3    1    5    5  503    0 -0.26106674938E+03 -0.90970184564E+02  0.37021578759E+03  0.46205102693E+03  0.00000000000E+00 0. -1.
         -4    1    5    5    0  503 -0.16969954931E+03 -0.56843579058E+02  0.14773372698E+03  0.23206547267E+03  0.00000000000E+00 0.  1.
         -1    1    6    6    0  502  0.13226182404E+03  0.25818598234E+03 -0.26471815455E+02  0.29129701095E+03  0.00000000000E+00 0.  1.
<mgrwt>
<rscale>  0 0.12864787E+04</rscale>
<asrwt>0</asrwt>
<pdfrwt beam="1">  1        1 0.18629133E+00 0.12864787E+04</pdfrwt>
<pdfrwt beam="2">  1       -1 0.52568532E-01 0.12864787E+04</pdfrwt>
<totfact> 0.37619361E+01</totfact>
</mgrwt>
</event>
<event>
12    1  0.1506149E-007  0.2347335E+04  0.7818608E-02  0.8459488E-01
         -2   -1    0    0    0  501 -0.00000000000E+00  0.00000000000E+00  0.94487631197E+03  0.94487631197E+03  0.00000000000E+00 0.  1.
          2   -1    0    0  501    0  0.00000000000E+00 -0.00000000000E+00 -0.14578576409E+04  0.14578576409E+04  0.00000000000E+00 0. -1.
         23    2    1    2    0    0 -0.39166250984E+03 -0.58761640620E+03  0.50906450354E+03  0.87531005656E+03  0.91260418011E+02 0.  0.
        254    2    1    2    0    0  0.39166250984E+03  0.58761640620E+03 -0.10220458325E+04  0.15274238963E+04  0.88868077111E+03 0.  0.
        -24    2    4    4    0    0  0.50163318943E+03  0.16080508311E+03 -0.16021073188E+03  0.55640688841E+03  0.80168668224E+02 0.  0.
         24    2    4    4    0    0 -0.10997067960E+03  0.42681132309E+03 -0.86183510060E+03  0.97101700792E+03  0.76503811341E+02 0.  0.
         13    1    3    3    0    0 -0.27392429022E+03 -0.39734204317E+03  0.29490585185E+03  0.56558348411E+03  0.00000000000E+00 0. -1.
        -13    1    3    3    0    0 -0.11773821962E+03 -0.19027436303E+03  0.21415865169E+03  0.30972657244E+03  0.00000000000E+00 0.  1.
          4    1    6    6  502    0 -0.96243266968E+02  0.42083904029E+03 -0.84138831193E+03  0.94567571383E+03  0.00000000000E+00 0. -1.
          3    1    5    5  503    0  0.35695849075E+03  0.12617564611E+03 -0.78403060968E+02  0.38663509639E+03  0.00000000000E+00 0. -1.
         -4    1    5    5    0  503  0.14467469868E+03  0.34629436998E+02 -0.81807670911E+02  0.16977179202E+03  0.00000000000E+00 0.  1.
         -3    1    6    6    0  502 -0.13727412630E+02  0.59722828072E+01 -0.20446788668E+02  0.25341294092E+02  0.00000000000E+00 0.  1.
<mgrwt>
<rscale>  0 0.23473348E+04</rscale>
<asrwt>0</asrwt>
<pdfrwt beam="1">  1        2 0.22428579E+00 0.23473348E+04</pdfrwt>
<pdfrwt beam="2">  1       -2 0.14536559E+00 0.23473348E+04</pdfrwt>
<totfact> 0.39433433E+00</totfact>
</mgrwt>
</event>
<event>
12    1  0.1506149E-007  0.2558843E+04  0.7818608E-02  0.8382317E-01
          1   -1    0    0  501    0  0.00000000000E+00  0.00000000000E+00  0.14793228158E+04  0.14793228158E+04  0.00000000000E+00 0. -1.
         -1   -1    0    0    0  501 -0.00000000000E+00 -0.00000000000E+00 -0.11065332910E+04  0.11065332910E+04  0.00000000000E+00 0.  1.
         23    2    1    2    0    0 -0.12630503800E+02 -0.70505332054E+03  0.10399462816E+04  0.12597769344E+04  0.91049116549E+02 0.  0.
        254    2    1    2    0    0  0.12630503800E+02  0.70505332054E+03 -0.66715675675E+03  0.13260791724E+04  0.90339809549E+03 0.  0.
        -24    2    4    4    0    0 -0.38298174582E+03  0.85038868411E+02 -0.30237797966E+03  0.50156589534E+03  0.78925775358E+02 0.  0.
         24    2    4    4    0    0  0.39561224962E+03  0.62001445213E+03 -0.36477877709E+03  0.82451327705E+03  0.76365011016E+02 0.  0.
         11    1    3    3    0    0 -0.93519274160E+01 -0.93564522988E+02  0.19805660660E+03  0.21924460752E+03  0.00000000000E+00 0.  1.
        -11    1    3    3    0    0 -0.32785763842E+01 -0.61148879755E+03  0.84188967495E+03  0.10405323269E+04  0.00000000000E+00 0. -1.
          4    1    6    6  502    0  0.11998328862E+03  0.19747301816E+03 -0.76147988001E+02  0.24329015295E+03  0.00000000000E+00 0. -1.
          1    1    5    5  503    0 -0.69861135872E+02 -0.29933272883E+01 -0.25539550334E+02  0.74443313634E+02  0.00000000000E+00 0. -1.
         -2    1    5    5    0  503 -0.31312060995E+03  0.88032195699E+02 -0.27683842933E+03  0.42712258171E+03  0.00000000000E+00 0.  1.
         -3    1    6    6    0  502  0.27562896100E+03  0.42254143397E+03 -0.28863078909E+03  0.58122312409E+03  0.00000000000E+00 0.  1.
<mgrwt>
<rscale>  0 0.25588434E+04</rscale>
<asrwt>0</asrwt>
<pdfrwt beam="1">  1        1 0.22758813E+00 0.25588434E+04</pdfrwt>
<pdfrwt beam="2">  1       -1 0.17023589E+00 0.25588434E+04</pdfrwt>
<totfact> 0.14648319E+00</totfact>
</mgrwt>
</event>
<event>
12    1  0.1506149E-007  0.1509173E+04  0.7818608E-02  0.8878376E-01
          2   -1    0    0  501    0  0.00000000000E+00  0.00000000000E+00  0.14191992727E+04  0.14191992727E+04  0.00000000000E+00 0.  1.
         -2   -1    0    0    0  501 -0.00000000000E+00 -0.00000000000E+00 -0.40121275300E+03  0.40121275300E+03  0.00000000000E+00 0. -1.
         23    2    1    2    0    0 -0.74838768330E+02 -0.44240114318E+03  0.13059074058E+03  0.47633234557E+03  0.92298153713E+02 0.  0.
        254    2    1    2    0    0  0.74838768330E+02  0.44240114318E+03  0.88739577915E+03  0.13440796802E+04  0.90430045065E+03 0.  0.
        -24    2    4    4    0    0 -0.37799696344E+03  0.91371131108E+02  0.19779815916E+03  0.44404822176E+03  0.82609463833E+02 0.  0.
         24    2    4    4    0    0  0.45283573177E+03  0.35103001208E+03  0.68959761999E+03  0.90003145841E+03  0.78927050401E+02 0.  0.
         11    1    3    3    0    0 -0.72390560817E+02 -0.41915434014E+03  0.14437717390E+03  0.44919430372E+03  0.00000000000E+00 0.  1.
        -11    1    3    3    0    0 -0.24482075131E+01 -0.23246803046E+02 -0.13786433321E+02  0.27138041852E+02  0.00000000000E+00 0. -1.
          2    1    6    6  502    0  0.37374056346E+02  0.61469922078E+02  0.83481225950E+02  0.11020202582E+03  0.00000000000E+00 0. -1.
          3    1    5    5  503    0 -0.52492190370E+02  0.38234451994E+02  0.53113083867E+02  0.83894594861E+02  0.00000000000E+00 0. -1.
         -4    1    5    5    0  503 -0.32550477307E+03  0.53136679115E+02  0.14468507529E+03  0.36015362690E+03  0.00000000000E+00 0.  1.
         -1    1    6    6    0  502  0.41546167542E+03  0.28956009000E+03  0.60611639404E+03  0.78982943259E+03  0.00000000000E+00 0.  1.
<mgrwt>
<rscale>  0 0.15091731E+04</rscale>
<asrwt>0</asrwt>
<pdfrwt beam="1">  1        2 0.21833835E+00 0.15091731E+04</pdfrwt>
<pdfrwt beam="2">  1       -2 0.61725040E-01 0.15091731E+04</pdfrwt>
<totfact> 0.33218233E+01</totfact>
</mgrwt>
</event>
<event>
12    1  0.1506149E-007  0.2323199E+04  0.7818608E-02  0.8468830E-01
          2   -1    0    0  501    0  0.00000000000E+00  0.00000000000E+00  0.93064245369E+03  0.93064245369E+03  0.00000000000E+00 0. -1.
         -2   -1    0    0    0  501 -0.00000000000E+00 -0.00000000000E+00 -0.14498724434E+04  0.14498724434E+04  0.00000000000E+00 0.  1.
         23    2    1    2    0    0  0.10132985922E+03 -0.80980962230E+03  0.35296082430E+03  0.89387308968E+03  0.91478916840E+02 0.  0.
        254    2    1    2    0    0 -0.10132985922E+03  0.80980962230E+03 -0.87219081401E+03  0.14866418074E+04  0.88505801096E+03 0.  0.
        -24    2    4    4    0    0 -0.15880738291E+03  0.72298675433E+03 -0.10375988159E+04  0.12771528505E+04  0.81107760986E+02 0.  0.
         24    2    4    4    0    0  0.57477523688E+02  0.86822867973E+02  0.16540800189E+03  0.20948895695E+03  0.75391908456E+02 0.  0.
         11    1    3    3    0    0  0.26844652291E+02 -0.35074879694E+03  0.19800856390E+03  0.40367405823E+03  0.00000000000E+00 0. -1.
        -11    1    3    3    0    0  0.74485206926E+02 -0.45906082536E+03  0.15495226040E+03  0.49019903145E+03  0.00000000000E+00 0.  1.
          2    1    6    6  502    0  0.38329011448E+02  0.96250713122E+02  0.15307454516E+03  0.18483811639E+03  0.00000000000E+00 0. -1.
          3    1    5    5  503    0 -0.47435067423E+02  0.23544253142E+03 -0.40355334091E+03  0.46961534279E+03  0.00000000000E+00 0. -1.
         -4    1    5    5    0  503 -0.11137231548E+03  0.48754422291E+03 -0.63404547499E+03  0.80753750768E+03  0.00000000000E+00 0.  1.
         -1    1    6    6    0  502  0.19148512240E+02 -0.94278451495E+01  0.12333456733E+02  0.24650840556E+02  0.00000000000E+00 0.  1.
<mgrwt>
<rscale>  0 0.23231985E+04</rscale>
<asrwt>0</asrwt>
<pdfrwt beam="1">  1        2 0.14317576E+00 0.23231985E+04</pdfrwt>
<pdfrwt beam="2">  1       -2 0.22305730E+00 0.23231985E+04</pdfrwt>
<totfact> 0.23914493E+00</totfact>
</mgrwt>
</event>
<event>
12    1  0.1506149E-007  0.2692217E+04  0.7818608E-02  0.8337535E-01
          2   -1    0    0  501    0  0.00000000000E+00  0.00000000000E+00  0.20202801672E+04  0.20202801672E+04  0.00000000000E+00 0.  1.
         -2   -1    0    0    0  501 -0.00000000000E+00 -0.00000000000E+00 -0.89690955376E+03  0.89690955376E+03  0.00000000000E+00 0. -1.
         23    2    1    2    0    0 -0.94394293050E+03  0.60924154153E+03  0.71310332993E+02  0.11289049552E+04  0.84485042097E+02 0.  0.
        254    2    1    2    0    0  0.94394293050E+03 -0.60924154153E+03  0.10520602804E+04  0.17882847657E+04  0.91045486309E+03 0.  0.
        -24    2    4    4    0    0  0.52068513176E+03 -0.77835790877E+03  0.89889306102E+03  0.13000793427E+04  0.72412165467E+02 0.  0.
         24    2    4    4    0    0  0.42325779874E+03  0.16911636724E+03  0.15316721942E+03  0.48820542300E+03  0.84479749510E+02 0.  0.
         13    1    3    3    0    0 -0.50630988335E+03  0.35873482213E+03  0.69415733589E+01  0.62055503868E+03  0.00000000000E+00 0. -1.
        -13    1    3    3    0    0 -0.43763304715E+03  0.25050671940E+03  0.64368759634E+02  0.50834991653E+03  0.00000000000E+00 0.  1.
          2    1    6    6  502    0  0.24531020174E+03  0.53419718197E+02  0.75091261629E+02  0.26204858127E+03  0.00000000000E+00 0. -1.
          1    1    5    5  503    0  0.35394484547E+03 -0.58244567490E+03  0.67001915433E+03  0.95574347240E+03  0.00000000000E+00 0. -1.
         -2    1    5    5    0  503  0.16674028629E+03 -0.19591223386E+03  0.22887390669E+03  0.34433587035E+03  0.00000000000E+00 0.  1.
         -1    1    6    6    0  502  0.17794759700E+03  0.11569664904E+03  0.78075957795E+02  0.22615684173E+03  0.00000000000E+00 0.  1.
<mgrwt>
<rscale>  0 0.26922174E+04</rscale>
<asrwt>0</asrwt>
<pdfrwt beam="1">  1        2 0.31081233E+00 0.26922174E+04</pdfrwt>
<pdfrwt beam="2">  1       -2 0.13798609E+00 0.26922174E+04</pdfrwt>
<totfact> 0.21312121E+00</totfact>
</mgrwt>
</event>
<event>
12    1  0.1919814E-007  0.2538868E+04  0.7818608E-02  0.8389268E-01
          2   -1    0    0  501    0  0.00000000000E+00  0.00000000000E+00  0.22322178842E+04  0.22322178842E+04  0.00000000000E+00 0. -1.
         -2   -1    0    0    0  501 -0.00000000000E+00 -0.00000000000E+00 -0.72191080726E+03  0.72191080726E+03  0.00000000000E+00 0.  1.
         23    2    1    2    0    0  0.50477185021E+03 -0.42117646258E+03 -0.37258314538E+03  0.76107957539E+03  0.90772718663E+02 0.  0.
        254    2    1    2    0    0 -0.50477185021E+03  0.42117646258E+03  0.18828902223E+04  0.21930491161E+04  0.91214286314E+03 0.  0.
        -24    2    4    4    0    0 -0.39148554101E+03  0.60641717146E+03  0.18110644151E+04  0.19512139409E+04  0.79238960581E+02 0.  0.
         24    2    4    4    0    0 -0.11328630921E+03 -0.18524070888E+03  0.71825807220E+02  0.24183517516E+03  0.78596420298E+02 0.  0.
         11    1    3    3    0    0  0.68966468950E+02 -0.89097104840E+02 -0.92262342466E+02  0.14562626057E+03  0.00000000000E+00 0. -1.
        -11    1    3    3    0    0  0.43580538126E+03 -0.33207935774E+03 -0.28032080291E+03  0.61545331482E+03  0.00000000000E+00 0.  1.
          4    1    6    6  502    0 -0.77094066029E+02 -0.15858813966E+03  0.27059606032E+02  0.17839819320E+03  0.00000000000E+00 0. -1.
          3    1    5    5  503    0 -0.33304863309E+03  0.45567606276E+03  0.14178798496E+04  0.15260882459E+04  0.00000000000E+00 0. -1.
         -4    1    5    5    0  503 -0.58436907918E+02  0.15074110871E+03  0.39318456548E+03  0.42512569505E+03  0.00000000000E+00 0.  1.
         -3    1    6    6    0  502 -0.36192243178E+02 -0.26652569221E+02  0.44766201187E+02  0.63436981967E+02  0.00000000000E+00 0.  1.
<mgrwt>
<rscale>  0 0.25388676E+04</rscale>
<asrwt>0</asrwt>
<pdfrwt beam="1">  1        2 0.34341813E+00 0.25388676E+04</pdfrwt>
<pdfrwt beam="2">  1       -2 0.11106320E+00 0.25388676E+04</pdfrwt>
<totfact> 0.28256238E+00</totfact>
</mgrwt>
</event>
<event>
12    1  0.1506149E-007  0.1653022E+04  0.7818608E-02  0.8788621E-01
          1   -1    0    0  501    0  0.00000000000E+00  0.00000000000E+00  0.21055566903E+04  0.21055566903E+04  0.00000000000E+00 0. -1.
         -1   -1    0    0    0  501 -0.00000000000E+00 -0.00000000000E+00 -0.32443684044E+03  0.32443684044E+03  0.00000000000E+00 0.  1.
         23    2    1    2    0    0 -0.17860816303E+02  0.47951125819E+03  0.17263627647E+03  0.51740882503E+03  0.87513157715E+02 0.  0.
        254    2    1    2    0    0  0.17860816303E+02 -0.47951125819E+03  0.16084835734E+04  0.19125847058E+04  0.91679375827E+03 0.  0.
        -24    2    4    4    0    0 -0.42916517115E+03 -0.29255961989E+03  0.10082110484E+04  0.11369579624E+04  0.80062567633E+02 0.  0.
         24    2    4    4    0    0  0.44702598745E+03 -0.18695163830E+03  0.60027252503E+03  0.77562674339E+03  0.80539383207E+02 0.  0.
         13    1    3    3    0    0  0.88418003319E+01  0.30111498067E+03  0.14705029398E+03  0.33521962648E+03  0.00000000000E+00 0. -1.
        -13    1    3    3    0    0 -0.26702616635E+02  0.17839627752E+03  0.25585982491E+02  0.18218919855E+03  0.00000000000E+00 0.  1.
          2    1    6    6  502    0  0.77237922053E+02 -0.33073180795E+01  0.11361967028E+03  0.13742657833E+03  0.00000000000E+00 0. -1.
          1    1    5    5  503    0 -0.35784581716E+03 -0.27568905222E+03  0.84927498405E+03  0.96193870954E+03  0.00000000000E+00 0. -1.
         -2    1    5    5    0  503 -0.71319353992E+02 -0.16870567672E+02  0.15893606436E+03  0.17501925283E+03  0.00000000000E+00 0.  1.
         -1    1    6    6    0  502  0.36978806540E+03 -0.18364432022E+03  0.48665285475E+03  0.63820016507E+03  0.00000000000E+00 0.  1.
<mgrwt>
<rscale>  0 0.16530217E+04</rscale>
<asrwt>0</asrwt>
<pdfrwt beam="1">  1        1 0.32393179E+00 0.16530217E+04</pdfrwt>
<pdfrwt beam="2">  1       -1 0.49913362E-01 0.16530217E+04</pdfrwt>
<totfact> 0.97251537E+00</totfact>
</mgrwt>
</event>
<event>
12    1  0.1506149E-007  0.1930837E+04  0.7818608E-02  0.8639657E-01
         -1   -1    0    0    0  501 -0.00000000000E+00  0.00000000000E+00  0.73413009709E+03  0.73413009709E+03  0.00000000000E+00 0. -1.
          1   -1    0    0  501    0  0.00000000000E+00 -0.00000000000E+00 -0.12695740739E+04  0.12695740739E+04  0.00000000000E+00 0.  1.
         23    2    1    2    0    0 -0.47004292167E+03 -0.37345886705E+03 -0.69465635414E+03  0.92270702754E+03  0.91809230113E+02 0.  0.
        254    2    1    2    0    0  0.47004292167E+03  0.37345886705E+03  0.15921237731E+03  0.10809971435E+04  0.88475667250E+03 0.  0.
        -24    2    4    4    0    0  0.26078007193E+02  0.56774645935E+03  0.11626816496E+03  0.58706323542E+03  0.90049162316E+02 0.  0.
         24    2    4    4    0    0  0.44396491448E+03 -0.19428759230E+03  0.42944212351E+02  0.49393390806E+03  0.85287668224E+02 0.  0.
         11    1    3    3    0    0 -0.45895575795E+03 -0.37810743446E+03 -0.67413656089E+03  0.89892475908E+03  0.00000000000E+00 0.  1.
        -11    1    3    3    0    0 -0.11087163715E+02  0.46485674094E+01 -0.20519793250E+02  0.23782268463E+02  0.00000000000E+00 0. -1.
          2    1    6    6  502    0  0.29663255346E+03 -0.88070511260E+02  0.42268534674E+02  0.31230420387E+03  0.00000000000E+00 0. -1.
          3    1    5    5  503    0 -0.24612683390E+02  0.28537043243E+03  0.83230787422E+02  0.29827744109E+03  0.00000000000E+00 0. -1.
         -4    1    5    5    0  503  0.50690690583E+02  0.28237602692E+03  0.33037377536E+02  0.28878579433E+03  0.00000000000E+00 0.  1.
         -1    1    6    6    0  502  0.14733236101E+03 -0.10621708104E+03  0.67567767748E+00  0.18162970420E+03  0.00000000000E+00 0.  1.
<mgrwt>
<rscale>  0 0.19308366E+04</rscale>
<asrwt>0</asrwt>
<pdfrwt beam="1">  1        1 0.19531909E+00 0.19308366E+04</pdfrwt>
<pdfrwt beam="2">  1       -1 0.11294309E+00 0.19308366E+04</pdfrwt>
<totfact> 0.63624995E+00</totfact>
</mgrwt>
</event>
<event>
12    1  0.1506149E-007  0.3262911E+04  0.7818608E-02  0.8172397E-01
         -2   -1    0    0    0  501 -0.00000000000E+00  0.00000000000E+00  0.64052058367E+03  0.64052058367E+03  0.00000000000E+00 0.  1.
          2   -1    0    0  501    0  0.00000000000E+00 -0.00000000000E+00 -0.41554427993E+04  0.41554427993E+04  0.00000000000E+00 0. -1.
         23    2    1    2    0    0  0.49098251351E+03 -0.91111837471E+03 -0.32206215558E+04  0.33841124688E+04  0.92808804149E+02 0.  0.
        254    2    1    2    0    0 -0.49098251351E+03  0.91111837471E+03 -0.29430065983E+03  0.14118509142E+04  0.91406214469E+03 0.  0.
        -24    2    4    4    0    0  0.16298598024E+03  0.96606443754E+02  0.16878308542E+03  0.26617347684E+03  0.80394994340E+02 0.  0.
         24    2    4    4    0    0 -0.65396849375E+03  0.81451193095E+03 -0.46308374526E+03  0.11456774374E+04  0.83819800594E+02 0.  0.
         13    1    3    3    0    0  0.29895214702E+03 -0.52106318603E+03 -0.17268049707E+04  0.18283146985E+04  0.00000000000E+00 0. -1.
        -13    1    3    3    0    0  0.19203036649E+03 -0.39005518868E+03 -0.14938165852E+04  0.15557977703E+04  0.00000000000E+00 0.  1.
          2    1    6    6  502    0 -0.22383614753E+03  0.32184486318E+03 -0.14060441712E+03  0.41648089874E+03  0.00000000000E+00 0. -1.
          1    1    5    5  503    0  0.13680756756E+03  0.39883797855E+02  0.12815211625E+03  0.19165070512E+03  0.00000000000E+00 0. -1.
         -2    1    5    5    0  503  0.26178412685E+02  0.56722645899E+02  0.40630969171E+02  0.74522771716E+02  0.00000000000E+00 0.  1.
         -1    1    6    6    0  502 -0.43013234622E+03  0.49266706777E+03 -0.32247932813E+03  0.72919653867E+03  0.00000000000E+00 0.  1.
<mgrwt>
<rscale>  0 0.32629108E+04</rscale>
<asrwt>0</asrwt>
<pdfrwt beam="1">  1        2 0.63929888E+00 0.32629108E+04</pdfrwt>
<pdfrwt beam="2">  1       -2 0.98541630E-01 0.32629108E+04</pdfrwt>
<totfact> 0.18158074E-01</totfact>
</mgrwt>
</event>
<event>
12    1  0.1506149E-007  0.1490959E+04  0.7818608E-02  0.8890488E-01
         -1   -1    0    0    0  501 -0.00000000000E+00  0.00000000000E+00  0.78726296605E+03  0.78726296605E+03  0.00000000000E+00 0.  1.
          1   -1    0    0  501    0  0.00000000000E+00 -0.00000000000E+00 -0.70591333996E+03  0.70591333996E+03  0.00000000000E+00 0. -1.
         23    2    1    2    0    0  0.63315062585E+02 -0.29282390420E+03 -0.34212537409E+03  0.46398717319E+03  0.92085228279E+02 0.  0.
        254    2    1    2    0    0 -0.63315062585E+02  0.29282390420E+03  0.42347500018E+03  0.10291891328E+04  0.88890075899E+03 0.  0.
        -24    2    4    4    0    0  0.18941881755E+02 -0.29858361206E+03  0.32507440539E+02  0.31099011446E+03  0.78403758360E+02 0.  0.
         24    2    4    4    0    0 -0.82256944340E+02  0.59140751626E+03  0.39096755964E+03  0.71819901837E+03  0.80156984203E+02 0.  0.
         11    1    3    3    0    0  0.16346262722E+02 -0.10328818979E+03 -0.18836936957E+03  0.21544992422E+03  0.00000000000E+00 0.  1.
        -11    1    3    3    0    0  0.46968799863E+02 -0.18953571441E+03 -0.15375600452E+03  0.24853724896E+03  0.00000000000E+00 0. -1.
          2    1    6    6  502    0  0.12565982516E+02  0.49445926612E+02  0.20928662483E+02  0.55143562529E+02  0.00000000000E+00 0. -1.
          1    1    5    5  503    0 -0.29859659379E+02 -0.14393811988E+03  0.19798847678E+02  0.14832995646E+03  0.00000000000E+00 0. -1.
         -2    1    5    5    0  503  0.48801541135E+02 -0.15464549218E+03  0.12708592860E+02  0.16266015800E+03  0.00000000000E+00 0.  1.
         -1    1    6    6    0  502 -0.94822926856E+02  0.54196158964E+03  0.37003889716E+03  0.66305545584E+03  0.00000000000E+00 0.  1.
<mgrwt>
<rscale>  0 0.14909587E+04</rscale>
<asrwt>0</asrwt>
<pdfrwt beam="1">  1        1 0.10860205E+00 0.14909587E+04</pdfrwt>
<pdfrwt beam="2">  1       -1 0.12111738E+00 0.14909587E+04</pdfrwt>
<totfact> 0.15761103E+01</totfact>
</mgrwt>
</event>
<event>
12    1  0.1506149E-007  0.1730320E+04  0.7818608E-02  0.8744258E-01
         -2   -1    0    0    0  501 -0.00000000000E+00  0.00000000000E+00  0.14899710919E+04  0.14899710919E+04  0.00000000000E+00 0. -1.
          2   -1    0    0  501    0  0.00000000000E+00 -0.00000000000E+00 -0.50235971470E+03  0.50235971470E+03  0.00000000000E+00 0.  1.
         23    2    1    2    0    0 -0.54789154211E+03 -0.25547610983E+03  0.17163724880E+03  0.63485335634E+03  0.90145739097E+02 0.  0.
        254    2    1    2    0    0  0.54789154211E+03  0.25547610983E+03  0.81597412836E+03  0.13574774502E+04  0.90082077303E+03 0.  0.
        -24    2    4    4    0    0  0.39052739366E+03  0.58315012229E+03  0.46472636410E+03  0.84543936933E+03  0.78876000145E+02 0.  0.
         24    2    4    4    0    0  0.15736414845E+03 -0.32767401246E+03  0.35124776426E+03  0.51203808090E+03  0.81696210015E+02 0.  0.
         11    1    3    3    0    0 -0.51816954974E+03 -0.23330546373E+03  0.18137987147E+03  0.59651469341E+03  0.00000000000E+00 0. -1.
        -11    1    3    3    0    0 -0.29721992371E+02 -0.22170646098E+02 -0.97426226691E+01  0.38338662932E+02  0.00000000000E+00 0.  1.
          2    1    6    6  502    0  0.13672799530E+03 -0.20600662978E+03  0.20926616241E+03  0.32392221742E+03  0.00000000000E+00 0. -1.
          3    1    5    5  503    0  0.35854982392E+03  0.56203280109E+03  0.45029891493E+03  0.80449236076E+03  0.00000000000E+00 0. -1.
         -2    1    5    5    0  503  0.31977569746E+02  0.21117321195E+02  0.14427449173E+02  0.40947008571E+02  0.00000000000E+00 0.  1.
         -1    1    6    6    0  502  0.20636153148E+02 -0.12166738268E+03  0.14198160186E+03  0.18811586347E+03  0.00000000000E+00 0.  1.
<mgrwt>
<rscale>  0 0.17303196E+04</rscale>
<asrwt>0</asrwt>
<pdfrwt beam="1">  1        2 0.77286111E-01 0.17303196E+04</pdfrwt>
<pdfrwt beam="2">  1       -2 0.22922632E+00 0.17303196E+04</pdfrwt>
<totfact> 0.50237970E+00</totfact>
</mgrwt>
</event>
<event>
12    1  0.1506149E-007  0.2349804E+04  0.7818608E-02  0.8458539E-01
         -2   -1    0    0    0  501 -0.00000000000E+00  0.00000000000E+00  0.42733358179E+03  0.42733358179E+03  0.00000000000E+00 0.  1.
          2   -1    0    0  501    0  0.00000000000E+00 -0.00000000000E+00 -0.32302508718E+04  0.32302508718E+04  0.00000000000E+00 0. -1.
         23    2    1    2    0    0  0.81455271056E+03  0.58742393563E+03 -0.11793184686E+04  0.15517849724E+04  0.93174845609E+02 0.  0.
        254    2    1    2    0    0 -0.81455271056E+03 -0.58742393563E+03 -0.16235988214E+04  0.21057994812E+04  0.88868178979E+03 0.  0.
        -24    2    4    4    0    0  0.12410941748E+03 -0.30766985428E+03 -0.57640818322E+03  0.66975734050E+03  0.79149319196E+02 0.  0.
         24    2    4    4    0    0 -0.93866212804E+03 -0.27975408135E+03 -0.10471906382E+04  0.14360421407E+04  0.79119279445E+02 0.  0.
         11    1    3    3    0    0  0.83826726828E+02  0.33838151976E+02 -0.13103044214E+03  0.15918830807E+03  0.00000000000E+00 0. -1.
        -11    1    3    3    0    0  0.73072598374E+03  0.55358578366E+03 -0.10482880265E+04  0.13925966644E+04  0.00000000000E+00 0.  1.
          4    1    6    6  502    0 -0.79857309276E+03 -0.21320461831E+03 -0.90484570092E+03  0.12255288394E+04  0.00000000000E+00 0. -1.
          3    1    5    5  503    0  0.12279803182E+03 -0.24024275400E+03 -0.49753313510E+03  0.56598158803E+03  0.00000000000E+00 0. -1.
         -4    1    5    5    0  503  0.13113856626E+01 -0.67427100279E+02 -0.78875048124E+02  0.10377575247E+03  0.00000000000E+00 0.  1.
         -3    1    6    6    0  502 -0.14008903529E+03 -0.66549463037E+02 -0.14234493730E+03  0.21051330127E+03  0.00000000000E+00 0.  1.
<mgrwt>
<rscale>  0 0.23498040E+04</rscale>
<asrwt>0</asrwt>
<pdfrwt beam="1">  1        2 0.49696167E+00 0.23498040E+04</pdfrwt>
<pdfrwt beam="2">  1       -2 0.65743628E-01 0.23498040E+04</pdfrwt>
<totfact> 0.23860764E+00</totfact>
</mgrwt>
</event>
<event>
12    1  0.1506149E-007  0.1288270E+04  0.7818608E-02  0.9038919E-01
         -1   -1    0    0    0  501 -0.00000000000E+00  0.00000000000E+00  0.62588052567E+03  0.62588052567E+03  0.00000000000E+00 0.  1.
          1   -1    0    0  501    0  0.00000000000E+00 -0.00000000000E+00 -0.66292174752E+03  0.66292174752E+03  0.00000000000E+00 0. -1.
         23    2    1    2    0    0 -0.27553512159E+03  0.14213971273E+03 -0.69614780462E+02  0.33169064187E+03  0.95127089076E+02 0.  0.
        254    2    1    2    0    0  0.27553512159E+03 -0.14213971273E+03  0.32573558609E+02  0.95711163133E+03  0.90491896705E+03 0.  0.
        -24    2    4    4    0    0  0.40546568469E+03 -0.44257356937E+03  0.98836675109E+02  0.61352079614E+03  0.79782787551E+02 0.  0.
         24    2    4    4    0    0 -0.12993056309E+03  0.30043385663E+03 -0.66263116499E+02  0.34359083519E+03  0.80755234995E+02 0.  0.
         11    1    3    3    0    0 -0.21518961108E+03  0.12378072905E+03 -0.15758331293E+02  0.24875000021E+03  0.00000000000E+00 0.  1.
        -11    1    3    3    0    0 -0.60345510516E+02  0.18358983686E+02 -0.53856449169E+02  0.82940641657E+02  0.00000000000E+00 0. -1.
          2    1    6    6  502    0 -0.47987031606E+02  0.18166580090E+03 -0.66439409204E+02  0.19929729931E+03  0.00000000000E+00 0. -1.
          1    1    5    5  503    0  0.26948313469E+03 -0.33936774438E+03  0.89890624616E+02  0.44257423129E+03  0.00000000000E+00 0. -1.
         -2    1    5    5    0  503  0.13598255000E+03 -0.10320582499E+03  0.89460504928E+01  0.17094656485E+03  0.00000000000E+00 0.  1.
         -1    1    6    6    0  502 -0.81943531488E+02  0.11876805573E+03  0.17629270425E+00  0.14429353587E+03  0.00000000000E+00 0.  1.
<mgrwt>
<rscale>  0 0.12882699E+04</rscale>
<asrwt>0</asrwt>
<pdfrwt beam="1">  1        1 0.10198796E+00 0.12882699E+04</pdfrwt>
<pdfrwt beam="2">  1       -1 0.96289312E-01 0.12882699E+04</pdfrwt>
<totfact> 0.30226159E+01</totfact>
</mgrwt>
</event>
<event>
12    1  0.1506149E-007  0.1639844E+04  0.7818608E-02  0.8796437E-01
         -1   -1    0    0    0  501 -0.00000000000E+00  0.00000000000E+00  0.60121837483E+03  0.60121837483E+03  0.00000000000E+00 0.  1.
          1   -1    0    0  501    0  0.00000000000E+00 -0.00000000000E+00 -0.11181832206E+04  0.11181832206E+04  0.00000000000E+00 0. -1.
         23    2    1    2    0    0 -0.18713156970E+03 -0.65501397360E+02 -0.73193255796E+03  0.76353048368E+03  0.89134015167E+02 0.  0.
        254    2    1    2    0    0  0.18713156970E+03  0.65501397360E+02  0.21496771219E+03  0.95587111175E+03  0.91003835499E+03 0.  0.
        -24    2    4    4    0    0 -0.92514826428E+02  0.14092600653E+03  0.50533771019E+03  0.53836276975E+03  0.77776205155E+02 0.  0.
         24    2    4    4    0    0  0.27964639613E+03 -0.75424609168E+02 -0.29036999800E+03  0.41750834200E+03  0.78150504589E+02 0.  0.
         13    1    3    3    0    0 -0.13705921142E+03 -0.45929354706E+01 -0.50505371929E+03  0.52334078941E+03  0.00000000000E+00 0. -1.
        -13    1    3    3    0    0 -0.50072358280E+02 -0.60908461890E+02 -0.22687883867E+03  0.24018969426E+03  0.00000000000E+00 0.  1.
          2    1    6    6  502    0  0.49167804577E+02 -0.46300511169E+02 -0.59978062893E+02  0.90324849127E+02  0.00000000000E+00 0. -1.
          1    1    5    5  503    0 -0.16372858012E+02  0.94739743925E+02  0.28116187730E+03  0.29714590828E+03  0.00000000000E+00 0. -1.
         -2    1    5    5    0  503 -0.76141968416E+02  0.46186262603E+02  0.22417583289E+03  0.24121686147E+03  0.00000000000E+00 0.  1.
         -3    1    6    6    0  502  0.23047859155E+03 -0.29124097999E+02 -0.23039193511E+03  0.32718349288E+03  0.00000000000E+00 0.  1.
<mgrwt>
<rscale>  0 0.16398443E+04</rscale>
<asrwt>0</asrwt>
<pdfrwt beam="1">  1        1 0.17202819E+00 0.16398443E+04</pdfrwt>
<pdfrwt beam="2">  1       -1 0.92495136E-01 0.16398443E+04</pdfrwt>
<totfact> 0.13359423E+01</totfact>
</mgrwt>
</event>
<event>
12    1  0.1506149E-007  0.1497056E+04  0.7818608E-02  0.8886413E-01
         -4   -1    0    0    0  501 -0.00000000000E+00  0.00000000000E+00  0.13099610587E+04  0.13099610587E+04  0.00000000000E+00 0.  1.
          4   -1    0    0  501    0  0.00000000000E+00 -0.00000000000E+00 -0.42771830284E+03  0.42771830284E+03  0.00000000000E+00 0. -1.
         23    2    1    2    0    0 -0.72830623224E+02  0.45958637844E+03  0.15975926839E+03  0.50059971422E+03  0.92483031504E+02 0.  0.
        254    2    1    2    0    0  0.72830623224E+02 -0.45958637844E+03  0.72248348744E+03  0.12370796473E+04  0.88986500391E+03 0.  0.
        -24    2    4    4    0    0 -0.39238638842E+03 -0.12350852657E+03  0.36391965725E+03  0.55554845279E+03  0.83517258726E+02 0.  0.
         24    2    4    4    0    0  0.46521701164E+03 -0.33607785187E+03  0.35856383018E+03  0.68153119450E+03  0.80879900609E+02 0.  0.
         11    1    3    3    0    0 -0.26166563019E+02  0.59350908378E+02  0.52966362379E+02  0.83741595931E+02  0.00000000000E+00 0.  1.
        -11    1    3    3    0    0 -0.46664060205E+02  0.40023547006E+03  0.10679290601E+03  0.41685811829E+03  0.00000000000E+00 0. -1.
          2    1    6    6  502    0  0.65745662992E+02 -0.55941232351E+02  0.89519147421E+02  0.12436073108E+03  0.00000000000E+00 0. -1.
          1    1    5    5  503    0 -0.74793193890E+01 -0.15631778049E+01 -0.45793811753E+01  0.89081128934E+01  0.00000000000E+00 0. -1.
         -2    1    5    5    0  503 -0.38490706903E+03 -0.12194534877E+03  0.36849903843E+03  0.54664033989E+03  0.00000000000E+00 0.  1.
         -1    1    6    6    0  502  0.39947134865E+03 -0.28013661952E+03  0.26904468276E+03  0.55717046342E+03  0.00000000000E+00 0.  1.
<mgrwt>
<rscale>  0 0.14970562E+04</rscale>
<asrwt>0</asrwt>
<pdfrwt beam="1">  1        4 0.65802816E-01 0.14970562E+04</pdfrwt>
<pdfrwt beam="2">  1       -4 0.20153247E+00 0.14970562E+04</pdfrwt>
<totfact> 0.53313728E-01</totfact>
</mgrwt>
</event>
<event>
12    1  0.1506149E-007  0.1276177E+04  0.7818608E-02  0.9048673E-01
          2   -1    0    0  501    0  0.00000000000E+00  0.00000000000E+00  0.92979061032E+03  0.92979061032E+03  0.00000000000E+00 0. -1.
         -2   -1    0    0    0  501 -0.00000000000E+00 -0.00000000000E+00 -0.43790207424E+03  0.43790207424E+03  0.00000000000E+00 0.  1.
         23    2    1    2    0    0  0.83813058906E+02  0.25399179197E+03  0.28578594345E+03  0.40187914896E+03  0.91086693124E+02 0.  0.
        254    2    1    2    0    0 -0.83813058906E+02 -0.25399179197E+03  0.20610259262E+03  0.96581353560E+03  0.90486520965E+03 0.  0.
        -24    2    4    4    0    0  0.13466439551E+03 -0.53428454262E+03  0.21021397664E+02  0.55677680458E+03  0.77227191159E+02 0.  0.
         24    2    4    4    0    0 -0.21847745441E+03  0.28029275066E+03  0.18508119496E+03  0.40903673102E+03  0.82216631164E+02 0.  0.
         13    1    3    3    0    0  0.56164825315E+01  0.11606727373E+03  0.16841320979E+03  0.20461223360E+03  0.00000000000E+00 0. -1.
        -13    1    3    3    0    0  0.78196576374E+02  0.13792451824E+03  0.11737273366E+03  0.19726691536E+03  0.00000000000E+00 0.  1.
          2    1    6    6  502    0 -0.15181100196E+03  0.24492330607E+03  0.13317941375E+03  0.31744410913E+03  0.00000000000E+00 0. -1.
          3    1    5    5  503    0  0.56675362372E+02 -0.22920886524E+03  0.47274038542E+02  0.24079791388E+03  0.00000000000E+00 0. -1.
         -4    1    5    5    0  503  0.77989033134E+02 -0.30507567738E+03 -0.26252640877E+02  0.31597889070E+03  0.00000000000E+00 0.  1.
         -1    1    6    6    0  502 -0.66666452449E+02  0.35369444585E+02  0.51901781209E+02  0.91592621892E+02  0.00000000000E+00 0.  1.
<mgrwt>
<rscale>  0 0.12761775E+04</rscale>
<asrwt>0</asrwt>
<pdfrwt beam="1">  1        2 0.14304471E+00 0.12761775E+04</pdfrwt>
<pdfrwt beam="2">  1       -2 0.67369550E-01 0.12761775E+04</pdfrwt>
<totfact> 0.55562887E+01</totfact>
</mgrwt>
</event>
<event>
12    1  0.1506149E-007  0.3921299E+04  0.7818608E-02  0.8020614E-01
         -2   -1    0    0    0  501 -0.00000000000E+00  0.00000000000E+00  0.17897496451E+04  0.17897496451E+04  0.00000000000E+00 0.  1.
          2   -1    0    0  501    0  0.00000000000E+00 -0.00000000000E+00 -0.21478681502E+04  0.21478681502E+04  0.00000000000E+00 0. -1.
         23    2    1    2    0    0  0.13657870499E+04  0.66450540542E+02  0.10974411949E+04  0.17552795112E+04  0.82698526773E+02 0.  0.
        254    2    1    2    0    0 -0.13657870499E+04 -0.66450540542E+02 -0.14555597000E+04  0.21823382841E+04  0.87986158338E+03 0.  0.
        -24    2    4    4    0    0 -0.30912868406E+02 -0.11909820468E+03  0.62014564358E+02  0.15900046147E+03  0.79343259082E+02 0.  0.
         24    2    4    4    0    0 -0.13348741815E+04  0.52647664142E+02 -0.15175742643E+04  0.20233378226E+04  0.78761917539E+02 0.  0.
         13    1    3    3    0    0  0.30812910172E+02 -0.14337677967E+01  0.11006925094E+02  0.32751236975E+02  0.00000000000E+00 0. -1.
        -13    1    3    3    0    0  0.13349741397E+04  0.67884308338E+02  0.10864342698E+04  0.17225282743E+04  0.00000000000E+00 0.  1.
          2    1    6    6  502    0 -0.11950187827E+04  0.65230618324E+02 -0.13331382260E+04  0.17915307572E+04  0.00000000000E+00 0. -1.
          3    1    5    5  503    0 -0.29419767776E+02 -0.20747867338E+02  0.47458384481E+02  0.59567566617E+02  0.00000000000E+00 0. -1.
         -4    1    5    5    0  503 -0.14931006297E+01 -0.98350337345E+02  0.14556179877E+02  0.99432894849E+02  0.00000000000E+00 0.  1.
         -1    1    6    6    0  502 -0.13985539879E+03 -0.12582954182E+02 -0.18443603838E+03  0.23180706538E+03  0.00000000000E+00 0.  1.
<mgrwt>
<rscale>  0 0.39212989E+04</rscale>
<asrwt>0</asrwt>
<pdfrwt beam="1">  1        2 0.33044125E+00 0.39212989E+04</pdfrwt>
<pdfrwt beam="2">  1       -2 0.27534610E+00 0.39212989E+04</pdfrwt>
<totfact> 0.19718229E-01</totfact>
</mgrwt>
</event>
<event>
12    1  0.1506149E-007  0.1302920E+04  0.7818608E-02  0.9027253E-01
         -1   -1    0    0    0  501 -0.00000000000E+00  0.00000000000E+00  0.16778305122E+03  0.16778305122E+03  0.00000000000E+00 0.  1.
          1   -1    0    0  501    0  0.00000000000E+00 -0.00000000000E+00 -0.25294575801E+04  0.25294575801E+04  0.00000000000E+00 0. -1.
         23    2    1    2    0    0  0.29189208522E+02 -0.29764179678E+03 -0.82739728536E+03  0.88406076673E+03  0.86801626467E+02 0.  0.
        254    2    1    2    0    0 -0.29189208522E+02  0.29764179678E+03 -0.15342772435E+04  0.18131798646E+04  0.91878828482E+03 0.  0.
        -24    2    4    4    0    0  0.10467731646E+03 -0.30591603332E+03 -0.66501610586E+03  0.74393418206E+03  0.81545607851E+02 0.  0.
         24    2    4    4    0    0 -0.13386652498E+03  0.60355783010E+03 -0.86926113768E+03  0.10692456826E+04  0.73953386653E+02 0.  0.
         11    1    3    3    0    0  0.62931691786E+01 -0.27170690228E+03 -0.67238744050E+03  0.72523728177E+03  0.00000000000E+00 0. -1.
        -11    1    3    3    0    0  0.22896039344E+02 -0.25934894501E+02 -0.15500984486E+03  0.15882348495E+03  0.00000000000E+00 0.  1.
          2    1    6    6  502    0 -0.12168363466E+03  0.39632286027E+03 -0.59833548338E+03  0.72793136159E+03  0.00000000000E+00 0. -1.
          3    1    5    5  503    0  0.30547575092E+02 -0.20101403639E+03 -0.37043741405E+03  0.42256795300E+03  0.00000000000E+00 0. -1.
         -4    1    5    5    0  503  0.74129741363E+02 -0.10490199693E+03 -0.29457869181E+03  0.32136622906E+03  0.00000000000E+00 0.  1.
         -1    1    6    6    0  502 -0.12182890318E+02  0.20723496984E+03 -0.27092565430E+03  0.34131432097E+03  0.00000000000E+00 0.  1.
<mgrwt>
<rscale>  0 0.13029200E+04</rscale>
<asrwt>0</asrwt>
<pdfrwt beam="1">  1        1 0.38914730E+00 0.13029200E+04</pdfrwt>
<pdfrwt beam="2">  1       -1 0.25812779E-01 0.13029200E+04</pdfrwt>
<totfact> 0.16911456E+01</totfact>
</mgrwt>
</event>
<event>
12    1  0.1506149E-007  0.3098025E+04  0.7818608E-02  0.8216280E-01
         -1   -1    0    0    0  501 -0.00000000000E+00  0.00000000000E+00  0.14579920692E+04  0.14579920692E+04  0.00000000000E+00 0. -1.
          1   -1    0    0  501    0  0.00000000000E+00 -0.00000000000E+00 -0.16457148328E+04  0.16457148328E+04  0.00000000000E+00 0.  1.
         23    2    1    2    0    0  0.99945434962E+03  0.94277592744E+03 -0.43812093885E+03  0.14463719911E+04  0.11093481472E+03 0.  0.
        254    2    1    2    0    0 -0.99945434962E+03 -0.94277592744E+03  0.25039817522E+03  0.16573349109E+04  0.89237005469E+03 0.  0.
        -24    2    4    4    0    0 -0.70542897376E+03 -0.16823811457E+03  0.36729684274E+03  0.81680890898E+03  0.79597254321E+02 0.  0.
         24    2    4    4    0    0 -0.29402537586E+03 -0.77453781287E+03 -0.11689866751E+03  0.84052600195E+03  0.80367383154E+02 0.  0.
         11    1    3    3    0    0  0.20999040771E+02  0.29707639294E+01 -0.19772282756E+01  0.21300107588E+02  0.00000000000E+00 0. -1.
        -11    1    3    3    0    0  0.97845530885E+03  0.93980516351E+03 -0.43614371057E+03  0.14250718835E+04  0.00000000000E+00 0.  1.
          2    1    6    6  502    0  0.49372321984E+00 -0.41551111470E+02 -0.14308337972E+02  0.43948460297E+02  0.00000000000E+00 0. -1.
          1    1    5    5  503    0 -0.10053106680E+01 -0.64978603810E+01  0.14338496813E+01  0.67296927105E+01  0.00000000000E+00 0. -1.
         -2    1    5    5    0  503 -0.70442366309E+03 -0.16174025419E+03  0.36586299305E+03  0.81007921627E+03  0.00000000000E+00 0.  1.
         -1    1    6    6    0  502 -0.29451909908E+03 -0.73298670140E+03 -0.10259032954E+03  0.79657754165E+03  0.00000000000E+00 0.  1.
<mgrwt>
<rscale>  0 0.30980246E+04</rscale>
<asrwt>0</asrwt>
<pdfrwt beam="1">  1        1 0.25318690E+00 0.30980246E+04</pdfrwt>
<pdfrwt beam="2">  1       -1 0.22430647E+00 0.30980246E+04</pdfrwt>
<totfact> 0.45125338E-01</totfact>
</mgrwt>
</event>
<event>
12    1  0.1506149E-007  0.1456845E+04  0.7818608E-02  0.8913669E-01
          1   -1    0    0  501    0  0.00000000000E+00  0.00000000000E+00  0.77599265435E+03  0.77599265435E+03  0.00000000000E+00 0. -1.
         -1   -1    0    0    0  501 -0.00000000000E+00 -0.00000000000E+00 -0.68376810122E+03  0.68376810122E+03  0.00000000000E+00 0.  1.
         23    2    1    2    0    0 -0.40620703414E+02 -0.29091774373E+03 -0.20926811454E+03  0.37078199766E+03  0.86040518734E+02 0.  0.
        254    2    1    2    0    0  0.40620703414E+02  0.29091774373E+03  0.30149266767E+03  0.10889787579E+04  0.10043374589E+04 0.  0.
        -24    2    4    4    0    0 -0.78110615745E+02  0.63971693288E+03  0.29153384575E+03  0.71173164917E+03  0.78936269886E+02 0.  0.
         24    2    4    4    0    0  0.11873131916E+03 -0.34879918915E+03  0.99588219260E+01  0.37724710874E+03  0.80362941801E+02 0.  0.
         11    1    3    3    0    0 -0.23583877388E+02 -0.28779677620E+03 -0.19734698364E+03  0.34975565130E+03  0.00000000000E+00 0.  1.
        -11    1    3    3    0    0 -0.17036826026E+02 -0.31209675273E+01 -0.11921130905E+02  0.21026346363E+02  0.00000000000E+00 0. -1.
          2    1    6    6  502    0  0.16584281702E+01 -0.48972100897E+02  0.25026798035E+02  0.55021429191E+02  0.00000000000E+00 0. -1.
          3    1    5    5  503    0 -0.31570043703E+02  0.20558922367E+03  0.13468687687E+03  0.24779861047E+03  0.00000000000E+00 0. -1.
         -4    1    5    5    0  503 -0.46540572043E+02  0.43412770922E+03  0.15684696888E+03  0.46393303870E+03  0.00000000000E+00 0.  1.
         -1    1    6    6    0  502  0.11707289099E+03 -0.29982708826E+03 -0.15067976109E+02  0.32222567955E+03  0.00000000000E+00 0.  1.
<mgrwt>
<rscale>  0 0.14568446E+04</rscale>
<asrwt>0</asrwt>
<pdfrwt beam="1">  1        1 0.11938349E+00 0.14568446E+04</pdfrwt>
<pdfrwt beam="2">  1       -1 0.10519509E+00 0.14568446E+04</pdfrwt>
<totfact> 0.19107973E+01</totfact>
</mgrwt>
</event>
<event>
12    1  0.1506149E-007  0.1164236E+04  0.7818608E-02  0.9144750E-01
         -2   -1    0    0    0  501 -0.00000000000E+00  0.00000000000E+00  0.20403823871E+03  0.20403823871E+03  0.00000000000E+00 0.  1.
          2   -1    0    0  501    0  0.00000000000E+00 -0.00000000000E+00 -0.16607745052E+04  0.16607745052E+04  0.00000000000E+00 0. -1.
         23    2    1    2    0    0 -0.41860257591E+02  0.11434146805E+03 -0.60064707223E+03  0.61934631444E+03  0.89368335284E+02 0.  0.
        254    2    1    2    0    0  0.41860257591E+02 -0.11434146805E+03 -0.85608919424E+03  0.12454664295E+04  0.89636581033E+03 0.  0.
        -24    2    4    4    0    0 -0.28778935357E+03  0.22500047708E+03 -0.17691341817E+03  0.41354935192E+03  0.79226146118E+02 0.  0.
         24    2    4    4    0    0  0.32964961116E+03 -0.33934194514E+03 -0.67917577607E+03  0.83191707754E+03  0.83573125018E+02 0.  0.
         13    1    3    3    0    0 -0.25496546254E+02  0.63037121067E+01 -0.38039255269E+02  0.46225486462E+02  0.00000000000E+00 0.  1.
        -13    1    3    3    0    0 -0.16363711337E+02  0.10803775595E+03 -0.56260781696E+03  0.57312082798E+03  0.00000000000E+00 0. -1.
          2    1    6    6  502    0  0.14690782343E+03 -0.19779202545E+03 -0.30474937059E+03  0.39188744913E+03  0.00000000000E+00 0. -1.
          1    1    5    5  503    0 -0.11346771900E+03  0.11810485414E+03 -0.11419736273E+03  0.19966150726E+03  0.00000000000E+00 0. -1.
         -2    1    5    5    0  503 -0.17432163457E+03  0.10689562294E+03 -0.62716055442E+02  0.21388784466E+03  0.00000000000E+00 0.  1.
         -1    1    6    6    0  502  0.18274178773E+03 -0.14154991969E+03 -0.37442640549E+03  0.44002962840E+03  0.00000000000E+00 0.  1.
<mgrwt>
<rscale>  0 0.11642362E+04</rscale>
<asrwt>0</asrwt>
<pdfrwt beam="1">  1        2 0.25550377E+00 0.11642362E+04</pdfrwt>
<pdfrwt beam="2">  1       -2 0.31390498E-01 0.11642362E+04</pdfrwt>
<totfact> 0.96047571E+01</totfact>
</mgrwt>
</event>
<event>
12    1  0.1506149E-007  0.2330123E+04  0.7818608E-02  0.8466138E-01
          1   -1    0    0  501    0  0.00000000000E+00  0.00000000000E+00  0.13676901402E+04  0.13676901402E+04  0.00000000000E+00 0. -1.
         -1   -1    0    0    0  501 -0.00000000000E+00 -0.00000000000E+00 -0.99245281430E+03  0.99245281430E+03  0.00000000000E+00 0.  1.
         23    2    1    2    0    0  0.84201784573E+03  0.12111742371E+03  0.67064611143E+03  0.10868419091E+04  0.88292954106E+02 0.  0.
        254    2    1    2    0    0 -0.84201784573E+03 -0.12111742371E+03 -0.29540878554E+03  0.12733010454E+04  0.90020315417E+03 0.  0.
        -24    2    4    4    0    0 -0.17441933323E+03  0.10323077494E+03  0.28424441130E+03  0.35759948157E+03  0.77484238201E+02 0.  0.
         24    2    4    4    0    0 -0.66759851250E+03 -0.22434819865E+03 -0.57965319684E+03  0.91570156382E+03  0.80570697228E+02 0.  0.
         13    1    3    3    0    0  0.59215655688E+03  0.96128393366E+02  0.42206933692E+03  0.73350704225E+03  0.00000000000E+00 0.  1.
        -13    1    3    3    0    0  0.24986128885E+03  0.24989030347E+02  0.24857677451E+03  0.35333486684E+03  0.00000000000E+00 0. -1.
          4    1    6    6  502    0 -0.38719716993E+03 -0.16844272852E+03 -0.32539253861E+03  0.53308058056E+03  0.00000000000E+00 0. -1.
          3    1    5    5  503    0 -0.14307489497E+03  0.96619428727E+02  0.18378407918E+03  0.25215536349E+03  0.00000000000E+00 0. -1.
         -4    1    5    5    0  503 -0.31344438256E+02  0.66113462121E+01  0.10046033212E+03  0.10544411808E+03  0.00000000000E+00 0.  1.
         -3    1    6    6    0  502 -0.28040134257E+03 -0.55905470131E+02 -0.25426065823E+03  0.38262098326E+03  0.00000000000E+00 0.  1.
<mgrwt>
<rscale>  0 0.23301227E+04</rscale>
<asrwt>0</asrwt>
<pdfrwt beam="1">  1        1 0.21041387E+00 0.23301227E+04</pdfrwt>
<pdfrwt beam="2">  1       -1 0.15268505E+00 0.23301227E+04</pdfrwt>
<totfact> 0.24273335E+00</totfact>
</mgrwt>
</event>
<event>
12    1  0.1506149E-007  0.2677145E+04  0.7818608E-02  0.8342459E-01
         -1   -1    0    0    0  501 -0.00000000000E+00  0.00000000000E+00  0.14096192359E+04  0.14096192359E+04  0.00000000000E+00 0.  1.
          1   -1    0    0  501    0  0.00000000000E+00 -0.00000000000E+00 -0.12711063078E+04  0.12711063078E+04  0.00000000000E+00 0. -1.
         23    2    1    2    0    0  0.34134407417E+03  0.39983858812E+03  0.11260812671E+04  0.12457448005E+04  0.86223049920E+02 0.  0.
        254    2    1    2    0    0 -0.34134407417E+03 -0.39983858812E+03 -0.98756833904E+03  0.14349807432E+04  0.89860549489E+03 0.  0.
        -24    2    4    4    0    0  0.23751952349E+03 -0.26796773978E+03 -0.13126393778E+03  0.38956616218E+03  0.79431352443E+02 0.  0.
         24    2    4    4    0    0 -0.57886359767E+03 -0.13187084834E+03 -0.85630440126E+03  0.10454145810E+04  0.84625251388E+02 0.  0.
         11    1    3    3    0    0  0.10245191474E+03  0.10236871489E+03  0.40212009441E+03  0.42740650316E+03  0.00000000000E+00 0. -1.
        -11    1    3    3    0    0  0.23889215944E+03  0.29746987323E+03  0.72396117269E+03  0.81833829734E+03  0.00000000000E+00 0.  1.
          4    1    6    6  502    0 -0.26868127651E+03 -0.96316845459E+02 -0.36586242625E+03  0.46402788495E+03  0.00000000000E+00 0. -1.
          3    1    5    5  503    0  0.14403498716E+03 -0.10266402472E+03 -0.63263046969E+02  0.18785151746E+03  0.00000000000E+00 0. -1.
         -4    1    5    5    0  503  0.93484536332E+02 -0.16530371506E+03 -0.68000890810E+02  0.20171464472E+03  0.00000000000E+00 0.  1.
         -3    1    6    6    0  502 -0.31018232116E+03 -0.35554002884E+02 -0.49044197501E+03  0.58138669604E+03  0.00000000000E+00 0.  1.
<mgrwt>
<rscale>  0 0.26771447E+04</rscale>
<asrwt>0</asrwt>
<pdfrwt beam="1">  1        1 0.19555482E+00 0.26771447E+04</pdfrwt>
<pdfrwt beam="2">  1       -1 0.21686450E+00 0.26771447E+04</pdfrwt>
<totfact> 0.95893509E-01</totfact>
</mgrwt>
</event>
<event>
12    1  0.1506149E-007  0.1140033E+04  0.7818608E-02  0.9167028E-01
         -1   -1    0    0    0  501 -0.00000000000E+00  0.00000000000E+00  0.73956378885E+03  0.73956378885E+03  0.00000000000E+00 0.  1.
          1   -1    0    0  501    0  0.00000000000E+00 -0.00000000000E+00 -0.43933871062E+03  0.43933871062E+03  0.00000000000E+00 0. -1.
         23    2    1    2    0    0  0.22687533997E+02 -0.12872308109E+03 -0.98994723245E+02  0.18778338622E+03  0.91532994619E+02 0.  0.
        254    2    1    2    0    0 -0.22687533997E+02  0.12872308109E+03  0.39921980148E+03  0.99111911325E+03  0.89769498771E+03 0.  0.
        -24    2    4    4    0    0  0.20820598001E+03 -0.32296522780E+03  0.19741635110E+03  0.43937623075E+03  0.80137307096E+02 0.  0.
         24    2    4    4    0    0 -0.23089351401E+03  0.45168830889E+03  0.20180345038E+03  0.55174288250E+03  0.79758589528E+02 0.  0.
         11    1    3    3    0    0  0.40144232791E+02 -0.15022078117E+02 -0.39443641260E+02  0.58249661743E+02  0.00000000000E+00 0.  1.
        -11    1    3    3    0    0 -0.17456698794E+02 -0.11370100298E+03 -0.59551081986E+02  0.12953372447E+03  0.00000000000E+00 0. -1.
          4    1    6    6  502    0 -0.14479840734E+03  0.19579199569E+03  0.96725422186E+02  0.26202460121E+03  0.00000000000E+00 0. -1.
          3    1    5    5  503    0  0.18401905587E+03 -0.23232096090E+03  0.12882017194E+03  0.32315735872E+03  0.00000000000E+00 0. -1.
         -4    1    5    5    0  503  0.24186924144E+02 -0.90644266895E+02  0.68596179163E+02  0.11621887203E+03  0.00000000000E+00 0.  1.
         -3    1    6    6    0  502 -0.86095106672E+02  0.25589631320E+03  0.10507802819E+03  0.28971828129E+03  0.00000000000E+00 0.  1.
<mgrwt>
<rscale>  0 0.11400333E+04</rscale>
<asrwt>0</asrwt>
<pdfrwt beam="1">  1        1 0.67590571E-01 0.11400333E+04</pdfrwt>
<pdfrwt beam="2">  1       -1 0.11377904E+00 0.11400333E+04</pdfrwt>
<totfact> 0.37035952E+01</totfact>
</mgrwt>
</event>
<event>
12    1  0.1506149E-007  0.1177319E+04  0.7818608E-02  0.9132944E-01
          1   -1    0    0  501    0  0.00000000000E+00  0.00000000000E+00  0.15995094589E+04  0.15995094589E+04  0.00000000000E+00 0. -1.
         -1   -1    0    0    0  501 -0.00000000000E+00 -0.00000000000E+00 -0.21664147877E+03  0.21664147877E+03  0.00000000000E+00 0.  1.
         23    2    1    2    0    0 -0.25744436914E+02  0.11977906516E+03  0.62995310902E+03  0.64824896280E+03  0.91520477029E+02 0.  0.
        254    2    1    2    0    0  0.25744436914E+02 -0.11977906516E+03  0.75291487112E+03  0.11679019749E+04  0.88436667697E+03 0.  0.
        -24    2    4    4    0    0 -0.25983923618E+03  0.25487762975E+03  0.51150028554E+03  0.63252101564E+03  0.77273917503E+02 0.  0.
         24    2    4    4    0    0  0.28558367309E+03 -0.37465669490E+03  0.24141458559E+03  0.53538095925E+03  0.80162934251E+02 0.  0.
         13    1    3    3    0    0 -0.27305987431E+02  0.13461810421E+03  0.54830301301E+03  0.56524671162E+03  0.00000000000E+00 0. -1.
        -13    1    3    3    0    0  0.15615505174E+01 -0.14839039051E+02  0.81650096019E+02  0.83002251173E+02  0.00000000000E+00 0.  1.
          4    1    6    6  502    0  0.26678785864E+03 -0.37322618550E+03  0.22848089303E+03  0.51252030744E+03  0.00000000000E+00 0. -1.
          3    1    5    5  503    0 -0.13108317746E+03  0.16606674142E+03  0.33958088783E+03  0.40009516543E+03  0.00000000000E+00 0. -1.
         -4    1    5    5    0  503 -0.12875605871E+03  0.88810888327E+02  0.17191939770E+03  0.23242585021E+03  0.00000000000E+00 0.  1.
         -3    1    6    6    0  502  0.18795814454E+02 -0.14305093994E+01  0.12933692560E+02  0.22860651814E+02  0.00000000000E+00 0.  1.
<mgrwt>
<rscale>  0 0.11773191E+04</rscale>
<asrwt>0</asrwt>
<pdfrwt beam="1">  1        1 0.24607837E+00 0.11773191E+04</pdfrwt>
<pdfrwt beam="2">  1       -1 0.33329459E-01 0.11773191E+04</pdfrwt>
<totfact> 0.46886521E+01</totfact>
</mgrwt>
</event>
<event>
12    1  0.1506149E-007  0.1611046E+04  0.7818608E-02  0.8813791E-01
          2   -1    0    0  501    0  0.00000000000E+00  0.00000000000E+00  0.19868665117E+04  0.19868665117E+04  0.00000000000E+00 0.  1.
         -2   -1    0    0    0  501 -0.00000000000E+00 -0.00000000000E+00 -0.32657823235E+03  0.32657823235E+03  0.00000000000E+00 0. -1.
         23    2    1    2    0    0  0.37724270136E+03 -0.35614328499E+02 -0.13080574713E+01  0.38989871521E+03  0.91863273305E+02 0.  0.
        254    2    1    2    0    0 -0.37724270136E+03  0.35614328499E+02  0.16615963368E+04  0.19235460288E+04  0.89193413570E+03 0.  0.
        -24    2    4    4    0    0  0.64139876291E+01 -0.29996209138E+02  0.14868800942E+04  0.14893279316E+04  0.79651500780E+02 0.  0.
         24    2    4    4    0    0 -0.38365668899E+03  0.65610537637E+02  0.17471624258E+03  0.43421809719E+03  0.80761332653E+02 0.  0.
         11    1    3    3    0    0  0.50446563455E+02  0.15035061012E+02  0.24766217144E+02  0.58174516205E+02  0.00000000000E+00 0.  1.
        -11    1    3    3    0    0  0.32679613790E+03 -0.50649389511E+02 -0.26074274615E+02  0.33172419900E+03  0.00000000000E+00 0. -1.
          2    1    6    6  502    0 -0.16449468486E+03  0.68852429675E+02  0.79714993889E+02  0.19532956425E+03  0.00000000000E+00 0. -1.
          1    1    5    5  503    0 -0.31665294470E+01 -0.56618600227E+02  0.10536917191E+04  0.10552165331E+04  0.00000000000E+00 0. -1.
         -2    1    5    5    0  503  0.95805170760E+01  0.26622391089E+02  0.43318837508E+03  0.43411139851E+03  0.00000000000E+00 0.  1.
         -3    1    6    6    0  502 -0.21916200413E+03 -0.32418920377E+01  0.95001248690E+02  0.23888853294E+03  0.00000000000E+00 0.  1.
<mgrwt>
<rscale>  0 0.16110461E+04</rscale>
<asrwt>0</asrwt>
<pdfrwt beam="1">  1        2 0.30567176E+00 0.16110461E+04</pdfrwt>
<pdfrwt beam="2">  1       -2 0.50242806E-01 0.16110461E+04</pdfrwt>
<totfact> 0.24397524E+01</totfact>
</mgrwt>
</event>
<event>
12    1  0.1506149E-007  0.1718448E+04  0.7818608E-02  0.8750912E-01
         -2   -1    0    0    0  501 -0.00000000000E+00  0.00000000000E+00  0.87400471657E+03  0.87400471657E+03  0.00000000000E+00 0.  1.
          2   -1    0    0  501    0  0.00000000000E+00 -0.00000000000E+00 -0.84469311395E+03  0.84469311395E+03  0.00000000000E+00 0. -1.
         23    2    1    2    0    0  0.31321526696E+03 -0.46838933769E+03  0.26433887789E+03  0.62679052115E+03  0.74154837475E+02 0.  0.
        254    2    1    2    0    0 -0.31321526696E+03  0.46838933769E+03 -0.23502727527E+03  0.10919073094E+04  0.90527972307E+03 0.  0.
        -24    2    4    4    0    0 -0.59120954248E+03  0.24507999553E+03  0.21775749533E+02  0.64543300085E+03  0.80725757894E+02 0.  0.
         24    2    4    4    0    0  0.27799427552E+03  0.22330934216E+03 -0.25680302480E+03  0.44647430852E+03  0.79016676093E+02 0.  0.
         11    1    3    3    0    0  0.20521588353E+03 -0.28544650557E+03  0.12687261415E+03  0.37375115601E+03  0.00000000000E+00 0. -1.
        -11    1    3    3    0    0  0.10799938342E+03 -0.18294283212E+03  0.13746626374E+03  0.25303936514E+03  0.00000000000E+00 0.  1.
          4    1    6    6  502    0  0.70817210481E+02  0.10060868003E+03 -0.10570744228E+03  0.16220742015E+03  0.00000000000E+00 0. -1.
          1    1    5    5  503    0 -0.41948898600E+02  0.41381832086E+02  0.79050550056E+01  0.59452973140E+02  0.00000000000E+00 0. -1.
         -2    1    5    5    0  503 -0.54926064388E+03  0.20369816345E+03  0.13870694527E+02  0.58598002771E+03  0.00000000000E+00 0.  1.
         -3    1    6    6    0  502  0.20717706504E+03  0.12270066213E+03 -0.15109558252E+03  0.28426688837E+03  0.00000000000E+00 0.  1.
<mgrwt>
<rscale>  0 0.17184479E+04</rscale>
<asrwt>0</asrwt>
<pdfrwt beam="1">  1        2 0.12995279E+00 0.17184479E+04</pdfrwt>
<pdfrwt beam="2">  1       -2 0.13446226E+00 0.17184479E+04</pdfrwt>
<totfact> 0.12120506E+01</totfact>
</mgrwt>
</event>
<event>
12    1  0.1506149E-007  0.2075393E+04  0.7818608E-02  0.8572161E-01
          2   -1    0    0  501    0  0.00000000000E+00  0.00000000000E+00  0.10941766034E+04  0.10941766034E+04  0.00000000000E+00 0. -1.
         -2   -1    0    0    0  501 -0.00000000000E+00 -0.00000000000E+00 -0.98413138244E+03  0.98413138244E+03  0.00000000000E+00 0.  1.
         23    2    1    2    0    0  0.48088259476E+03 -0.50743287487E+03 -0.41443406051E+03  0.81787442945E+03  0.91797600081E+02 0.  0.
        254    2    1    2    0    0 -0.48088259476E+03  0.50743287487E+03  0.52447928148E+03  0.12604335564E+04  0.90822796750E+03 0.  0.
        -24    2    4    4    0    0 -0.70207443371E+02 -0.91095395331E+02  0.51119809838E+03  0.53003959349E+03  0.79943847321E+02 0.  0.
         24    2    4    4    0    0 -0.41067515139E+03  0.59852827020E+03  0.13281183094E+02  0.73039396290E+03  0.80054862538E+02 0.  0.
         13    1    3    3    0    0  0.22076351172E+03 -0.22779668885E+03 -0.24122065012E+03  0.39851632539E+03  0.00000000000E+00 0. -1.
        -13    1    3    3    0    0  0.26011908305E+03 -0.27963618603E+03 -0.17321341039E+03  0.41935810406E+03  0.00000000000E+00 0.  1.
          4    1    6    6  502    0 -0.40968519853E+03  0.57949988730E+03  0.52355793493E+01  0.70971085138E+03  0.00000000000E+00 0. -1.
          3    1    5    5  503    0 -0.86386531776E+02 -0.72134418216E+02  0.37289157128E+03  0.38950498212E+03  0.00000000000E+00 0. -1.
         -4    1    5    5    0  503  0.16179088405E+02 -0.18960977114E+02  0.13830652710E+03  0.14053461138E+03  0.00000000000E+00 0.  1.
         -1    1    6    6    0  502 -0.98995285951E+00  0.19028382900E+02  0.80456037445E+01  0.20683111518E+02  0.00000000000E+00 0.  1.
<mgrwt>
<rscale>  0 0.20753925E+04</rscale>
<asrwt>0</asrwt>
<pdfrwt beam="1">  1        2 0.16833486E+00 0.20753925E+04</pdfrwt>
<pdfrwt beam="2">  1       -2 0.15140483E+00 0.20753925E+04</pdfrwt>
<totfact> 0.59289253E+00</totfact>
</mgrwt>
</event>
<event>
12    1  0.1506149E-007  0.1479271E+04  0.7818608E-02  0.8898355E-01
          2   -1    0    0  501    0  0.00000000000E+00  0.00000000000E+00  0.29519678085E+04  0.29519678085E+04  0.00000000000E+00 0.  1.
         -2   -1    0    0    0  501 -0.00000000000E+00 -0.00000000000E+00 -0.18532074879E+03  0.18532074879E+03  0.00000000000E+00 0. -1.
         23    2    1    2    0    0  0.26662388580E+03  0.27220449741E+03  0.14230435706E+04  0.14759959732E+04  0.91255270267E+02 0.  0.
        254    2    1    2    0    0 -0.26662388580E+03 -0.27220449741E+03  0.13436034891E+04  0.16612925840E+04  0.89968835101E+03 0.  0.
        -24    2    4    4    0    0 -0.48804865600E+03 -0.32683363494E+02  0.11951766091E+04  0.12938070536E+04  0.78929539583E+02 0.  0.
         24    2    4    4    0    0  0.22142477020E+03 -0.23952113391E+03  0.14842688003E+03  0.36748553043E+03  0.81337407814E+02 0.  0.
         11    1    3    3    0    0  0.98009220534E+02  0.11101666833E+03  0.72623323296E+03  0.74117826237E+03  0.00000000000E+00 0.  1.
        -11    1    3    3    0    0  0.16861466526E+03  0.16118782908E+03  0.69681033762E+03  0.73481771087E+03  0.00000000000E+00 0. -1.
          2    1    6    6  502    0  0.72516617106E+02 -0.93071220086E+02  0.13315138299E+02  0.11873586094E+03  0.00000000000E+00 0. -1.
          3    1    5    5  503    0 -0.44155091713E+03 -0.51249591360E+02  0.10958901823E+04  0.11826111046E+04  0.00000000000E+00 0. -1.
         -4    1    5    5    0  503 -0.46497738870E+02  0.18566227866E+02  0.99286426770E+02  0.11119594902E+03  0.00000000000E+00 0.  1.
         -1    1    6    6    0  502  0.14890815309E+03 -0.14644991383E+03  0.13511174173E+03  0.24874966949E+03  0.00000000000E+00 0.  1.
<mgrwt>
<rscale>  0 0.14792713E+04</rscale>
<asrwt>0</asrwt>
<pdfrwt beam="1">  1        2 0.45414886E+00 0.14792713E+04</pdfrwt>
<pdfrwt beam="2">  1       -2 0.28510887E-01 0.14792713E+04</pdfrwt>
<totfact> 0.20498576E+01</totfact>
</mgrwt>
</event>
<event>
12    1  0.1506149E-007  0.1368395E+04  0.7818608E-02  0.8977019E-01
         -2   -1    0    0    0  501 -0.00000000000E+00  0.00000000000E+00  0.55615935859E+03  0.55615935859E+03  0.00000000000E+00 0.  1.
          2   -1    0    0  501    0  0.00000000000E+00 -0.00000000000E+00 -0.84171226993E+03  0.84171226993E+03  0.00000000000E+00 0. -1.
         23    2    1    2    0    0  0.15758904004E+03 -0.23286380447E+03 -0.33365164009E+03  0.44614461050E+03  0.93068467131E+02 0.  0.
        254    2    1    2    0    0 -0.15758904004E+03  0.23286380447E+03  0.48098728752E+02  0.95172701802E+03  0.90797079917E+03 0.  0.
        -24    2    4    4    0    0 -0.26943022739E+03 -0.29342739414E+03  0.31892544887E+02  0.40754026085E+03  0.79872690792E+02 0.  0.
         24    2    4    4    0    0  0.11184118735E+03  0.52629119861E+03  0.16206183865E+02  0.54418675716E+03  0.79910633526E+02 0.  0.
         13    1    3    3    0    0  0.95994716461E+02 -0.18643548969E+03 -0.28885899194E+03  0.35694914852E+03  0.00000000000E+00 0. -1.
        -13    1    3    3    0    0  0.61594323579E+02 -0.46428314778E+02 -0.44792648153E+02  0.89195461986E+02  0.00000000000E+00 0.  1.
          4    1    6    6  502    0  0.92633114421E+02  0.29165389230E+03  0.35047956246E+02  0.30801176279E+03  0.00000000000E+00 0. -1.
          1    1    5    5  503    0 -0.45012715526E+02 -0.12521001311E+02  0.22241931826E+01  0.46774641294E+02  0.00000000000E+00 0. -1.
         -2    1    5    5    0  503 -0.22441751186E+03 -0.28090639283E+03  0.29668351704E+02  0.36076561956E+03  0.00000000000E+00 0.  1.
         -3    1    6    6    0  502  0.19208072927E+02  0.23463730632E+03 -0.18841772381E+02  0.23617499438E+03  0.00000000000E+00 0.  1.
<mgrwt>
<rscale>  0 0.13683949E+04</rscale>
<asrwt>0</asrwt>
<pdfrwt beam="1">  1        2 0.12949420E+00 0.13683949E+04</pdfrwt>
<pdfrwt beam="2">  1       -2 0.85562978E-01 0.13683949E+04</pdfrwt>
<totfact> 0.37255856E+01</totfact>
</mgrwt>
</event>
<event>
12    1  0.1506149E-007  0.1616020E+04  0.7818608E-02  0.8810766E-01
          1   -1    0    0  501    0  0.00000000000E+00  0.00000000000E+00  0.79615653289E+03  0.79615653289E+03  0.00000000000E+00 0. -1.
         -1   -1    0    0    0  501 -0.00000000000E+00 -0.00000000000E+00 -0.82004012057E+03  0.82004012057E+03  0.00000000000E+00 0.  1.
         23    2    1    2    0    0 -0.23013749203E+03  0.46643593334E+03 -0.17676945899E+03  0.55681905655E+03  0.90963041721E+02 0.  0.
        254    2    1    2    0    0  0.23013749203E+03 -0.46643593334E+03  0.15288587131E+03  0.10593775969E+04  0.91015441439E+03 0.  0.
        -24    2    4    4    0    0 -0.14278957778E+03 -0.16051912403E+03 -0.30893695185E+03  0.38673240541E+03  0.89244946499E+02 0.  0.
         24    2    4    4    0    0  0.37292706981E+03 -0.30591680932E+03  0.46182282316E+03  0.67264519150E+03  0.80694114008E+02 0.  0.
         11    1    3    3    0    0 -0.28195991305E+02  0.42707905670E+02  0.90826398559E+01  0.51975700853E+02  0.00000000000E+00 0.  1.
        -11    1    3    3    0    0 -0.20194150072E+03  0.42372802767E+03 -0.18585209884E+03  0.50484335570E+03  0.00000000000E+00 0. -1.
          2    1    6    6  502    0  0.13648695048E+03 -0.78626174708E+02  0.11301636700E+03  0.19386454604E+03  0.00000000000E+00 0. -1.
          3    1    5    5  503    0 -0.78681186907E+02 -0.61290299107E+02 -0.75448713980E+02  0.12505893962E+03  0.00000000000E+00 0. -1.
         -4    1    5    5    0  503 -0.64108390874E+02 -0.99228824918E+02 -0.23348823787E+03  0.26167346579E+03  0.00000000000E+00 0.  1.
         -1    1    6    6    0  502  0.23644011933E+03 -0.22729063461E+03  0.34880645616E+03  0.47878064546E+03  0.00000000000E+00 0.  1.
<mgrwt>
<rscale>  0 0.16160202E+04</rscale>
<asrwt>0</asrwt>
<pdfrwt beam="1">  1        1 0.12248562E+00 0.16160202E+04</pdfrwt>
<pdfrwt beam="2">  1       -1 0.12616002E+00 0.16160202E+04</pdfrwt>
<totfact> 0.11679201E+01</totfact>
</mgrwt>
</event>
<event>
12    1  0.1506149E-007  0.1286665E+04  0.7818608E-02  0.9040207E-01
          1   -1    0    0  501    0  0.00000000000E+00  0.00000000000E+00  0.12685243997E+04  0.12685243997E+04  0.00000000000E+00 0. -1.
         -1   -1    0    0    0  501 -0.00000000000E+00 -0.00000000000E+00 -0.32626619355E+03  0.32626619355E+03  0.00000000000E+00 0.  1.
         23    2    1    2    0    0  0.51499649327E+02  0.27171148192E+03  0.48662556979E+03  0.56705971229E+03  0.90955642134E+02 0.  0.
        254    2    1    2    0    0 -0.51499649327E+02 -0.27171148192E+03  0.45563263640E+03  0.10277308810E+04  0.87872084370E+03 0.  0.
        -24    2    4    4    0    0 -0.18794192460E+03 -0.44842801902E+02  0.65401015910E+03  0.68718037843E+03  0.84584516274E+02 0.  0.
         24    2    4    4    0    0  0.13644227527E+03 -0.22686868001E+03 -0.19837752270E+03  0.34055050258E+03  0.80840032448E+02 0.  0.
         13    1    3    3    0    0  0.46626885344E+02  0.27623782697E+03  0.45180708514E+03  0.53161174335E+03  0.00000000000E+00 0. -1.
        -13    1    3    3    0    0  0.48727639831E+01 -0.45263450489E+01  0.34818484648E+02  0.35447968934E+02  0.00000000000E+00 0.  1.
          4    1    6    6  502    0  0.10014257355E+03 -0.95846008518E+02 -0.78571144198E+02  0.15933743153E+03  0.00000000000E+00 0. -1.
          3    1    5    5  503    0 -0.10139568113E+03 -0.40273242317E+02  0.23213302703E+03  0.25649319764E+03  0.00000000000E+00 0. -1.
         -4    1    5    5    0  503 -0.86546243462E+02 -0.45695595847E+01  0.42187713207E+03  0.43068718079E+03  0.00000000000E+00 0.  1.
         -3    1    6    6    0  502  0.36299701716E+02 -0.13102267150E+03 -0.11980637850E+03  0.18121307105E+03  0.00000000000E+00 0.  1.
<mgrwt>
<rscale>  0 0.12866649E+04</rscale>
<asrwt>0</asrwt>
<pdfrwt beam="1">  1        1 0.19515760E+00 0.12866649E+04</pdfrwt>
<pdfrwt beam="2">  1       -1 0.50194799E-01 0.12866649E+04</pdfrwt>
<totfact> 0.37330289E+01</totfact>
</mgrwt>
</event>
<event>
12    1  0.1506149E-007  0.1279064E+04  0.7818608E-02  0.9046334E-01
         -1   -1    0    0    0  501 -0.00000000000E+00  0.00000000000E+00  0.18573820666E+03  0.18573820666E+03  0.00000000000E+00 0.  1.
          1   -1    0    0  501    0  0.00000000000E+00 -0.00000000000E+00 -0.22020321130E+04  0.22020321130E+04  0.00000000000E+00 0. -1.
         23    2    1    2    0    0  0.29133700308E+02  0.23804290287E+03 -0.14190490656E+03  0.29332539015E+03  0.91594682736E+02 0.  0.
        254    2    1    2    0    0 -0.29133700308E+02 -0.23804290287E+03 -0.18743889998E+04  0.20944449295E+04  0.90324539532E+03 0.  0.
        -24    2    4    4    0    0 -0.25129310185E+03  0.15367596971E+03 -0.14091428935E+04  0.14418536816E+04  0.80584230002E+02 0.  0.
         24    2    4    4    0    0  0.22215940154E+03 -0.39171887258E+03 -0.46524610630E+03  0.65259124793E+03  0.81381340766E+02 0.  0.
         11    1    3    3    0    0  0.39818976317E+02  0.21635095931E+03 -0.93130938779E+02  0.23888629141E+03  0.00000000000E+00 0.  1.
        -11    1    3    3    0    0 -0.10685276009E+02  0.21691943558E+02 -0.48773967777E+02  0.54439098738E+02  0.00000000000E+00 0. -1.
          4    1    6    6  502    0  0.39190496076E+02 -0.95013439530E+02 -0.64008051685E+02  0.12108046644E+03  0.00000000000E+00 0. -1.
          1    1    5    5  503    0 -0.28288956650E+02 -0.82826528551E+01 -0.11850025208E+03  0.12211133096E+03  0.00000000000E+00 0. -1.
         -2    1    5    5    0  503 -0.22300414520E+03  0.16195862257E+03 -0.12906426414E+04  0.13197423507E+04  0.00000000000E+00 0.  1.
         -3    1    6    6    0  502  0.18296890547E+03 -0.29670543305E+03 -0.40123805461E+03  0.53151078149E+03  0.00000000000E+00 0.  1.
<mgrwt>
<rscale>  0 0.12790645E+04</rscale>
<asrwt>0</asrwt>
<pdfrwt beam="1">  1        1 0.33877417E+00 0.12790645E+04</pdfrwt>
<pdfrwt beam="2">  1       -1 0.28575109E-01 0.12790645E+04</pdfrwt>
<totfact> 0.23807564E+01</totfact>
</mgrwt>
</event>
<event>
12    1  0.1506149E-007  0.1381880E+04  0.7818608E-02  0.8967040E-01
          2   -1    0    0  501    0  0.00000000000E+00  0.00000000000E+00  0.95248608735E+03  0.95248608735E+03  0.00000000000E+00 0. -1.
         -2   -1    0    0    0  501 -0.00000000000E+00 -0.00000000000E+00 -0.50121256231E+03  0.50121256231E+03  0.00000000000E+00 0.  1.
         23    2    1    2    0    0 -0.76953618698E+02 -0.17234128640E+03 -0.22513825300E+03  0.30738889284E+03  0.90428535588E+02 0.  0.
        254    2    1    2    0    0  0.76953618698E+02  0.17234128640E+03  0.67641177804E+03  0.11463097568E+04  0.90601864588E+03 0.  0.
        -24    2    4    4    0    0  0.44549355965E+03  0.26363998742E+03  0.48614291791E+03  0.71450286757E+03  0.78796297398E+02 0.  0.
         24    2    4    4    0    0 -0.36853994096E+03 -0.91298701016E+02  0.19026886013E+03  0.43180688924E+03  0.78088472744E+02 0.  0.
         13    1    3    3    0    0 -0.30000238286E+02 -0.14092216307E+03 -0.11786624704E+03  0.18614919429E+03  0.00000000000E+00 0.  1.
        -13    1    3    3    0    0 -0.46953380411E+02 -0.31419123328E+02 -0.10727200596E+03  0.12123969855E+03  0.00000000000E+00 0. -1.
          2    1    6    6  502    0 -0.36669817451E+03 -0.81188997550E+02  0.17748123977E+03  0.41540196796E+03  0.00000000000E+00 0. -1.
          1    1    5    5  503    0  0.27690914807E+03  0.13110547798E+03  0.32184287753E+03  0.44435364346E+03  0.00000000000E+00 0. -1.
         -2    1    5    5    0  503  0.16858441159E+03  0.13253450944E+03  0.16430004037E+03  0.27014922411E+03  0.00000000000E+00 0.  1.
         -1    1    6    6    0  502 -0.18417664409E+01 -0.10109703466E+02  0.12787620360E+02  0.16404921282E+02  0.00000000000E+00 0.  1.
<mgrwt>
<rscale>  0 0.13818799E+04</rscale>
<asrwt>0</asrwt>
<pdfrwt beam="1">  1        2 0.14653632E+00 0.13818799E+04</pdfrwt>
<pdfrwt beam="2">  1       -2 0.77109625E-01 0.13818799E+04</pdfrwt>
<totfact> 0.39582647E+01</totfact>
</mgrwt>
</event>
<event>
12    1  0.1506149E-007  0.1732710E+04  0.7818608E-02  0.8742925E-01
         -2   -1    0    0    0  501 -0.00000000000E+00  0.00000000000E+00  0.25357319323E+03  0.25357319323E+03  0.00000000000E+00 0. -1.
          2   -1    0    0  501    0  0.00000000000E+00 -0.00000000000E+00 -0.29599774071E+04  0.29599774071E+04  0.00000000000E+00 0.  1.
         23    2    1    2    0    0  0.14763830169E+03  0.49481812347E+03 -0.15418560864E+04  0.16285910054E+04  0.91358789533E+02 0.  0.
        254    2    1    2    0    0 -0.14763830169E+03 -0.49481812347E+03 -0.11645481275E+04  0.15849595949E+04  0.94301777965E+03 0.  0.
        -24    2    4    4    0    0  0.26919127781E+03 -0.43648500697E+03 -0.25209010475E+03  0.57689061179E+03  0.79184920928E+02 0.  0.
         24    2    4    4    0    0 -0.41682957950E+03 -0.58333116501E+02 -0.91245802273E+03  0.10080689831E+04  0.80459807322E+02 0.  0.
         13    1    3    3    0    0  0.77158762579E+02  0.38635674598E+03 -0.11145582162E+04  0.11821442497E+04  0.00000000000E+00 0. -1.
        -13    1    3    3    0    0  0.70479539115E+02  0.10846137749E+03 -0.42729787014E+03  0.44644675569E+03  0.00000000000E+00 0.  1.
          2    1    6    6  502    0 -0.26670548585E+03 -0.42201711068E+02 -0.67094520660E+03  0.72324288511E+03  0.00000000000E+00 0. -1.
          1    1    5    5  503    0  0.19186131272E+03 -0.23778708946E+03 -0.15512703926E+03  0.34266289782E+03  0.00000000000E+00 0. -1.
         -2    1    5    5    0  503  0.77329965087E+02 -0.19869791751E+03 -0.96963065494E+02  0.23422771397E+03  0.00000000000E+00 0.  1.
         -1    1    6    6    0  502 -0.15012409365E+03 -0.16131405433E+02 -0.24151281613E+03  0.28482609798E+03  0.00000000000E+00 0.  1.
<mgrwt>
<rscale>  0 0.17327099E+04</rscale>
<asrwt>0</asrwt>
<pdfrwt beam="1">  1        2 0.45538120E+00 0.17327099E+04</pdfrwt>
<pdfrwt beam="2">  1       -2 0.39011255E-01 0.17327099E+04</pdfrwt>
<totfact> 0.10918382E+01</totfact>
</mgrwt>
</event>
<event>
12    1  0.1506149E-007  0.2028395E+04  0.7818608E-02  0.8593459E-01
          2   -1    0    0  501    0  0.00000000000E+00  0.00000000000E+00  0.25037599188E+04  0.25037599188E+04  0.00000000000E+00 0. -1.
         -2   -1    0    0    0  501 -0.00000000000E+00 -0.00000000000E+00 -0.41082071623E+03  0.41082071623E+03  0.00000000000E+00 0.  1.
         23    2    1    2    0    0  0.23704035495E+03  0.58198747603E+03  0.15699684362E+04  0.16932229199E+04  0.85471711908E+02 0.  0.
        254    2    1    2    0    0 -0.23704035495E+03 -0.58198747603E+03  0.52297076636E+03  0.12213577152E+04  0.90736910561E+03 0.  0.
        -24    2    4    4    0    0 -0.27374535404E+03 -0.33615593013E+02 -0.16960358200E+03  0.33350291316E+03  0.79951804908E+02 0.  0.
         24    2    4    4    0    0  0.36704999084E+02 -0.54837188301E+03  0.69257434836E+03  0.88785480201E+03  0.81042843028E+02 0.  0.
         11    1    3    3    0    0  0.19513138555E+03  0.53941004624E+03  0.13947970551E+04  0.15081439853E+04  0.00000000000E+00 0. -1.
        -11    1    3    3    0    0  0.41908969400E+02  0.42577429784E+02  0.17517138117E+03  0.18507893458E+03  0.00000000000E+00 0.  1.
          2    1    6    6  502    0  0.58658006300E+02 -0.39587017129E+03  0.52630623376E+03  0.66117486788E+03  0.00000000000E+00 0. -1.
          1    1    5    5  503    0 -0.27731982846E+03 -0.34490457878E+02 -0.17285266825E+03  0.32859385853E+03  0.00000000000E+00 0. -1.
         -2    1    5    5    0  503  0.35744744222E+01  0.87486486586E+00  0.32490862483E+01  0.49090546318E+01  0.00000000000E+00 0.  1.
         -1    1    6    6    0  502 -0.21953007216E+02 -0.15250171172E+03  0.16626811460E+03  0.22667993413E+03  0.00000000000E+00 0.  1.
<mgrwt>
<rscale>  0 0.20283949E+04</rscale>
<asrwt>0</asrwt>
<pdfrwt beam="1">  1        2 0.38519382E+00 0.20283949E+04</pdfrwt>
<pdfrwt beam="2">  1       -2 0.63203189E-01 0.20283949E+04</pdfrwt>
<totfact> 0.74474342E+00</totfact>
</mgrwt>
</event>
<event>
12    1  0.1506149E-007  0.2011554E+04  0.7818608E-02  0.8601238E-01
          2   -1    0    0  501    0  0.00000000000E+00  0.00000000000E+00  0.15104627616E+04  0.15104627616E+04  0.00000000000E+00 0. -1.
         -2   -1    0    0    0  501 -0.00000000000E+00 -0.00000000000E+00 -0.66972006223E+03  0.66972006223E+03  0.00000000000E+00 0.  1.
         23    2    1    2    0    0  0.12914508572E+03  0.47536672179E+03  0.10208312498E+04  0.11369985815E+04  0.89539714960E+02 0.  0.
        254    2    1    2    0    0 -0.12914508572E+03 -0.47536672179E+03 -0.18008855044E+03  0.10431842423E+04  0.90174802687E+03 0.  0.
        -24    2    4    4    0    0  0.26882702839E+03 -0.31729220153E+03 -0.37518520744E+03  0.56580604180E+03  0.80188681930E+02 0.  0.
         24    2    4    4    0    0 -0.39797211412E+03 -0.15807452026E+03  0.19509665700E+03  0.47737820047E+03  0.80360955302E+02 0.  0.
         11    1    3    3    0    0  0.14515173475E+02  0.17469846857E+03  0.42714004957E+03  0.46171297050E+03  0.00000000000E+00 0.  1.
        -11    1    3    3    0    0  0.11462991225E+03  0.30066825322E+03  0.59369120021E+03  0.67528561105E+03  0.00000000000E+00 0. -1.
          2    1    6    6  502    0 -0.17893245693E+03 -0.72477670149E+02  0.44484993720E+02  0.19811297656E+03  0.00000000000E+00 0. -1.
          3    1    5    5  503    0 -0.50009488592E+01 -0.58694262262E+01 -0.13512489143E+02  0.15557860282E+02  0.00000000000E+00 0. -1.
         -4    1    5    5    0  503  0.27382797725E+03 -0.31142277530E+03 -0.36167271830E+03  0.55024818152E+03  0.00000000000E+00 0.  1.
         -1    1    6    6    0  502 -0.21903965718E+03 -0.85596850114E+02  0.15061166328E+03  0.27926522391E+03  0.00000000000E+00 0.  1.
<mgrwt>
<rscale>  0 0.20115538E+04</rscale>
<asrwt>0</asrwt>
<pdfrwt beam="1">  1        2 0.23237888E+00 0.20115538E+04</pdfrwt>
<pdfrwt beam="2">  1       -2 0.10303386E+00 0.20115538E+04</pdfrwt>
<totfact> 0.89411688E+00</totfact>
</mgrwt>
</event>
<event>
12    1  0.1506149E-007  0.2443089E+04  0.7818608E-02  0.8423546E-01
         -2   -1    0    0    0  501 -0.00000000000E+00  0.00000000000E+00  0.82361960201E+03  0.82361960201E+03  0.00000000000E+00 0.  1.
          2   -1    0    0  501    0  0.00000000000E+00 -0.00000000000E+00 -0.18117228884E+04  0.18117228884E+04  0.00000000000E+00 0. -1.
         23    2    1    2    0    0  0.35972724803E+03  0.53958478411E+03 -0.13251801841E+04  0.14781193645E+04  0.90437287437E+02 0.  0.
        254    2    1    2    0    0 -0.35972724803E+03 -0.53958478411E+03  0.33707689778E+03  0.11572231259E+04  0.89721184562E+03 0.  0.
        -24    2    4    4    0    0 -0.60056657779E+03 -0.58966483170E+03  0.22844741241E+03  0.87570773209E+03  0.79315721634E+02 0.  0.
         24    2    4    4    0    0  0.24083932976E+03  0.50080047594E+02  0.10862948536E+03  0.28151539382E+03  0.83300407802E+02 0.  0.
         11    1    3    3    0    0  0.19762005034E+03  0.22942431496E+03 -0.55733737691E+03  0.63428239159E+03  0.00000000000E+00 0.  1.
        -11    1    3    3    0    0  0.16210719769E+03  0.31016046915E+03 -0.76784280724E+03  0.84383697288E+03  0.00000000000E+00 0. -1.
          2    1    6    6  502    0  0.24121857454E+03  0.35223921795E+02  0.95948786897E+02  0.26197956996E+03  0.00000000000E+00 0. -1.
          3    1    5    5  503    0 -0.38454086393E+03 -0.32324642387E+03  0.13183180102E+03  0.51936456400E+03  0.00000000000E+00 0. -1.
         -4    1    5    5    0  503 -0.21602571386E+03 -0.26641840783E+03  0.96615611397E+02  0.35634316809E+03  0.00000000000E+00 0.  1.
         -1    1    6    6    0  502 -0.37924477575E+00  0.14856125798E+02  0.12680698467E+02  0.19535823861E+02  0.00000000000E+00 0.  1.
<mgrwt>
<rscale>  0 0.24430886E+04</rscale>
<asrwt>0</asrwt>
<pdfrwt beam="1">  1        2 0.27872660E+00 0.24430886E+04</pdfrwt>
<pdfrwt beam="2">  1       -2 0.12671071E+00 0.24430886E+04</pdfrwt>
<totfact> 0.35297052E+00</totfact>
</mgrwt>
</event>
<event>
12    1  0.1506149E-007  0.2318341E+04  0.7818608E-02  0.8470725E-01
         -2   -1    0    0    0  501 -0.00000000000E+00  0.00000000000E+00  0.11920277366E+04  0.11920277366E+04  0.00000000000E+00 0.  1.
          2   -1    0    0  501    0  0.00000000000E+00 -0.00000000000E+00 -0.11272187072E+04  0.11272187072E+04  0.00000000000E+00 0. -1.
         23    2    1    2    0    0 -0.24259333115E+03  0.36155488651E+03  0.90523010214E+03  0.10086691877E+04  0.91643505280E+02 0.  0.
        254    2    1    2    0    0  0.24259333115E+03 -0.36155488651E+03 -0.84042107274E+03  0.13105772562E+04  0.90649418349E+03 0.  0.
        -24    2    4    4    0    0  0.25846960301E+03  0.26866788062E+02  0.10005747297E+03  0.28986395766E+03  0.80506248662E+02 0.  0.
         24    2    4    4    0    0 -0.15876271864E+02 -0.38842167458E+03 -0.94047854571E+03  0.10207132985E+04  0.78944851634E+02 0.  0.
         11    1    3    3    0    0 -0.60122711984E+02  0.31673596648E+02  0.13768891721E+03  0.15354541720E+03  0.00000000000E+00 0. -1.
        -11    1    3    3    0    0 -0.18247061916E+03  0.32988128987E+03  0.76754118493E+03  0.85512377047E+03  0.00000000000E+00 0.  1.
          4    1    6    6  502    0 -0.40884053488E+02 -0.27649842739E+03 -0.61243231056E+03  0.67319850059E+03  0.00000000000E+00 0. -1.
          3    1    5    5  503    0  0.14675560637E+02 -0.14763023975E+02 -0.45842873344E+01  0.21315127193E+02  0.00000000000E+00 0. -1.
         -4    1    5    5    0  503  0.24379404237E+03  0.41629812037E+02  0.10464176030E+03  0.26854883047E+03  0.00000000000E+00 0.  1.
         -3    1    6    6    0  502  0.25007781624E+02 -0.11192324718E+03 -0.32804623515E+03  0.34751479795E+03  0.00000000000E+00 0.  1.
<mgrwt>
<rscale>  0 0.23183408E+04</rscale>
<asrwt>0</asrwt>
<pdfrwt beam="1">  1        2 0.17341826E+00 0.23183408E+04</pdfrwt>
<pdfrwt beam="2">  1       -2 0.18338888E+00 0.23183408E+04</pdfrwt>
<totfact> 0.32608595E+00</totfact>
</mgrwt>
</event>
<event>
12    1  0.1506149E-007  0.1547123E+04  0.7818608E-02  0.8853708E-01
          2   -1    0    0  501    0  0.00000000000E+00  0.00000000000E+00  0.23172721318E+04  0.23172721318E+04  0.00000000000E+00 0. -1.
         -2   -1    0    0    0  501 -0.00000000000E+00 -0.00000000000E+00 -0.25823339173E+03  0.25823339173E+03  0.00000000000E+00 0.  1.
         23    2    1    2    0    0  0.30657528715E+03 -0.30478716150E+03  0.11551615691E+04  0.12362390697E+04  0.83696871104E+02 0.  0.
        254    2    1    2    0    0 -0.30657528715E+03  0.30478716150E+03  0.90387717099E+03  0.13392664538E+04  0.88868277447E+03 0.  0.
        -24    2    4    4    0    0 -0.20282980144E+03  0.19734781808E+03 -0.10793855352E+03  0.31342876538E+03  0.80627352555E+02 0.  0.
         24    2    4    4    0    0 -0.10374548571E+03  0.10743934342E+03  0.10118157245E+04  0.10258376885E+04  0.79155318135E+02 0.  0.
         11    1    3    3    0    0  0.26721173873E+03 -0.22186480675E+03  0.94933025157E+03  0.10108679599E+04  0.00000000000E+00 0. -1.
        -11    1    3    3    0    0  0.39363548420E+02 -0.82922354755E+02  0.20583131748E+03  0.22537110977E+03  0.00000000000E+00 0.  1.
          4    1    6    6  502    0 -0.97946234457E+02  0.50482444753E+02  0.59619821373E+03  0.60629551551E+03  0.00000000000E+00 0. -1.
          3    1    5    5  503    0 -0.19189091850E+03  0.19353676285E+03 -0.11902196406E+03  0.29739675705E+03  0.00000000000E+00 0. -1.
         -4    1    5    5    0  503 -0.10938882942E+02  0.38110552244E+01  0.11083410536E+02  0.16032008328E+02  0.00000000000E+00 0.  1.
         -3    1    6    6    0  502 -0.57992512572E+01  0.56956898671E+02  0.41561751078E+03  0.41954217296E+03  0.00000000000E+00 0.  1.
<mgrwt>
<rscale>  0 0.15471225E+04</rscale>
<asrwt>0</asrwt>
<pdfrwt beam="1">  1        2 0.35650339E+00 0.15471225E+04</pdfrwt>
<pdfrwt beam="2">  1       -2 0.39728216E-01 0.15471225E+04</pdfrwt>
<totfact> 0.25614347E+01</totfact>
</mgrwt>
</event>
<event>
12    1  0.1506149E-007  0.1319627E+04  0.7818608E-02  0.9014144E-01
         -2   -1    0    0    0  501 -0.00000000000E+00  0.00000000000E+00  0.31739318495E+03  0.31739318495E+03  0.00000000000E+00 0.  1.
          2   -1    0    0  501    0  0.00000000000E+00 -0.00000000000E+00 -0.13716544507E+04  0.13716544507E+04  0.00000000000E+00 0. -1.
         23    2    1    2    0    0  0.14790209685E+03  0.28499470669E+02 -0.67943954130E+03  0.70217709526E+03  0.93420194510E+02 0.  0.
        254    2    1    2    0    0 -0.14790209685E+03 -0.28499470669E+02 -0.37482172450E+03  0.98687054044E+03  0.90040817875E+03 0.  0.
        -24    2    4    4    0    0  0.69917783186E+02  0.36051879680E+03 -0.37849023624E+03  0.53330870121E+03  0.79378917912E+02 0.  0.
         24    2    4    4    0    0 -0.21781988004E+03 -0.38901826746E+03  0.36685117434E+01  0.45356183923E+03  0.83211606584E+02 0.  0.
         11    1    3    3    0    0  0.83373262760E+02 -0.21226357017E+02 -0.46275624306E+03  0.47068566971E+03  0.00000000000E+00 0. -1.
        -11    1    3    3    0    0  0.64528834090E+02  0.49725827686E+02 -0.21668329824E+03  0.23149142555E+03  0.00000000000E+00 0.  1.
          2    1    6    6  502    0 -0.11712467772E+03 -0.12670316695E+03 -0.84682528167E+00  0.17254738410E+03  0.00000000000E+00 0. -1.
          1    1    5    5  503    0 -0.63895319523E+01  0.70099986928E+01 -0.28492353177E+02  0.30029658503E+02  0.00000000000E+00 0. -1.
         -2    1    5    5    0  503  0.76307315138E+02  0.35350879810E+03 -0.34999788306E+03  0.50327904271E+03  0.00000000000E+00 0.  1.
         -1    1    6    6    0  502 -0.10069520232E+03 -0.26231510051E+03  0.45153370250E+01  0.28101445514E+03  0.00000000000E+00 0.  1.
<mgrwt>
<rscale>  0 0.13196269E+04</rscale>
<asrwt>0</asrwt>
<pdfrwt beam="1">  1        2 0.21102376E+00 0.13196269E+04</pdfrwt>
<pdfrwt beam="2">  1       -2 0.48829721E-01 0.13196269E+04</pdfrwt>
<totfact> 0.58385596E+01</totfact>
</mgrwt>
</event>
<event>
12    1  0.1506149E-007  0.1551439E+04  0.7818608E-02  0.8850949E-01
          2   -1    0    0  501    0  0.00000000000E+00  0.00000000000E+00  0.18592021113E+04  0.18592021113E+04  0.00000000000E+00 0. -1.
         -2   -1    0    0    0  501 -0.00000000000E+00 -0.00000000000E+00 -0.32365533819E+03  0.32365533819E+03  0.00000000000E+00 0.  1.
         23    2    1    2    0    0  0.37481829515E+03 -0.31038765971E+03  0.30534838288E+03  0.58179687471E+03  0.91764452886E+02 0.  0.
        254    2    1    2    0    0 -0.37481829515E+03  0.31038765971E+03  0.12301983902E+04  0.16010605748E+04  0.90176362263E+03 0.  0.
        -24    2    4    4    0    0 -0.62622246440E+03  0.11071072966E+03  0.10331473656E+04  0.12159464332E+04  0.81980538906E+02 0.  0.
         24    2    4    4    0    0  0.25140416925E+03  0.19967693005E+03  0.19705102464E+03  0.38511414160E+03  0.80055374817E+02 0.  0.
         13    1    3    3    0    0  0.17190857360E+03 -0.14123366062E+03  0.19374758258E+03  0.29502140655E+03  0.00000000000E+00 0.  1.
        -13    1    3    3    0    0  0.20290972155E+03 -0.16915399910E+03  0.11160080030E+03  0.28677546816E+03  0.00000000000E+00 0. -1.
          2    1    6    6  502    0  0.16098176716E+03  0.11908101614E+03  0.76883247608E+02  0.21449114557E+03  0.00000000000E+00 0. -1.
          3    1    5    5  503    0 -0.48759117628E+03  0.11405399102E+03  0.77020350767E+03  0.91867671750E+03  0.00000000000E+00 0. -1.
         -4    1    5    5    0  503 -0.13863128812E+03 -0.33432613579E+01  0.26294385791E+03  0.29726971567E+03  0.00000000000E+00 0.  1.
         -1    1    6    6    0  502  0.90422402088E+02  0.80595913909E+02  0.12016777703E+03  0.17062299603E+03  0.00000000000E+00 0.  1.
<mgrwt>
<rscale>  0 0.15514389E+04</rscale>
<asrwt>0</asrwt>
<pdfrwt beam="1">  1        2 0.28603109E+00 0.15514389E+04</pdfrwt>
<pdfrwt beam="2">  1       -2 0.49793130E-01 0.15514389E+04</pdfrwt>
<totfact> 0.29386130E+01</totfact>
</mgrwt>
</event>
<event>
12    1  0.1506149E-007  0.1211030E+04  0.7818608E-02  0.9103256E-01
         -2   -1    0    0    0  501 -0.00000000000E+00  0.00000000000E+00  0.18229405611E+03  0.18229405611E+03  0.00000000000E+00 0.  1.
          2   -1    0    0  501    0  0.00000000000E+00 -0.00000000000E+00 -0.20113037445E+04  0.20113037445E+04  0.00000000000E+00 0. -1.
         23    2    1    2    0    0 -0.86681882713E+02 -0.16777869277E+03 -0.76311845690E+03  0.79173746345E+03  0.93994644751E+02 0.  0.
        254    2    1    2    0    0  0.86681882713E+02  0.16777869277E+03 -0.10658912315E+04  0.14018603371E+04  0.89074398622E+03 0.  0.
        -24    2    4    4    0    0 -0.35503352202E+03  0.24579329590E+03 -0.65302959010E+03  0.78723848426E+03  0.82665830193E+02 0.  0.
         24    2    4    4    0    0  0.44171540474E+03 -0.78014603130E+02 -0.41286164137E+03  0.61462185288E+03  0.78144161911E+02 0.  0.
         13    1    3    3    0    0 -0.61967844696E+02 -0.17367552723E+03 -0.64058852331E+03  0.66660097414E+03  0.00000000000E+00 0.  1.
        -13    1    3    3    0    0 -0.24714038017E+02  0.58968344604E+01 -0.12252993359E+03  0.12513648931E+03  0.00000000000E+00 0. -1.
          2    1    6    6  502    0  0.27587284574E+03 -0.26075013796E+02 -0.29441977877E+03  0.40431267541E+03  0.00000000000E+00 0. -1.
          3    1    5    5  503    0 -0.11057092156E+03  0.65628097418E+02 -0.13272060211E+03  0.18479105522E+03  0.00000000000E+00 0. -1.
         -4    1    5    5    0  503 -0.24446260046E+03  0.18016519848E+03 -0.52030898799E+03  0.60244742904E+03  0.00000000000E+00 0.  1.
         -1    1    6    6    0  502  0.16584255899E+03 -0.51939589334E+02 -0.11844186260E+03  0.21030917747E+03  0.00000000000E+00 0.  1.
<mgrwt>
<rscale>  0 0.12110305E+04</rscale>
<asrwt>0</asrwt>
<pdfrwt beam="1">  1        2 0.30943133E+00 0.12110305E+04</pdfrwt>
<pdfrwt beam="2">  1       -2 0.28045241E-01 0.12110305E+04</pdfrwt>
<totfact> 0.75569027E+01</totfact>
</mgrwt>
</event>
<event>
12    1  0.1506149E-007  0.1481125E+04  0.7818608E-02  0.8897102E-01
         -1   -1    0    0    0  501 -0.00000000000E+00  0.00000000000E+00  0.61111817606E+03  0.61111817606E+03  0.00000000000E+00 0.  1.
          1   -1    0    0  501    0  0.00000000000E+00 -0.00000000000E+00 -0.89742551508E+03  0.89742551508E+03  0.00000000000E+00 0. -1.
         23    2    1    2    0    0 -0.20773375970E+03  0.76502696487E+02  0.32271917098E+03  0.40129594274E+03  0.88796356086E+02 0.  0.
        254    2    1    2    0    0  0.20773375970E+03 -0.76502696487E+02 -0.60902651000E+03  0.11072477484E+04  0.89781863924E+03 0.  0.
        -24    2    4    4    0    0  0.49592986935E+03 -0.18584498805E+03 -0.57667462801E+03  0.78737787671E+03  0.83219584456E+02 0.  0.
         24    2    4    4    0    0 -0.28819610965E+03  0.10934229157E+03 -0.32351881987E+02  0.31986987169E+03  0.79103452554E+02 0.  0.
         13    1    3    3    0    0 -0.16953491064E+03  0.32357319929E+02  0.19223081975E+03  0.25834428606E+03  0.00000000000E+00 0.  1.
        -13    1    3    3    0    0 -0.38198849061E+02  0.44145376558E+02  0.13048835124E+03  0.14295165669E+03  0.00000000000E+00 0. -1.
          2    1    6    6  502    0 -0.26764261304E+03  0.10942148845E+03 -0.49188765952E+02  0.29330046905E+03  0.00000000000E+00 0. -1.
          3    1    5    5  503    0  0.49898783445E+03 -0.18677387845E+03 -0.57437142602E+03  0.78343849512E+03  0.00000000000E+00 0. -1.
         -4    1    5    5    0  503 -0.30579650981E+01  0.92889039806E+00 -0.23032019883E+01  0.39393815900E+01  0.00000000000E+00 0.  1.
         -1    1    6    6    0  502 -0.20553496609E+02 -0.79196885827E-01  0.16836883965E+02  0.26569402640E+02  0.00000000000E+00 0.  1.
<mgrwt>
<rscale>  0 0.14811253E+04</rscale>
<asrwt>0</asrwt>
<pdfrwt beam="1">  1        1 0.13806546E+00 0.14811253E+04</pdfrwt>
<pdfrwt beam="2">  1       -1 0.94018181E-01 0.14811253E+04</pdfrwt>
<totfact> 0.19422979E+01</totfact>
</mgrwt>
</event>
<event>
12    1  0.1506149E-007  0.1239525E+04  0.7818608E-02  0.9078947E-01
         -2   -1    0    0    0  501 -0.00000000000E+00  0.00000000000E+00  0.31596646939E+03  0.31596646939E+03  0.00000000000E+00 0.  1.
          2   -1    0    0  501    0  0.00000000000E+00 -0.00000000000E+00 -0.12156520740E+04  0.12156520740E+04  0.00000000000E+00 0. -1.
         23    2    1    2    0    0 -0.20145843493E+03  0.19922770255E+03 -0.24090850707E+03  0.38293856621E+03  0.91257099693E+02 0.  0.
        254    2    1    2    0    0  0.20145843493E+03 -0.19922770255E+03 -0.65877709752E+03  0.11486799772E+04  0.89733006595E+03 0.  0.
        -24    2    4    4    0    0 -0.28520294312E+03 -0.18835512691E+03 -0.53568134142E+03  0.64037984312E+03  0.79457355404E+02 0.  0.
         24    2    4    4    0    0  0.48666137805E+03 -0.10872575640E+02 -0.12309575610E+03  0.50830013405E+03  0.79113534325E+02 0.  0.
         11    1    3    3    0    0 -0.48260772906E+02  0.11418391867E+02 -0.15513210464E+02  0.51962886498E+02  0.00000000000E+00 0.  1.
        -11    1    3    3    0    0 -0.15319766203E+03  0.18780931068E+03 -0.22539529661E+03  0.33097567971E+03  0.00000000000E+00 0. -1.
          4    1    6    6  502    0  0.82641116972E+02 -0.14461175770E+01  0.89681165825E+01  0.83138875296E+02  0.00000000000E+00 0. -1.
          1    1    5    5  503    0 -0.17812831397E+02 -0.57952749944E+00 -0.75650948918E+01  0.19361391356E+02  0.00000000000E+00 0. -1.
         -2    1    5    5    0  503 -0.26739011172E+03 -0.18777559941E+03 -0.52811624653E+03  0.62101845176E+03  0.00000000000E+00 0.  1.
         -3    1    6    6    0  502  0.40402026108E+03 -0.94264580625E+01 -0.13206387268E+03  0.42516125875E+03  0.00000000000E+00 0.  1.
<mgrwt>
<rscale>  0 0.12395246E+04</rscale>
<asrwt>0</asrwt>
<pdfrwt beam="1">  1        2 0.18702339E+00 0.12395246E+04</pdfrwt>
<pdfrwt beam="2">  1       -2 0.48610227E-01 0.12395246E+04</pdfrwt>
<totfact> 0.73100046E+01</totfact>
</mgrwt>
</event>
<event>
12    1  0.1506149E-007  0.1566552E+04  0.7818608E-02  0.8841364E-01
         -1   -1    0    0    0  501 -0.00000000000E+00  0.00000000000E+00  0.48739317906E+03  0.48739317906E+03  0.00000000000E+00 0.  1.
          1   -1    0    0  501    0  0.00000000000E+00 -0.00000000000E+00 -0.12587813651E+04  0.12587813651E+04  0.00000000000E+00 0. -1.
         23    2    1    2    0    0 -0.78286188372E+02 -0.16515500418E+03 -0.79292640162E+03  0.81884861292E+03  0.91519778220E+02 0.  0.
        254    2    1    2    0    0  0.78286188372E+02  0.16515500418E+03  0.21538215596E+02  0.92732593123E+03  0.90888095222E+03 0.  0.
        -24    2    4    4    0    0 -0.36015687805E+03 -0.47468552681E+02  0.17380588532E+03  0.41071316013E+03  0.80688126973E+02 0.  0.
         24    2    4    4    0    0  0.43844306642E+03  0.21262355686E+03 -0.15226766972E+03  0.51661277110E+03  0.79134143068E+02 0.  0.
         11    1    3    3    0    0 -0.21794669741E+02 -0.67429989302E+02 -0.49875242931E+03  0.50376164684E+03  0.00000000000E+00 0.  1.
        -11    1    3    3    0    0 -0.56491518631E+02 -0.97725014875E+02 -0.29417397231E+03  0.31508696608E+03  0.00000000000E+00 0. -1.
          2    1    6    6  502    0  0.15822896318E+03  0.11075531431E+03 -0.84700994659E+02  0.21089666411E+03  0.00000000000E+00 0. -1.
          3    1    5    5  503    0 -0.61301298330E+02 -0.35505005404E+02  0.51476886184E+02  0.87568969372E+02  0.00000000000E+00 0. -1.
         -4    1    5    5    0  503 -0.29885557972E+03 -0.11963547277E+02  0.12232899914E+03  0.32314419076E+03  0.00000000000E+00 0.  1.
         -1    1    6    6    0  502  0.28021410324E+03  0.10186824255E+03 -0.67566675066E+02  0.30571610699E+03  0.00000000000E+00 0.  1.
<mgrwt>
<rscale>  0 0.15665522E+04</rscale>
<asrwt>0</asrwt>
<pdfrwt beam="1">  1        1 0.19365867E+00 0.15665522E+04</pdfrwt>
<pdfrwt beam="2">  1       -1 0.74983567E-01 0.15665522E+04</pdfrwt>
<totfact> 0.16667631E+01</totfact>
</mgrwt>
</event>
<event>
12    1  0.1506149E-007  0.1959839E+04  0.7818608E-02  0.8625631E-01
         -2   -1    0    0    0  501 -0.00000000000E+00  0.00000000000E+00  0.39588076114E+03  0.39588076114E+03  0.00000000000E+00 0.  1.
          2   -1    0    0  501    0  0.00000000000E+00 -0.00000000000E+00 -0.24255856901E+04  0.24255856901E+04  0.00000000000E+00 0. -1.
         23    2    1    2    0    0  0.55719274088E+03  0.51873136091E+03 -0.93220400918E+03  0.12072440318E+04  0.94275459608E+02 0.  0.
        254    2    1    2    0    0 -0.55719274088E+03 -0.51873136091E+03 -0.10975009198E+04  0.16142224194E+04  0.90645450809E+03 0.  0.
        -24    2    4    4    0    0 -0.44990795171E+03 -0.14600895877E+02 -0.69844936829E+02  0.46204244728E+03  0.77295256775E+02 0.  0.
         24    2    4    4    0    0 -0.10728478917E+03 -0.50413046503E+03 -0.10276559830E+04  0.11521799722E+04  0.76054698710E+02 0.  0.
         11    1    3    3    0    0  0.28928569808E+03  0.24576505335E+03 -0.53340658428E+03  0.65468256485E+03  0.00000000000E+00 0. -1.
        -11    1    3    3    0    0  0.26790704279E+03  0.27296630756E+03 -0.39879742490E+03  0.55256146694E+03  0.00000000000E+00 0.  1.
          2    1    6    6  502    0 -0.82635391806E+02 -0.30845304398E+03 -0.70623932144E+03  0.77507797509E+03  0.00000000000E+00 0. -1.
          3    1    5    5  503    0 -0.20029017740E+03 -0.24504841128E+01  0.74657996027E+01  0.20044425209E+03  0.00000000000E+00 0. -1.
         -4    1    5    5    0  503 -0.24961777431E+03 -0.12150411765E+02 -0.77310736432E+02  0.26159819519E+03  0.00000000000E+00 0.  1.
         -1    1    6    6    0  502 -0.24649397364E+02 -0.19567742105E+03 -0.32141666151E+03  0.37710199707E+03  0.00000000000E+00 0.  1.
<mgrwt>
<rscale>  0 0.19598395E+04</rscale>
<asrwt>0</asrwt>
<pdfrwt beam="1">  1        2 0.37316704E+00 0.19598395E+04</pdfrwt>
<pdfrwt beam="2">  1       -2 0.60904731E-01 0.19598395E+04</pdfrwt>
<totfact> 0.89921032E+00</totfact>
</mgrwt>
</event>
<event>
12    1  0.1506149E-007  0.1816846E+04  0.7818608E-02  0.8697392E-01
         -2   -1    0    0    0  501 -0.00000000000E+00  0.00000000000E+00  0.29263534630E+03  0.29263534630E+03  0.00000000000E+00 0.  1.
          2   -1    0    0  501    0  0.00000000000E+00 -0.00000000000E+00 -0.28200037869E+04  0.28200037869E+04  0.00000000000E+00 0. -1.
         23    2    1    2    0    0 -0.95994846597E+02 -0.52296625586E+03 -0.22439054886E+03  0.58456130153E+03  0.93016565663E+02 0.  0.
        254    2    1    2    0    0  0.95994846597E+02  0.52296625586E+03 -0.23029778918E+04  0.25280778317E+04  0.89708507836E+03 0.  0.
        -24    2    4    4    0    0  0.47980450139E+03  0.25805826968E+03 -0.14691137310E+04  0.15689701174E+04  0.81028665287E+02 0.  0.
         24    2    4    4    0    0 -0.38380965479E+03  0.26490798618E+03 -0.83386416079E+03  0.95910771431E+03  0.84095640508E+02 0.  0.
         13    1    3    3    0    0 -0.19443116074E+02 -0.23392989760E+03 -0.14227877131E+03  0.27448949073E+03  0.00000000000E+00 0. -1.
        -13    1    3    3    0    0 -0.76551730522E+02 -0.28903635826E+03 -0.82111777545E+02  0.31007181080E+03  0.00000000000E+00 0.  1.
          4    1    6    6  502    0 -0.26993278115E+03  0.19855162912E+03 -0.66725876157E+03  0.74667309491E+03  0.00000000000E+00 0. -1.
          1    1    5    5  503    0  0.20916999045E+03  0.13737191341E+03 -0.77017724235E+03  0.80981239317E+03  0.00000000000E+00 0. -1.
         -2    1    5    5    0  503  0.27063451094E+03  0.12068635627E+03 -0.69893648865E+03  0.75915772424E+03  0.00000000000E+00 0.  1.
         -3    1    6    6    0  502 -0.11387687364E+03  0.66356357057E+02 -0.16660539921E+03  0.21243461940E+03  0.00000000000E+00 0.  1.
<mgrwt>
<rscale>  0 0.18168465E+04</rscale>
<asrwt>0</asrwt>
<pdfrwt beam="1">  1        2 0.43384674E+00 0.18168465E+04</pdfrwt>
<pdfrwt beam="2">  1       -2 0.45020822E-01 0.18168465E+04</pdfrwt>
<totfact> 0.99452525E+00</totfact>
</mgrwt>
</event>
<event>
12    1  0.1506149E-007  0.1392052E+04  0.7818608E-02  0.8959592E-01
          1   -1    0    0  501    0  0.00000000000E+00  0.00000000000E+00  0.18550179242E+04  0.18550179242E+04  0.00000000000E+00 0. -1.
         -1   -1    0    0    0  501 -0.00000000000E+00 -0.00000000000E+00 -0.26115754499E+03  0.26115754499E+03  0.00000000000E+00 0.  1.
         23    2    1    2    0    0  0.10904485967E+03  0.18872442657E+02  0.10433853840E+04  0.10532462568E+04  0.91802328862E+02 0.  0.
        254    2    1    2    0    0 -0.10904485967E+03 -0.18872442657E+02  0.55047499519E+03  0.10629292123E+04  0.90252359499E+03 0.  0.
        -24    2    4    4    0    0 -0.10449472157E+03 -0.35970442111E+03 -0.30810285606E+02  0.38428924943E+03  0.80140727022E+02 0.  0.
         24    2    4    4    0    0 -0.45501380966E+01  0.34083197845E+03  0.58128528080E+03  0.67863996287E+03  0.80451726127E+02 0.  0.
         13    1    3    3    0    0 -0.79051005163E+01  0.15928381734E+02  0.51453734435E+02  0.54439790100E+02  0.00000000000E+00 0.  1.
        -13    1    3    3    0    0  0.11694996018E+03  0.29440609235E+01  0.99193164953E+03  0.99880646675E+03  0.00000000000E+00 0. -1.
          4    1    6    6  502    0  0.51601699276E+01  0.55956998008E+01  0.79106880321E-01  0.76121920523E+01  0.00000000000E+00 0. -1.
          1    1    5    5  503    0 -0.88865131027E+01 -0.61340348676E+02 -0.34547538871E+02  0.70958726968E+02  0.00000000000E+00 0. -1.
         -2    1    5    5    0  503 -0.95608208467E+02 -0.29836407243E+03  0.37372532652E+01  0.31333052246E+03  0.00000000000E+00 0.  1.
         -3    1    6    6    0  502 -0.97103080242E+01  0.33523627865E+03  0.58120617392E+03  0.67102777082E+03  0.00000000000E+00 0.  1.
<mgrwt>
<rscale>  0 0.13920516E+04</rscale>
<asrwt>0</asrwt>
<pdfrwt beam="1">  1        1 0.28538736E+00 0.13920516E+04</pdfrwt>
<pdfrwt beam="2">  1       -1 0.40178085E-01 0.13920516E+04</pdfrwt>
<totfact> 0.22043910E+01</totfact>
</mgrwt>
</event>
<event>
12    1  0.1506149E-007  0.1721465E+04  0.7818608E-02  0.8749216E-01
         -2   -1    0    0    0  501 -0.00000000000E+00  0.00000000000E+00  0.58849447977E+03  0.58849447977E+03  0.00000000000E+00 0.  1.
          2   -1    0    0  501    0  0.00000000000E+00 -0.00000000000E+00 -0.12589074071E+04  0.12589074071E+04  0.00000000000E+00 0. -1.
         23    2    1    2    0    0 -0.11173329784E+03  0.50983004393E+03 -0.60237854497E+03  0.80227881270E+03  0.91544406336E+02 0.  0.
        254    2    1    2    0    0  0.11173329784E+03 -0.50983004393E+03 -0.68034382317E+02  0.10451230741E+04  0.90290783547E+03 0.  0.
        -24    2    4    4    0    0  0.31458472177E+03 -0.64940011408E+03  0.10484925376E+03  0.73369833153E+03  0.81460544666E+02 0.  0.
         24    2    4    4    0    0 -0.20285142393E+03  0.13957007015E+03 -0.17288363608E+03  0.31142474260E+03  0.80424585840E+02 0.  0.
         13    1    3    3    0    0 -0.63963291985E+02  0.34756777149E+03 -0.46687291272E+03  0.58554673181E+03  0.00000000000E+00 0.  1.
        -13    1    3    3    0    0 -0.47770005857E+02  0.16226227244E+03 -0.13550563225E+03  0.21673208089E+03  0.00000000000E+00 0. -1.
          2    1    6    6  502    0 -0.13427921537E+03  0.13355909000E+03 -0.11569754943E+03  0.22193436225E+03  0.00000000000E+00 0. -1.
          1    1    5    5  503    0  0.20320780403E+03 -0.49015124122E+03  0.95582186515E+02  0.53914525434E+03  0.00000000000E+00 0. -1.
         -2    1    5    5    0  503  0.11137691774E+03 -0.15924887285E+03  0.92670672446E+01  0.19455307719E+03  0.00000000000E+00 0.  1.
         -1    1    6    6    0  502 -0.68572208555E+02  0.60109801438E+01 -0.57186086642E+02  0.89490380342E+02  0.00000000000E+00 0.  1.
<mgrwt>
<rscale>  0 0.17214646E+04</rscale>
<asrwt>0</asrwt>
<pdfrwt beam="1">  1        2 0.19367806E+00 0.17214646E+04</pdfrwt>
<pdfrwt beam="2">  1       -2 0.90537613E-01 0.17214646E+04</pdfrwt>
<totfact> 0.17305989E+01</totfact>
</mgrwt>
</event>
<event>
12    1  0.1506149E-007  0.1580214E+04  0.7818608E-02  0.8832796E-01
         -1   -1    0    0    0  501 -0.00000000000E+00  0.00000000000E+00  0.97318302684E+03  0.97318302684E+03  0.00000000000E+00 0.  1.
          1   -1    0    0  501    0  0.00000000000E+00 -0.00000000000E+00 -0.64147140519E+03  0.64147140519E+03  0.00000000000E+00 0. -1.
         23    2    1    2    0    0 -0.45491374685E+02  0.52413277248E+03  0.20150360411E+03  0.57124562523E+03  0.94515784502E+02 0.  0.
        254    2    1    2    0    0  0.45491374685E+02 -0.52413277248E+03  0.13020801754E+03  0.10434088068E+04  0.89160707821E+03 0.  0.
        -24    2    4    4    0    0 -0.13884116951E+03 -0.49835479563E+02 -0.31842370803E+03  0.35998466079E+03  0.80217534176E+02 0.  0.
         24    2    4    4    0    0  0.18433254420E+03 -0.47429729292E+03  0.44863172557E+03  0.68342414601E+03  0.82835555386E+02 0.  0.
         13    1    3    3    0    0  0.23558272296E+02  0.10644486270E+03  0.62432353842E+02  0.12563160349E+03  0.00000000000E+00 0. -1.
        -13    1    3    3    0    0 -0.69049646981E+02  0.41768790977E+03  0.13907125027E+03  0.44561402174E+03  0.00000000000E+00 0.  1.
          2    1    6    6  502    0  0.17242902362E+03 -0.35288858795E+03  0.32571885132E+03  0.51024983468E+03  0.00000000000E+00 0. -1.
          3    1    5    5  503    0 -0.13886721505E+03 -0.41067782653E+02 -0.31984693636E+03  0.35110216303E+03  0.00000000000E+00 0. -1.
         -4    1    5    5    0  503  0.26045535240E-01 -0.87676969098E+01  0.14232283276E+01  0.88824977537E+01  0.00000000000E+00 0.  1.
         -1    1    6    6    0  502  0.11903520573E+02 -0.12140870497E+03  0.12291287426E+03  0.17317431132E+03  0.00000000000E+00 0.  1.
<mgrwt>
<rscale>  0 0.15802140E+04</rscale>
<asrwt>0</asrwt>
<pdfrwt beam="1">  1        1 0.98687909E-01 0.15802140E+04</pdfrwt>
<pdfrwt beam="2">  1       -1 0.14972046E+00 0.15802140E+04</pdfrwt>
<totfact> 0.10467918E+01</totfact>
</mgrwt>
</event>
<event>
12    1  0.1506149E-007  0.1243223E+04  0.7818608E-02  0.9075842E-01
         -1   -1    0    0    0  501 -0.00000000000E+00  0.00000000000E+00  0.39966544314E+03  0.39966544314E+03  0.00000000000E+00 0.  1.
          1   -1    0    0  501    0  0.00000000000E+00 -0.00000000000E+00 -0.96681108228E+03  0.96681108228E+03  0.00000000000E+00 0. -1.
         23    2    1    2    0    0  0.23112248193E+03 -0.91812131891E+01  0.34777102065E+02  0.26316560064E+03  0.12060178357E+03 0.  0.
        254    2    1    2    0    0 -0.23112248193E+03  0.91812131891E+01 -0.60192274120E+03  0.11033109248E+04  0.89525533454E+03 0.  0.
        -24    2    4    4    0    0  0.58644315064E+02  0.35956966214E+03 -0.51242971268E+03  0.63315455264E+03  0.74638994320E+02 0.  0.
         24    2    4    4    0    0 -0.28976679700E+03 -0.35038844895E+03 -0.89493028520E+02  0.47015637213E+03  0.79379785243E+02 0.  0.
         13    1    3    3    0    0  0.47661506077E+02 -0.18119393138E+01  0.61279773716E+02  0.77653801918E+02  0.00000000000E+00 0.  1.
        -13    1    3    3    0    0  0.18346097585E+03 -0.73692738753E+01 -0.26502671652E+02  0.18551179872E+03  0.00000000000E+00 0. -1.
          4    1    6    6  502    0 -0.23022057346E+02 -0.68769230233E+01  0.62470676823E+01  0.24826055856E+02  0.00000000000E+00 0. -1.
          3    1    5    5  503    0  0.31055573018E+02  0.53361745852E+02 -0.59584613985E+02  0.85803559131E+02  0.00000000000E+00 0. -1.
         -4    1    5    5    0  503  0.27588742046E+02  0.30620791629E+03 -0.45284509870E+03  0.54735099351E+03  0.00000000000E+00 0.  1.
         -3    1    6    6    0  502 -0.26674473965E+03 -0.34351152593E+03 -0.95740096203E+02  0.44533031628E+03  0.00000000000E+00 0.  1.
<mgrwt>
<rscale>  0 0.12432232E+04</rscale>
<asrwt>0</asrwt>
<pdfrwt beam="1">  1        1 0.14874017E+00 0.12432232E+04</pdfrwt>
<pdfrwt beam="2">  1       -1 0.61486992E-01 0.12432232E+04</pdfrwt>
<totfact> 0.42540184E+01</totfact>
</mgrwt>
</event>
<event>
12    1  0.1506149E-007  0.2009620E+04  0.7818608E-02  0.8602136E-01
         -3   -1    0    0    0  501 -0.00000000000E+00  0.00000000000E+00  0.15923941141E+04  0.15923941141E+04  0.00000000000E+00 0.  1.
          3   -1    0    0  501    0  0.00000000000E+00 -0.00000000000E+00 -0.63404069644E+03  0.63404069644E+03  0.00000000000E+00 0. -1.
         23    2    1    2    0    0  0.80851204182E+02 -0.63990625069E+03  0.84996462027E+03  0.10708692430E+04  0.91127125758E+02 0.  0.
        254    2    1    2    0    0 -0.80851204182E+02  0.63990625069E+03  0.10838879737E+03  0.11555655675E+04  0.95266296375E+03 0.  0.
        -24    2    4    4    0    0  0.79227144100E+02 -0.99302588711E+02 -0.26728550948E+03  0.30724997235E+03  0.82601800517E+02 0.  0.
         24    2    4    4    0    0 -0.16007834828E+03  0.73920883941E+03  0.37567430685E+03  0.84831559515E+03  0.80332921638E+02 0.  0.
         13    1    3    3    0    0 -0.24190838214E+01 -0.12991957838E+03  0.12270396429E+03  0.17872104427E+03  0.00000000000E+00 0.  1.
        -13    1    3    3    0    0  0.83270288003E+02 -0.50998667232E+03  0.72726065598E+03  0.89214819875E+03  0.00000000000E+00 0. -1.
          4    1    6    6  502    0  0.14984241173E+01  0.40865290283E+02  0.45496773540E+01  0.41145070042E+02  0.00000000000E+00 0. -1.
          1    1    5    5  503    0 -0.47377488868E+01 -0.69445869674E+01  0.34802528936E+01  0.90986654442E+01  0.00000000000E+00 0. -1.
         -2    1    5    5    0  503  0.83964892987E+02 -0.92358001744E+02 -0.27076576237E+03  0.29815130691E+03  0.00000000000E+00 0.  1.
         -1    1    6    6    0  502 -0.16157677240E+03  0.69834354912E+03  0.37112462949E+03  0.80717052510E+03  0.00000000000E+00 0.  1.
<mgrwt>
<rscale>  0 0.20096195E+04</rscale>
<asrwt>0</asrwt>
<pdfrwt beam="1">  1        3 0.97544723E-01 0.20096195E+04</pdfrwt>
<pdfrwt beam="2">  1       -3 0.24498371E+00 0.20096195E+04</pdfrwt>
<totfact> 0.17589329E-01</totfact>
</mgrwt>
</event>
<event>
12    1  0.1506149E-007  0.1092166E+04  0.7818608E-02  0.9212862E-01
          1   -1    0    0  501    0  0.00000000000E+00  0.00000000000E+00  0.80640682426E+03  0.80640682426E+03  0.00000000000E+00 0. -1.
         -1   -1    0    0    0  501 -0.00000000000E+00 -0.00000000000E+00 -0.36979653566E+03  0.36979653566E+03  0.00000000000E+00 0.  1.
         23    2    1    2    0    0  0.13090845955E+03  0.75329296424E+02  0.27127762921E+02  0.17995214043E+03  0.93996434195E+02 0.  0.
        254    2    1    2    0    0 -0.13090845955E+03 -0.75329296424E+02  0.40948252568E+03  0.99625121949E+03  0.89556073262E+03 0.  0.
        -24    2    4    4    0    0 -0.10149088763E+03 -0.32296178226E+03  0.58518678149E+03  0.68095165540E+03  0.81528367395E+02 0.  0.
         24    2    4    4    0    0 -0.29417571925E+02  0.24763248584E+03 -0.17570425580E+03  0.31529956409E+03  0.79715669914E+02 0.  0.
         13    1    3    3    0    0  0.83402811975E+02 -0.41275390617E+01  0.74266341074E-01  0.83504916858E+02  0.00000000000E+00 0.  1.
        -13    1    3    3    0    0  0.47505647579E+02  0.79456835486E+02  0.27053496579E+02  0.96447223571E+02  0.00000000000E+00 0. -1.
          2    1    6    6  502    0 -0.96910686523E+01  0.14654390802E+03 -0.14831297849E+03  0.20872415619E+03  0.00000000000E+00 0. -1.
          3    1    5    5  503    0 -0.11392545670E+03 -0.30693854653E+03  0.55911776138E+03  0.64792202627E+03  0.00000000000E+00 0. -1.
         -4    1    5    5    0  503  0.12434569071E+02 -0.16023235733E+02  0.26069020106E+02  0.33029629132E+02  0.00000000000E+00 0.  1.
         -1    1    6    6    0  502 -0.19726503273E+02  0.10108857782E+03 -0.27391277314E+02  0.10657540790E+03  0.00000000000E+00 0.  1.
<mgrwt>
<rscale>  0 0.10921656E+04</rscale>
<asrwt>0</asrwt>
<pdfrwt beam="1">  1        1 0.12406259E+00 0.10921656E+04</pdfrwt>
<pdfrwt beam="2">  1       -1 0.56891775E-01 0.10921656E+04</pdfrwt>
<totfact> 0.68062889E+01</totfact>
</mgrwt>
</event>
<event>
12    1  0.1506149E-007  0.1165242E+04  0.7818608E-02  0.9143836E-01
          2   -1    0    0  501    0  0.00000000000E+00  0.00000000000E+00  0.26460192781E+04  0.26460192781E+04  0.00000000000E+00 0. -1.
         -2   -1    0    0    0  501 -0.00000000000E+00 -0.00000000000E+00 -0.12828599767E+03  0.12828599767E+03  0.00000000000E+00 0.  1.
         23    2    1    2    0    0  0.69240859813E+02 -0.14794220364E+03  0.79386931754E+03  0.81561219236E+03  0.91178740410E+02 0.  0.
        254    2    1    2    0    0 -0.69240859813E+02  0.14794220364E+03  0.17238639629E+04  0.19586930834E+04  0.91547279600E+03 0.  0.
        -24    2    4    4    0    0 -0.45663567823E+03  0.45425649300E+02  0.57752553159E+03  0.74192748529E+03  0.79630531435E+02 0.  0.
         24    2    4    4    0    0  0.38739481842E+03  0.10251655434E+03  0.11463384313E+04  0.12167655982E+04  0.76435152118E+02 0.  0.
         13    1    3    3    0    0  0.43446256035E+02 -0.14599467975E+03  0.74400312031E+03  0.75943575548E+03  0.00000000000E+00 0. -1.
        -13    1    3    3    0    0  0.25794603779E+02 -0.19475238941E+01  0.49866197235E+02  0.56176436876E+02  0.00000000000E+00 0.  1.
          4    1    6    6  502    0  0.18902725995E+03  0.12070077775E+02  0.50217630482E+03  0.53671038084E+03  0.00000000000E+00 0. -1.
          1    1    5    5  503    0 -0.18146275829E+03  0.55031719472E+02  0.25684185366E+03  0.31925688808E+03  0.00000000000E+00 0. -1.
         -2    1    5    5    0  503 -0.27517291994E+03 -0.96060701721E+01  0.32068367794E+03  0.42267059721E+03  0.00000000000E+00 0.  1.
         -3    1    6    6    0  502  0.19836755847E+03  0.90446476569E+02  0.64416212650E+03  0.68005521731E+03  0.00000000000E+00 0.  1.
<mgrwt>
<rscale>  0 0.11652420E+04</rscale>
<asrwt>0</asrwt>
<pdfrwt beam="1">  1        2 0.40707985E+00 0.11652420E+04</pdfrwt>
<pdfrwt beam="2">  1       -2 0.19736309E-01 0.11652420E+04</pdfrwt>
<totfact> 0.62442009E+01</totfact>
</mgrwt>
</event>
<event>
12    1  0.1506149E-007  0.1681139E+04  0.7818608E-02  0.8772195E-01
         -2   -1    0    0    0  501 -0.00000000000E+00  0.00000000000E+00  0.41028241880E+03  0.41028241880E+03  0.00000000000E+00 0. -1.
          2   -1    0    0  501    0  0.00000000000E+00 -0.00000000000E+00 -0.17221243751E+04  0.17221243751E+04  0.00000000000E+00 0.  1.
         23    2    1    2    0    0 -0.43148299827E+03  0.55730837407E+02 -0.99525745791E+03  0.10899860659E+04  0.90822421600E+02 0.  0.
        254    2    1    2    0    0  0.43148299827E+03 -0.55730837407E+02 -0.31658449833E+03  0.10424207280E+04  0.89282233701E+03 0.  0.
        -24    2    4    4    0    0  0.68805305368E+03  0.66561587987E+02 -0.19356129578E+03  0.72235704615E+03  0.80537427482E+02 0.  0.
         24    2    4    4    0    0 -0.25657005541E+03 -0.12229242539E+03 -0.12302320255E+03  0.32006368181E+03  0.80761509452E+02 0.  0.
         11    1    3    3    0    0 -0.40497792547E+02  0.33674141859E+02 -0.10852445063E+03  0.12062991095E+03  0.00000000000E+00 0. -1.
        -11    1    3    3    0    0 -0.39098520573E+03  0.22056695548E+02 -0.88673300728E+03  0.96935615494E+03  0.00000000000E+00 0.  1.
          4    1    6    6  502    0 -0.18315822760E+03 -0.73829635627E+02 -0.45134302349E+02  0.20257062147E+03  0.00000000000E+00 0. -1.
          3    1    5    5  503    0  0.14568605833E+03 -0.18771571088E+02 -0.39157497917E+02  0.15202009445E+03  0.00000000000E+00 0. -1.
         -4    1    5    5    0  503  0.54236699535E+03  0.85333159075E+02 -0.15440379787E+03  0.57033695170E+03  0.00000000000E+00 0.  1.
         -3    1    6    6    0  502 -0.73411827807E+02 -0.48462789766E+02 -0.77888900199E+02  0.11749306034E+03  0.00000000000E+00 0.  1.
<mgrwt>
<rscale>  0 0.16811393E+04</rscale>
<asrwt>0</asrwt>
<pdfrwt beam="1">  1        2 0.26494221E+00 0.16811393E+04</pdfrwt>
<pdfrwt beam="2">  1       -2 0.63120372E-01 0.16811393E+04</pdfrwt>
<totfact> 0.21119041E+01</totfact>
</mgrwt>
</event>
<event>
12    1  0.1506149E-007  0.2219549E+04  0.7818608E-02  0.8510335E-01
         -1   -1    0    0    0  501 -0.00000000000E+00  0.00000000000E+00  0.56009443113E+03  0.56009443113E+03  0.00000000000E+00 0.  1.
          1   -1    0    0  501    0  0.00000000000E+00 -0.00000000000E+00 -0.21989137064E+04  0.21989137064E+04  0.00000000000E+00 0. -1.
         23    2    1    2    0    0 -0.87856587307E+03 -0.78232232360E+02 -0.30240262677E+03  0.93603692413E+03  0.81972551158E+02 0.  0.
        254    2    1    2    0    0  0.87856587307E+03  0.78232232360E+02 -0.13364166485E+04  0.18229712134E+04  0.87133019632E+03 0.  0.
        -24    2    4    4    0    0  0.10239450816E+02 -0.15969267341E+03  0.33705591699E+02  0.18140700691E+03  0.78522856238E+02 0.  0.
         24    2    4    4    0    0  0.86832642226E+03  0.23792490577E+03 -0.13701222402E+04  0.16415642065E+04  0.83060547775E+02 0.  0.
         13    1    3    3    0    0 -0.30515485329E+00  0.22997575553E+01  0.19737085546E+01  0.30459037667E+01  0.00000000000E+00 0. -1.
        -13    1    3    3    0    0 -0.87826071822E+03 -0.80531989915E+02 -0.30437633532E+03  0.93299102036E+03  0.00000000000E+00 0.  1.
          2    1    6    6  502    0  0.98867626899E+02  0.27539059278E+02 -0.11242963651E+03  0.15222887571E+03  0.00000000000E+00 0. -1.
          1    1    5    5  503    0  0.39005705618E+02 -0.10447155420E+03  0.19971305222E+01  0.11153357897E+03  0.00000000000E+00 0. -1.
         -2    1    5    5    0  503 -0.28766254802E+02 -0.55221119202E+02  0.31708461177E+02  0.69873427936E+02  0.00000000000E+00 0.  1.
         -3    1    6    6    0  502  0.76945879536E+03  0.21038584649E+03 -0.12576926037E+04  0.14893353308E+04  0.00000000000E+00 0.  1.
<mgrwt>
<rscale>  0 0.22195489E+04</rscale>
<asrwt>0</asrwt>
<pdfrwt beam="1">  1        1 0.33829442E+00 0.22195489E+04</pdfrwt>
<pdfrwt beam="2">  1       -1 0.86168373E-01 0.22195489E+04</pdfrwt>
<totfact> 0.26392653E+00</totfact>
</mgrwt>
</event>
<event>
12    1  0.1506149E-007  0.1228103E+04  0.7818608E-02  0.9088608E-01
          2   -1    0    0  501    0  0.00000000000E+00  0.00000000000E+00  0.88681310258E+03  0.88681310258E+03  0.00000000000E+00 0. -1.
         -2   -1    0    0    0  501 -0.00000000000E+00 -0.00000000000E+00 -0.42518446939E+03  0.42518446939E+03  0.00000000000E+00 0.  1.
         23    2    1    2    0    0 -0.28932569647E+02 -0.89650677217E+02 -0.16465389247E+03  0.21094991256E+03  0.92274719120E+02 0.  0.
        254    2    1    2    0    0  0.28932569647E+02  0.89650677217E+02  0.62628252567E+03  0.11010476594E+04  0.90066742410E+03 0.  0.
        -24    2    4    4    0    0  0.93283950001E+02  0.42340391436E+03  0.60822154551E+03  0.75114940189E+03  0.79493430564E+02 0.  0.
         24    2    4    4    0    0 -0.64351380353E+02 -0.33375323715E+03  0.18060980155E+02  0.34989825753E+03  0.81057190656E+02 0.  0.
         13    1    3    3    0    0 -0.95294940447E+01 -0.10418428481E+03 -0.11361359444E+03  0.15444489405E+03  0.00000000000E+00 0.  1.
        -13    1    3    3    0    0 -0.19403075603E+02  0.14533607592E+02 -0.51040298036E+02  0.56505018504E+02  0.00000000000E+00 0. -1.
          2    1    6    6  502    0  0.18866518281E+02 -0.68067416978E+02  0.10262986970E+02  0.71375399597E+02  0.00000000000E+00 0. -1.
          1    1    5    5  503    0  0.19460285604E+02  0.12185327742E+02  0.29696527098E+02  0.37537563182E+02  0.00000000000E+00 0. -1.
         -2    1    5    5    0  503  0.73823664397E+02  0.41121858662E+03  0.57852501841E+03  0.71361183870E+03  0.00000000000E+00 0.  1.
         -1    1    6    6    0  502 -0.83217898634E+02 -0.26568582017E+03  0.77979931851E+01  0.27852285793E+03  0.00000000000E+00 0.  1.
<mgrwt>
<rscale>  0 0.12281029E+04</rscale>
<asrwt>0</asrwt>
<pdfrwt beam="1">  1        2 0.13643279E+00 0.12281029E+04</pdfrwt>
<pdfrwt beam="2">  1       -2 0.65412995E-01 0.12281029E+04</pdfrwt>
<totfact> 0.63512664E+01</totfact>
</mgrwt>
</event>
<event>
12    1  0.1508520E-007  0.1749601E+04  0.7818608E-02  0.8733570E-01
         -3   -1    0    0    0  501 -0.00000000000E+00  0.00000000000E+00  0.38845531964E+03  0.38845531964E+03  0.00000000000E+00 0.  1.
          3   -1    0    0  501    0  0.00000000000E+00 -0.00000000000E+00 -0.19700485903E+04  0.19700485903E+04  0.00000000000E+00 0. -1.
         23    2    1    2    0    0 -0.27997185791E+03 -0.57000232426E+03 -0.47774507874E+03  0.80011838732E+03  0.93070847128E+02 0.  0.
        254    2    1    2    0    0  0.27997185791E+03  0.57000232426E+03 -0.11038481920E+04  0.15583855227E+04  0.89821919122E+03 0.  0.
        -24    2    4    4    0    0  0.21989116684E+03 -0.17520454000E+03 -0.11157262985E+03  0.31326181465E+03  0.81460154027E+02 0.  0.
         24    2    4    4    0    0  0.60080691073E+02  0.74520686426E+03 -0.99227556211E+03  0.12451237080E+04  0.82336487209E+02 0.  0.
         11    1    3    3    0    0 -0.11006487665E+03 -0.18134171953E+03 -0.11118964769E+03  0.23950414206E+03  0.00000000000E+00 0.  1.
        -11    1    3    3    0    0 -0.16990698127E+03 -0.38866060473E+03 -0.36655543105E+03  0.56061424525E+03  0.00000000000E+00 0. -1.
          2    1    6    6  502    0 -0.83719698004E+01  0.83184075916E+02 -0.78668309685E+02  0.11479713983E+03  0.00000000000E+00 0. -1.
          3    1    5    5  503    0  0.37046772854E+01 -0.12945667179E+02  0.10102858734E+02  0.16833974192E+02  0.00000000000E+00 0. -1.
         -4    1    5    5    0  503  0.21618648956E+03 -0.16225887282E+03 -0.12167548859E+03  0.29642784046E+03  0.00000000000E+00 0.  1.
         -1    1    6    6    0  502  0.68452660873E+02  0.66202278834E+03 -0.91360725242E+03  0.11303265682E+04  0.00000000000E+00 0.  1.
<mgrwt>
<rscale>  0 0.17496009E+04</rscale>
<asrwt>0</asrwt>
<pdfrwt beam="1">  1        3 0.30308440E+00 0.17496009E+04</pdfrwt>
<pdfrwt beam="2">  1       -3 0.59762357E-01 0.17496009E+04</pdfrwt>
<totfact> 0.25326063E-01</totfact>
</mgrwt>
</event>
<event>
12    1  0.1506149E-007  0.1573198E+04  0.7818608E-02  0.8837185E-01
         -4   -1    0    0    0  501 -0.00000000000E+00  0.00000000000E+00  0.82897223634E+03  0.82897223634E+03  0.00000000000E+00 0.  1.
          4   -1    0    0  501    0  0.00000000000E+00 -0.00000000000E+00 -0.74639187734E+03  0.74639187734E+03  0.00000000000E+00 0. -1.
         23    2    1    2    0    0  0.79826666527E+02  0.98501445812E+02 -0.48463393986E+03  0.51038861627E+03  0.97732555672E+02 0.  0.
        254    2    1    2    0    0 -0.79826666527E+02 -0.98501445812E+02  0.56721429886E+03  0.10649754974E+04  0.89239336491E+03 0.  0.
        -24    2    4    4    0    0  0.22113303249E+03  0.22268439116E+02 -0.14587633898E+03  0.27760199606E+03  0.79920338463E+02 0.  0.
         24    2    4    4    0    0 -0.30095969902E+03 -0.12076988493E+03  0.71309063784E+03  0.78737350135E+03  0.79351542578E+02 0.  0.
         11    1    3    3    0    0  0.70691602986E+02  0.11856185980E+03 -0.41901944165E+03  0.44117061305E+03  0.00000000000E+00 0. -1.
        -11    1    3    3    0    0  0.91350635411E+01 -0.20060413990E+02 -0.65614498207E+02  0.69218003224E+02  0.00000000000E+00 0.  1.
          2    1    6    6  502    0 -0.29149036378E+03 -0.13126961668E+03  0.68497637951E+03  0.75590408448E+03  0.00000000000E+00 0. -1.
          3    1    5    5  503    0  0.10559654722E+03 -0.22333792735E+02 -0.41494240580E+02  0.11563390975E+03  0.00000000000E+00 0. -1.
         -4    1    5    5    0  503  0.11553648527E+03  0.44602231851E+02 -0.10438209840E+03  0.16196808631E+03  0.00000000000E+00 0.  1.
         -1    1    6    6    0  502 -0.94693352353E+01  0.10499731754E+02  0.28114258326E+02  0.31469416866E+02  0.00000000000E+00 0.  1.
<mgrwt>
<rscale>  0 0.15731982E+04</rscale>
<asrwt>0</asrwt>
<pdfrwt beam="1">  1        4 0.11482952E+00 0.15731982E+04</pdfrwt>
<pdfrwt beam="2">  1       -4 0.12753419E+00 0.15731982E+04</pdfrwt>
<totfact> 0.51527520E-01</totfact>
</mgrwt>
</event>
<event>
12    1  0.1506149E-007  0.2212506E+04  0.7818608E-02  0.8513241E-01
         -2   -1    0    0    0  501 -0.00000000000E+00  0.00000000000E+00  0.33049698324E+03  0.33049698324E+03  0.00000000000E+00 0.  1.
          2   -1    0    0  501    0  0.00000000000E+00 -0.00000000000E+00 -0.37028964515E+04  0.37028964515E+04  0.00000000000E+00 0. -1.
         23    2    1    2    0    0 -0.81065688669E+03 -0.39603775295E+03 -0.15966444000E+04  0.18361075644E+04  0.89482727078E+02 0.  0.
        254    2    1    2    0    0  0.81065688669E+03  0.39603775295E+03 -0.17757550683E+04  0.21972858703E+04  0.92776540334E+03 0.  0.
        -24    2    4    4    0    0 -0.44370849214E+02  0.19525040177E+03 -0.10003078079E+04  0.10229179064E+04  0.75192027532E+02 0.  0.
         24    2    4    4    0    0  0.85502773590E+03  0.20078735119E+03 -0.77544726033E+03  0.11743679639E+04  0.80210170571E+02 0.  0.
         13    1    3    3    0    0 -0.71234158985E+03 -0.36629666708E+03 -0.13641080903E+04  0.15818959103E+04  0.00000000000E+00 0. -1.
        -13    1    3    3    0    0 -0.98315296838E+02 -0.29741085867E+02 -0.23253630969E+03  0.25421165415E+03  0.00000000000E+00 0.  1.
          2    1    6    6  502    0  0.21893716494E+03  0.61703523492E+02 -0.24707769569E+03  0.33583953714E+03  0.00000000000E+00 0. -1.
          3    1    5    5  503    0 -0.35531926829E+02  0.25586975793E+02 -0.18758061908E+03  0.19262320683E+03  0.00000000000E+00 0. -1.
         -4    1    5    5    0  503 -0.88389223844E+01  0.16966342597E+03 -0.81272718886E+03  0.83029469959E+03  0.00000000000E+00 0.  1.
         -1    1    6    6    0  502  0.63609057097E+03  0.13908382769E+03 -0.52836956464E+03  0.83852842673E+03  0.00000000000E+00 0.  1.
<mgrwt>
<rscale>  0 0.22125064E+04</rscale>
<asrwt>0</asrwt>
<pdfrwt beam="1">  1        2 0.56967638E+00 0.22125064E+04</pdfrwt>
<pdfrwt beam="2">  1       -2 0.50845690E-01 0.22125064E+04</pdfrwt>
<totfact> 0.19483770E+00</totfact>
</mgrwt>
</event>
<event>
12    1  0.1506149E-007  0.2743806E+04  0.7818608E-02  0.8320930E-01
          1   -1    0    0  501    0  0.00000000000E+00  0.00000000000E+00  0.13655084934E+04  0.13655084934E+04  0.00000000000E+00 0. -1.
         -1   -1    0    0    0  501 -0.00000000000E+00 -0.00000000000E+00 -0.13783275420E+04  0.13783275420E+04  0.00000000000E+00 0.  1.
         23    2    1    2    0    0 -0.39725098785E+03 -0.55129292602E+02  0.11494221372E+04  0.12211718735E+04  0.96134847403E+02 0.  0.
        254    2    1    2    0    0  0.39725098785E+03  0.55129292602E+02 -0.11622411858E+04  0.15226641618E+04  0.89825051600E+03 0.  0.
        -24    2    4    4    0    0 -0.64984367585E+02  0.43001165881E+02  0.11532920966E+03  0.16167654671E+03  0.82258196288E+02 0.  0.
         24    2    4    4    0    0  0.46223535543E+03  0.12128126721E+02 -0.12775703955E+04  0.13609876151E+04  0.79325644349E+02 0.  0.
         13    1    3    3    0    0 -0.21841959484E+03 -0.77324131085E+02  0.61618163310E+03  0.65830535896E+03  0.00000000000E+00 0. -1.
        -13    1    3    3    0    0 -0.17883139301E+03  0.22194838483E+02  0.53324050411E+03  0.56286651455E+03  0.00000000000E+00 0.  1.
          4    1    6    6  502    0  0.10417165352E+03 -0.25163596907E+02 -0.34861106428E+03  0.36471168633E+03  0.00000000000E+00 0. -1.
          3    1    5    5  503    0 -0.66366024838E+02  0.47142001307E+01  0.41267498440E+02  0.78292268859E+02  0.00000000000E+00 0. -1.
         -4    1    5    5    0  503  0.13816572525E+01  0.38286965751E+02  0.74061711224E+02  0.83384277851E+02  0.00000000000E+00 0.  1.
         -3    1    6    6    0  502  0.35806370191E+03  0.37291723628E+02 -0.92895933121E+03  0.99627592881E+03  0.00000000000E+00 0.  1.
<mgrwt>
<rscale>  0 0.27438061E+04</rscale>
<asrwt>0</asrwt>
<pdfrwt beam="1">  1        1 0.21007823E+00 0.27438061E+04</pdfrwt>
<pdfrwt beam="2">  1       -1 0.21205039E+00 0.27438061E+04</pdfrwt>
<totfact> 0.88005384E-01</totfact>
</mgrwt>
</event>
<event>
12    1  0.1506149E-007  0.1426030E+04  0.7818608E-02  0.8935189E-01
          1   -1    0    0  501    0  0.00000000000E+00  0.00000000000E+00  0.28273477648E+03  0.28273477648E+03  0.00000000000E+00 0. -1.
         -1   -1    0    0    0  501 -0.00000000000E+00 -0.00000000000E+00 -0.17981170395E+04  0.17981170395E+04  0.00000000000E+00 0.  1.
         23    2    1    2    0    0 -0.43835155866E+02  0.31895761095E+03 -0.49439940716E+02  0.34133432476E+03  0.10202614885E+03 0.  0.
        254    2    1    2    0    0  0.43835155866E+02 -0.31895761095E+03 -0.14659423224E+04  0.17395174913E+04  0.87936268484E+03 0.  0.
        -24    2    4    4    0    0  0.30168053570E+03 -0.43944934595E+03 -0.52258705556E+03  0.75085201867E+03  0.80960793208E+02 0.  0.
         24    2    4    4    0    0 -0.25784537983E+03  0.12049173500E+03 -0.94335526679E+03  0.98866547259E+03  0.80856411065E+02 0.  0.
         13    1    3    3    0    0  0.65635568656E+01 -0.10688748318E+00  0.10902359561E+02  0.12726081395E+02  0.00000000000E+00 0.  1.
        -13    1    3    3    0    0 -0.50398712731E+02  0.31906449843E+03 -0.60342300277E+02  0.32860824336E+03  0.00000000000E+00 0. -1.
          2    1    6    6  502    0 -0.25702907454E+03  0.10215380854E+03 -0.90117488037E+03  0.94266404979E+03  0.00000000000E+00 0. -1.
          1    1    5    5  503    0  0.25500355500E+03 -0.37578248600E+03 -0.40074121184E+03  0.60566724256E+03  0.00000000000E+00 0. -1.
         -2    1    5    5    0  503  0.46676980694E+02 -0.63666859948E+02 -0.12184584372E+03  0.14518477611E+03  0.00000000000E+00 0.  1.
         -1    1    6    6    0  502 -0.81630528962E+00  0.18337926457E+02 -0.42180386423E+02  0.46001422802E+02  0.00000000000E+00 0.  1.
<mgrwt>
<rscale>  0 0.14260298E+04</rscale>
<asrwt>0</asrwt>
<pdfrwt beam="1">  1        1 0.43497660E-01 0.14260298E+04</pdfrwt>
<pdfrwt beam="2">  1       -1 0.27663338E+00 0.14260298E+04</pdfrwt>
<totfact> 0.43224984E+00</totfact>
</mgrwt>
</event>
<event>
12    1  0.1506149E-007  0.2340822E+04  0.7818608E-02  0.8461997E-01
         -1   -1    0    0    0  501 -0.00000000000E+00  0.00000000000E+00  0.15204969543E+04  0.15204969543E+04  0.00000000000E+00 0.  1.
          1   -1    0    0  501    0  0.00000000000E+00 -0.00000000000E+00 -0.90093057991E+03  0.90093057991E+03  0.00000000000E+00 0. -1.
         23    2    1    2    0    0 -0.59604326809E+03  0.71160551946E+03 -0.10035096899E+03  0.93840536996E+03  0.94256716645E+02 0.  0.
        254    2    1    2    0    0  0.59604326809E+03 -0.71160551946E+03  0.71991734341E+03  0.14830221643E+04  0.90522028568E+03 0.  0.
        -24    2    4    4    0    0  0.74050964257E+03 -0.35260175205E+03  0.71023498352E+03  0.10878642986E+04  0.79576843306E+02 0.  0.
         24    2    4    4    0    0 -0.14446637448E+03 -0.35900376741E+03  0.96823598888E+01  0.39515786570E+03  0.79383577417E+02 0.  0.
         13    1    3    3    0    0 -0.23950709463E+03  0.33769724768E+03 -0.11468807920E+02  0.41416737320E+03  0.00000000000E+00 0.  1.
        -13    1    3    3    0    0 -0.35653617346E+03  0.37390827178E+03 -0.88882161071E+02  0.52423799676E+03  0.00000000000E+00 0. -1.
          4    1    6    6  502    0 -0.10700236077E+03 -0.31496889201E+03 -0.13368110212E+02  0.33291682822E+03  0.00000000000E+00 0. -1.
          1    1    5    5  503    0  0.55245650565E+03 -0.25338030726E+03  0.48004811350E+03  0.77450368754E+03  0.00000000000E+00 0. -1.
         -2    1    5    5    0  503  0.18805313692E+03 -0.99221444786E+02  0.23018687002E+03  0.31336061102E+03  0.00000000000E+00 0.  1.
         -3    1    6    6    0  502 -0.37464013707E+02 -0.44034875408E+02  0.23050470101E+02  0.62241037484E+02  0.00000000000E+00 0.  1.
<mgrwt>
<rscale>  0 0.23408223E+04</rscale>
<asrwt>0</asrwt>
<pdfrwt beam="1">  1        1 0.13860470E+00 0.23408223E+04</pdfrwt>
<pdfrwt beam="2">  1       -1 0.23392261E+00 0.23408223E+04</pdfrwt>
<totfact> 0.14545679E+00</totfact>
</mgrwt>
</event>
<event>
12    1  0.1506149E-007  0.1219865E+04  0.7818608E-02  0.9095644E-01
         -1   -1    0    0    0  501 -0.00000000000E+00  0.00000000000E+00  0.46080533793E+03  0.46080533793E+03  0.00000000000E+00 0.  1.
          1   -1    0    0  501    0  0.00000000000E+00 -0.00000000000E+00 -0.80732036629E+03  0.80732036629E+03  0.00000000000E+00 0. -1.
         23    2    1    2    0    0 -0.21402806467E+03 -0.15676808382E+03 -0.11075084998E+03  0.30085360134E+03  0.88672961491E+02 0.  0.
        254    2    1    2    0    0  0.21402806467E+03  0.15676808382E+03 -0.23576417839E+03  0.96727210288E+03  0.89980349445E+03 0.  0.
        -24    2    4    4    0    0 -0.26042894480E+02  0.31560374303E+03  0.23991689545E+03  0.40523355396E+03  0.79813291905E+02 0.  0.
         24    2    4    4    0    0  0.24007095915E+03 -0.15883565922E+03 -0.47568107384E+03  0.56203854891E+03  0.82170641906E+02 0.  0.
         13    1    3    3    0    0  0.81386951839E+01 -0.52641771550E+01  0.80125275045E+00  0.97258380814E+01  0.00000000000E+00 0. -1.
        -13    1    3    3    0    0 -0.22216675986E+03 -0.15150390666E+03 -0.11155210273E+03  0.29112776326E+03  0.00000000000E+00 0.  1.
          2    1    6    6  502    0  0.51968614745E+01 -0.15542104951E+02 -0.55237059569E+01  0.17293805914E+02  0.00000000000E+00 0. -1.
          3    1    5    5  503    0 -0.49973219678E+02  0.12724377303E+03  0.10067692055E+03  0.16977674396E+03  0.00000000000E+00 0. -1.
         -4    1    5    5    0  503  0.23930325198E+02  0.18835997000E+03  0.13923997491E+03  0.23545681000E+03  0.00000000000E+00 0.  1.
         -1    1    6    6    0  502  0.23487409768E+03 -0.14329355426E+03 -0.47015736788E+03  0.54474474300E+03  0.00000000000E+00 0.  1.
<mgrwt>
<rscale>  0 0.12198648E+04</rscale>
<asrwt>0</asrwt>
<pdfrwt beam="1">  1        1 0.12420313E+00 0.12198648E+04</pdfrwt>
<pdfrwt beam="2">  1       -1 0.70893130E-01 0.12198648E+04</pdfrwt>
<totfact> 0.43294792E+01</totfact>
</mgrwt>
</event>
<event>
12    1  0.1506149E-007  0.2458775E+04  0.7818608E-02  0.8417821E-01
          2   -1    0    0  501    0  0.00000000000E+00  0.00000000000E+00  0.19005269399E+04  0.19005269399E+04  0.00000000000E+00 0. -1.
         -2   -1    0    0    0  501 -0.00000000000E+00 -0.00000000000E+00 -0.79525000605E+03  0.79525000605E+03  0.00000000000E+00 0.  1.
         23    2    1    2    0    0  0.10360009933E+04 -0.98890444812E+01  0.21870136824E+03  0.10629013847E+04  0.92375396597E+02 0.  0.
        254    2    1    2    0    0 -0.10360009933E+04  0.98890444812E+01  0.88657556560E+03  0.16328755612E+04  0.89825971385E+03 0.  0.
        -24    2    4    4    0    0 -0.41128713937E+03 -0.25392484682E+03 -0.29790361593E+02  0.49015782685E+03  0.75711892935E+02 0.  0.
         24    2    4    4    0    0 -0.62471385392E+03  0.26381389130E+03  0.91636592719E+03  0.11427177343E+04  0.78817126004E+02 0.  0.
         11    1    3    3    0    0  0.90502602195E+03 -0.15454701074E+02  0.22116186402E+03  0.93178512453E+03  0.00000000000E+00 0. -1.
        -11    1    3    3    0    0  0.13097497134E+03  0.55656565928E+01 -0.24604957797E+01  0.13111626021E+03  0.00000000000E+00 0.  1.
          2    1    6    6  502    0 -0.31551967598E+03  0.90496170939E+02  0.44048844879E+03  0.54933805293E+03  0.00000000000E+00 0. -1.
          1    1    5    5  503    0 -0.43282338581E+02 -0.38587339981E+02 -0.26532979981E+02  0.63767881151E+02  0.00000000000E+00 0. -1.
         -2    1    5    5    0  503 -0.36800480079E+03 -0.21533750684E+03 -0.32573816115E+01  0.42638994570E+03  0.00000000000E+00 0.  1.
         -1    1    6    6    0  502 -0.30919417794E+03  0.17331772036E+03  0.47587747840E+03  0.59337968142E+03  0.00000000000E+00 0.  1.
<mgrwt>
<rscale>  0 0.24587754E+04</rscale>
<asrwt>0</asrwt>
<pdfrwt beam="1">  1        2 0.29238876E+00 0.24587754E+04</pdfrwt>
<pdfrwt beam="2">  1       -2 0.12234616E+00 0.24587754E+04</pdfrwt>
<totfact> 0.34361433E+00</totfact>
</mgrwt>
</event>
<event>
12    1  0.1506149E-007  0.2557669E+04  0.7818608E-02  0.8382724E-01
          2   -1    0    0  501    0  0.00000000000E+00  0.00000000000E+00  0.15855515773E+04  0.15855515773E+04  0.00000000000E+00 0. -1.
         -2   -1    0    0    0  501 -0.00000000000E+00 -0.00000000000E+00 -0.10314502728E+04  0.10314502728E+04  0.00000000000E+00 0.  1.
         23    2    1    2    0    0  0.56386698840E+03 -0.34144808659E+03  0.11720892265E+04  0.13479182487E+04  0.92507696775E+02 0.  0.
        254    2    1    2    0    0 -0.56386698840E+03  0.34144808659E+03 -0.61798792194E+03  0.12690836014E+04  0.89114047117E+03 0.  0.
        -24    2    4    4    0    0 -0.72998886062E+03  0.80929609062E+02 -0.59598901088E+03  0.94913220373E+03  0.78839715988E+02 0.  0.
         24    2    4    4    0    0  0.16612187222E+03  0.26051847752E+03 -0.21998911062E+02  0.31995139772E+03  0.80116111051E+02 0.  0.
         13    1    3    3    0    0  0.66569460671E+02 -0.58527559875E+02  0.10756336300E+03  0.13938021889E+03  0.00000000000E+00 0.  1.
        -13    1    3    3    0    0  0.49729752773E+03 -0.28292052671E+03  0.10645258635E+04  0.12085380298E+04  0.00000000000E+00 0. -1.
          2    1    6    6  502    0  0.13102129198E+03  0.19155553237E+03 -0.50462600602E+02  0.23750068420E+03  0.00000000000E+00 0. -1.
          3    1    5    5  503    0 -0.26383595311E+03  0.19407006141E+02 -0.26247038711E+03  0.37266170470E+03  0.00000000000E+00 0. -1.
         -4    1    5    5    0  503 -0.46615290751E+03  0.61522602921E+02 -0.33351862377E+03  0.57647049903E+03  0.00000000000E+00 0.  1.
         -1    1    6    6    0  502  0.35100580239E+02  0.68962945154E+02  0.28463689540E+02  0.82450713519E+02  0.00000000000E+00 0.  1.
<mgrwt>
<rscale>  0 0.25576689E+04</rscale>
<asrwt>0</asrwt>
<pdfrwt beam="1">  1        2 0.24393101E+00 0.25576689E+04</pdfrwt>
<pdfrwt beam="2">  1       -2 0.15868466E+00 0.25576689E+04</pdfrwt>
<totfact> 0.25985612E+00</totfact>
</mgrwt>
</event>
<event>
12    1  0.1506149E-007  0.2391722E+04  0.7818608E-02  0.8442609E-01
          2   -1    0    0  501    0  0.00000000000E+00  0.00000000000E+00  0.32043865608E+04  0.32043865608E+04  0.00000000000E+00 0. -1.
         -2   -1    0    0    0  501 -0.00000000000E+00 -0.00000000000E+00 -0.44628921858E+03  0.44628921858E+03  0.00000000000E+00 0.  1.
         23    2    1    2    0    0 -0.84597445976E+03 -0.60670896682E+03  0.96333053333E+03  0.14212960001E+04  0.91148486495E+02 0.  0.
        254    2    1    2    0    0  0.84597445976E+03  0.60670896682E+03  0.17947668089E+04  0.22293797792E+04  0.81558429651E+03 0.  0.
        -24    2    4    4    0    0  0.44091791579E+03 -0.10592780246E+03  0.91436982124E+03  0.10238157936E+04  0.80605840341E+02 0.  0.
         24    2    4    4    0    0  0.40505654397E+03  0.71263676929E+03  0.88039698763E+03  0.12055639856E+04  0.79772794450E+02 0.  0.
         11    1    3    3    0    0 -0.59824362259E+03 -0.41033235411E+03  0.72284589121E+03  0.10240967997E+04  0.00000000000E+00 0. -1.
        -11    1    3    3    0    0 -0.24773083717E+03 -0.19637661271E+03  0.24048464211E+03  0.39719920040E+03  0.00000000000E+00 0.  1.
          4    1    6    6  502    0  0.15535344879E+03  0.35139630421E+03  0.39655154598E+03  0.55214779297E+03  0.00000000000E+00 0. -1.
          1    1    5    5  503    0  0.44631446163E+01  0.24130983444E+01  0.26316187523E+00  0.50805469842E+01  0.00000000000E+00 0. -1.
         -2    1    5    5    0  503  0.43645477117E+03 -0.10834090081E+03  0.91410665937E+03  0.10187352466E+04  0.00000000000E+00 0.  1.
         -3    1    6    6    0  502  0.24970309518E+03  0.36124046508E+03  0.48384544164E+03  0.65341619260E+03  0.00000000000E+00 0.  1.
<mgrwt>
<rscale>  0 0.23917217E+04</rscale>
<asrwt>0</asrwt>
<pdfrwt beam="1">  1        2 0.49298253E+00 0.23917217E+04</pdfrwt>
<pdfrwt beam="2">  1       -2 0.68659882E-01 0.23917217E+04</pdfrwt>
<totfact> 0.22499360E+00</totfact>
</mgrwt>
</event>
<event>
12    1  0.1506149E-007  0.1583325E+04  0.7818608E-02  0.8830858E-01
          1   -1    0    0  501    0  0.00000000000E+00  0.00000000000E+00  0.14833920861E+04  0.14833920861E+04  0.00000000000E+00 0.  1.
         -1   -1    0    0    0  501 -0.00000000000E+00 -0.00000000000E+00 -0.42249773460E+03  0.42249773460E+03  0.00000000000E+00 0. -1.
         23    2    1    2    0    0 -0.61714898168E+02  0.69470224319E+02  0.99194216901E+03  0.10004303923E+04  0.90977263893E+02 0.  0.
        254    2    1    2    0    0  0.61714898168E+02 -0.69470224319E+02  0.68952182508E+02  0.90545942837E+03  0.89803537359E+03 0.  0.
        -24    2    4    4    0    0 -0.93680974657E+02  0.36842944140E+03  0.16832479239E+03  0.42355089601E+03  0.80905793837E+02 0.  0.
         24    2    4    4    0    0  0.15539587282E+03 -0.43789966571E+03 -0.99372609885E+02  0.48190853236E+03  0.80354983921E+02 0.  0.
         11    1    3    3    0    0 -0.51245197743E+02  0.77528611750E+02  0.51582385850E+03  0.52412880948E+03  0.00000000000E+00 0. -1.
        -11    1    3    3    0    0 -0.10469700425E+02 -0.80583874316E+01  0.47611831051E+03  0.47630158286E+03  0.00000000000E+00 0.  1.
          2    1    6    6  502    0  0.89537490754E+02 -0.34970674939E+03 -0.85440395713E+02  0.37096069069E+03  0.00000000000E+00 0. -1.
          3    1    5    5  503    0 -0.10850804256E+03  0.31320896933E+03  0.14501768516E+03  0.36180655436E+03  0.00000000000E+00 0. -1.
         -4    1    5    5    0  503  0.14827067908E+02  0.55220472064E+02  0.23307107229E+02  0.61744341645E+02  0.00000000000E+00 0.  1.
         -1    1    6    6    0  502  0.65858382070E+02 -0.88192916328E+02 -0.13932214171E+02  0.11094784167E+03  0.00000000000E+00 0.  1.
<mgrwt>
<rscale>  0 0.15833254E+04</rscale>
<asrwt>0</asrwt>
<pdfrwt beam="1">  1        1 0.22821417E+00 0.15833254E+04</pdfrwt>
<pdfrwt beam="2">  1       -1 0.64999652E-01 0.15833254E+04</pdfrwt>
<totfact> 0.15488680E+01</totfact>
</mgrwt>
</event>
<event>
12    1  0.1506149E-007  0.1481102E+04  0.7818608E-02  0.8897118E-01
          2   -1    0    0  501    0  0.00000000000E+00  0.00000000000E+00  0.22760994716E+03  0.22760994716E+03  0.00000000000E+00 0. -1.
         -2   -1    0    0    0  501 -0.00000000000E+00 -0.00000000000E+00 -0.24094529439E+04  0.24094529439E+04  0.00000000000E+00 0.  1.
         23    2    1    2    0    0  0.11703774029E+03 -0.44365315998E+03 -0.72524313074E+03  0.86425429791E+03  0.10213683835E+03 0.  0.
        254    2    1    2    0    0 -0.11703774029E+03  0.44365315998E+03 -0.14565998660E+04  0.17728085931E+04  0.90035614027E+03 0.  0.
        -24    2    4    4    0    0  0.70169975829E+02 -0.23750045135E+03 -0.19557585434E+03  0.32529986159E+03  0.78992374621E+02 0.  0.
         24    2    4    4    0    0 -0.18720771612E+03  0.68115361133E+03 -0.12610240116E+04  0.14475087316E+04  0.77993581643E+02 0.  0.
         11    1    3    3    0    0  0.99811217550E+02 -0.42404666151E+03 -0.71270387520E+03  0.83529914642E+03  0.00000000000E+00 0. -1.
        -11    1    3    3    0    0  0.17226522737E+02 -0.19606498472E+02 -0.12539255539E+02  0.28955151484E+02  0.00000000000E+00 0.  1.
          4    1    6    6  502    0 -0.37136926966E+02  0.20603960762E+03 -0.43695495510E+03  0.48452152072E+03  0.00000000000E+00 0. -1.
          3    1    5    5  503    0 -0.91935652200E+01 -0.32000983081E+01 -0.19064422298E+02  0.21405944693E+02  0.00000000000E+00 0. -1.
         -4    1    5    5    0  503  0.79363541049E+02 -0.23430035304E+03 -0.17651143204E+03  0.30389391689E+03  0.00000000000E+00 0.  1.
         -3    1    6    6    0  502 -0.15007078915E+03  0.47511400371E+03 -0.82406905654E+03  0.96298721083E+03  0.00000000000E+00 0.  1.
<mgrwt>
<rscale>  0 0.14811016E+04</rscale>
<asrwt>0</asrwt>
<pdfrwt beam="1">  1        2 0.35016914E-01 0.14811016E+04</pdfrwt>
<pdfrwt beam="2">  1       -2 0.37068508E+00 0.14811016E+04</pdfrwt>
<totfact> 0.16774977E+00</totfact>
</mgrwt>
</event>
<event>
12    1  0.1506149E-007  0.1857535E+04  0.7818608E-02  0.8676288E-01
         -2   -1    0    0    0  501 -0.00000000000E+00  0.00000000000E+00  0.38867428578E+03  0.38867428578E+03  0.00000000000E+00 0.  1.
          2   -1    0    0  501    0  0.00000000000E+00 -0.00000000000E+00 -0.22193618914E+04  0.22193618914E+04  0.00000000000E+00 0. -1.
         23    2    1    2    0    0  0.55493780834E+03  0.16949766489E+03 -0.12757386390E+04  0.14044787888E+04  0.91466735325E+02 0.  0.
        254    2    1    2    0    0 -0.55493780834E+03 -0.16949766489E+03 -0.55494896663E+03  0.12035573884E+04  0.89660281172E+03 0.  0.
        -24    2    4    4    0    0 -0.28758295886E+03  0.12235261402E+02  0.21407552933E+03  0.36538494278E+03  0.69456204198E+02 0.  0.
         24    2    4    4    0    0 -0.26735484948E+03 -0.18173292630E+03 -0.76902449596E+03  0.83817244559E+03  0.81418063842E+02 0.  0.
         11    1    3    3    0    0 -0.29676106910E+01  0.10811119082E+01 -0.19613188449E+01  0.37178337487E+01  0.00000000000E+00 0.  1.
        -11    1    3    3    0    0  0.55790541903E+03  0.16841655299E+03 -0.12737773202E+04  0.14007609551E+04  0.00000000000E+00 0. -1.
          4    1    6    6  502    0 -0.21921534842E+03 -0.10656845793E+03 -0.54517169422E+03  0.59718035918E+03  0.00000000000E+00 0. -1.
          1    1    5    5  503    0  0.38015390659E+01 -0.21378816617E+01  0.29219698882E+01  0.52497757377E+01  0.00000000000E+00 0. -1.
         -2    1    5    5    0  503 -0.29138449793E+03  0.14373143064E+02  0.21115355944E+03  0.36013516704E+03  0.00000000000E+00 0.  1.
         -3    1    6    6    0  502 -0.48139501060E+02 -0.75164468361E+02 -0.22385280174E+03  0.24099208641E+03  0.00000000000E+00 0.  1.
<mgrwt>
<rscale>  0 0.18575348E+04</rscale>
<asrwt>0</asrwt>
<pdfrwt beam="1">  1        2 0.34144029E+00 0.18575348E+04</pdfrwt>
<pdfrwt beam="2">  1       -2 0.59796043E-01 0.18575348E+04</pdfrwt>
<totfact> 0.12347770E+01</totfact>
</mgrwt>
</event>
<event>
12    1  0.1506149E-007  0.1530793E+04  0.7818608E-02  0.8864230E-01
         -1   -1    0    0    0  501 -0.00000000000E+00  0.00000000000E+00  0.49043645688E+03  0.49043645688E+03  0.00000000000E+00 0.  1.
          1   -1    0    0  501    0  0.00000000000E+00 -0.00000000000E+00 -0.11945106763E+04  0.11945106763E+04  0.00000000000E+00 0. -1.
         23    2    1    2    0    0  0.27142056512E+03  0.41493310783E+03 -0.20520319760E+03  0.54445689258E+03  0.92121378758E+02 0.  0.
        254    2    1    2    0    0 -0.27142056512E+03 -0.41493310783E+03 -0.49887102182E+03  0.11404902406E+04  0.89777897356E+03 0.  0.
        -24    2    4    4    0    0 -0.18231483626E+03 -0.67092990598E+02 -0.69310853948E+03  0.72447987543E+03  0.82045557482E+02 0.  0.
         24    2    4    4    0    0 -0.89105728859E+02 -0.34784011724E+03  0.19423751765E+03  0.41601036518E+03  0.80023950149E+02 0.  0.
         13    1    3    3    0    0  0.24878714121E+03  0.37730665853E+03 -0.15506130146E+03  0.47780682646E+03  0.00000000000E+00 0. -1.
        -13    1    3    3    0    0  0.22633423908E+02  0.37626449303E+02 -0.50141896135E+02  0.66650066114E+02  0.00000000000E+00 0.  1.
          2    1    6    6  502    0 -0.71849782401E+02 -0.31542483142E+03  0.14481500682E+03  0.35443843147E+03  0.00000000000E+00 0. -1.
          3    1    5    5  503    0 -0.15891346741E+03 -0.22591412865E+02 -0.53676446005E+03  0.56024989748E+03  0.00000000000E+00 0. -1.
         -4    1    5    5    0  503 -0.23401368854E+02 -0.44501577732E+02 -0.15634407943E+03  0.16422997795E+03  0.00000000000E+00 0.  1.
         -1    1    6    6    0  502 -0.17255946458E+02 -0.32415285819E+02  0.49422510836E+02  0.61571933706E+02  0.00000000000E+00 0.  1.
<mgrwt>
<rscale>  0 0.15307927E+04</rscale>
<asrwt>0</asrwt>
<pdfrwt beam="1">  1        1 0.18377087E+00 0.15307927E+04</pdfrwt>
<pdfrwt beam="2">  1       -1 0.75451763E-01 0.15307927E+04</pdfrwt>
<totfact> 0.18375329E+01</totfact>
</mgrwt>
</event>
<event>
12    1  0.1506149E-007  0.1648383E+04  0.7818608E-02  0.8791364E-01
          1   -1    0    0  501    0  0.00000000000E+00  0.00000000000E+00  0.13405091330E+04  0.13405091330E+04  0.00000000000E+00 0. -1.
         -1   -1    0    0    0  501 -0.00000000000E+00 -0.00000000000E+00 -0.50674141053E+03  0.50674141053E+03  0.00000000000E+00 0.  1.
         23    2    1    2    0    0 -0.50034382669E+03 -0.30071805148E+03  0.23567090948E+03  0.63581872257E+03  0.89159290080E+02 0.  0.
        254    2    1    2    0    0  0.50034382669E+03  0.30071805148E+03  0.59809681297E+03  0.12114318209E+04  0.87696748383E+03 0.  0.
        -24    2    4    4    0    0  0.25701070297E+03  0.55754277137E+03  0.15424508698E+03  0.63822013170E+03  0.81393773047E+02 0.  0.
         24    2    4    4    0    0  0.24333312372E+03 -0.25682471990E+03  0.44385172599E+03  0.57321168924E+03  0.79983374296E+02 0.  0.
         11    1    3    3    0    0 -0.16399306496E+03 -0.13875356933E+03  0.11390139859E+03  0.24314564968E+03  0.00000000000E+00 0. -1.
        -11    1    3    3    0    0 -0.33635076173E+03 -0.16196448215E+03  0.12176951089E+03  0.39267307289E+03  0.00000000000E+00 0.  1.
          4    1    6    6  502    0  0.13288666520E+02  0.46151725126E+01  0.23027784813E+02  0.26984576124E+02  0.00000000000E+00 0. -1.
          1    1    5    5  503    0  0.89202122806E+02  0.15032049507E+03  0.11291779186E+02  0.17515928245E+03  0.00000000000E+00 0. -1.
         -2    1    5    5    0  503  0.16780858017E+03  0.40722227630E+03  0.14295330779E+03  0.46306084924E+03  0.00000000000E+00 0.  1.
         -3    1    6    6    0  502  0.23004445720E+03 -0.26143989241E+03  0.42082394118E+03  0.54622711311E+03  0.00000000000E+00 0.  1.
<mgrwt>
<rscale>  0 0.16483828E+04</rscale>
<asrwt>0</asrwt>
<pdfrwt beam="1">  1        1 0.20623217E+00 0.16483828E+04</pdfrwt>
<pdfrwt beam="2">  1       -1 0.77960218E-01 0.16483828E+04</pdfrwt>
<totfact> 0.13329943E+01</totfact>
</mgrwt>
</event>
<event>
12    1  0.1506149E-007  0.1781254E+04  0.7818608E-02  0.8716333E-01
         -2   -1    0    0    0  501 -0.00000000000E+00  0.00000000000E+00  0.26314597053E+03  0.26314597053E+03  0.00000000000E+00 0.  1.
          2   -1    0    0  501    0  0.00000000000E+00 -0.00000000000E+00 -0.30143578036E+04  0.30143578036E+04  0.00000000000E+00 0. -1.
         23    2    1    2    0    0  0.12337618966E+03 -0.54229502246E+03 -0.37400773172E+03  0.67647329233E+03  0.91808258341E+02 0.  0.
        254    2    1    2    0    0 -0.12337618966E+03  0.54229502246E+03 -0.23772041014E+04  0.26010304818E+04  0.89719265055E+03 0.  0.
        -24    2    4    4    0    0 -0.17743702626E+03  0.70395370711E+03 -0.11696475405E+04  0.13788837297E+04  0.78805147091E+02 0.  0.
         24    2    4    4    0    0  0.54060836600E+02 -0.16165868465E+03 -0.12075565609E+04  0.12221467521E+04  0.79960811735E+02 0.  0.
         11    1    3    3    0    0  0.69444612099E+02 -0.27646929634E+03 -0.13698958825E+03  0.31626566879E+03  0.00000000000E+00 0. -1.
        -11    1    3    3    0    0  0.53931577558E+02 -0.26582572612E+03 -0.23701814347E+03  0.36020762354E+03  0.00000000000E+00 0.  1.
          4    1    6    6  502    0  0.71341902756E+01 -0.41126003106E+02 -0.12267209344E+03  0.12957888451E+03  0.00000000000E+00 0. -1.
          3    1    5    5  503    0 -0.62401305799E+01  0.15625435442E+03 -0.25523909959E+03  0.29933486344E+03  0.00000000000E+00 0. -1.
         -4    1    5    5    0  503 -0.17119689568E+03  0.54769935269E+03 -0.91440844087E+03  0.10795488663E+04  0.00000000000E+00 0.  1.
         -3    1    6    6    0  502  0.46926646324E+02 -0.12053268155E+03 -0.10848844675E+04  0.10925678676E+04  0.00000000000E+00 0.  1.
<mgrwt>
<rscale>  0 0.17812536E+04</rscale>
<asrwt>0</asrwt>
<pdfrwt beam="1">  1        2 0.46374733E+00 0.17812536E+04</pdfrwt>
<pdfrwt beam="2">  1       -2 0.40483997E-01 0.17812536E+04</pdfrwt>
<totfact> 0.93522524E+00</totfact>
</mgrwt>
</event>
<event>
12    1  0.1506149E-007  0.1434360E+04  0.7818608E-02  0.8929316E-01
         -2   -1    0    0    0  501 -0.00000000000E+00  0.00000000000E+00  0.19899657319E+03  0.19899657319E+03  0.00000000000E+00 0.  1.
          2   -1    0    0  501    0  0.00000000000E+00 -0.00000000000E+00 -0.25847035832E+04  0.25847035832E+04  0.00000000000E+00 0. -1.
         23    2    1    2    0    0 -0.61724308844E+02  0.29970540115E+03 -0.14768451927E+03  0.35158566152E+03  0.90379988800E+02 0.  0.
        254    2    1    2    0    0  0.61724308844E+02 -0.29970540115E+03 -0.22380224907E+04  0.24321144948E+04  0.90155589360E+03 0.  0.
        -24    2    4    4    0    0  0.34944670353E+03  0.16832137597E+03 -0.85883871365E+03  0.94534768548E+03  0.75054821034E+02 0.  0.
         24    2    4    4    0    0 -0.28772239469E+03 -0.46802677712E+03 -0.13791837770E+04  0.14867668093E+04  0.80587927041E+02 0.  0.
         11    1    3    3    0    0 -0.81113645323E+02  0.26604793382E+03 -0.11559800463E+03  0.30120395951E+03  0.00000000000E+00 0.  1.
        -11    1    3    3    0    0  0.19389336478E+02  0.33657467321E+02 -0.32086514644E+02  0.50381702011E+02  0.00000000000E+00 0. -1.
          4    1    6    6  502    0  0.36763177724E+01 -0.55645859396E+00 -0.45991473228E+01  0.59141452998E+01  0.00000000000E+00 0. -1.
          3    1    5    5  503    0  0.21894380233E+03  0.67279364723E+02 -0.46610317550E+03  0.51934099752E+03  0.00000000000E+00 0. -1.
         -4    1    5    5    0  503  0.13050290121E+03  0.10104201125E+03 -0.39273553815E+03  0.42600668796E+03  0.00000000000E+00 0.  1.
         -3    1    6    6    0  502 -0.29139871246E+03 -0.46747031853E+03 -0.13745846297E+04  0.14808526640E+04  0.00000000000E+00 0.  1.
<mgrwt>
<rscale>  0 0.14343600E+04</rscale>
<asrwt>0</asrwt>
<pdfrwt beam="1">  1        2 0.39764669E+00 0.14343600E+04</pdfrwt>
<pdfrwt beam="2">  1       -2 0.30614859E-01 0.14343600E+04</pdfrwt>
<totfact> 0.29900163E+01</totfact>
</mgrwt>
</event>
<event>
12    1  0.1506149E-007  0.1795797E+04  0.7818608E-02  0.8708538E-01
          4   -1    0    0  501    0  0.00000000000E+00  0.00000000000E+00  0.12835836095E+04  0.12835836095E+04  0.00000000000E+00 0. -1.
         -4   -1    0    0    0  501 -0.00000000000E+00 -0.00000000000E+00 -0.62810214850E+03  0.62810214850E+03  0.00000000000E+00 0.  1.
         23    2    1    2    0    0  0.38920715092E+03 -0.51819095299E+03  0.41930641862E+03  0.77752892093E+03  0.93430616542E+02 0.  0.
        254    2    1    2    0    0 -0.38920715092E+03  0.51819095299E+03  0.23617504242E+03  0.11341568371E+04  0.90029384669E+03 0.  0.
        -24    2    4    4    0    0 -0.15656665267E+03  0.12241981623E+03 -0.33447026713E+03  0.39740276524E+03  0.80986851372E+02 0.  0.
         24    2    4    4    0    0 -0.23264049824E+03  0.39577113676E+03  0.57064530954E+03  0.73675407186E+03  0.80088070147E+02 0.  0.
         11    1    3    3    0    0  0.35601715659E+03 -0.50416480795E+03  0.40760984324E+03  0.73964596509E+03  0.00000000000E+00 0. -1.
        -11    1    3    3    0    0  0.33189994329E+02 -0.14026145035E+02  0.11696575386E+02  0.37882955849E+02  0.00000000000E+00 0.  1.
          4    1    6    6  502    0 -0.55341160160E+02  0.41525952472E+02  0.71163864977E+02  0.99253939041E+02  0.00000000000E+00 0. -1.
          3    1    5    5  503    0 -0.14434956048E+02  0.36675495277E+02 -0.11932425896E+03  0.12566518486E+03  0.00000000000E+00 0. -1.
         -4    1    5    5    0  503 -0.14213169662E+03  0.85744320956E+02 -0.21514600817E+03  0.27173758038E+03  0.00000000000E+00 0.  1.
         -3    1    6    6    0  502 -0.17729933808E+03  0.35424518428E+03  0.49948144457E+03  0.63750013282E+03  0.00000000000E+00 0.  1.
<mgrwt>
<rscale>  0 0.17957969E+04</rscale>
<asrwt>0</asrwt>
<pdfrwt beam="1">  1        4 0.19747440E+00 0.17957969E+04</pdfrwt>
<pdfrwt beam="2">  1       -4 0.96631100E-01 0.17957969E+04</pdfrwt>
<totfact> 0.23144935E-01</totfact>
</mgrwt>
</event>
<event>
12    1  0.1506149E-007  0.2399212E+04  0.7818608E-02  0.8439799E-01
          2   -1    0    0  501    0  0.00000000000E+00  0.00000000000E+00  0.70160300053E+03  0.70160300053E+03  0.00000000000E+00 0. -1.
         -2   -1    0    0    0  501 -0.00000000000E+00 -0.00000000000E+00 -0.20510945129E+04  0.20510945129E+04  0.00000000000E+00 0.  1.
         23    2    1    2    0    0 -0.58154089735E+03 -0.65542165170E+03 -0.12067554136E+04  0.14941380454E+04  0.91774253101E+02 0.  0.
        254    2    1    2    0    0  0.58154089735E+03  0.65542165170E+03 -0.14273609880E+03  0.12585594681E+04  0.89209359600E+03 0.  0.
        -24    2    4    4    0    0  0.40237625927E+03  0.66315454184E+02  0.28549866112E+03  0.50430073947E+03  0.80655792368E+02 0.  0.
         24    2    4    4    0    0  0.17916463809E+03  0.58910619752E+03 -0.42823475993E+03  0.75425872863E+03  0.79844477611E+02 0.  0.
         11    1    3    3    0    0 -0.17773835712E+02 -0.78353556017E+01 -0.11882672974E+02  0.22770593983E+02  0.00000000000E+00 0. -1.
        -11    1    3    3    0    0 -0.56376706164E+03 -0.64758629610E+03 -0.11948727406E+04  0.14713674514E+04  0.00000000000E+00 0.  1.
          4    1    6    6  502    0  0.87300012311E+02  0.17088211409E+03 -0.11483433358E+03  0.22362672745E+03  0.00000000000E+00 0. -1.
          3    1    5    5  503    0  0.21138409413E+03  0.34493160392E+02  0.19853474568E+03  0.29204290542E+03  0.00000000000E+00 0. -1.
         -4    1    5    5    0  503  0.19099216514E+03  0.31822293792E+02  0.86963915445E+02  0.21225783406E+03  0.00000000000E+00 0.  1.
         -3    1    6    6    0  502  0.91864625775E+02  0.41822408343E+03 -0.31340042635E+03  0.53063200117E+03  0.00000000000E+00 0.  1.
<mgrwt>
<rscale>  0 0.23992116E+04</rscale>
<asrwt>0</asrwt>
<pdfrwt beam="1">  1        2 0.10793892E+00 0.23992116E+04</pdfrwt>
<pdfrwt beam="2">  1       -2 0.31555300E+00 0.23992116E+04</pdfrwt>
<totfact> 0.93750887E-01</totfact>
</mgrwt>
</event>
<event>
12    1  0.1506149E-007  0.1265973E+04  0.7818608E-02  0.9056993E-01
          2   -1    0    0  501    0  0.00000000000E+00  0.00000000000E+00  0.26024792162E+04  0.26024792162E+04  0.00000000000E+00 0. -1.
         -2   -1    0    0    0  501 -0.00000000000E+00 -0.00000000000E+00 -0.15395777329E+03  0.15395777329E+03  0.00000000000E+00 0.  1.
         23    2    1    2    0    0 -0.37650155518E+02 -0.12980833309E+03  0.17854050387E+02  0.17026596850E+03  0.10199997728E+03 0.  0.
        254    2    1    2    0    0  0.37650155518E+02  0.12980833309E+03  0.24306673925E+04  0.25861710210E+04  0.87285098337E+03 0.  0.
        -24    2    4    4    0    0  0.40095618043E+03  0.22008542065E+03  0.96866173833E+03  0.10746705442E+04  0.86068369550E+02 0.  0.
         24    2    4    4    0    0 -0.36330602492E+03 -0.90277087557E+02  0.14620056542E+04  0.15115004768E+04  0.83856652647E+02 0.  0.
         11    1    3    3    0    0 -0.60328604891E+02 -0.13173386429E+03  0.70249533408E+01  0.14506102694E+03  0.00000000000E+00 0.  1.
        -11    1    3    3    0    0  0.22678449373E+02  0.19255311948E+01  0.10829097047E+02  0.25204941563E+02  0.00000000000E+00 0. -1.
          2    1    6    6  502    0 -0.85303972364E+02 -0.44648706633E+02  0.49573963467E+03  0.50500302978E+03  0.00000000000E+00 0. -1.
          1    1    5    5  503    0  0.11151598729E+03  0.83841222798E+02  0.37827371378E+03  0.40318254997E+03  0.00000000000E+00 0. -1.
         -2    1    5    5    0  503  0.28944019314E+03  0.13624419785E+03  0.59038802456E+03  0.67148799423E+03  0.00000000000E+00 0.  1.
         -1    1    6    6    0  502 -0.27800205255E+03 -0.45628380924E+02  0.96626601950E+03  0.10064974470E+04  0.00000000000E+00 0.  1.
<mgrwt>
<rscale>  0 0.12659730E+04</rscale>
<asrwt>0</asrwt>
<pdfrwt beam="1">  1        2 0.40038139E+00 0.12659730E+04</pdfrwt>
<pdfrwt beam="2">  1       -2 0.23685813E-01 0.12659730E+04</pdfrwt>
<totfact> 0.47439619E+01</totfact>
</mgrwt>
</event>
<event>
12    1  0.1506149E-007  0.1710408E+04  0.7818608E-02  0.8755451E-01
         -2   -1    0    0    0  501 -0.00000000000E+00  0.00000000000E+00  0.81333279699E+03  0.81333279699E+03  0.00000000000E+00 0.  1.
          2   -1    0    0  501    0  0.00000000000E+00 -0.00000000000E+00 -0.89923054631E+03  0.89923054631E+03  0.00000000000E+00 0. -1.
         23    2    1    2    0    0  0.29731160163E+03  0.29570728640E+03 -0.48365579894E+03  0.64663341176E+03  0.91514204739E+02 0.  0.
        254    2    1    2    0    0 -0.29731160163E+03 -0.29570728640E+03  0.39775804961E+03  0.10659299315E+04  0.89563282948E+03 0.  0.
        -24    2    4    4    0    0  0.30274447915E+03 -0.16440919457E+03  0.23904269816E+03  0.42656209864E+03  0.78289268342E+02 0.  0.
         24    2    4    4    0    0 -0.60005608078E+03 -0.13129809182E+03  0.15871535145E+03  0.63936783290E+03  0.79335830327E+02 0.  0.
         13    1    3    3    0    0 -0.67854136460E+01  0.88587533220E+01 -0.12758421947E+02  0.16949828298E+02  0.00000000000E+00 0.  1.
        -13    1    3    3    0    0  0.30409701527E+03  0.28684853308E+03 -0.47089737699E+03  0.62968358346E+03  0.00000000000E+00 0. -1.
          4    1    6    6  502    0 -0.36651908353E+03 -0.41346945911E+02  0.10345643251E+03  0.38307837574E+03  0.00000000000E+00 0. -1.
          3    1    5    5  503    0  0.10562320894E+03 -0.91823663964E+02  0.67636536634E+02  0.15544307196E+03  0.00000000000E+00 0. -1.
         -4    1    5    5    0  503  0.19712127020E+03 -0.72585530610E+02  0.17140616153E+03  0.27111902668E+03  0.00000000000E+00 0.  1.
         -3    1    6    6    0  502 -0.23353699724E+03 -0.89951145913E+02  0.55258918942E+02  0.25628945717E+03  0.00000000000E+00 0.  1.
<mgrwt>
<rscale>  0 0.17104078E+04</rscale>
<asrwt>0</asrwt>
<pdfrwt beam="1">  1        2 0.13834316E+00 0.17104078E+04</pdfrwt>
<pdfrwt beam="2">  1       -2 0.12512812E+00 0.17104078E+04</pdfrwt>
<totfact> 0.13348159E+01</totfact>
</mgrwt>
</event>
<event>
12    1  0.1506149E-007  0.2884269E+04  0.7818608E-02  0.8277573E-01
         -2   -1    0    0    0  501 -0.00000000000E+00  0.00000000000E+00  0.20972156067E+04  0.20972156067E+04  0.00000000000E+00 0.  1.
          2   -1    0    0  501    0  0.00000000000E+00 -0.00000000000E+00 -0.99167280799E+03  0.99167280799E+03  0.00000000000E+00 0. -1.
         23    2    1    2    0    0 -0.12318670726E+04 -0.90793171199E+02  0.93133141306E+03  0.15497116090E+04  0.92130264619E+02 0.  0.
        254    2    1    2    0    0  0.12318670726E+04  0.90793171199E+02  0.17421138566E+03  0.15391768057E+04  0.90165167752E+03 0.  0.
        -24    2    4    4    0    0  0.99892594322E+03  0.42182214493E+03 -0.99686506634E+01  0.10875181754E+04  0.82519365937E+02 0.  0.
         24    2    4    4    0    0  0.23294112942E+03 -0.33102897373E+03  0.18418003633E+03  0.45165863029E+03  0.78939732154E+02 0.  0.
         13    1    3    3    0    0 -0.10845739221E+04 -0.10977463498E+03  0.82198072988E+03  0.13652850923E+04  0.00000000000E+00 0.  1.
        -13    1    3    3    0    0 -0.14729315051E+03  0.18981463778E+02  0.10935068318E+03  0.18442651671E+03  0.00000000000E+00 0. -1.
          2    1    6    6  502    0  0.83131340416E+02 -0.15360610065E+03  0.11590830362E+03  0.20961962876E+03  0.00000000000E+00 0. -1.
          1    1    5    5  503    0  0.48002440075E+02  0.68148285138E+01 -0.12126262643E+02  0.49977218675E+02  0.00000000000E+00 0. -1.
         -2    1    5    5    0  503  0.95092350315E+03  0.41500731641E+03  0.21576119792E+01  0.10375409567E+04  0.00000000000E+00 0.  1.
         -1    1    6    6    0  502  0.14980978901E+03 -0.17742287308E+03  0.68271732710E+02  0.24203900153E+03  0.00000000000E+00 0.  1.
<mgrwt>
<rscale>  0 0.28842688E+04</rscale>
<asrwt>0</asrwt>
<pdfrwt beam="1">  1        2 0.15256505E+00 0.28842688E+04</pdfrwt>
<pdfrwt beam="2">  1       -2 0.32264855E+00 0.28842688E+04</pdfrwt>
<totfact> 0.50811208E-01</totfact>
</mgrwt>
</event>
<event>
12    1  0.1506149E-007  0.1895100E+04  0.7818608E-02  0.8657299E-01
          2   -1    0    0  501    0  0.00000000000E+00  0.00000000000E+00  0.23539053045E+04  0.23539053045E+04  0.00000000000E+00 0.  1.
         -2   -1    0    0    0  501 -0.00000000000E+00 -0.00000000000E+00 -0.38143040794E+03  0.38143040794E+03  0.00000000000E+00 0. -1.
         23    2    1    2    0    0  0.59104113393E+03  0.70081888080E+02  0.14841909777E+03  0.62026032900E+03  0.91943211374E+02 0.  0.
        254    2    1    2    0    0 -0.59104113393E+03 -0.70081888080E+02  0.18240557988E+04  0.21150753835E+04  0.89001304907E+03 0.  0.
        -24    2    4    4    0    0 -0.22001559207E+03  0.23595086677E+03  0.14841849518E+04  0.15209371051E+04  0.79781163844E+02 0.  0.
         24    2    4    4    0    0 -0.37102554186E+03 -0.30603275484E+03  0.33987084698E+03  0.59413827838E+03  0.78562723044E+02 0.  0.
         11    1    3    3    0    0  0.38375305599E+03  0.19218771298E+02  0.58527107675E+02  0.38866591243E+03  0.00000000000E+00 0. -1.
        -11    1    3    3    0    0  0.20728807794E+03  0.50863116782E+02  0.89891990091E+02  0.23159441657E+03  0.00000000000E+00 0.  1.
          2    1    6    6  502    0 -0.16318037504E+03 -0.18545707115E+03  0.17008945226E+03  0.29992095927E+03  0.00000000000E+00 0. -1.
          3    1    5    5  503    0 -0.18241805009E+03  0.14218417356E+03  0.10245759688E+04  0.10503564158E+04  0.00000000000E+00 0. -1.
         -2    1    5    5    0  503 -0.37597541979E+02  0.93766693209E+02  0.45960898300E+03  0.47058068934E+03  0.00000000000E+00 0.  1.
         -1    1    6    6    0  502 -0.20784516682E+03 -0.12057568369E+03  0.16978139472E+03  0.29421731911E+03  0.00000000000E+00 0.  1.
<mgrwt>
<rscale>  0 0.18951001E+04</rscale>
<asrwt>0</asrwt>
<pdfrwt beam="1">  1        2 0.36213927E+00 0.18951001E+04</pdfrwt>
<pdfrwt beam="2">  1       -2 0.58681602E-01 0.18951001E+04</pdfrwt>
<totfact> 0.10748148E+01</totfact>
</mgrwt>
</event>
<event>
12    1  0.1506149E-007  0.1817692E+04  0.7818608E-02  0.8696947E-01
         -1   -1    0    0    0  501 -0.00000000000E+00  0.00000000000E+00  0.20432189020E+03  0.20432189020E+03  0.00000000000E+00 0.  1.
          1   -1    0    0  501    0  0.00000000000E+00 -0.00000000000E+00 -0.40426463070E+04  0.40426463070E+04  0.00000000000E+00 0. -1.
         23    2    1    2    0    0  0.33861636595E+03 -0.50069166115E+03 -0.72143088104E+03  0.94540254813E+03  0.89276419316E+02 0.  0.
        254    2    1    2    0    0 -0.33861636595E+03  0.50069166115E+03 -0.31168935357E+04  0.33015656491E+04  0.90551490274E+03 0.  0.
        -24    2    4    4    0    0 -0.29728740068E+03  0.30466098252E+03 -0.44507672893E+03  0.62108428702E+03  0.80338559028E+02 0.  0.
         24    2    4    4    0    0 -0.41328965272E+02  0.19603067864E+03 -0.26718168068E+04  0.26804813620E+04  0.78988434628E+02 0.  0.
         11    1    3    3    0    0  0.19829576594E+03 -0.29135284334E+03 -0.35125016736E+03  0.49757850656E+03  0.00000000000E+00 0.  1.
        -11    1    3    3    0    0  0.14032060002E+03 -0.20933881781E+03 -0.37018071368E+03  0.44782404157E+03  0.00000000000E+00 0. -1.
          4    1    6    6  502    0 -0.14584262314E+02  0.18364537223E+03 -0.24037651448E+04  0.24108142183E+04  0.00000000000E+00 0. -1.
          1    1    5    5  503    0 -0.22994517447E+03  0.18235851368E+03 -0.30759894695E+03  0.42514294413E+03  0.00000000000E+00 0. -1.
         -2    1    5    5    0  503 -0.67342226209E+02  0.12230246884E+03 -0.13747778198E+03  0.19594134289E+03  0.00000000000E+00 0.  1.
         -1    1    6    6    0  502 -0.26744702958E+02  0.12385306403E+02 -0.26805166197E+03  0.26966714378E+03  0.00000000000E+00 0.  1.
<mgrwt>
<rscale>  0 0.18176921E+04</rscale>
<asrwt>0</asrwt>
<pdfrwt beam="1">  1        1 0.62194556E+00 0.18176921E+04</pdfrwt>
<pdfrwt beam="2">  1       -1 0.31434139E-01 0.18176921E+04</pdfrwt>
<totfact> 0.78801603E-01</totfact>
</mgrwt>
</event>
<event>
12    1  0.1506149E-007  0.1703996E+04  0.7818608E-02  0.8759089E-01
          2   -1    0    0  501    0  0.00000000000E+00  0.00000000000E+00  0.45836830585E+03  0.45836830585E+03  0.00000000000E+00 0. -1.
         -2   -1    0    0    0  501 -0.00000000000E+00 -0.00000000000E+00 -0.15836622637E+04  0.15836622637E+04  0.00000000000E+00 0.  1.
         23    2    1    2    0    0 -0.20359534489E+03 -0.13770953826E+03 -0.10045327598E+04  0.10384936007E+04  0.94699058809E+02 0.  0.
        254    2    1    2    0    0  0.20359534489E+03  0.13770953826E+03 -0.12076119799E+03  0.10035369688E+04  0.96544715000E+03 0.  0.
        -24    2    4    4    0    0 -0.94994492600E+02  0.28821923385E+03  0.31759243039E+03  0.44647808892E+03  0.79896505918E+02 0.  0.
         24    2    4    4    0    0  0.29858983749E+03 -0.15050969559E+03 -0.43835362838E+03  0.55705887989E+03  0.79697130608E+02 0.  0.
         13    1    3    3    0    0 -0.49922709783E+02 -0.36280764131E+02 -0.11932933346E+03  0.13434307062E+03  0.00000000000E+00 0. -1.
        -13    1    3    3    0    0 -0.15367263510E+03 -0.10142877413E+03 -0.88520342636E+03  0.90415053008E+03  0.00000000000E+00 0.  1.
          2    1    6    6  502    0  0.19540677230E+02  0.34734879356E+01 -0.76825468140E+01  0.21282027878E+02  0.00000000000E+00 0. -1.
          3    1    5    5  503    0  0.48489071892E+01 -0.26553988881E+01  0.10530571335E+02  0.11893526677E+02  0.00000000000E+00 0. -1.
         -4    1    5    5    0  503 -0.99843399789E+02  0.29087463274E+03  0.30706185906E+03  0.43458456225E+03  0.00000000000E+00 0.  1.
         -1    1    6    6    0  502  0.27904916026E+03 -0.15398318352E+03 -0.43067108157E+03  0.53577685201E+03  0.00000000000E+00 0.  1.
<mgrwt>
<rscale>  0 0.17039960E+04</rscale>
<asrwt>0</asrwt>
<pdfrwt beam="1">  1        2 0.70518201E-01 0.17039960E+04</pdfrwt>
<pdfrwt beam="2">  1       -2 0.24364035E+00 0.17039960E+04</pdfrwt>
<totfact> 0.45551075E+00</totfact>
</mgrwt>
</event>
<event>
12    1  0.1506149E-007  0.2837509E+04  0.7818608E-02  0.8291717E-01
         -1   -1    0    0    0  501 -0.00000000000E+00  0.00000000000E+00  0.11501944046E+04  0.11501944046E+04  0.00000000000E+00 0.  1.
          1   -1    0    0  501    0  0.00000000000E+00 -0.00000000000E+00 -0.17500209450E+04  0.17500209450E+04  0.00000000000E+00 0. -1.
         23    2    1    2    0    0  0.10645724234E+04 -0.20151616500E+03  0.41923018787E+03  0.11653874293E+04  0.91927692124E+02 0.  0.
        254    2    1    2    0    0 -0.10645724234E+04  0.20151616500E+03 -0.10190567282E+04  0.17348279202E+04  0.89287630057E+03 0.  0.
        -24    2    4    4    0    0 -0.23530546760E+03  0.17532793662E+03 -0.82414814524E+03  0.87880238246E+03  0.83456058341E+02 0.  0.
         24    2    4    4    0    0 -0.82926695578E+03  0.26188228384E+02 -0.19490858300E+03  0.85602553779E+03  0.80130258693E+02 0.  0.
         13    1    3    3    0    0  0.16614665580E+03 -0.10418071665E+01  0.49238281491E+02  0.17329225303E+03  0.00000000000E+00 0. -1.
        -13    1    3    3    0    0  0.89842576758E+03 -0.20047435783E+03  0.36999190638E+03  0.99209517627E+03  0.00000000000E+00 0.  1.
          2    1    6    6  502    0 -0.31995045180E+03  0.42541309992E+02 -0.97977974116E+02  0.33730955823E+03  0.00000000000E+00 0. -1.
          1    1    5    5  503    0 -0.18871586788E+03  0.15930719069E+03 -0.75136847811E+03  0.79091532397E+03  0.00000000000E+00 0. -1.
         -2    1    5    5    0  503 -0.46589599723E+02  0.16020745925E+02 -0.72779667132E+02  0.87887058491E+02  0.00000000000E+00 0.  1.
         -3    1    6    6    0  502 -0.50931650398E+03 -0.16353081608E+02 -0.96930608881E+02  0.51871597955E+03  0.00000000000E+00 0.  1.
<mgrwt>
<rscale>  0 0.28375090E+04</rscale>
<asrwt>0</asrwt>
<pdfrwt beam="1">  1        1 0.26923399E+00 0.28375090E+04</pdfrwt>
<pdfrwt beam="2">  1       -1 0.17695299E+00 0.28375090E+04</pdfrwt>
<totfact> 0.83239115E-01</totfact>
</mgrwt>
</event>
<event>
12    1  0.1506149E-007  0.1497124E+04  0.7818608E-02  0.8886368E-01
          2   -1    0    0  501    0  0.00000000000E+00  0.00000000000E+00  0.15514230959E+04  0.15514230959E+04  0.00000000000E+00 0. -1.
         -2   -1    0    0    0  501 -0.00000000000E+00 -0.00000000000E+00 -0.36118125296E+03  0.36118125296E+03  0.00000000000E+00 0.  1.
         23    2    1    2    0    0  0.34067029743E+01  0.34291756604E+03 -0.41723688844E+02  0.35691322081E+03  0.89677858188E+02 0.  0.
        254    2    1    2    0    0 -0.34067029743E+01 -0.34291756604E+03  0.12319655318E+04  0.15556911280E+04  0.88590730421E+03 0.  0.
        -24    2    4    4    0    0  0.32021677616E+03 -0.48220952119E+03  0.69166837411E+03  0.90542097434E+03  0.79480783636E+02 0.  0.
         24    2    4    4    0    0 -0.32362347914E+03  0.13929195515E+03  0.54029715765E+03  0.65027015369E+03  0.82436940752E+02 0.  0.
         11    1    3    3    0    0 -0.18880022089E+02  0.15104545791E+03 -0.58385334525E+02  0.16303383967E+03  0.00000000000E+00 0. -1.
        -11    1    3    3    0    0  0.22286725064E+02  0.19187210814E+03  0.16661645681E+02  0.19387938114E+03  0.00000000000E+00 0.  1.
          2    1    6    6  502    0 -0.35536859556E+02  0.47429377586E+02  0.80758291352E+02  0.10017143239E+03  0.00000000000E+00 0. -1.
          3    1    5    5  503    0  0.14730643265E+03 -0.27160860707E+03  0.32310023467E+03  0.44706172077E+03  0.00000000000E+00 0. -1.
         -4    1    5    5    0  503  0.17291034351E+03 -0.21060091412E+03  0.36856813944E+03  0.45835925357E+03  0.00000000000E+00 0.  1.
         -1    1    6    6    0  502 -0.28808661958E+03  0.91862577559E+02  0.45953886630E+03  0.55009872130E+03  0.00000000000E+00 0.  1.
<mgrwt>
<rscale>  0 0.14971238E+04</rscale>
<asrwt>0</asrwt>
<pdfrwt beam="1">  1        2 0.23868047E+00 0.14971238E+04</pdfrwt>
<pdfrwt beam="2">  1       -2 0.55566347E-01 0.14971238E+04</pdfrwt>
<totfact> 0.34917016E+01</totfact>
</mgrwt>
</event>
<event>
12    1  0.1506149E-007  0.2727941E+04  0.7818608E-02  0.8325996E-01
          1   -1    0    0  501    0  0.00000000000E+00  0.00000000000E+00  0.77601903223E+03  0.77601903223E+03  0.00000000000E+00 0. -1.
         -1   -1    0    0    0  501 -0.00000000000E+00 -0.00000000000E+00 -0.23973846266E+04  0.23973846266E+04  0.00000000000E+00 0.  1.
         23    2    1    2    0    0 -0.10022714064E+04 -0.51470841643E+03 -0.12479410835E+04  0.16838047273E+04  0.91480520773E+02 0.  0.
        254    2    1    2    0    0  0.10022714064E+04  0.51470841643E+03 -0.37342451084E+03  0.14895989316E+04  0.89999243646E+03 0.  0.
        -24    2    4    4    0    0 -0.12612580256E+03  0.20957781436E+03 -0.14596704642E+03  0.29604844536E+03  0.80670471769E+02 0.  0.
         24    2    4    4    0    0  0.11283972089E+04  0.30513060207E+03 -0.22745746442E+03  0.11935504862E+04  0.80255339998E+02 0.  0.
         13    1    3    3    0    0 -0.63463366934E+03 -0.35620426048E+03 -0.75294446524E+03  0.10471708252E+04  0.00000000000E+00 0.  1.
        -13    1    3    3    0    0 -0.36763773701E+03 -0.15850415595E+03 -0.49499661829E+03  0.63663390205E+03  0.00000000000E+00 0. -1.
          4    1    6    6  502    0  0.62867374402E+02  0.35784675909E+02 -0.20521495427E+02  0.75192962229E+02  0.00000000000E+00 0. -1.
          3    1    5    5  503    0 -0.17030494136E+02  0.29856896951E+02  0.82035463818E+01  0.35337942771E+02  0.00000000000E+00 0. -1.
         -4    1    5    5    0  503 -0.10909530842E+03  0.17972091741E+03 -0.15417059280E+03  0.26071050259E+03  0.00000000000E+00 0.  1.
         -3    1    6    6    0  502  0.10655298345E+04  0.26934592616E+03 -0.20693596899E+03  0.11183575240E+04  0.00000000000E+00 0.  1.
<mgrwt>
<rscale>  0 0.27279414E+04</rscale>
<asrwt>0</asrwt>
<pdfrwt beam="1">  1        1 0.11938754E+00 0.27279414E+04</pdfrwt>
<pdfrwt beam="2">  1       -1 0.36882841E+00 0.27279414E+04</pdfrwt>
<totfact> 0.23521499E-01</totfact>
</mgrwt>
</event>
<event>
12    1  0.2084153E-007  0.1447862E+04  0.7818608E-02  0.8919884E-01
          2   -1    0    0  501    0  0.00000000000E+00  0.00000000000E+00  0.19074503286E+04  0.19074503286E+04  0.00000000000E+00 0.  1.
         -2   -1    0    0    0  501 -0.00000000000E+00 -0.00000000000E+00 -0.27475233708E+03  0.27475233708E+03  0.00000000000E+00 0. -1.
         23    2    1    2    0    0 -0.23197031502E+03 -0.27138034199E+03  0.87197437413E+03  0.94674078917E+03  0.92310864386E+02 0.  0.
        254    2    1    2    0    0  0.23197031502E+03  0.27138034199E+03  0.76072361744E+03  0.12354618765E+04  0.90565341561E+03 0.  0.
        -24    2    4    4    0    0  0.33207342619E+03 -0.56578751646E+02  0.80910823875E+03  0.87995544533E+03  0.78686264559E+02 0.  0.
         24    2    4    4    0    0 -0.10010311117E+03  0.32795909364E+03 -0.48384621311E+02  0.35550643122E+03  0.80411137867E+02 0.  0.
         13    1    3    3    0    0  0.64430003024E+01 -0.19340287403E+02  0.70748455750E+02  0.73626781546E+02  0.00000000000E+00 0. -1.
        -13    1    3    3    0    0 -0.23841331532E+03 -0.25204005459E+03  0.80122591837E+03  0.87311400763E+03  0.00000000000E+00 0.  1.
          2    1    6    6  502    0 -0.76538944007E+02  0.26847111943E+03 -0.70279915955E+02  0.28787882608E+03  0.00000000000E+00 0. -1.
          1    1    5    5  503    0  0.14916352008E+03 -0.55931956575E+01  0.44404127238E+03  0.46845884679E+03  0.00000000000E+00 0. -1.
         -2    1    5    5    0  503  0.18290990612E+03 -0.50985555988E+02  0.36506696638E+03  0.41149659854E+03  0.00000000000E+00 0.  1.
         -1    1    6    6    0  502 -0.23564167165E+02  0.59487974202E+02  0.21895294644E+02  0.67627605136E+02  0.00000000000E+00 0.  1.
<mgrwt>
<rscale>  0 0.14478625E+04</rscale>
<asrwt>0</asrwt>
<pdfrwt beam="1">  1        2 0.29345389E+00 0.14478625E+04</pdfrwt>
<pdfrwt beam="2">  1       -2 0.42269591E-01 0.14478625E+04</pdfrwt>
<totfact> 0.38709633E+01</totfact>
</mgrwt>
</event>
<event>
12    1  0.1506149E-007  0.2281910E+04  0.7818608E-02  0.8485088E-01
         -1   -1    0    0    0  501 -0.00000000000E+00  0.00000000000E+00  0.79402972879E+03  0.79402972879E+03  0.00000000000E+00 0. -1.
          1   -1    0    0  501    0  0.00000000000E+00 -0.00000000000E+00 -0.16394577647E+04  0.16394577647E+04  0.00000000000E+00 0.  1.
         23    2    1    2    0    0  0.53342099836E+03  0.58808950044E+03 -0.92957459167E+03  0.12258677398E+04  0.90860177783E+02 0.  0.
        254    2    1    2    0    0 -0.53342099836E+03 -0.58808950044E+03  0.84146555759E+02  0.12076197537E+04  0.90602296036E+03 0.  0.
        -24    2    4    4    0    0 -0.52182019039E+03  0.77120671704E+02  0.11342741629E+02  0.53385295089E+03  0.81402741245E+02 0.  0.
         24    2    4    4    0    0 -0.11600807977E+02 -0.66521017215E+03  0.72803814130E+02  0.67376680283E+03  0.77602560365E+02 0.  0.
         13    1    3    3    0    0  0.53485758939E+02  0.45849752294E+02 -0.49107635942E+02  0.85874828107E+02  0.00000000000E+00 0. -1.
        -13    1    3    3    0    0  0.47993523943E+03  0.54223974815E+03 -0.88046695573E+03  0.11399929117E+04  0.00000000000E+00 0.  1.
          4    1    6    6  502    0  0.22856296759E+02 -0.14916261528E+03  0.36755722235E+02  0.15531541847E+03  0.00000000000E+00 0. -1.
          3    1    5    5  503    0 -0.28969534278E+03  0.26710633819E+02  0.43472805080E+02  0.29415426968E+03  0.00000000000E+00 0. -1.
         -4    1    5    5    0  503 -0.23212484760E+03  0.50410037885E+02 -0.32130063450E+02  0.23969868120E+03  0.00000000000E+00 0.  1.
         -3    1    6    6    0  502 -0.34457104736E+02 -0.51604755687E+03  0.36048091895E+02  0.51845138436E+03  0.00000000000E+00 0.  1.
<mgrwt>
<rscale>  0 0.22819099E+04</rscale>
<asrwt>0</asrwt>
<pdfrwt beam="1">  1        1 0.25222427E+00 0.22819099E+04</pdfrwt>
<pdfrwt beam="2">  1       -1 0.12215842E+00 0.22819099E+04</pdfrwt>
<totfact> 0.28120172E+00</totfact>
</mgrwt>
</event>
<event>
12    1  0.1506149E-007  0.1655703E+04  0.7818608E-02  0.8787040E-01
         -1   -1    0    0    0  501 -0.00000000000E+00  0.00000000000E+00  0.13543136186E+04  0.13543136186E+04  0.00000000000E+00 0.  1.
          1   -1    0    0  501    0  0.00000000000E+00 -0.00000000000E+00 -0.50604089694E+03  0.50604089694E+03  0.00000000000E+00 0. -1.
         23    2    1    2    0    0  0.49309330564E+03 -0.13950965797E+03  0.58289975258E+03  0.78156758845E+03  0.92042495785E+02 0.  0.
        254    2    1    2    0    0 -0.49309330564E+03  0.13950965797E+03  0.26537296909E+03  0.10787869271E+04  0.91145733231E+03 0.  0.
        -24    2    4    4    0    0 -0.54147025972E+03  0.20184042449E+03  0.53182659318E+03  0.78963352952E+03  0.82170472850E+02 0.  0.
         24    2    4    4    0    0  0.48376954080E+02 -0.62330766516E+02 -0.26645362409E+03  0.28915339758E+03  0.79916828011E+02 0.  0.
         11    1    3    3    0    0  0.64919144351E+02 -0.50928480232E+02  0.76442060805E+02  0.11247930504E+03  0.00000000000E+00 0. -1.
        -11    1    3    3    0    0  0.42817416129E+03 -0.88581177738E+02  0.50645769178E+03  0.66908828342E+03  0.00000000000E+00 0.  1.
          4    1    6    6  502    0  0.26828624884E+02 -0.77948473043E+02 -0.22751441511E+03  0.24198873661E+03  0.00000000000E+00 0. -1.
          1    1    5    5  503    0 -0.31788531961E+03  0.94276639736E+02  0.25803211829E+03  0.42014251784E+03  0.00000000000E+00 0. -1.
         -2    1    5    5    0  503 -0.22358494011E+03  0.10756378475E+03  0.27379447490E+03  0.36949101168E+03  0.00000000000E+00 0.  1.
         -3    1    6    6    0  502  0.21548329196E+02  0.15617706526E+02 -0.38939208983E+02  0.47164660971E+02  0.00000000000E+00 0.  1.
<mgrwt>
<rscale>  0 0.16557030E+04</rscale>
<asrwt>0</asrwt>
<pdfrwt beam="1">  1        1 0.77852446E-01 0.16557030E+04</pdfrwt>
<pdfrwt beam="2">  1       -1 0.20835594E+00 0.16557030E+04</pdfrwt>
<totfact> 0.54911673E+00</totfact>
</mgrwt>
</event>
<event>
12    1  0.1506149E-007  0.2403349E+04  0.7818608E-02  0.8438251E-01
         -2   -1    0    0    0  501 -0.00000000000E+00  0.00000000000E+00  0.10592022698E+04  0.10592022698E+04  0.00000000000E+00 0. -1.
          2   -1    0    0  501    0  0.00000000000E+00 -0.00000000000E+00 -0.13633105428E+04  0.13633105428E+04  0.00000000000E+00 0.  1.
         23    2    1    2    0    0 -0.61475464713E+03 -0.60006033725E+03  0.43923352692E+03  0.96916704263E+03  0.91449334854E+02 0.  0.
        254    2    1    2    0    0  0.61475464713E+03  0.60006033725E+03 -0.74334179994E+03  0.14533457700E+04  0.90645530018E+03 0.  0.
        -24    2    4    4    0    0  0.11822521250E+03  0.59206419821E+03 -0.72868691698E+03  0.94936431209E+03  0.76097033018E+02 0.  0.
         24    2    4    4    0    0  0.49652943462E+03  0.79961390419E+01 -0.14654882966E+02  0.50398145794E+03  0.84717924111E+02 0.  0.
         11    1    3    3    0    0 -0.19898276668E+03 -0.15361691137E+03  0.95346222026E+02  0.26885534949E+03  0.00000000000E+00 0.  1.
        -11    1    3    3    0    0 -0.41577188044E+03 -0.44644342588E+03  0.34388730489E+03  0.70031169314E+03  0.00000000000E+00 0. -1.
          2    1    6    6  502    0  0.44262627286E+03  0.31190484760E+02 -0.24857349498E+02  0.44441956707E+03  0.00000000000E+00 0. -1.
          3    1    5    5  503    0  0.55078184110E+02  0.43605930721E+03 -0.54699023862E+03  0.70169768912E+03  0.00000000000E+00 0. -1.
         -4    1    5    5    0  503  0.63147028393E+02  0.15600489100E+03 -0.18169667836E+03  0.24766662298E+03  0.00000000000E+00 0.  1.
         -1    1    6    6    0  502  0.53903161762E+02 -0.23194345718E+02  0.10202466532E+02  0.59561890875E+02  0.00000000000E+00 0.  1.
<mgrwt>
<rscale>  0 0.24033490E+04</rscale>
<asrwt>0</asrwt>
<pdfrwt beam="1">  1        2 0.20974008E+00 0.24033490E+04</pdfrwt>
<pdfrwt beam="2">  1       -2 0.16295420E+00 0.24033490E+04</pdfrwt>
<totfact> 0.32724257E+00</totfact>
</mgrwt>
</event>
<event>
12    1  0.1506149E-007  0.1956424E+04  0.7818608E-02  0.8627269E-01
          2   -1    0    0  501    0  0.00000000000E+00  0.00000000000E+00  0.26701991514E+04  0.26701991514E+04  0.00000000000E+00 0. -1.
         -2   -1    0    0    0  501 -0.00000000000E+00 -0.00000000000E+00 -0.35836223237E+03  0.35836223237E+03  0.00000000000E+00 0.  1.
         23    2    1    2    0    0  0.59475622673E+03 -0.46672078049E+03  0.55998023981E+03  0.94526008851E+03  0.91517811294E+02 0.  0.
        254    2    1    2    0    0 -0.59475622673E+03  0.46672078049E+03  0.17518566793E+04  0.20833012953E+04  0.83640851627E+03 0.  0.
        -24    2    4    4    0    0 -0.26740152924E+03  0.80636059205E+02  0.14699593474E+04  0.14983586070E+04  0.79323895087E+02 0.  0.
         24    2    4    4    0    0 -0.32735469749E+03  0.38608472129E+03  0.28189733189E+03  0.58494268829E+03  0.80432163260E+02 0.  0.
         13    1    3    3    0    0  0.12817653133E+03 -0.10834688890E+03  0.17322144363E+03  0.24119274461E+03  0.00000000000E+00 0.  1.
        -13    1    3    3    0    0  0.46657969540E+03 -0.35837389159E+03  0.38675879618E+03  0.70406734390E+03  0.00000000000E+00 0. -1.
          2    1    6    6  502    0 -0.29279708973E+03  0.30455376420E+03  0.24952490991E+03  0.49065854900E+03  0.00000000000E+00 0. -1.
          1    1    5    5  503    0 -0.21070039825E+03  0.50175080419E+02  0.12687557729E+04  0.12871104878E+04  0.00000000000E+00 0. -1.
         -2    1    5    5    0  503 -0.56701130986E+02  0.30460978786E+02  0.20120357444E+03  0.21124811916E+03  0.00000000000E+00 0.  1.
         -1    1    6    6    0  502 -0.34557607758E+02  0.81530957091E+02  0.32372421973E+02  0.94284139294E+02  0.00000000000E+00 0.  1.
<mgrwt>
<rscale>  0 0.19564238E+04</rscale>
<asrwt>0</asrwt>
<pdfrwt beam="1">  1        2 0.41079985E+00 0.19564238E+04</pdfrwt>
<pdfrwt beam="2">  1       -2 0.55132653E-01 0.19564238E+04</pdfrwt>
<totfact> 0.79874685E+00</totfact>
</mgrwt>
</event>
<event>
12    1  0.1506149E-007  0.1332941E+04  0.7818608E-02  0.9003843E-01
         -2   -1    0    0    0  501 -0.00000000000E+00  0.00000000000E+00  0.59669683207E+03  0.59669683207E+03  0.00000000000E+00 0.  1.
          2   -1    0    0  501    0  0.00000000000E+00 -0.00000000000E+00 -0.74440289590E+03  0.74440289590E+03  0.00000000000E+00 0. -1.
         23    2    1    2    0    0  0.17128042593E+03  0.38030068770E+02 -0.33458221657E+03  0.39253091564E+03  0.10654571624E+03 0.  0.
        254    2    1    2    0    0 -0.17128042593E+03 -0.38030068770E+02  0.18687615274E+03  0.94856881233E+03  0.91327806545E+03 0.  0.
        -24    2    4    4    0    0 -0.47624588984E+03 -0.99454812133E+02 -0.11715782599E+03  0.50656162324E+03  0.78595894937E+02 0.  0.
         24    2    4    4    0    0  0.30496546391E+03  0.61424743363E+02  0.30403397873E+03  0.44200718909E+03  0.78465034968E+02 0.  0.
         13    1    3    3    0    0  0.81698675282E+02  0.71971688773E+02 -0.19280815625E+03  0.22142624651E+03  0.00000000000E+00 0. -1.
        -13    1    3    3    0    0  0.89581750650E+02 -0.33941620002E+02 -0.14177406032E+03  0.17110466913E+03  0.00000000000E+00 0.  1.
          4    1    6    6  502    0  0.75592329169E+02  0.46595060033E+02  0.62528874464E+02  0.10860552468E+03  0.00000000000E+00 0. -1.
          1    1    5    5  503    0 -0.39370854394E+03 -0.11193117189E+03 -0.94827901906E+02  0.42015156288E+03  0.00000000000E+00 0. -1.
         -2    1    5    5    0  503 -0.82537345906E+02  0.12476359759E+02 -0.22329924088E+02  0.86410060362E+02  0.00000000000E+00 0.  1.
         -3    1    6    6    0  502  0.22937313474E+03  0.14829683330E+02  0.24150510427E+03  0.33340166442E+03  0.00000000000E+00 0.  1.
<mgrwt>
<rscale>  0 0.13329409E+04</rscale>
<asrwt>0</asrwt>
<pdfrwt beam="1">  1        2 0.11452352E+00 0.13329409E+04</pdfrwt>
<pdfrwt beam="2">  1       -2 0.91799513E-01 0.13329409E+04</pdfrwt>
<totfact> 0.37394768E+01</totfact>
</mgrwt>
</event>
<event>
12    1  0.1506149E-007  0.2010343E+04  0.7818608E-02  0.8601800E-01
          1   -1    0    0  501    0  0.00000000000E+00  0.00000000000E+00  0.19844534084E+04  0.19844534084E+04  0.00000000000E+00 0. -1.
         -1   -1    0    0    0  501 -0.00000000000E+00 -0.00000000000E+00 -0.50914236590E+03  0.50914236590E+03  0.00000000000E+00 0.  1.
         23    2    1    2    0    0  0.73016189409E+03 -0.31958670646E+03  0.50485791513E+03  0.94783729262E+03  0.90785264592E+02 0.  0.
        254    2    1    2    0    0 -0.73016189409E+03  0.31958670646E+03  0.97045312741E+03  0.15457584817E+04  0.90128683380E+03 0.  0.
        -24    2    4    4    0    0 -0.75554376277E+03  0.14583594900E+03  0.10762921004E+04  0.13253117750E+04  0.77020219926E+02 0.  0.
         24    2    4    4    0    0  0.25381868672E+02  0.17375075746E+03 -0.10583897294E+03  0.22044670670E+03  0.81001835327E+02 0.  0.
         11    1    3    3    0    0  0.46580493384E+03 -0.17788359060E+03  0.27098553051E+03  0.56749446336E+03  0.00000000000E+00 0.  1.
        -11    1    3    3    0    0  0.26435696025E+03 -0.14170311587E+03  0.23387238462E+03  0.38034282926E+03  0.00000000000E+00 0. -1.
          2    1    6    6  502    0  0.95995275160E+01  0.16878271723E+03 -0.73952399197E+02  0.18452293600E+03  0.00000000000E+00 0. -1.
          3    1    5    5  503    0 -0.69619377533E+03  0.13850869936E+03  0.95327777239E+03  0.11885322646E+04  0.00000000000E+00 0. -1.
         -2    1    5    5    0  503 -0.59349987435E+02  0.73272496398E+01  0.12301432796E+03  0.13677951045E+03  0.00000000000E+00 0.  1.
         -1    1    6    6    0  502  0.15782341156E+02  0.49680402304E+01 -0.31886573740E+02  0.35923770696E+02  0.00000000000E+00 0.  1.
<mgrwt>
<rscale>  0 0.20103426E+04</rscale>
<asrwt>0</asrwt>
<pdfrwt beam="1">  1        1 0.30530052E+00 0.20103426E+04</pdfrwt>
<pdfrwt beam="2">  1       -1 0.78329596E-01 0.20103426E+04</pdfrwt>
<totfact> 0.46165366E+00</totfact>
</mgrwt>
</event>
<event>
12    1  0.1506149E-007  0.1520233E+04  0.7818608E-02  0.8871109E-01
         -1   -1    0    0    0  501 -0.00000000000E+00  0.00000000000E+00  0.59864364297E+03  0.59864364297E+03  0.00000000000E+00 0.  1.
          1   -1    0    0  501    0  0.00000000000E+00 -0.00000000000E+00 -0.96514329040E+03  0.96514329040E+03  0.00000000000E+00 0. -1.
         23    2    1    2    0    0 -0.43716431567E+03 -0.21684981307E+03 -0.12402424550E+03  0.51030342930E+03  0.83012626537E+02 0.  0.
        254    2    1    2    0    0  0.43716431567E+03  0.21684981307E+03 -0.24247540194E+03  0.10534835041E+04  0.90160783740E+03 0.  0.
        -24    2    4    4    0    0 -0.15772449488E+03  0.36181317720E+03 -0.46971980339E+02  0.40573849834E+03  0.81434455936E+02 0.  0.
         24    2    4    4    0    0  0.59488881055E+03 -0.14496336413E+03 -0.19550342160E+03  0.64774500573E+03  0.80280325907E+02 0.  0.
         11    1    3    3    0    0 -0.57208842640E+02 -0.32527349010E+02 -0.47403157591E+02  0.81104497159E+02  0.00000000000E+00 0. -1.
        -11    1    3    3    0    0 -0.37995547303E+03 -0.18432246406E+03 -0.76621087905E+02  0.42919893214E+03  0.00000000000E+00 0.  1.
          4    1    6    6  502    0  0.10445056450E+03 -0.57919031424E+02 -0.37891329940E+02  0.12530078814E+03  0.00000000000E+00 0. -1.
          3    1    5    5  503    0 -0.98573647759E+02  0.30568668021E+03 -0.31342347048E+02  0.32271264804E+03  0.00000000000E+00 0. -1.
         -4    1    5    5    0  503 -0.59150847124E+02  0.56126496994E+02 -0.15629633291E+02  0.83025850294E+02  0.00000000000E+00 0.  1.
         -3    1    6    6    0  502  0.49043824605E+03 -0.87044332711E+02 -0.15761209166E+03  0.52244421758E+03  0.00000000000E+00 0.  1.
<mgrwt>
<rscale>  0 0.15202327E+04</rscale>
<asrwt>0</asrwt>
<pdfrwt beam="1">  1        1 0.14848358E+00 0.15202327E+04</pdfrwt>
<pdfrwt beam="2">  1       -1 0.92099024E-01 0.15202327E+04</pdfrwt>
<totfact> 0.17872668E+01</totfact>
</mgrwt>
</event>
<event>
12    1  0.1506149E-007  0.2163911E+04  0.7818608E-02  0.8533601E-01
         -1   -1    0    0    0  501 -0.00000000000E+00  0.00000000000E+00  0.39397664725E+03  0.39397664725E+03  0.00000000000E+00 0.  1.
          1   -1    0    0  501    0  0.00000000000E+00 -0.00000000000E+00 -0.29713121359E+04  0.29713121359E+04  0.00000000000E+00 0. -1.
         23    2    1    2    0    0  0.46753715385E+03 -0.21479441171E+02  0.10952324526E+03  0.48942708979E+03  0.92147590018E+02 0.  0.
        254    2    1    2    0    0 -0.46753715385E+03  0.21479441171E+02 -0.26868587339E+04  0.28758616933E+04  0.91231478486E+03 0.  0.
        -24    2    4    4    0    0  0.10277529332E+03 -0.32066541243E+03 -0.73114915219E+03  0.80862922575E+03  0.76896517084E+02 0.  0.
         24    2    4    4    0    0 -0.57031244717E+03  0.34214485360E+03 -0.19557095817E+04  0.20672324676E+04  0.79565814518E+02 0.  0.
         13    1    3    3    0    0  0.13751004972E+03  0.16354222280E+01 -0.94632497454E+01  0.13784499076E+03  0.00000000000E+00 0. -1.
        -13    1    3    3    0    0  0.33002710412E+03 -0.23114863399E+02  0.11898649501E+03  0.35158209903E+03  0.00000000000E+00 0.  1.
          2    1    6    6  502    0 -0.10744967760E+03  0.58689696848E+02 -0.46281208557E+03  0.47873263967E+03  0.00000000000E+00 0. -1.
          3    1    5    5  503    0  0.91435093060E+02 -0.30032241941E+03 -0.61865248953E+03  0.69374695290E+03  0.00000000000E+00 0. -1.
         -4    1    5    5    0  503  0.11340200263E+02 -0.20342993013E+02 -0.11249666266E+03  0.11488227285E+03  0.00000000000E+00 0.  1.
         -1    1    6    6    0  502 -0.46286276957E+03  0.28345515675E+03 -0.14928974961E+04  0.15884998279E+04  0.00000000000E+00 0.  1.
<mgrwt>
<rscale>  0 0.21639109E+04</rscale>
<asrwt>0</asrwt>
<pdfrwt beam="1">  1        1 0.45712494E+00 0.21639109E+04</pdfrwt>
<pdfrwt beam="2">  1       -1 0.60611793E-01 0.21639109E+04</pdfrwt>
<totfact> 0.15851104E+00</totfact>
</mgrwt>
</event>
<event>
12    1  0.1506149E-007  0.1736950E+04  0.7818608E-02  0.8740566E-01
          2   -1    0    0  501    0  0.00000000000E+00  0.00000000000E+00  0.51537670322E+03  0.51537670322E+03  0.00000000000E+00 0. -1.
         -2   -1    0    0    0  501 -0.00000000000E+00 -0.00000000000E+00 -0.14634905756E+04  0.14634905756E+04  0.00000000000E+00 0.  1.
         23    2    1    2    0    0  0.29887390676E+03  0.16873224608E+01  0.27769106117E+03  0.41824463994E+03  0.92129225486E+02 0.  0.
        254    2    1    2    0    0 -0.29887390676E+03 -0.16873224608E+01 -0.12258049336E+04  0.15606226389E+04  0.91848616032E+03 0.  0.
        -24    2    4    4    0    0 -0.40509205401E+03 -0.12378301673E+03 -0.12972159493E+04  0.13668921536E+04  0.78759969804E+02 0.  0.
         24    2    4    4    0    0  0.10621814726E+03  0.12209569427E+03  0.71411015797E+02  0.19373048530E+03  0.79008318487E+02 0.  0.
         13    1    3    3    0    0  0.22839330728E+03  0.20000184739E+02  0.25281976972E+03  0.34129363627E+03  0.00000000000E+00 0. -1.
        -13    1    3    3    0    0  0.70480599472E+02 -0.18312862278E+02  0.24871291454E+02  0.76951003667E+02  0.00000000000E+00 0.  1.
          2    1    6    6  502    0  0.94661056394E+02  0.10960150628E+03  0.88410677165E+02  0.16967514141E+03  0.00000000000E+00 0. -1.
          3    1    5    5  503    0 -0.38289917290E+03 -0.13110665837E+03 -0.12549190998E+04  0.13185684205E+04  0.00000000000E+00 0. -1.
         -4    1    5    5    0  503 -0.22192881116E+02  0.73236416366E+01 -0.42296849584E+02  0.48323733132E+02  0.00000000000E+00 0.  1.
         -1    1    6    6    0  502  0.11557090865E+02  0.12494187991E+02 -0.16999661369E+02  0.24055343886E+02  0.00000000000E+00 0.  1.
<mgrwt>
<rscale>  0 0.17369501E+04</rscale>
<asrwt>0</asrwt>
<pdfrwt beam="1">  1        2 0.79288726E-01 0.17369501E+04</pdfrwt>
<pdfrwt beam="2">  1       -2 0.22515239E+00 0.17369501E+04</pdfrwt>
<totfact> 0.51683548E+00</totfact>
</mgrwt>
</event>
<event>
12    1  0.1506149E-007  0.1614816E+04  0.7818608E-02  0.8811497E-01
         -1   -1    0    0    0  501 -0.00000000000E+00  0.00000000000E+00  0.12100633593E+04  0.12100633593E+04  0.00000000000E+00 0.  1.
          1   -1    0    0  501    0  0.00000000000E+00 -0.00000000000E+00 -0.53873868766E+03  0.53873868766E+03  0.00000000000E+00 0. -1.
         23    2    1    2    0    0 -0.24561312639E+03  0.92424943987E+02  0.77354554698E+03  0.82205873390E+03  0.92410338098E+02 0.  0.
        254    2    1    2    0    0  0.24561312639E+03 -0.92424943987E+02 -0.10222087536E+03  0.92674331305E+03  0.88291329290E+03 0.  0.
        -24    2    4    4    0    0  0.14534805998E+03 -0.47777047431E+03 -0.12183142273E+03  0.52013779527E+03  0.79433908653E+02 0.  0.
         24    2    4    4    0    0  0.10026506641E+03  0.38534553032E+03  0.19610547375E+02  0.40660551778E+03  0.79995076343E+02 0.  0.
         11    1    3    3    0    0 -0.12763627057E+03 -0.83395561633E-01  0.38418379902E+03  0.40483109558E+03  0.00000000000E+00 0. -1.
        -11    1    3    3    0    0 -0.11797685582E+03  0.92508339549E+02  0.38936174796E+03  0.41722763831E+03  0.00000000000E+00 0.  1.
          2    1    6    6  502    0  0.10590868900E+03  0.32976473536E+03  0.36422053378E+02  0.34826426326E+03  0.00000000000E+00 0. -1.
          3    1    5    5  503    0  0.12722430207E+03 -0.43974899467E+03 -0.88117388233E+02  0.46618652432E+03  0.00000000000E+00 0. -1.
         -4    1    5    5    0  503  0.18123757909E+02 -0.38021479636E+02 -0.33714034501E+02  0.53951270947E+02  0.00000000000E+00 0.  1.
         -1    1    6    6    0  502 -0.56436225915E+01  0.55580794962E+02 -0.16811506003E+02  0.58341254518E+02  0.00000000000E+00 0.  1.
<mgrwt>
<rscale>  0 0.16148163E+04</rscale>
<asrwt>0</asrwt>
<pdfrwt beam="1">  1        1 0.82882875E-01 0.16148163E+04</pdfrwt>
<pdfrwt beam="2">  1       -1 0.18616359E+00 0.16148163E+04</pdfrwt>
<totfact> 0.71973781E+00</totfact>
</mgrwt>
</event>
<event>
12    1  0.1506149E-007  0.1771719E+04  0.7818608E-02  0.8721485E-01
          2   -1    0    0  501    0  0.00000000000E+00  0.00000000000E+00  0.19878527296E+04  0.19878527296E+04  0.00000000000E+00 0. -1.
         -2   -1    0    0    0  501 -0.00000000000E+00 -0.00000000000E+00 -0.39477123507E+03  0.39477123507E+03  0.00000000000E+00 0.  1.
         23    2    1    2    0    0  0.49531098671E+03 -0.18740074344E+03  0.80811000529E+02  0.54524344787E+03  0.10152825932E+03 0.  0.
        254    2    1    2    0    0 -0.49531098671E+03  0.18740074344E+03  0.15122704940E+04  0.18373805168E+04  0.89919580979E+03 0.  0.
        -24    2    4    4    0    0  0.15795178919E+03 -0.19029204587E+03  0.22581582474E+03  0.34383877419E+03  0.77926154180E+02 0.  0.
         24    2    4    4    0    0 -0.65326277590E+03  0.37769278931E+03  0.12864546693E+04  0.14935417426E+04  0.79355046517E+02 0.  0.
         11    1    3    3    0    0  0.33834309622E+02 -0.27077950393E+02 -0.17815469445E+02  0.46854742093E+02  0.00000000000E+00 0. -1.
        -11    1    3    3    0    0  0.46147667708E+03 -0.16032279305E+03  0.98626469974E+02  0.49838870577E+03  0.00000000000E+00 0.  1.
          4    1    6    6  502    0 -0.17308878527E+03  0.13592850014E+03  0.41033978243E+03  0.46563399982E+03  0.00000000000E+00 0. -1.
          3    1    5    5  503    0  0.96186873077E+01 -0.94774208773E+01 -0.57892826966E+01  0.14692053844E+02  0.00000000000E+00 0. -1.
         -4    1    5    5    0  503  0.14833310188E+03 -0.18081462499E+03  0.23160510744E+03  0.32914672035E+03  0.00000000000E+00 0.  1.
         -3    1    6    6    0  502 -0.48017399063E+03  0.24176428917E+03  0.87611488686E+03  0.10279077428E+04  0.00000000000E+00 0.  1.
<mgrwt>
<rscale>  0 0.17717190E+04</rscale>
<asrwt>0</asrwt>
<pdfrwt beam="1">  1        2 0.30582349E+00 0.17717190E+04</pdfrwt>
<pdfrwt beam="2">  1       -2 0.60734038E-01 0.17717190E+04</pdfrwt>
<totfact> 0.16206759E+01</totfact>
</mgrwt>
</event>
<event>
12    1  0.1506149E-007  0.2480367E+04  0.7818608E-02  0.8410014E-01
          2   -1    0    0  501    0  0.00000000000E+00  0.00000000000E+00  0.23032934528E+04  0.23032934528E+04  0.00000000000E+00 0. -1.
         -2   -1    0    0    0  501 -0.00000000000E+00 -0.00000000000E+00 -0.66776316436E+03  0.66776316436E+03  0.00000000000E+00 0.  1.
         23    2    1    2    0    0  0.93856254399E+03 -0.23255747914E+02  0.13641196665E+04  0.16584054796E+04  0.89698336670E+02 0.  0.
        254    2    1    2    0    0 -0.93856254399E+03  0.23255747914E+02  0.27141062197E+03  0.13126511375E+04  0.87632688214E+03 0.  0.
        -24    2    4    4    0    0 -0.72113710952E+03  0.34525420782E+03 -0.45756367004E+02  0.80470273807E+03  0.78826726374E+02 0.  0.
         24    2    4    4    0    0 -0.21742543447E+03 -0.32199845990E+03  0.31716698897E+03  0.50794839947E+03  0.80373191385E+02 0.  0.
         11    1    3    3    0    0  0.84107610469E+03  0.28290964353E+01  0.11915618089E+04  0.14585049065E+04  0.00000000000E+00 0. -1.
        -11    1    3    3    0    0  0.97486439294E+02 -0.26084844350E+02  0.17255785753E+03  0.19990057315E+03  0.00000000000E+00 0.  1.
          4    1    6    6  502    0 -0.29350081503E+02 -0.86280137489E+01  0.16940998072E+02  0.34969519888E+02  0.00000000000E+00 0. -1.
          3    1    5    5  503    0 -0.23054428846E+03  0.84404086283E+02  0.13762521891E+02  0.24589454189E+03  0.00000000000E+00 0. -1.
         -4    1    5    5    0  503 -0.49059282106E+03  0.26085012153E+03 -0.59518888895E+02  0.55880819617E+03  0.00000000000E+00 0.  1.
         -3    1    6    6    0  502 -0.18807535297E+03 -0.31337044615E+03  0.30022599090E+03  0.47297887958E+03  0.00000000000E+00 0.  1.
<mgrwt>
<rscale>  0 0.24803665E+04</rscale>
<asrwt>0</asrwt>
<pdfrwt beam="1">  1        2 0.35435284E+00 0.24803665E+04</pdfrwt>
<pdfrwt beam="2">  1       -2 0.10273280E+00 0.24803665E+04</pdfrwt>
<totfact> 0.31230397E+00</totfact>
</mgrwt>
</event>
<event>
12    1  0.1506149E-007  0.1263473E+04  0.7818608E-02  0.9059044E-01
         -1   -1    0    0    0  501 -0.00000000000E+00  0.00000000000E+00  0.56683507951E+03  0.56683507951E+03  0.00000000000E+00 0.  1.
          1   -1    0    0  501    0  0.00000000000E+00 -0.00000000000E+00 -0.70406908782E+03  0.70406908782E+03  0.00000000000E+00 0. -1.
         23    2    1    2    0    0  0.33271503716E+02  0.52867023645E+02 -0.32793641817E+03  0.34598169274E+03  0.90879712833E+02 0.  0.
        254    2    1    2    0    0 -0.33271503716E+02 -0.52867023645E+02  0.19070240986E+03  0.92492247458E+03  0.90289105639E+03 0.  0.
        -24    2    4    4    0    0  0.11949769500E+02  0.39931846463E+03  0.21905082515E+03  0.46262937621E+03  0.80278531031E+02 0.  0.
         24    2    4    4    0    0 -0.45221273216E+02 -0.45218548828E+03 -0.28348415293E+02  0.46229309837E+03  0.79966222804E+02 0.  0.
         11    1    3    3    0    0  0.53703248185E+02  0.58895468850E+02 -0.30239515459E+03  0.31272279200E+03  0.00000000000E+00 0. -1.
        -11    1    3    3    0    0 -0.20431744469E+02 -0.60284452045E+01 -0.25541263582E+02  0.33258900749E+02  0.00000000000E+00 0.  1.
          2    1    6    6  502    0 -0.54687689909E+02 -0.44056904922E+03 -0.36111440458E+02  0.44541650923E+03  0.00000000000E+00 0. -1.
          1    1    5    5  503    0  0.14452586548E+02  0.33451383129E+03  0.21444802261E+03  0.39761329829E+03  0.00000000000E+00 0. -1.
         -2    1    5    5    0  503 -0.25028170475E+01  0.64804633344E+02  0.46028025443E+01  0.65016077914E+02  0.00000000000E+00 0.  1.
         -1    1    6    6    0  502  0.94664166929E+01 -0.11616439055E+02  0.77630251650E+01  0.16876589141E+02  0.00000000000E+00 0.  1.
<mgrwt>
<rscale>  0 0.12634731E+04</rscale>
<asrwt>0</asrwt>
<pdfrwt beam="1">  1        1 0.10831832E+00 0.12634731E+04</pdfrwt>
<pdfrwt beam="2">  1       -1 0.87205397E-01 0.12634731E+04</pdfrwt>
<totfact> 0.34462602E+01</totfact>
</mgrwt>
</event>
<event>
12    1  0.1506149E-007  0.1391750E+04  0.7818608E-02  0.8959812E-01
         -1   -1    0    0    0  501 -0.00000000000E+00  0.00000000000E+00  0.71373460647E+03  0.71373460647E+03  0.00000000000E+00 0.  1.
          1   -1    0    0  501    0  0.00000000000E+00 -0.00000000000E+00 -0.67846241831E+03  0.67846241831E+03  0.00000000000E+00 0. -1.
         23    2    1    2    0    0  0.33920399338E+03 -0.18776062078E+03  0.69370811434E+02  0.40401046570E+03  0.89993039024E+02 0.  0.
        254    2    1    2    0    0 -0.33920399338E+03  0.18776062078E+03 -0.34098623269E+02  0.98818655908E+03  0.90831523140E+03 0.  0.
        -24    2    4    4    0    0 -0.39379242645E+03 -0.11344735923E+03  0.31051839275E+03  0.52025883341E+03  0.79402790017E+02 0.  0.
         24    2    4    4    0    0  0.54588433066E+02  0.30120798000E+03 -0.34461701602E+03  0.46792772567E+03  0.80556343490E+02 0.  0.
         11    1    3    3    0    0  0.13138484378E+03 -0.75404510737E+02  0.72052897456E+02  0.16774813694E+03  0.00000000000E+00 0.  1.
        -11    1    3    3    0    0  0.20781914961E+03 -0.11235611004E+03 -0.26820860223E+01  0.23626232876E+03  0.00000000000E+00 0. -1.
          4    1    6    6  502    0  0.61121028949E+02  0.24963395361E+03 -0.31993615935E+03  0.41038035654E+03  0.00000000000E+00 0. -1.
          3    1    5    5  503    0 -0.20224684330E+03 -0.17382132111E+02  0.14404606312E+03  0.24890799996E+03  0.00000000000E+00 0. -1.
         -4    1    5    5    0  503 -0.19154558315E+03 -0.96065227115E+02  0.16647232963E+03  0.27135083345E+03  0.00000000000E+00 0.  1.
         -3    1    6    6    0  502 -0.65325958835E+01  0.51574026396E+02 -0.24680856668E+02  0.57547369127E+02  0.00000000000E+00 0.  1.
<mgrwt>
<rscale>  0 0.13917501E+04</rscale>
<asrwt>0</asrwt>
<pdfrwt beam="1">  1        1 0.10437883E+00 0.13917501E+04</pdfrwt>
<pdfrwt beam="2">  1       -1 0.10980532E+00 0.13917501E+04</pdfrwt>
<totfact> 0.21368821E+01</totfact>
</mgrwt>
</event>
<event>
12    1  0.1506149E-007  0.2652317E+04  0.7818608E-02  0.8350644E-01
          1   -1    0    0  501    0  0.00000000000E+00  0.00000000000E+00  0.49033107409E+03  0.49033107409E+03  0.00000000000E+00 0. -1.
         -1   -1    0    0    0  501 -0.00000000000E+00 -0.00000000000E+00 -0.35867538926E+04  0.35867538926E+04  0.00000000000E+00 0.  1.
         23    2    1    2    0    0 -0.80248009410E+03  0.85588648874E+03 -0.13444631552E+04  0.17867786473E+04  0.92091128270E+02 0.  0.
        254    2    1    2    0    0  0.80248009410E+03 -0.85588648874E+03 -0.17519596634E+04  0.22903063194E+04  0.89421719485E+03 0.  0.
        -24    2    4    4    0    0  0.13483147751E+03 -0.21356665158E+03 -0.11555357832E+04  0.11855365695E+04  0.80273092105E+02 0.  0.
         24    2    4    4    0    0  0.66764861659E+03 -0.64231983716E+03 -0.59642388016E+03  0.11047697499E+04  0.80407133157E+02 0.  0.
         13    1    3    3    0    0 -0.41216248532E+03  0.48074698182E+03 -0.66955722231E+03  0.92157606782E+03  0.00000000000E+00 0.  1.
        -13    1    3    3    0    0 -0.39031760878E+03  0.37513950692E+03 -0.67490593288E+03  0.86520257952E+03  0.00000000000E+00 0. -1.
          4    1    6    6  502    0  0.10185843989E+03 -0.66648167581E+02 -0.60902426431E+02  0.13611107804E+03  0.00000000000E+00 0. -1.
          1    1    5    5  503    0  0.33668456186E+02 -0.44620288760E+02 -0.13395164612E+03  0.14514674853E+03  0.00000000000E+00 0. -1.
         -2    1    5    5    0  503  0.10116302133E+03 -0.16894636282E+03 -0.10215841371E+04  0.10403898209E+04  0.00000000000E+00 0.  1.
         -3    1    6    6    0  502  0.56579017669E+03 -0.57567166958E+03 -0.53552145373E+03  0.96865867188E+03  0.00000000000E+00 0.  1.
<mgrwt>
<rscale>  0 0.26523174E+04</rscale>
<asrwt>0</asrwt>
<pdfrwt beam="1">  1        1 0.75435552E-01 0.26523174E+04</pdfrwt>
<pdfrwt beam="2">  1       -1 0.55180828E+00 0.26523174E+04</pdfrwt>
<totfact> 0.29037595E-02</totfact>
</mgrwt>
</event>
<event>
12    1  0.1506149E-007  0.2927740E+04  0.7818608E-02  0.8264672E-01
         -1   -1    0    0    0  501 -0.00000000000E+00  0.00000000000E+00  0.27088796883E+04  0.27088796883E+04  0.00000000000E+00 0.  1.
          1   -1    0    0  501    0  0.00000000000E+00 -0.00000000000E+00 -0.79107048188E+03  0.79107048188E+03  0.00000000000E+00 0. -1.
         23    2    1    2    0    0  0.52925815475E+02 -0.73376270263E+03  0.21865539220E+04  0.23087886538E+04  0.90984328394E+02 0.  0.
        254    2    1    2    0    0 -0.52925815475E+02  0.73376270263E+03 -0.26874471563E+03  0.11911615164E+04  0.89745929730E+03 0.  0.
        -24    2    4    4    0    0 -0.29651052857E+03 -0.55598078037E+02 -0.16482006211E+03  0.35466679369E+03  0.87253892973E+02 0.  0.
         24    2    4    4    0    0  0.24358471309E+03  0.78936078067E+03 -0.10392465353E+03  0.83649472273E+03  0.80617200676E+02 0.  0.
         11    1    3    3    0    0  0.24329935300E+02 -0.12967171766E+03  0.30162362320E+03  0.32921650959E+03  0.00000000000E+00 0. -1.
        -11    1    3    3    0    0  0.28595880175E+02 -0.60409098497E+03  0.18849302988E+04  0.19795721442E+04  0.00000000000E+00 0.  1.
          2    1    6    6  502    0  0.19282628155E+03  0.52735403065E+03 -0.94893415919E+02  0.56946379067E+03  0.00000000000E+00 0. -1.
          1    1    5    5  503    0 -0.26475434035E+03 -0.18822191665E+02 -0.13750475662E+03  0.29892590006E+03  0.00000000000E+00 0. -1.
         -2    1    5    5    0  503 -0.31756188215E+02 -0.36775886372E+02 -0.27315305490E+02  0.55740893627E+02  0.00000000000E+00 0.  1.
         -1    1    6    6    0  502  0.50758431545E+02  0.26200675001E+03 -0.90312376076E+01  0.26703093206E+03  0.00000000000E+00 0.  1.
<mgrwt>
<rscale>  0 0.29277396E+04</rscale>
<asrwt>0</asrwt>
<pdfrwt beam="1">  1        1 0.12170315E+00 0.29277396E+04</pdfrwt>
<pdfrwt beam="2">  1       -1 0.41675072E+00 0.29277396E+04</pdfrwt>
<totfact> 0.10574380E-01</totfact>
</mgrwt>
</event>
<event>
12    1  0.1506149E-007  0.1747197E+04  0.7818608E-02  0.8734895E-01
          3   -1    0    0  501    0  0.00000000000E+00  0.00000000000E+00  0.46362535473E+03  0.46362535473E+03  0.00000000000E+00 0. -1.
         -3   -1    0    0    0  501 -0.00000000000E+00 -0.00000000000E+00 -0.16461016429E+04  0.16461016429E+04  0.00000000000E+00 0.  1.
         23    2    1    2    0    0  0.49614483131E+02  0.15492637102E+03 -0.11799665743E+04  0.11947474315E+04  0.92932940186E+02 0.  0.
        254    2    1    2    0    0 -0.49614483131E+02 -0.15492637102E+03 -0.25097139251E+01  0.91497956614E+03  0.90039853976E+03 0.  0.
        -24    2    4    4    0    0  0.19620150470E+03  0.55378421088E+02 -0.36364432300E+03  0.42281747014E+03  0.70538070819E+02 0.  0.
         24    2    4    4    0    0 -0.24581598783E+03 -0.21030479211E+03  0.36113460907E+03  0.49216209600E+03  0.84567827273E+02 0.  0.
         13    1    3    3    0    0 -0.87301161563E+01  0.11438991966E+03 -0.65099018326E+03  0.66102154832E+03  0.00000000000E+00 0.  1.
        -13    1    3    3    0    0  0.58344599288E+02  0.40536451364E+02 -0.52897639101E+03  0.53372588321E+03  0.00000000000E+00 0. -1.
          4    1    6    6  502    0 -0.20427934276E+03 -0.16011342222E+03  0.33032054782E+03  0.42009287326E+03  0.00000000000E+00 0. -1.
          3    1    5    5  503    0  0.14590844393E+03  0.64838162092E+02 -0.23252942555E+03  0.28206948615E+03  0.00000000000E+00 0. -1.
         -4    1    5    5    0  503  0.50293060768E+02 -0.94597410043E+01 -0.13111489745E+03  0.14074798398E+03  0.00000000000E+00 0.  1.
         -3    1    6    6    0  502 -0.41536645077E+02 -0.50191369885E+02  0.30814061255E+02  0.72069222739E+02  0.00000000000E+00 0.  1.
<mgrwt>
<rscale>  0 0.17471971E+04</rscale>
<asrwt>0</asrwt>
<pdfrwt beam="1">  1        3 0.71326976E-01 0.17471971E+04</pdfrwt>
<pdfrwt beam="2">  1       -3 0.25324641E+00 0.17471971E+04</pdfrwt>
<totfact> 0.32574761E-01</totfact>
</mgrwt>
</event>
<event>
12    1  0.1506149E-007  0.2328161E+04  0.7818608E-02  0.8466900E-01
          2   -1    0    0  501    0  0.00000000000E+00  0.00000000000E+00  0.20610088240E+04  0.20610088240E+04  0.00000000000E+00 0.  1.
         -2   -1    0    0    0  501 -0.00000000000E+00 -0.00000000000E+00 -0.65748528727E+03  0.65748528727E+03  0.00000000000E+00 0. -1.
         23    2    1    2    0    0 -0.40673122505E+03 -0.59993526771E+03  0.13912208435E+04  0.15716125765E+04  0.95488429292E+02 0.  0.
        254    2    1    2    0    0  0.40673122505E+03  0.59993526771E+03  0.12302693222E+02  0.11468815348E+04  0.88872565160E+03 0.  0.
        -24    2    4    4    0    0  0.20267521711E+03  0.57899011968E+03 -0.35968280894E+03  0.71589941005E+03  0.82664623286E+02 0.  0.
         24    2    4    4    0    0  0.20405600794E+03  0.20945148032E+02  0.37198550216E+03  0.43098212479E+03  0.72765544513E+02 0.  0.
         13    1    3    3    0    0 -0.39931858366E+03 -0.56111848648E+03  0.13427977262E+04  0.15091106721E+04  0.00000000000E+00 0.  1.
        -13    1    3    3    0    0 -0.74126413915E+01 -0.38816781226E+02  0.48423117317E+02  0.62501904354E+02  0.00000000000E+00 0. -1.
          4    1    6    6  502    0  0.14634785765E+03  0.19029829111E+02  0.19328483968E+03  0.24318482495E+03  0.00000000000E+00 0. -1.
          3    1    5    5  503    0  0.18297401947E+03  0.51834622874E+03 -0.34932752523E+03  0.65130025682E+03  0.00000000000E+00 0. -1.
         -4    1    5    5    0  503  0.19701197642E+02  0.60643890942E+02 -0.10355283703E+02  0.64599153227E+02  0.00000000000E+00 0.  1.
         -3    1    6    6    0  502  0.57708150285E+02  0.19153189208E+01  0.17870066248E+03  0.18779729984E+03  0.00000000000E+00 0.  1.
<mgrwt>
<rscale>  0 0.23281606E+04</rscale>
<asrwt>0</asrwt>
<pdfrwt beam="1">  1        2 0.31707828E+00 0.23281606E+04</pdfrwt>
<pdfrwt beam="2">  1       -2 0.10115158E+00 0.23281606E+04</pdfrwt>
<totfact> 0.44915147E+00</totfact>
</mgrwt>
</event>
<event>
12    1  0.1506149E-007  0.1958572E+04  0.7818608E-02  0.8626238E-01
          2   -1    0    0  501    0  0.00000000000E+00  0.00000000000E+00  0.22187351719E+04  0.22187351719E+04  0.00000000000E+00 0.  1.
         -2   -1    0    0    0  501 -0.00000000000E+00 -0.00000000000E+00 -0.43222884805E+03  0.43222884805E+03  0.00000000000E+00 0. -1.
         23    2    1    2    0    0 -0.19907778412E+03 -0.84995500506E+01 -0.29923606222E+03  0.37025198837E+03  0.88544381401E+02 0.  0.
        254    2    1    2    0    0  0.19907778412E+03  0.84995500506E+01  0.20857423861E+04  0.22807120316E+04  0.90090058466E+03 0.  0.
        -24    2    4    4    0    0  0.43775455129E+03  0.28020963459E+03  0.14751491702E+04  0.15660437115E+04  0.79254939502E+02 0.  0.
         24    2    4    4    0    0 -0.23867676717E+03 -0.27171008454E+03  0.61059321588E+03  0.71466832011E+03  0.84461608186E+02 0.  0.
         11    1    3    3    0    0 -0.15268810660E+03  0.31917031537E+02 -0.22592377457E+03  0.27454308717E+03  0.00000000000E+00 0. -1.
        -11    1    3    3    0    0 -0.46389677516E+02 -0.40416581587E+02 -0.73312287656E+02  0.95708901198E+02  0.00000000000E+00 0.  1.
          2    1    6    6  502    0 -0.13903718351E+03 -0.18326732806E+03  0.31141554575E+03  0.38716649399E+03  0.00000000000E+00 0. -1.
          1    1    5    5  503    0  0.28825022290E+02  0.37569530872E+02  0.18805342896E+03  0.19392380902E+03  0.00000000000E+00 0. -1.
         -2    1    5    5    0  503  0.40892952900E+03  0.24264010372E+03  0.12870957412E+04  0.13721199024E+04  0.00000000000E+00 0.  1.
         -1    1    6    6    0  502 -0.99639583658E+02 -0.88442756479E+02  0.29917767013E+03  0.32750182612E+03  0.00000000000E+00 0.  1.
<mgrwt>
<rscale>  0 0.19585723E+04</rscale>
<asrwt>0</asrwt>
<pdfrwt beam="1">  1        2 0.34134387E+00 0.19585723E+04</pdfrwt>
<pdfrwt beam="2">  1       -2 0.66496747E-01 0.19585723E+04</pdfrwt>
<totfact> 0.97656835E+00</totfact>
</mgrwt>
</event>
<event>
12    1  0.1506149E-007  0.1167278E+04  0.7818608E-02  0.9141990E-01
         -2   -1    0    0    0  501 -0.00000000000E+00  0.00000000000E+00  0.21389283492E+03  0.21389283492E+03  0.00000000000E+00 0.  1.
          2   -1    0    0  501    0  0.00000000000E+00 -0.00000000000E+00 -0.15925465524E+04  0.15925465524E+04  0.00000000000E+00 0. -1.
         23    2    1    2    0    0  0.49297794040E+02 -0.51104523549E+02 -0.58067736498E+03  0.59288998277E+03  0.96386641406E+02 0.  0.
        254    2    1    2    0    0 -0.49297794040E+02  0.51104523549E+02 -0.79797635250E+03  0.12135494045E+04  0.91153384650E+03 0.  0.
        -24    2    4    4    0    0 -0.28817329708E+03 -0.11681441733E+03 -0.84813312691E+03  0.90676213949E+03  0.78729406200E+02 0.  0.
         24    2    4    4    0    0  0.23887550304E+03  0.16791894088E+03  0.50156774414E+02  0.30678726506E+03  0.79652039069E+02 0.  0.
         13    1    3    3    0    0  0.76963589048E+02 -0.50410132326E+02 -0.43982769674E+03  0.44934728028E+03  0.00000000000E+00 0.  1.
        -13    1    3    3    0    0 -0.27665795008E+02 -0.69439122355E+00 -0.14084966824E+03  0.14354270249E+03  0.00000000000E+00 0. -1.
          4    1    6    6  502    0  0.67534693133E+02  0.57623329281E+02  0.52236887958E+02  0.10300521986E+03  0.00000000000E+00 0. -1.
          1    1    5    5  503    0 -0.14094642592E+03 -0.76091274541E+02 -0.53318483461E+03  0.55672420901E+03  0.00000000000E+00 0. -1.
         -4    1    5    5    0  503 -0.14722687115E+03 -0.40723142786E+02 -0.31494829230E+03  0.35003793047E+03  0.00000000000E+00 0.  1.
         -3    1    6    6    0  502  0.17134080990E+03  0.11029561159E+03 -0.20801135440E+01  0.20378204520E+03  0.00000000000E+00 0.  1.
<mgrwt>
<rscale>  0 0.11672777E+04</rscale>
<asrwt>0</asrwt>
<pdfrwt beam="1">  1        2 0.24500717E+00 0.11672777E+04</pdfrwt>
<pdfrwt beam="2">  1       -2 0.32906589E-01 0.11672777E+04</pdfrwt>
<totfact> 0.95886749E+01</totfact>
</mgrwt>
</event>
<event>
12    1  0.1506149E-007  0.1265369E+04  0.7818608E-02  0.9057487E-01
          1   -1    0    0  501    0  0.00000000000E+00  0.00000000000E+00  0.21589085595E+04  0.21589085595E+04  0.00000000000E+00 0. -1.
         -1   -1    0    0    0  501 -0.00000000000E+00 -0.00000000000E+00 -0.18541310967E+03  0.18541310967E+03  0.00000000000E+00 0.  1.
         23    2    1    2    0    0  0.67061004814E+02 -0.22526028217E+03  0.80630230393E+03  0.84399202985E+03  0.83425224252E+02 0.  0.
        254    2    1    2    0    0 -0.67061004814E+02  0.22526028217E+03  0.11671931459E+04  0.15003296393E+04  0.91291281822E+03 0.  0.
        -24    2    4    4    0    0  0.54386511273E+02 -0.10106307480E+03 -0.10806238342E+03  0.17630099823E+03  0.78948879480E+02 0.  0.
         24    2    4    4    0    0 -0.12144751609E+03  0.32632335696E+03  0.12752555293E+04  0.13240286411E+04  0.74422744317E+02 0.  0.
         11    1    3    3    0    0 -0.14459697122E+02 -0.24636446869E+02  0.53341839223E+02  0.60509413869E+02  0.00000000000E+00 0.  1.
        -11    1    3    3    0    0  0.81520701936E+02 -0.20062383530E+03  0.75296046471E+03  0.78348261598E+03  0.00000000000E+00 0. -1.
          2    1    6    6  502    0 -0.12366354506E+03  0.30657182282E+03  0.11281197381E+04  0.11755565058E+04  0.00000000000E+00 0. -1.
          3    1    5    5  503    0  0.55341984396E+02 -0.27983797594E+02 -0.28451775637E+02  0.68229991218E+02  0.00000000000E+00 0. -1.
         -4    1    5    5    0  503 -0.95547312295E+00 -0.73079277203E+02 -0.79610607782E+02  0.10807100701E+03  0.00000000000E+00 0.  1.
         -1    1    6    6    0  502  0.22160289748E+01  0.19751534146E+02  0.14713579122E+03  0.14847213524E+03  0.00000000000E+00 0.  1.
<mgrwt>
<rscale>  0 0.12653694E+04</rscale>
<asrwt>0</asrwt>
<pdfrwt beam="1">  1        1 0.33213976E+00 0.12653694E+04</pdfrwt>
<pdfrwt beam="2">  1       -1 0.28525095E-01 0.12653694E+04</pdfrwt>
<totfact> 0.25574383E+01</totfact>
</mgrwt>
</event>
<event>
12    1  0.1506149E-007  0.1854409E+04  0.7818608E-02  0.8677889E-01
          2   -1    0    0  501    0  0.00000000000E+00  0.00000000000E+00  0.95316773737E+03  0.95316773737E+03  0.00000000000E+00 0. -1.
         -2   -1    0    0    0  501 -0.00000000000E+00 -0.00000000000E+00 -0.90194821637E+03  0.90194821637E+03  0.00000000000E+00 0.  1.
         23    2    1    2    0    0  0.17141838923E+03  0.67900177160E+03  0.11844120912E+03  0.71621002923E+03  0.92199869578E+02 0.  0.
        254    2    1    2    0    0 -0.17141838923E+03 -0.67900177160E+03 -0.67221688117E+02  0.11389059245E+04  0.89563400982E+03 0.  0.
        -24    2    4    4    0    0 -0.16987040475E+03  0.16499883506E+03 -0.14191145425E+03  0.28812082586E+03  0.82426812796E+02 0.  0.
         24    2    4    4    0    0 -0.15479844809E+01 -0.84400060666E+03  0.74689766133E+02  0.85078509865E+03  0.76924005502E+02 0.  0.
         13    1    3    3    0    0  0.75100097710E+02  0.18061265197E+03  0.29488355810E+01  0.19562630283E+03  0.00000000000E+00 0. -1.
        -13    1    3    3    0    0  0.96318291523E+02  0.49838911963E+03  0.11549237354E+03  0.52058372640E+03  0.00000000000E+00 0.  1.
          4    1    6    6  502    0  0.19347741148E+02 -0.77175037597E+03  0.74439379968E+02  0.77557346473E+03  0.00000000000E+00 0. -1.
          1    1    5    5  503    0 -0.65004722932E+02  0.70927498820E+02 -0.10515745046E+03  0.14252864091E+03  0.00000000000E+00 0. -1.
         -2    1    5    5    0  503 -0.10486568182E+03  0.94071336241E+02 -0.36754003792E+02  0.14559218496E+03  0.00000000000E+00 0.  1.
         -3    1    6    6    0  502 -0.20895725629E+02 -0.72250230686E+02  0.25038616520E+00  0.75211633920E+02  0.00000000000E+00 0.  1.
<mgrwt>
<rscale>  0 0.18544087E+04</rscale>
<asrwt>0</asrwt>
<pdfrwt beam="1">  1        2 0.14664119E+00 0.18544087E+04</pdfrwt>
<pdfrwt beam="2">  1       -2 0.13876127E+00 0.18544087E+04</pdfrwt>
<totfact> 0.93340937E+00</totfact>
</mgrwt>
</event>
<event>
12    1  0.1506149E-007  0.2119789E+04  0.7818608E-02  0.8552576E-01
          2   -1    0    0  501    0  0.00000000000E+00  0.00000000000E+00  0.57079392463E+03  0.57079392463E+03  0.00000000000E+00 0. -1.
         -2   -1    0    0    0  501 -0.00000000000E+00 -0.00000000000E+00 -0.19680948520E+04  0.19680948520E+04  0.00000000000E+00 0.  1.
         23    2    1    2    0    0 -0.65553399029E+03  0.38790347733E+03 -0.11696394156E+03  0.77498042133E+03  0.81976641069E+02 0.  0.
        254    2    1    2    0    0  0.65553399029E+03 -0.38790347733E+03 -0.12803369858E+04  0.17639083553E+04  0.94441302859E+03 0.  0.
        -24    2    4    4    0    0  0.35823591533E+03  0.25481131824E+03 -0.25311235148E+03  0.51369271000E+03  0.80947877659E+02 0.  0.
         24    2    4    4    0    0  0.29729807496E+03 -0.64271479557E+03 -0.10272246344E+04  0.12502156453E+04  0.79876508457E+02 0.  0.
         13    1    3    3    0    0 -0.60288865860E+03  0.35803088903E+03 -0.84399382322E+02  0.70624649232E+03  0.00000000000E+00 0.  1.
        -13    1    3    3    0    0 -0.52645331682E+02  0.29872588300E+02 -0.32564559243E+02  0.68733929019E+02  0.00000000000E+00 0. -1.
          2    1    6    6  502    0  0.17630788846E+03 -0.28779457355E+03 -0.47366815828E+03  0.58161130686E+03  0.00000000000E+00 0. -1.
          1    1    5    5  503    0  0.24962119420E+03  0.13386466541E+03 -0.17872598461E+03  0.33492307596E+03  0.00000000000E+00 0. -1.
         -2    1    5    5    0  503  0.10861472113E+03  0.12094665282E+03 -0.74386366872E+02  0.17876963403E+03  0.00000000000E+00 0.  1.
         -1    1    6    6    0  502  0.12099018649E+03 -0.35492022201E+03 -0.55355647608E+03  0.66860433848E+03  0.00000000000E+00 0.  1.
<mgrwt>
<rscale>  0 0.21197892E+04</rscale>
<asrwt>0</asrwt>
<pdfrwt beam="1">  1        2 0.87814453E-01 0.21197892E+04</pdfrwt>
<pdfrwt beam="2">  1       -2 0.30278381E+00 0.21197892E+04</pdfrwt>
<totfact> 0.14820630E+00</totfact>
</mgrwt>
</event>
<event>
12    1  0.1506149E-007  0.2111651E+04  0.7818608E-02  0.8556128E-01
         -1   -1    0    0    0  501 -0.00000000000E+00  0.00000000000E+00  0.12998517056E+04  0.12998517056E+04  0.00000000000E+00 0.  1.
          1   -1    0    0  501    0  0.00000000000E+00 -0.00000000000E+00 -0.85761123416E+03  0.85761123416E+03  0.00000000000E+00 0. -1.
         23    2    1    2    0    0  0.25865287215E+03  0.64006493803E+02  0.10158311581E+04  0.10540199590E+04  0.89705030971E+02 0.  0.
        254    2    1    2    0    0 -0.25865287215E+03 -0.64006493803E+02 -0.57359068667E+03  0.11034429808E+04  0.90420240904E+03 0.  0.
        -24    2    4    4    0    0 -0.15309331848E+03  0.19449723199E+03  0.16638113884E+03  0.30854571431E+03  0.79063500033E+02 0.  0.
         24    2    4    4    0    0 -0.10555955367E+03 -0.25850372580E+03 -0.73997182550E+03  0.79489726649E+03  0.79601294637E+02 0.  0.
         11    1    3    3    0    0  0.19331343850E+03  0.75264554098E+02  0.86007125276E+03  0.88473577888E+03  0.00000000000E+00 0.  1.
        -11    1    3    3    0    0  0.65339433651E+02 -0.11258060295E+02  0.15575990539E+03  0.16928418011E+03  0.00000000000E+00 0. -1.
          2    1    6    6  502    0 -0.28557149194E+01 -0.28216560936E+02 -0.29118338915E+02  0.40647350220E+02  0.00000000000E+00 0. -1.
          3    1    5    5  503    0 -0.93290795165E+02  0.11455217431E+03  0.51756349968E+02  0.15653783205E+03  0.00000000000E+00 0. -1.
         -4    1    5    5    0  503 -0.59802523319E+02  0.79945057682E+02  0.11462478887E+03  0.15200788225E+03  0.00000000000E+00 0.  1.
         -1    1    6    6    0  502 -0.10270383875E+03 -0.23028716486E+03 -0.71085348659E+03  0.75424991627E+03  0.00000000000E+00 0.  1.
<mgrwt>
<rscale>  0 0.21116509E+04</rscale>
<asrwt>0</asrwt>
<pdfrwt beam="1">  1        1 0.13194019E+00 0.21116509E+04</pdfrwt>
<pdfrwt beam="2">  1       -1 0.19997719E+00 0.21116509E+04</pdfrwt>
<totfact> 0.27295105E+00</totfact>
</mgrwt>
</event>
<event>
12    1  0.1506149E-007  0.1637800E+04  0.7818608E-02  0.8797657E-01
          2   -1    0    0  501    0  0.00000000000E+00  0.00000000000E+00  0.44535306910E+03  0.44535306910E+03  0.00000000000E+00 0. -1.
         -2   -1    0    0    0  501 -0.00000000000E+00 -0.00000000000E+00 -0.15057645815E+04  0.15057645815E+04  0.00000000000E+00 0.  1.
         23    2    1    2    0    0  0.76011836836E+01  0.45485917371E+03 -0.76666529590E+03  0.89744679059E+03  0.10334611792E+03 0.  0.
        254    2    1    2    0    0 -0.76011836836E+01 -0.45485917371E+03 -0.29374621648E+03  0.10536708600E+04  0.90386989971E+03 0.  0.
        -24    2    4    4    0    0 -0.32798915545E+03 -0.55881576499E+03 -0.26998794204E+03  0.70632984604E+03  0.78462839993E+02 0.  0.
         24    2    4    4    0    0  0.32038797176E+03  0.10395659128E+03 -0.23758274434E+02  0.34734101396E+03  0.81399625608E+02 0.  0.
         11    1    3    3    0    0  0.48844332445E+02  0.24288270775E+03 -0.36017732124E+03  0.43715612917E+03  0.00000000000E+00 0.  1.
        -11    1    3    3    0    0 -0.41243148762E+02  0.21197646596E+03 -0.40648797467E+03  0.46029066142E+03  0.00000000000E+00 0. -1.
          2    1    6    6  502    0  0.24268569728E+03  0.95228113680E+02 -0.48819168539E+02  0.26523207294E+03  0.00000000000E+00 0. -1.
          1    1    5    5  503    0 -0.30386956365E+03 -0.50077642212E+03 -0.21886614662E+03  0.62531282315E+03  0.00000000000E+00 0. -1.
         -2    1    5    5    0  503 -0.24119591798E+02 -0.58039342871E+02 -0.51121795427E+02  0.81017022885E+02  0.00000000000E+00 0.  1.
         -1    1    6    6    0  502  0.77702274483E+02  0.87284776031E+01  0.25060894105E+02  0.82108941014E+02  0.00000000000E+00 0.  1.
<mgrwt>
<rscale>  0 0.16377996E+04</rscale>
<asrwt>0</asrwt>
<pdfrwt beam="1">  1        2 0.68515856E-01 0.16377996E+04</pdfrwt>
<pdfrwt beam="2">  1       -2 0.23165609E+00 0.16377996E+04</pdfrwt>
<totfact> 0.56155581E+00</totfact>
</mgrwt>
</event>
<event>
12    1  0.1506149E-007  0.1327274E+04  0.7818608E-02  0.9008212E-01
         -1   -1    0    0    0  501 -0.00000000000E+00  0.00000000000E+00  0.10288691637E+04  0.10288691637E+04  0.00000000000E+00 0.  1.
          1   -1    0    0  501    0  0.00000000000E+00 -0.00000000000E+00 -0.42805613794E+03  0.42805613794E+03  0.00000000000E+00 0. -1.
         23    2    1    2    0    0  0.16398425063E+03  0.42076530053E+02 -0.17477543547E+03  0.25909629048E+03  0.89012168058E+02 0.  0.
        254    2    1    2    0    0 -0.16398425063E+03 -0.42076530053E+02  0.77558846125E+03  0.11978290112E+04  0.89699253617E+03 0.  0.
        -24    2    4    4    0    0  0.26389347621E+02 -0.44784986119E+03  0.37158017769E+03  0.58857205250E+03  0.84138794252E+02 0.  0.
         24    2    4    4    0    0 -0.19037359825E+03  0.40577333114E+03  0.40400828355E+03  0.60925695867E+03  0.84126365239E+02 0.  0.
         11    1    3    3    0    0  0.15834633846E+03  0.43196411743E+02 -0.11828386575E+03  0.20231303910E+03  0.00000000000E+00 0. -1.
        -11    1    3    3    0    0  0.56379121676E+01 -0.11198816906E+01 -0.56491569718E+02  0.56783251384E+02  0.00000000000E+00 0.  1.
          2    1    6    6  502    0 -0.13022237141E+03  0.20678650953E+03  0.17899215252E+03  0.30291371247E+03  0.00000000000E+00 0. -1.
          1    1    5    5  503    0  0.86515359648E+01 -0.26963826627E+03  0.27443075677E+03  0.38482708321E+03  0.00000000000E+00 0. -1.
         -2    1    5    5    0  503  0.17737811656E+02 -0.17821159492E+03  0.97149420924E+02  0.20374496929E+03  0.00000000000E+00 0.  1.
         -1    1    6    6    0  502 -0.60151226843E+02  0.19898682161E+03  0.22501613103E+03  0.30634324619E+03  0.00000000000E+00 0.  1.
<mgrwt>
<rscale>  0 0.13272735E+04</rscale>
<asrwt>0</asrwt>
<pdfrwt beam="1">  1        1 0.65854791E-01 0.13272735E+04</pdfrwt>
<pdfrwt beam="2">  1       -1 0.15828756E+00 0.13272735E+04</pdfrwt>
<totfact> 0.16176042E+01</totfact>
</mgrwt>
</event>
<event>
12    1  0.1506149E-007  0.2070528E+04  0.7818608E-02  0.8574338E-01
          2   -1    0    0  501    0  0.00000000000E+00  0.00000000000E+00  0.29799046318E+04  0.29799046318E+04  0.00000000000E+00 0. -1.
         -2   -1    0    0    0  501 -0.00000000000E+00 -0.00000000000E+00 -0.35966637831E+03  0.35966637831E+03  0.00000000000E+00 0.  1.
         23    2    1    2    0    0  0.82904574566E+03  0.10673226680E+03  0.99885615242E+03  0.13056368668E+04  0.90914187068E+02 0.  0.
        254    2    1    2    0    0 -0.82904574566E+03 -0.10673226680E+03  0.16213821011E+04  0.20339341434E+04  0.89961078070E+03 0.  0.
        -24    2    4    4    0    0 -0.43396138646E+03  0.17634549159E+03  0.17598970635E+03  0.50677158687E+03  0.80155144444E+02 0.  0.
         24    2    4    4    0    0 -0.39508435920E+03 -0.28307775839E+03  0.14453923948E+04  0.15271625565E+04  0.82714152718E+02 0.  0.
         13    1    3    3    0    0  0.57549722698E+02  0.31356360062E+02  0.72304679607E+02  0.97586672205E+02  0.00000000000E+00 0. -1.
        -13    1    3    3    0    0  0.77149602296E+03  0.75375906741E+02  0.92655147282E+03  0.12080501945E+04  0.00000000000E+00 0.  1.
          2    1    6    6  502    0 -0.39332583123E+03 -0.27479085579E+03  0.13759940078E+04  0.14572490294E+04  0.00000000000E+00 0. -1.
          1    1    5    5  503    0 -0.41617408065E+03  0.15797326893E+03  0.14858952700E+03  0.46929230404E+03  0.00000000000E+00 0. -1.
         -2    1    5    5    0  503 -0.17787305816E+02  0.18372222654E+02  0.27400179348E+02  0.37479282834E+02  0.00000000000E+00 0.  1.
         -1    1    6    6    0  502 -0.17585279693E+01 -0.82869025997E+01  0.69398386919E+02  0.69913527176E+02  0.00000000000E+00 0.  1.
<mgrwt>
<rscale>  0 0.20705280E+04</rscale>
<asrwt>0</asrwt>
<pdfrwt beam="1">  1        2 0.45844685E+00 0.20705280E+04</pdfrwt>
<pdfrwt beam="2">  1       -2 0.55333291E-01 0.20705280E+04</pdfrwt>
<totfact> 0.50926782E+00</totfact>
</mgrwt>
</event>
<event>
12    1  0.1727556E-007  0.2394027E+04  0.7818608E-02  0.8441743E-01
         -1   -1    0    0    0  501 -0.00000000000E+00  0.00000000000E+00  0.77648472797E+03  0.77648472797E+03  0.00000000000E+00 0.  1.
          1   -1    0    0  501    0  0.00000000000E+00 -0.00000000000E+00 -0.18452919774E+04  0.18452919774E+04  0.00000000000E+00 0. -1.
         23    2    1    2    0    0  0.49493780680E+03  0.34879721304E+03 -0.13720691367E+04  0.15024959899E+04  0.91090918590E+02 0.  0.
        254    2    1    2    0    0 -0.49493780680E+03 -0.34879721304E+03  0.30326188730E+03  0.11192807154E+04  0.89117821965E+03 0.  0.
        -24    2    4    4    0    0 -0.28784048179E+03 -0.60166272754E+03  0.38403247651E+03  0.77383256449E+03  0.80533931914E+02 0.  0.
         24    2    4    4    0    0 -0.20709732501E+03  0.25286551450E+03 -0.80770589210E+02  0.34544815092E+03  0.77332182474E+02 0.  0.
         13    1    3    3    0    0  0.32460082273E+03  0.25880959188E+03 -0.84866910494E+03  0.94476841006E+03  0.00000000000E+00 0.  1.
        -13    1    3    3    0    0  0.17033698407E+03  0.89987621163E+02 -0.52340003175E+03  0.55772757986E+03  0.00000000000E+00 0. -1.
          4    1    6    6  502    0 -0.19228883498E+03  0.22894950368E+03 -0.48933268537E+02  0.30296424882E+03  0.00000000000E+00 0. -1.
          1    1    5    5  503    0 -0.27841398035E+03 -0.60100803871E+03  0.37835855763E+03  0.76281072697E+03  0.00000000000E+00 0. -1.
         -2    1    5    5    0  503 -0.94265014375E+01 -0.65468882223E+00  0.56739188804E+01  0.11021837518E+02  0.00000000000E+00 0.  1.
         -3    1    6    6    0  502 -0.14808490038E+02  0.23916010817E+02 -0.31837320674E+02  0.42483902107E+02  0.00000000000E+00 0.  1.
<mgrwt>
<rscale>  0 0.23940268E+04</rscale>
<asrwt>0</asrwt>
<pdfrwt beam="1">  1        1 0.28389107E+00 0.23940268E+04</pdfrwt>
<pdfrwt beam="2">  1       -1 0.11945919E+00 0.23940268E+04</pdfrwt>
<totfact> 0.21297978E+00</totfact>
</mgrwt>
</event>
<event>
12    1  0.1506149E-007  0.1287650E+04  0.7818608E-02  0.9039417E-01
         -2   -1    0    0    0  501 -0.00000000000E+00  0.00000000000E+00  0.56141594958E+03  0.56141594958E+03  0.00000000000E+00 0.  1.
          2   -1    0    0  501    0  0.00000000000E+00 -0.00000000000E+00 -0.73833052186E+03  0.73833052186E+03  0.00000000000E+00 0. -1.
         23    2    1    2    0    0 -0.14925188935E+03 -0.26034865537E+03  0.47464793060E+02  0.31668790278E+03  0.89335168661E+02 0.  0.
        254    2    1    2    0    0  0.14925188935E+03  0.26034865537E+03 -0.22437936534E+03  0.98305856866E+03  0.90884569703E+03 0.  0.
        -24    2    4    4    0    0 -0.33262597277E+03  0.30337220980E+03 -0.18429611416E+03  0.49151861043E+03  0.70361575198E+02 0.  0.
         24    2    4    4    0    0  0.48187786212E+03 -0.43023554433E+02 -0.40083251174E+02  0.49153995823E+03  0.77120446561E+02 0.  0.
         13    1    3    3    0    0  0.34545120765E+01 -0.71673015321E+01 -0.12674533951E+02  0.14964881416E+02  0.00000000000E+00 0. -1.
        -13    1    3    3    0    0 -0.15270640143E+03 -0.25318135384E+03  0.60139327010E+02  0.30172302136E+03  0.00000000000E+00 0.  1.
          4    1    6    6  502    0  0.48345696911E+03 -0.40358257036E+02 -0.36080502880E+02  0.48647839888E+03  0.00000000000E+00 0. -1.
          1    1    5    5  503    0 -0.29755896747E+03  0.24121608093E+03 -0.14176664923E+03  0.40844132952E+03  0.00000000000E+00 0. -1.
         -2    1    5    5    0  503 -0.35067005294E+02  0.62156128874E+02 -0.42529464930E+02  0.83077280914E+02  0.00000000000E+00 0.  1.
         -3    1    6    6    0  502 -0.15791069934E+01 -0.26652973972E+01 -0.40027482942E+01  0.50615593466E+01  0.00000000000E+00 0.  1.
<mgrwt>
<rscale>  0 0.12876498E+04</rscale>
<asrwt>0</asrwt>
<pdfrwt beam="1">  1        2 0.11358931E+00 0.12876498E+04</pdfrwt>
<pdfrwt beam="2">  1       -2 0.86371685E-01 0.12876498E+04</pdfrwt>
<totfact> 0.43629982E+01</totfact>
</mgrwt>
</event>
<event>
12    1  0.1506149E-007  0.1658836E+04  0.7818608E-02  0.8785196E-01
          2   -1    0    0  501    0  0.00000000000E+00  0.00000000000E+00  0.56899571742E+03  0.56899571742E+03  0.00000000000E+00 0. -1.
         -2   -1    0    0    0  501 -0.00000000000E+00 -0.00000000000E+00 -0.12090327554E+04  0.12090327554E+04  0.00000000000E+00 0.  1.
         23    2    1    2    0    0 -0.47259310323E+02 -0.12478069371E+03 -0.82572549012E+03  0.84148499776E+03  0.92036691027E+02 0.  0.
        254    2    1    2    0    0  0.47259310323E+02  0.12478069371E+03  0.18568845218E+03  0.93654347501E+03  0.90820141784E+03 0.  0.
        -24    2    4    4    0    0  0.68044942203E+02  0.13928205537E+03 -0.35097892264E+03  0.39319477665E+03  0.85943720769E+02 0.  0.
         24    2    4    4    0    0 -0.20785631880E+02 -0.14501361658E+02  0.53666737482E+03  0.54334869835E+03  0.81077770230E+02 0.  0.
         13    1    3    3    0    0  0.27908309213E+02 -0.29540812448E+02 -0.19314455168E+03  0.19737363342E+03  0.00000000000E+00 0. -1.
        -13    1    3    3    0    0 -0.75167619536E+02 -0.95239881265E+02 -0.63258093843E+03  0.64411136434E+03  0.00000000000E+00 0.  1.
          2    1    6    6  502    0 -0.30319559232E+02 -0.14606169309E+02  0.53138311685E+03  0.53244777465E+03  0.00000000000E+00 0. -1.
          1    1    5    5  503    0  0.39891157300E+02  0.12372532785E+03 -0.33028497010E+03  0.35494707022E+03  0.00000000000E+00 0. -1.
         -2    1    5    5    0  503  0.28153784903E+02  0.15556727525E+02 -0.20693952539E+02  0.38247706432E+02  0.00000000000E+00 0.  1.
         -1    1    6    6    0  502  0.95339273517E+01  0.10480765118E+00  0.52842579705E+01  0.10900923708E+02  0.00000000000E+00 0.  1.
<mgrwt>
<rscale>  0 0.16588363E+04</rscale>
<asrwt>0</asrwt>
<pdfrwt beam="1">  1        2 0.87537804E-01 0.16588363E+04</pdfrwt>
<pdfrwt beam="2">  1       -2 0.18600504E+00 0.16588363E+04</pdfrwt>
<totfact> 0.83159668E+00</totfact>
</mgrwt>
</event>
<event>
12    1  0.1506149E-007  0.1407137E+04  0.7818608E-02  0.8948668E-01
          2   -1    0    0  501    0  0.00000000000E+00  0.00000000000E+00  0.20783869666E+04  0.20783869666E+04  0.00000000000E+00 0. -1.
         -2   -1    0    0    0  501 -0.00000000000E+00 -0.00000000000E+00 -0.23816969251E+03  0.23816969251E+03  0.00000000000E+00 0.  1.
         23    2    1    2    0    0  0.35051690344E+03 -0.16889772422E+03  0.35110305147E+03  0.53180193803E+03  0.90285146637E+02 0.  0.
        254    2    1    2    0    0 -0.35051690344E+03  0.16889772422E+03  0.14891142227E+04  0.17847547211E+04  0.90360373260E+03 0.  0.
        -24    2    4    4    0    0  0.17887781505E+03  0.34392684109E+03  0.42193442993E+03  0.57807550696E+03  0.76548571825E+02 0.  0.
         24    2    4    4    0    0 -0.52939471849E+03 -0.17502911687E+03  0.10671797927E+04  0.12066792141E+04  0.79423272057E+02 0.  0.
         13    1    3    3    0    0  0.29823134873E+03 -0.17578912427E+03  0.31340564949E+03  0.46697628923E+03  0.00000000000E+00 0. -1.
        -13    1    3    3    0    0  0.52285554713E+02  0.68914000521E+01  0.37697401976E+02  0.64825648798E+02  0.00000000000E+00 0.  1.
          4    1    6    6  502    0 -0.12013607355E+03 -0.94397676059E+01  0.26264237833E+03  0.28896851779E+03  0.00000000000E+00 0. -1.
          3    1    5    5  503    0  0.96988929085E+02  0.12221862488E+03  0.20186328273E+03  0.25513335640E+03  0.00000000000E+00 0. -1.
         -4    1    5    5    0  503  0.81888885965E+02  0.22170821621E+03  0.22007114720E+03  0.32294215056E+03  0.00000000000E+00 0.  1.
         -3    1    6    6    0  502 -0.40925864493E+03 -0.16558934927E+03  0.80453741440E+03  0.91771069636E+03  0.00000000000E+00 0.  1.
<mgrwt>
<rscale>  0 0.14071372E+04</rscale>
<asrwt>0</asrwt>
<pdfrwt beam="1">  1        2 0.31975183E+00 0.14071372E+04</pdfrwt>
<pdfrwt beam="2">  1       -2 0.36641493E-01 0.14071372E+04</pdfrwt>
<totfact> 0.41263506E+01</totfact>
</mgrwt>
</event>
<event>
12    1  0.1506149E-007  0.1798909E+04  0.7818608E-02  0.8706880E-01
         -2   -1    0    0    0  501 -0.00000000000E+00  0.00000000000E+00  0.17702828134E+04  0.17702828134E+04  0.00000000000E+00 0.  1.
          2   -1    0    0  501    0  0.00000000000E+00 -0.00000000000E+00 -0.45699928468E+03  0.45699928468E+03  0.00000000000E+00 0. -1.
         23    2    1    2    0    0 -0.50486807193E+03  0.99293893095E+02  0.10222326627E+04  0.11479516345E+04  0.89901564881E+02 0.  0.
        254    2    1    2    0    0  0.50486807193E+03 -0.99293893095E+02  0.29105086604E+03  0.10793304635E+04  0.90304628653E+03 0.  0.
        -24    2    4    4    0    0  0.31593746939E+02 -0.44138349142E+03  0.11162092488E+03  0.46326495787E+03  0.79609289508E+02 0.  0.
         24    2    4    4    0    0  0.47327432499E+03  0.34208959832E+03  0.17942994116E+03  0.61606550566E+03  0.79546989233E+02 0.  0.
         13    1    3    3    0    0 -0.49151576659E+03  0.99818898783E+02  0.94773912058E+03  0.10722690903E+04  0.00000000000E+00 0.  1.
        -13    1    3    3    0    0 -0.13352305340E+02 -0.52500568861E+00  0.74493542077E+02  0.75682544223E+02  0.00000000000E+00 0. -1.
          4    1    6    6  502    0  0.29453943961E+03  0.17607347681E+03  0.78192414764E+02  0.35195085516E+03  0.00000000000E+00 0. -1.
          1    1    5    5  503    0 -0.13665832808E+02 -0.30786734378E+03  0.86345413414E+02  0.32003841452E+03  0.00000000000E+00 0. -1.
         -2    1    5    5    0  503  0.45259579747E+02 -0.13351614764E+03  0.25275511465E+02  0.14322654335E+03  0.00000000000E+00 0.  1.
         -3    1    6    6    0  502  0.17873488538E+03  0.16601612152E+03  0.10123752640E+03  0.26411465050E+03  0.00000000000E+00 0.  1.
<mgrwt>
<rscale>  0 0.17989085E+04</rscale>
<asrwt>0</asrwt>
<pdfrwt beam="1">  1        2 0.70307583E-01 0.17989085E+04</pdfrwt>
<pdfrwt beam="2">  1       -2 0.27235120E+00 0.17989085E+04</pdfrwt>
<totfact> 0.30269410E+00</totfact>
</mgrwt>
</event>
<event>
12    1  0.1506149E-007  0.1786852E+04  0.7818608E-02  0.8713323E-01
         -1   -1    0    0    0  501 -0.00000000000E+00  0.00000000000E+00  0.18097508094E+04  0.18097508094E+04  0.00000000000E+00 0.  1.
          1   -1    0    0  501    0  0.00000000000E+00 -0.00000000000E+00 -0.44106078570E+03  0.44106078570E+03  0.00000000000E+00 0. -1.
         23    2    1    2    0    0  0.17949495990E+03  0.34888282111E+03  0.11927669669E+04  0.12587399183E+04  0.88292021129E+02 0.  0.
        254    2    1    2    0    0 -0.17949495990E+03 -0.34888282111E+03  0.17592305678E+03  0.99207167682E+03  0.89404676978E+03 0.  0.
        -24    2    4    4    0    0 -0.36440100618E+03 -0.55795318140E+03  0.39980012640E+02  0.67199804881E+03  0.76701566210E+02 0.  0.
         24    2    4    4    0    0  0.18490604628E+03  0.20907036028E+03  0.13594304414E+03  0.32007362801E+03  0.77884238456E+02 0.  0.
         11    1    3    3    0    0  0.15592190850E+02  0.51978695807E+01  0.10447515948E+03  0.10576007381E+03  0.00000000000E+00 0. -1.
        -11    1    3    3    0    0  0.16390276905E+03  0.34368495153E+03  0.10882918074E+04  0.11529798445E+04  0.00000000000E+00 0.  1.
          4    1    6    6  502    0  0.20199825075E+02  0.21878270375E+02 -0.96983530067E+01  0.31316923519E+02  0.00000000000E+00 0. -1.
          1    1    5    5  503    0 -0.13152600349E+03 -0.19971723121E+03 -0.22445271075E+02  0.24018711920E+03  0.00000000000E+00 0. -1.
         -2    1    5    5    0  503 -0.23287500269E+03 -0.35823595018E+03  0.62425283714E+02  0.43181092961E+03  0.00000000000E+00 0.  1.
         -3    1    6    6    0  502  0.16470622120E+03  0.18719208991E+03  0.14564139714E+03  0.28875670449E+03  0.00000000000E+00 0.  1.
<mgrwt>
<rscale>  0 0.17868521E+04</rscale>
<asrwt>0</asrwt>
<pdfrwt beam="1">  1        1 0.67855506E-01 0.17868521E+04</pdfrwt>
<pdfrwt beam="2">  1       -1 0.27842320E+00 0.17868521E+04</pdfrwt>
<totfact> 0.22662697E+00</totfact>
</mgrwt>
</event>
<event>
12    1  0.1506149E-007  0.2202750E+04  0.7818608E-02  0.8517284E-01
         -1   -1    0    0    0  501 -0.00000000000E+00  0.00000000000E+00  0.94217637019E+03  0.94217637019E+03  0.00000000000E+00 0.  1.
          1   -1    0    0  501    0  0.00000000000E+00 -0.00000000000E+00 -0.12874736273E+04  0.12874736273E+04  0.00000000000E+00 0. -1.
         23    2    1    2    0    0  0.53159424990E+03 -0.51295787709E+03 -0.62239266364E+03  0.97057462122E+03  0.94468181943E+02 0.  0.
        254    2    1    2    0    0 -0.53159424990E+03  0.51295787709E+03  0.27709540657E+03  0.12590753762E+04  0.98120879962E+03 0.  0.
        -24    2    4    4    0    0 -0.42973929725E+03  0.78111061984E+03  0.73148931863E+02  0.89814154781E+03  0.80608992262E+02 0.  0.
         24    2    4    4    0    0 -0.10185495265E+03 -0.26815274275E+03  0.20394647471E+03  0.36093382841E+03  0.79992119116E+02 0.  0.
         13    1    3    3    0    0  0.27136860420E+03 -0.20459097216E+03 -0.31427001780E+03  0.46288662686E+03  0.00000000000E+00 0. -1.
        -13    1    3    3    0    0  0.26022564571E+03 -0.30836690494E+03 -0.30812264584E+03  0.50768799436E+03  0.00000000000E+00 0.  1.
          4    1    6    6  502    0 -0.48428852067E+02 -0.43998799542E+02  0.28777484874E+02  0.71480009158E+02  0.00000000000E+00 0. -1.
          1    1    5    5  503    0 -0.15521218110E+02  0.15996327235E+02 -0.94008043413E+01  0.24190200886E+02  0.00000000000E+00 0. -1.
         -2    1    5    5    0  503 -0.41421807914E+03  0.76511429261E+03  0.82549736205E+02  0.87395134692E+03  0.00000000000E+00 0.  1.
         -3    1    6    6    0  502 -0.53426100584E+02 -0.22415394321E+03  0.17516898984E+03  0.28945381925E+03  0.00000000000E+00 0.  1.
<mgrwt>
<rscale>  0 0.22027503E+04</rscale>
<asrwt>0</asrwt>
<pdfrwt beam="1">  1        1 0.19807286E+00 0.22027503E+04</pdfrwt>
<pdfrwt beam="2">  1       -1 0.14495021E+00 0.22027503E+04</pdfrwt>
<totfact> 0.32192808E+00</totfact>
</mgrwt>
</event>
<event>
12    1  0.1506149E-007  0.2574567E+04  0.7818608E-02  0.8376892E-01
         -1   -1    0    0    0  501 -0.00000000000E+00  0.00000000000E+00  0.63235565000E+03  0.63235565000E+03  0.00000000000E+00 0.  1.
          1   -1    0    0  501    0  0.00000000000E+00 -0.00000000000E+00 -0.26205180856E+04  0.26205180856E+04  0.00000000000E+00 0. -1.
         23    2    1    2    0    0 -0.24053157848E+03 -0.51495095933E+03  0.35709394473E+03  0.67704659487E+03  0.88578075731E+02 0.  0.
        254    2    1    2    0    0  0.24053157848E+03  0.51495095933E+03 -0.23452563803E+04  0.25758271407E+04  0.90090401193E+03 0.  0.
        -24    2    4    4    0    0  0.24794744554E+03  0.40089452289E+03 -0.23841909396E+04  0.24316376888E+04  0.79379208716E+02 0.  0.
         24    2    4    4    0    0 -0.74158670631E+01  0.11405643644E+03  0.38934559289E+02  0.14418945194E+03  0.78808834319E+02 0.  0.
         11    1    3    3    0    0 -0.96551670384E+01 -0.76511088257E+02  0.27253719643E+02  0.81792017405E+02  0.00000000000E+00 0. -1.
        -11    1    3    3    0    0 -0.23087641144E+03 -0.43843987107E+03  0.32984022508E+03  0.59525457746E+03  0.00000000000E+00 0.  1.
          2    1    6    6  502    0  0.27598446261E+02  0.19141221999E+02 -0.48840535918E+01  0.33939867341E+02  0.00000000000E+00 0. -1.
          3    1    5    5  503    0  0.23196748309E+02  0.97972150199E+02 -0.47890471819E+03  0.48937343660E+03  0.00000000000E+00 0. -1.
         -4    1    5    5    0  503  0.22475069724E+03  0.30292237269E+03 -0.19052862214E+04  0.19422642522E+04  0.00000000000E+00 0.  1.
         -1    1    6    6    0  502 -0.35014313324E+02  0.94915214442E+02  0.43818612881E+02  0.11024958460E+03  0.00000000000E+00 0.  1.
<mgrwt>
<rscale>  0 0.25745675E+04</rscale>
<asrwt>0</asrwt>
<pdfrwt beam="1">  1        1 0.40315663E+00 0.25745675E+04</pdfrwt>
<pdfrwt beam="2">  1       -1 0.97285484E-01 0.25745675E+04</pdfrwt>
<totfact> 0.99952392E-01</totfact>
</mgrwt>
</event>
<event>
12    1  0.1506149E-007  0.1215125E+04  0.7818608E-02  0.9099720E-01
         -1   -1    0    0    0  501 -0.00000000000E+00  0.00000000000E+00  0.84516061224E+03  0.84516061224E+03  0.00000000000E+00 0.  1.
          1   -1    0    0  501    0  0.00000000000E+00 -0.00000000000E+00 -0.43675950528E+03  0.43675950528E+03  0.00000000000E+00 0. -1.
         23    2    1    2    0    0 -0.14248262725E+02 -0.17909555221E+03  0.28901945301E+03  0.35273329444E+03  0.92791718251E+02 0.  0.
        254    2    1    2    0    0  0.14248262725E+02  0.17909555221E+03  0.11938165395E+03  0.92918682308E+03  0.90380193797E+03 0.  0.
        -24    2    4    4    0    0 -0.18133606230E+02 -0.17519596292E+02 -0.37832139279E+03  0.38715974996E+03  0.78293242480E+02 0.  0.
         24    2    4    4    0    0  0.32381868955E+02  0.19661514850E+03  0.49770304674E+03  0.54202707312E+03  0.79868161386E+02 0.  0.
         13    1    3    3    0    0 -0.45832464508E+00  0.29815731259E+01 -0.54588839542E+01  0.62369266318E+01  0.00000000000E+00 0. -1.
        -13    1    3    3    0    0 -0.13789938080E+02 -0.18207712534E+03  0.29447833697E+03  0.34649636781E+03  0.00000000000E+00 0.  1.
          2    1    6    6  502    0 -0.43313173078E+01  0.13385308260E+03  0.24672742959E+03  0.28073088990E+03  0.00000000000E+00 0. -1.
          1    1    5    5  503    0  0.18531330591E+02 -0.36463986186E+02 -0.17975019162E+03  0.18434523017E+03  0.00000000000E+00 0. -1.
         -2    1    5    5    0  503 -0.36664936821E+02  0.18944389894E+02 -0.19857120117E+03  0.20281451979E+03  0.00000000000E+00 0.  1.
         -1    1    6    6    0  502  0.36713186262E+02  0.62762065899E+02  0.25097561715E+03  0.26129618322E+03  0.00000000000E+00 0.  1.
<mgrwt>
<rscale>  0 0.12151246E+04</rscale>
<asrwt>0</asrwt>
<pdfrwt beam="1">  1        1 0.67193770E-01 0.12151246E+04</pdfrwt>
<pdfrwt beam="2">  1       -1 0.13002471E+00 0.12151246E+04</pdfrwt>
<totfact> 0.26727200E+01</totfact>
</mgrwt>
</event>
<event>
12    1  0.1506149E-007  0.1788336E+04  0.7818608E-02  0.8712527E-01
         -2   -1    0    0    0  501 -0.00000000000E+00  0.00000000000E+00  0.58712421886E+03  0.58712421886E+03  0.00000000000E+00 0.  1.
          2   -1    0    0  501    0  0.00000000000E+00 -0.00000000000E+00 -0.13617847067E+04  0.13617847067E+04  0.00000000000E+00 0. -1.
         23    2    1    2    0    0  0.22038794217E+03 -0.12410720412E+03  0.37760072186E+03  0.46371617380E+03  0.92070307561E+02 0.  0.
        254    2    1    2    0    0 -0.22038794217E+03  0.12410720412E+03 -0.11522612097E+04  0.14851927518E+04  0.90228497237E+03 0.  0.
        -24    2    4    4    0    0  0.32820914223E+03 -0.48909810481E+02 -0.29832041005E+03  0.45248611393E+03  0.75068006810E+02 0.  0.
         24    2    4    4    0    0 -0.54859708439E+03  0.17301701460E+03 -0.85394079968E+03  0.10327066379E+04  0.79840229140E+02 0.  0.
         11    1    3    3    0    0  0.89215258159E+02 -0.43237778678E+02  0.75613835589E+02  0.12468488251E+03  0.00000000000E+00 0. -1.
        -11    1    3    3    0    0  0.13117268401E+03 -0.80869425438E+02  0.30198688627E+03  0.33903129129E+03  0.00000000000E+00 0.  1.
          4    1    6    6  502    0 -0.47970209409E+03  0.17710973855E+03 -0.76404356337E+03  0.91937181014E+03  0.00000000000E+00 0. -1.
          3    1    5    5  503    0  0.25017857627E+03 -0.50404938912E+02 -0.26413156237E+03  0.36728117312E+03  0.00000000000E+00 0. -1.
         -4    1    5    5    0  503  0.78030565957E+02  0.14951284316E+01 -0.34188847683E+02  0.85204940811E+02  0.00000000000E+00 0.  1.
         -3    1    6    6    0  502 -0.68894990303E+02 -0.40927239507E+01 -0.89897236307E+02  0.11333482772E+03  0.00000000000E+00 0.  1.
<mgrwt>
<rscale>  0 0.17883364E+04</rscale>
<asrwt>0</asrwt>
<pdfrwt beam="1">  1        2 0.20950534E+00 0.17883364E+04</pdfrwt>
<pdfrwt beam="2">  1       -2 0.90326803E-01 0.17883364E+04</pdfrwt>
<totfact> 0.15075378E+01</totfact>
</mgrwt>
</event>
<event>
12    1  0.1524431E-007  0.1734146E+04  0.7818608E-02  0.8742126E-01
         -2   -1    0    0    0  501 -0.00000000000E+00  0.00000000000E+00  0.35139637390E+03  0.35139637390E+03  0.00000000000E+00 0.  1.
          2   -1    0    0  501    0  0.00000000000E+00 -0.00000000000E+00 -0.21395086091E+04  0.21395086091E+04  0.00000000000E+00 0. -1.
         23    2    1    2    0    0 -0.55249603271E+02 -0.61156116740E+03 -0.84046517180E+03  0.10447205285E+04  0.89441027690E+02 0.  0.
        254    2    1    2    0    0  0.55249603271E+02  0.61156116740E+03 -0.94764706336E+03  0.14461844545E+04  0.90352362429E+03 0.  0.
        -24    2    4    4    0    0 -0.37899706366E+03  0.50580391830E+03 -0.52728136254E+03  0.82754360986E+03  0.85594467761E+02 0.  0.
         24    2    4    4    0    0  0.43424666693E+03  0.10575724910E+03 -0.42036570081E+03  0.61864084465E+03  0.79084820092E+02 0.  0.
         11    1    3    3    0    0 -0.75089116223E+01 -0.75992978464E+02 -0.16141791549E+03  0.17856948219E+03  0.00000000000E+00 0.  1.
        -11    1    3    3    0    0 -0.47740691649E+02 -0.53556818893E+03 -0.67904725631E+03  0.86615104626E+03  0.00000000000E+00 0. -1.
          4    1    6    6  502    0  0.43303779606E+03  0.11112952286E+03 -0.40864717689E+03  0.60569300710E+03  0.00000000000E+00 0. -1.
          3    1    5    5  503    0 -0.27699493307E+03  0.42296794686E+03 -0.43503273412E+03  0.66699442034E+03  0.00000000000E+00 0. -1.
         -4    1    5    5    0  503 -0.10200213058E+03  0.82835971443E+02 -0.92248628423E+02  0.16054918952E+03  0.00000000000E+00 0.  1.
         -1    1    6    6    0  502  0.12088708681E+01 -0.53722737673E+01 -0.11718523921E+02  0.12947837545E+02  0.00000000000E+00 0.  1.
<mgrwt>
<rscale>  0 0.17341460E+04</rscale>
<asrwt>0</asrwt>
<pdfrwt beam="1">  1        2 0.32915518E+00 0.17341460E+04</pdfrwt>
<pdfrwt beam="2">  1       -2 0.54060979E-01 0.17341460E+04</pdfrwt>
<totfact> 0.17080849E+01</totfact>
</mgrwt>
</event>
<event>
12    1  0.1506149E-007  0.1395127E+04  0.7818608E-02  0.8957353E-01
         -2   -1    0    0    0  501 -0.00000000000E+00  0.00000000000E+00  0.11770453550E+04  0.11770453550E+04  0.00000000000E+00 0.  1.
          2   -1    0    0  501    0  0.00000000000E+00 -0.00000000000E+00 -0.41340391263E+03  0.41340391263E+03  0.00000000000E+00 0. -1.
         23    2    1    2    0    0 -0.16369520595E+03 -0.15543822709E+02 -0.19326589565E+03  0.26949936723E+03  0.90777043577E+02 0.  0.
        254    2    1    2    0    0  0.16369520595E+03  0.15543822709E+02  0.95690733799E+03  0.13209499004E+04  0.89565576810E+03 0.  0.
        -24    2    4    4    0    0 -0.25223858462E+03  0.74245886257E+02  0.83072743736E+03  0.87504924541E+03  0.80413627645E+02 0.  0.
         24    2    4    4    0    0  0.41593379057E+03 -0.58702063548E+02  0.12617990063E+03  0.44590065496E+03  0.80369001297E+02 0.  0.
         13    1    3    3    0    0 -0.12209276949E+03 -0.33594041719E+02 -0.86087802291E+02  0.15312189165E+03  0.00000000000E+00 0. -1.
        -13    1    3    3    0    0 -0.41602436465E+02  0.18050219010E+02 -0.10717809336E+03  0.11637747558E+03  0.00000000000E+00 0.  1.
          2    1    6    6  502    0  0.23445005698E+02  0.35539483255E+01  0.27740471406E+02  0.36494281671E+02  0.00000000000E+00 0. -1.
          1    1    5    5  503    0 -0.12289907786E+03  0.38725640765E+02  0.53544184648E+03  0.55072845355E+03  0.00000000000E+00 0. -1.
         -2    1    5    5    0  503 -0.12933950676E+03  0.35520245492E+02  0.29528559088E+03  0.32432079186E+03  0.00000000000E+00 0.  1.
         -1    1    6    6    0  502  0.39248878487E+03 -0.62256011874E+02  0.98439429220E+02  0.40940637329E+03  0.00000000000E+00 0.  1.
<mgrwt>
<rscale>  0 0.13951275E+04</rscale>
<asrwt>0</asrwt>
<pdfrwt beam="1">  1        2 0.63600602E-01 0.13951275E+04</pdfrwt>
<pdfrwt beam="2">  1       -2 0.18108390E+00 0.13951275E+04</pdfrwt>
<totfact> 0.13278254E+01</totfact>
</mgrwt>
</event>
<event>
12    1  0.1506149E-007  0.2107064E+04  0.7818608E-02  0.8558138E-01
         -2   -1    0    0    0  501 -0.00000000000E+00  0.00000000000E+00  0.90703274043E+03  0.90703274043E+03  0.00000000000E+00 0.  1.
          2   -1    0    0  501    0  0.00000000000E+00 -0.00000000000E+00 -0.12236928133E+04  0.12236928133E+04  0.00000000000E+00 0. -1.
         23    2    1    2    0    0 -0.40965908632E+03  0.50743575824E+02  0.63117947729E+03  0.75999912257E+03  0.93891726264E+02 0.  0.
        254    2    1    2    0    0  0.40965908632E+03 -0.50743575824E+02 -0.94783955013E+03  0.13707264311E+04  0.90005314217E+03 0.  0.
        -24    2    4    4    0    0  0.57202913348E+03  0.24950434554E+03 -0.69969174501E+03  0.94087412523E+03  0.78777112774E+02 0.  0.
         24    2    4    4    0    0 -0.16237004716E+03 -0.30024792136E+03 -0.24814780512E+03  0.42985230591E+03  0.81748548674E+02 0.  0.
         11    1    3    3    0    0 -0.21293065798E+03  0.16784939854E+02  0.40822710571E+03  0.46072830296E+03  0.00000000000E+00 0. -1.
        -11    1    3    3    0    0 -0.19672842835E+03  0.33958635970E+02  0.22295237157E+03  0.29927081960E+03  0.00000000000E+00 0.  1.
          4    1    6    6  502    0 -0.49583098430E+02 -0.30877883116E+02 -0.50608654132E+02  0.77286241911E+02  0.00000000000E+00 0. -1.
          1    1    5    5  503    0  0.25138747644E+02 -0.71964382946E+00 -0.13926972046E+02  0.28747783754E+02  0.00000000000E+00 0. -1.
         -2    1    5    5    0  503  0.54689038584E+03  0.25022398937E+03 -0.68576477296E+03  0.91212634147E+03  0.00000000000E+00 0.  1.
         -3    1    6    6    0  502 -0.11278694873E+03 -0.26937003825E+03 -0.19753915099E+03  0.35256606400E+03  0.00000000000E+00 0.  1.
<mgrwt>
<rscale>  0 0.21070638E+04</rscale>
<asrwt>0</asrwt>
<pdfrwt beam="1">  1        2 0.18826043E+00 0.21070638E+04</pdfrwt>
<pdfrwt beam="2">  1       -2 0.13954350E+00 0.21070638E+04</pdfrwt>
<totfact> 0.61173361E+00</totfact>
</mgrwt>
</event>
<event>
12    1  0.2559729E-007  0.1493467E+04  0.7818608E-02  0.8888809E-01
         -2   -1    0    0    0  501 -0.00000000000E+00  0.00000000000E+00  0.23105768809E+03  0.23105768809E+03  0.00000000000E+00 0. -1.
          2   -1    0    0  501    0  0.00000000000E+00 -0.00000000000E+00 -0.24132977460E+04  0.24132977460E+04  0.00000000000E+00 0.  1.
         23    2    1    2    0    0 -0.42208202515E+03 -0.18248847111E+03 -0.77501196679E+03  0.90484591572E+03  0.81531003151E+02 0.  0.
        254    2    1    2    0    0  0.42208202515E+03  0.18248847111E+03 -0.14072280911E+04  0.17395095183E+04  0.91331658587E+03 0.  0.
        -24    2    4    4    0    0  0.50321589188E+03 -0.21320262810E+03 -0.50654535550E+03  0.74930850233E+03  0.78698411783E+02 0.  0.
         24    2    4    4    0    0 -0.81133866731E+02  0.39569109921E+03 -0.90068273558E+03  0.99020101601E+03  0.78195342637E+02 0.  0.
         11    1    3    3    0    0 -0.80170816268E+02 -0.31075423122E+02 -0.21405312753E+03  0.23067679361E+03  0.00000000000E+00 0.  1.
        -11    1    3    3    0    0 -0.34191120888E+03 -0.15141304799E+03 -0.56095883926E+03  0.67416912211E+03  0.00000000000E+00 0. -1.
          4    1    6    6  502    0  0.12000931788E+02  0.16324305497E+02 -0.34518767487E+02  0.40025624574E+02  0.00000000000E+00 0. -1.
          1    1    5    5  503    0  0.10238402614E+03 -0.49105276900E+02 -0.15109001621E+03  0.18900267200E+03  0.00000000000E+00 0. -1.
         -2    1    5    5    0  503  0.40083186574E+03 -0.16409735120E+03 -0.35545533929E+03  0.56030583032E+03  0.00000000000E+00 0.  1.
         -3    1    6    6    0  502 -0.93134798519E+02  0.37936679371E+03 -0.86616396810E+03  0.95017539144E+03  0.00000000000E+00 0.  1.
<mgrwt>
<rscale>  0 0.14934671E+04</rscale>
<asrwt>0</asrwt>
<pdfrwt beam="1">  1        2 0.37127660E+00 0.14934671E+04</pdfrwt>
<pdfrwt beam="2">  1       -2 0.35547335E-01 0.14934671E+04</pdfrwt>
<totfact> 0.28142837E+01</totfact>
</mgrwt>
</event>
<event>
12    1  0.1506149E-007  0.1494101E+04  0.7818608E-02  0.8888385E-01
         -2   -1    0    0    0  501 -0.00000000000E+00  0.00000000000E+00  0.20038330358E+03  0.20038330358E+03  0.00000000000E+00 0. -1.
          2   -1    0    0  501    0  0.00000000000E+00 -0.00000000000E+00 -0.27850831362E+04  0.27850831362E+04  0.00000000000E+00 0.  1.
         23    2    1    2    0    0  0.28734177529E+03 -0.72058735410E+02 -0.14814722973E+04  0.15134847098E+04  0.90100177602E+02 0.  0.
        254    2    1    2    0    0 -0.28734177529E+03  0.72058735410E+02 -0.11032275353E+04  0.14719817299E+04  0.92836493981E+03 0.  0.
        -24    2    4    4    0    0 -0.33703920785E+03  0.16595372674E+03 -0.12299968206E+04  0.12886688904E+04  0.81481674652E+02 0.  0.
         24    2    4    4    0    0  0.49697432565E+02 -0.93894991326E+02  0.12676928537E+03  0.18331283950E+03  0.79038226288E+02 0.  0.
         11    1    3    3    0    0  0.14945259575E+03 -0.72773801392E+02 -0.94895140736E+03  0.96340068408E+03  0.00000000000E+00 0.  1.
        -11    1    3    3    0    0  0.13788917953E+03  0.71506598181E+00 -0.53252088995E+03  0.55008402575E+03  0.00000000000E+00 0. -1.
          4    1    6    6  502    0  0.15508602330E+02  0.12937506594E+02  0.17624669864E+02  0.26805313110E+02  0.00000000000E+00 0. -1.
          1    1    5    5  503    0 -0.18302257046E+03  0.12343256828E+03 -0.62138497730E+03  0.65943320377E+03  0.00000000000E+00 0. -1.
         -2    1    5    5    0  503 -0.15401663739E+03  0.42521158458E+02 -0.60861184333E+03  0.62923568665E+03  0.00000000000E+00 0.  1.
         -3    1    6    6    0  502  0.34188830235E+02 -0.10683249792E+03  0.10914461550E+03  0.15650752639E+03  0.00000000000E+00 0.  1.
<mgrwt>
<rscale>  0 0.14941006E+04</rscale>
<asrwt>0</asrwt>
<pdfrwt beam="1">  1        2 0.42847435E+00 0.14941006E+04</pdfrwt>
<pdfrwt beam="2">  1       -2 0.30828199E-01 0.14941006E+04</pdfrwt>
<totfact> 0.22354764E+01</totfact>
</mgrwt>
</event>
<event>
12    1  0.1506149E-007  0.1493792E+04  0.7818608E-02  0.8888592E-01
         -1   -1    0    0    0  501 -0.00000000000E+00  0.00000000000E+00  0.42886424666E+03  0.42886424666E+03  0.00000000000E+00 0.  1.
          1   -1    0    0  501    0  0.00000000000E+00 -0.00000000000E+00 -0.13007692233E+04  0.13007692233E+04  0.00000000000E+00 0. -1.
         23    2    1    2    0    0  0.23753476413E+02  0.22467974928E+03  0.19365231148E+03  0.31845976528E+03  0.11344684652E+03 0.  0.
        254    2    1    2    0    0 -0.23753476413E+02 -0.22467974928E+03 -0.10655572881E+04  0.14111737046E+04  0.89719210492E+03 0.  0.
        -24    2    4    4    0    0 -0.33352358839E+03  0.17317880089E+03 -0.63716841033E+03  0.74469738759E+03  0.85800552882E+02 0.  0.
         24    2    4    4    0    0  0.30977011198E+03 -0.39785855017E+03 -0.42838887774E+03  0.66647631705E+03  0.80154241220E+02 0.  0.
         13    1    3    3    0    0  0.31130070120E+02  0.13089443464E+02  0.57679226315E+02  0.66837922949E+02  0.00000000000E+00 0. -1.
        -13    1    3    3    0    0 -0.73765937073E+01  0.21159030582E+03  0.13597308516E+03  0.25162184233E+03  0.00000000000E+00 0.  1.
          4    1    6    6  502    0  0.46124050006E+01 -0.20934993917E+02 -0.39109325987E+02  0.44599188662E+02  0.00000000000E+00 0. -1.
          3    1    5    5  503    0 -0.20272471967E+03  0.10417054541E+03 -0.30202222711E+03  0.37837314937E+03  0.00000000000E+00 0. -1.
         -4    1    5    5    0  503 -0.13079886873E+03  0.69008255485E+02 -0.33514618322E+03  0.36632423823E+03  0.00000000000E+00 0.  1.
         -3    1    6    6    0  502  0.30515770698E+03 -0.37692355626E+03 -0.38927955176E+03  0.62187712838E+03  0.00000000000E+00 0.  1.
<mgrwt>
<rscale>  0 0.14937917E+04</rscale>
<asrwt>0</asrwt>
<pdfrwt beam="1">  1        1 0.20011834E+00 0.14937917E+04</pdfrwt>
<pdfrwt beam="2">  1       -1 0.65979117E-01 0.14937917E+04</pdfrwt>
<totfact> 0.20356283E+01</totfact>
</mgrwt>
</event>
<event>
12    1  0.1506149E-007  0.2069731E+04  0.7818608E-02  0.8574695E-01
          2   -1    0    0  501    0  0.00000000000E+00  0.00000000000E+00  0.32966043975E+04  0.32966043975E+04  0.00000000000E+00 0. -1.
         -2   -1    0    0    0  501 -0.00000000000E+00 -0.00000000000E+00 -0.32486363833E+03  0.32486363833E+03  0.00000000000E+00 0.  1.
         23    2    1    2    0    0  0.66393789458E+03 -0.55536808687E+02  0.32682800948E+03  0.74777535843E+03  0.91943319063E+02 0.  0.
        254    2    1    2    0    0 -0.66393789458E+03  0.55536808687E+02  0.26449127497E+04  0.28736926774E+04  0.90479184663E+03 0.  0.
        -24    2    4    4    0    0  0.10512843082E+03 -0.82523551966E+02  0.50956883424E+02  0.16344848599E+03  0.79099178317E+02 0.  0.
         24    2    4    4    0    0 -0.76906632539E+03  0.13806036065E+03  0.25939558662E+04  0.27102441914E+04  0.79327579818E+02 0.  0.
         11    1    3    3    0    0  0.71167030191E+02  0.13075911461E+02  0.60468185562E+02  0.94298075865E+02  0.00000000000E+00 0. -1.
        -11    1    3    3    0    0  0.59277086439E+03 -0.68612720148E+02  0.26635982392E+03  0.65347728257E+03  0.00000000000E+00 0.  1.
          2    1    6    6  502    0 -0.11978194662E+03  0.41291310542E+02  0.34941489267E+03  0.37167654524E+03  0.00000000000E+00 0. -1.
          1    1    5    5  503    0  0.76782182743E+01  0.15345262022E+02  0.46061351519E+01  0.17766501722E+02  0.00000000000E+00 0. -1.
         -2    1    5    5    0  503  0.97450212542E+02 -0.97868813989E+02  0.46350748272E+02  0.14568198427E+03  0.00000000000E+00 0.  1.
         -1    1    6    6    0  502 -0.64928437877E+03  0.96769050112E+02  0.22445409736E+04  0.23385676461E+04  0.00000000000E+00 0.  1.
<mgrwt>
<rscale>  0 0.20697313E+04</rscale>
<asrwt>0</asrwt>
<pdfrwt beam="1">  1        2 0.50716988E+00 0.20697313E+04</pdfrwt>
<pdfrwt beam="2">  1       -2 0.49979024E-01 0.20697313E+04</pdfrwt>
<totfact> 0.39315267E+00</totfact>
</mgrwt>
</event>
<event>
12    1  0.1506149E-007  0.3062718E+04  0.7818608E-02  0.8226045E-01
          1   -1    0    0  501    0  0.00000000000E+00  0.00000000000E+00  0.23483064498E+04  0.23483064498E+04  0.00000000000E+00 0. -1.
         -1   -1    0    0    0  501 -0.00000000000E+00 -0.00000000000E+00 -0.99861772768E+03  0.99861772768E+03  0.00000000000E+00 0.  1.
         23    2    1    2    0    0 -0.67202948899E+02  0.62705613536E+02 -0.90349315094E+03  0.91278489909E+03  0.91805053725E+02 0.  0.
        254    2    1    2    0    0  0.67202948899E+02 -0.62705613536E+02  0.22531818731E+04  0.24341392784E+04  0.91638269473E+03 0.  0.
        -24    2    4    4    0    0  0.34912628899E+03 -0.22130770253E+03  0.52206676566E+03  0.67126253026E+03  0.84695996811E+02 0.  0.
         24    2    4    4    0    0 -0.28192334009E+03  0.15860208899E+03  0.17311151074E+04  0.17628767482E+04  0.79621113222E+02 0.  0.
         11    1    3    3    0    0 -0.18608743112E+02  0.36361242997E+02 -0.10950573716E+03  0.11687571083E+03  0.00000000000E+00 0. -1.
        -11    1    3    3    0    0 -0.48594205786E+02  0.26344370539E+02 -0.79398741379E+03  0.79590918825E+03  0.00000000000E+00 0.  1.
          2    1    6    6  502    0 -0.18176239163E+03  0.10505368953E+03  0.13099534540E+04  0.13266694752E+04  0.00000000000E+00 0. -1.
          3    1    5    5  503    0  0.17264060718E+03 -0.11440597106E+03  0.32853814675E+03  0.38836943666E+03  0.00000000000E+00 0. -1.
         -4    1    5    5    0  503  0.17648568181E+03 -0.10690173147E+03  0.19352861890E+03  0.28289309360E+03  0.00000000000E+00 0.  1.
         -1    1    6    6    0  502 -0.10016094846E+03  0.53548399458E+02  0.42116165340E+03  0.43620727296E+03  0.00000000000E+00 0.  1.
<mgrwt>
<rscale>  0 0.30627180E+04</rscale>
<asrwt>0</asrwt>
<pdfrwt beam="1">  1        1 0.36127791E+00 0.30627180E+04</pdfrwt>
<pdfrwt beam="2">  1       -1 0.15363350E+00 0.30627180E+04</pdfrwt>
<totfact> 0.47713125E-01</totfact>
</mgrwt>
</event>
<event>
12    1  0.1506149E-007  0.3204910E+04  0.7818608E-02  0.8187522E-01
         -1   -1    0    0    0  501 -0.00000000000E+00  0.00000000000E+00  0.10358113755E+04  0.10358113755E+04  0.00000000000E+00 0.  1.
          1   -1    0    0  501    0  0.00000000000E+00 -0.00000000000E+00 -0.24790822028E+04  0.24790822028E+04  0.00000000000E+00 0. -1.
         23    2    1    2    0    0 -0.13154474763E+04  0.11135633531E+03  0.57597651258E+02  0.13234357981E+04  0.73229269380E+02 0.  0.
        254    2    1    2    0    0  0.13154474763E+04 -0.11135633531E+03 -0.15008684786E+04  0.21914577803E+04  0.89837559872E+03 0.  0.
        -24    2    4    4    0    0  0.82364008103E+03 -0.41244179843E+03 -0.12565953268E+04  0.15599932413E+04  0.77819517972E+02 0.  0.
         24    2    4    4    0    0  0.49180739527E+03  0.30108546312E+03 -0.24427315180E+03  0.63146453898E+03  0.80938996555E+02 0.  0.
         13    1    3    3    0    0 -0.20355188143E+03 -0.13103160302E+01 -0.10023424502E+02  0.20380273404E+03  0.00000000000E+00 0. -1.
        -13    1    3    3    0    0 -0.11118955949E+04  0.11266665134E+03  0.67621075760E+02  0.11196330640E+04  0.00000000000E+00 0.  1.
          2    1    6    6  502    0  0.17974309126E+03  0.75598767319E+02 -0.55908668196E+02  0.20285100851E+03  0.00000000000E+00 0. -1.
          3    1    5    5  503    0  0.75095610225E+03 -0.35682269150E+03 -0.11567858916E+04  0.14245740064E+04  0.00000000000E+00 0. -1.
         -4    1    5    5    0  503  0.72683978780E+02 -0.55619106930E+02 -0.99809435183E+02  0.13541923489E+03  0.00000000000E+00 0.  1.
         -1    1    6    6    0  502  0.31206430401E+03  0.22548669580E+03 -0.18836448360E+03  0.42861353047E+03  0.00000000000E+00 0.  1.
<mgrwt>
<rscale>  0 0.32049097E+04</rscale>
<asrwt>0</asrwt>
<pdfrwt beam="1">  1        1 0.38139726E+00 0.32049097E+04</pdfrwt>
<pdfrwt beam="2">  1       -1 0.15935560E+00 0.32049097E+04</pdfrwt>
<totfact> 0.34612491E-01</totfact>
</mgrwt>
</event>
<event>
12    1  0.1506149E-007  0.1759526E+04  0.7818608E-02  0.8728124E-01
         -1   -1    0    0    0  501 -0.00000000000E+00  0.00000000000E+00  0.90148506866E+03  0.90148506866E+03  0.00000000000E+00 0.  1.
          1   -1    0    0  501    0  0.00000000000E+00 -0.00000000000E+00 -0.85856460954E+03  0.85856460954E+03  0.00000000000E+00 0. -1.
         23    2    1    2    0    0  0.39136758618E+03 -0.51853757022E+03  0.11700100043E+02  0.65615444876E+03  0.91389107965E+02 0.  0.
        254    2    1    2    0    0 -0.39136758618E+03  0.51853757022E+03  0.31220359075E+02  0.11038952294E+04  0.89194179603E+03 0.  0.
        -24    2    4    4    0    0 -0.64516477137E+03  0.51579728845E+03 -0.32109648900E+02  0.83046250893E+03  0.79702723939E+02 0.  0.
         24    2    4    4    0    0  0.25379718519E+03  0.27402817668E+01  0.63330007975E+02  0.27343272050E+03  0.79587953696E+02 0.  0.
         11    1    3    3    0    0  0.16585607659E+02 -0.23933588218E+01  0.73001836323E+01  0.18278490882E+02  0.00000000000E+00 0.  1.
        -11    1    3    3    0    0  0.37478197852E+03 -0.51614421140E+03  0.43999164109E+01  0.63787595788E+03  0.00000000000E+00 0. -1.
          2    1    6    6  502    0  0.21437653571E+03 -0.20760571053E+02  0.31712197489E+02  0.21770154763E+03  0.00000000000E+00 0. -1.
          3    1    5    5  503    0 -0.50615265066E+03  0.43645768192E+03 -0.65697235803E+01  0.66837786853E+03  0.00000000000E+00 0. -1.
         -4    1    5    5    0  503 -0.13901212071E+03  0.79339606532E+02 -0.25539925319E+02  0.16208464040E+03  0.00000000000E+00 0.  1.
         -1    1    6    6    0  502  0.39420649484E+02  0.23500852819E+02  0.31617810485E+02  0.55731172864E+02  0.00000000000E+00 0.  1.
<mgrwt>
<rscale>  0 0.17595263E+04</rscale>
<asrwt>0</asrwt>
<pdfrwt beam="1">  1        1 0.13208686E+00 0.17595263E+04</pdfrwt>
<pdfrwt beam="2">  1       -1 0.13869001E+00 0.17595263E+04</pdfrwt>
<totfact> 0.80132904E+00</totfact>
</mgrwt>
</event>
<event>
12    1  0.1506149E-007  0.2840743E+04  0.7818608E-02  0.8290730E-01
          2   -1    0    0  501    0  0.00000000000E+00  0.00000000000E+00  0.21111060075E+04  0.21111060075E+04  0.00000000000E+00 0. -1.
         -2   -1    0    0    0  501 -0.00000000000E+00 -0.00000000000E+00 -0.95563917039E+03  0.95563917039E+03  0.00000000000E+00 0.  1.
         23    2    1    2    0    0 -0.14236971310E+02  0.39137284921E+03 -0.78980033090E+03  0.88734937452E+03  0.10113827823E+03 0.  0.
        254    2    1    2    0    0  0.14236971310E+02 -0.39137284921E+03  0.19452671680E+04  0.21793958034E+04  0.90129147029E+03 0.  0.
        -24    2    4    4    0    0 -0.86947163574E+02  0.24872564037E+03  0.95001833710E+03  0.98906738823E+03  0.79342323002E+02 0.  0.
         24    2    4    4    0    0  0.10118413488E+03 -0.64009848957E+03  0.99524883094E+03  0.11903284152E+04  0.79982466658E+02 0.  0.
         11    1    3    3    0    0  0.22016306420E+02  0.33920580141E+03 -0.68719996339E+03  0.76667403970E+03  0.00000000000E+00 0.  1.
        -11    1    3    3    0    0 -0.36253277730E+02  0.52167047796E+02 -0.10260036750E+03  0.12067533482E+03  0.00000000000E+00 0. -1.
          4    1    6    6  502    0  0.17314125111E+02 -0.32456433718E+03  0.53611668104E+03  0.62694727337E+03  0.00000000000E+00 0. -1.
          3    1    5    5  503    0 -0.34166481482E+02  0.20139782381E+03  0.70293079588E+03  0.73201102156E+03  0.00000000000E+00 0. -1.
         -4    1    5    5    0  503 -0.52780682091E+02  0.47327816557E+02  0.24708754122E+03  0.25705636667E+03  0.00000000000E+00 0.  1.
         -3    1    6    6    0  502  0.83870009773E+02 -0.31553415240E+03  0.45913214990E+03  0.56338114181E+03  0.00000000000E+00 0.  1.
<mgrwt>
<rscale>  0 0.28407433E+04</rscale>
<asrwt>0</asrwt>
<pdfrwt beam="1">  1        2 0.32478554E+00 0.28407433E+04</pdfrwt>
<pdfrwt beam="2">  1       -2 0.14702141E+00 0.28407433E+04</pdfrwt>
<totfact> 0.15871966E+00</totfact>
</mgrwt>
</event>
<event>
12    1  0.1506149E-007  0.1120970E+04  0.7818608E-02  0.9184991E-01
          2   -1    0    0  501    0  0.00000000000E+00  0.00000000000E+00  0.12853525720E+04  0.12853525720E+04  0.00000000000E+00 0. -1.
         -2   -1    0    0    0  501 -0.00000000000E+00 -0.00000000000E+00 -0.24440252851E+03  0.24440252851E+03  0.00000000000E+00 0.  1.
         23    2    1    2    0    0  0.10878274254E+03 -0.49590319573E+02 -0.23949157734E+01  0.15212030852E+03  0.94031738114E+02 0.  0.
        254    2    1    2    0    0 -0.10878274254E+03  0.49590319573E+02  0.10433449593E+04  0.13776347920E+04  0.89163671485E+03 0.  0.
        -24    2    4    4    0    0  0.18970062957E+03 -0.10551485926E+03  0.10030750822E+04  0.10294156216E+04  0.80107347167E+02 0.  0.
         24    2    4    4    0    0 -0.29848337211E+03  0.15510517883E+03  0.40269877144E+02  0.34821917049E+03  0.80529421727E+02 0.  0.
         11    1    3    3    0    0  0.10474586309E+03 -0.25275638953E+01  0.76516290302E+00  0.10477914815E+03  0.00000000000E+00 0.  1.
        -11    1    3    3    0    0  0.40368794518E+01 -0.47062755678E+02 -0.31600786764E+01  0.47341160368E+02  0.00000000000E+00 0. -1.
          2    1    6    6  502    0 -0.30148435222E+03  0.14396485313E+03  0.36501584751E+02  0.33608192344E+03  0.00000000000E+00 0. -1.
          1    1    5    5  503    0  0.92313788724E+02 -0.30080531891E+02  0.29115796953E+03  0.30691959405E+03  0.00000000000E+00 0. -1.
         -2    1    5    5    0  503  0.97386840845E+02 -0.75434327366E+02  0.71191711263E+03  0.72249602751E+03  0.00000000000E+00 0.  1.
         -1    1    6    6    0  502  0.30009801150E+01  0.11140325700E+02  0.37682923927E+01  0.12137247048E+02  0.00000000000E+00 0.  1.
<mgrwt>
<rscale>  0 0.11209700E+04</rscale>
<asrwt>0</asrwt>
<pdfrwt beam="1">  1        2 0.19774655E+00 0.11209700E+04</pdfrwt>
<pdfrwt beam="2">  1       -2 0.37600390E-01 0.11209700E+04</pdfrwt>
<totfact> 0.11146602E+02</totfact>
</mgrwt>
</event>
<event>
12    1  0.1506149E-007  0.1789676E+04  0.7818608E-02  0.8711809E-01
          2   -1    0    0  501    0  0.00000000000E+00  0.00000000000E+00  0.18812514434E+04  0.18812514434E+04  0.00000000000E+00 0. -1.
         -2   -1    0    0    0  501 -0.00000000000E+00 -0.00000000000E+00 -0.42563940693E+03  0.42563940693E+03  0.00000000000E+00 0.  1.
         23    2    1    2    0    0  0.42852480992E+03 -0.91222429674E+02 -0.89443215139E+02  0.45722503632E+03  0.95391827289E+02 0.  0.
        254    2    1    2    0    0 -0.42852480992E+03  0.91222429674E+02  0.15450552516E+04  0.18496658140E+04  0.91766706846E+03 0.  0.
        -24    2    4    4    0    0 -0.39922856576E+03  0.23751196001E+03  0.23126454277E+03  0.52505867607E+03  0.80049645257E+02 0.  0.
         24    2    4    4    0    0 -0.29296244162E+02 -0.14628953034E+03  0.13137907088E+04  0.13246071379E+04  0.79241066456E+02 0.  0.
         13    1    3    3    0    0  0.14500022299E+03 -0.64407231217E+02  0.19541720914E+00  0.15866125642E+03  0.00000000000E+00 0. -1.
        -13    1    3    3    0    0  0.28352458693E+03 -0.26815198458E+02 -0.89638632348E+02  0.29856377990E+03  0.00000000000E+00 0.  1.
          4    1    6    6  502    0 -0.29472545931E+02 -0.53150484527E+02  0.81016755013E+03  0.81244388376E+03  0.00000000000E+00 0. -1.
          1    1    5    5  503    0 -0.21191933003E+03  0.14711256254E+03  0.88263247756E+02  0.27265786143E+03  0.00000000000E+00 0. -1.
         -2    1    5    5    0  503 -0.18730923573E+03  0.90399397476E+02  0.14300129502E+03  0.25240081464E+03  0.00000000000E+00 0.  1.
         -3    1    6    6    0  502  0.17630176859E+00 -0.93139045812E+02  0.50362315867E+03  0.51216325414E+03  0.00000000000E+00 0.  1.
<mgrwt>
<rscale>  0 0.17896757E+04</rscale>
<asrwt>0</asrwt>
<pdfrwt beam="1">  1        2 0.28942329E+00 0.17896757E+04</pdfrwt>
<pdfrwt beam="2">  1       -2 0.65482987E-01 0.17896757E+04</pdfrwt>
<totfact> 0.15788141E+01</totfact>
</mgrwt>
</event>
<event>
12    1  0.1506149E-007  0.1783878E+04  0.7818608E-02  0.8714920E-01
         -2   -1    0    0    0  501 -0.00000000000E+00  0.00000000000E+00  0.32540025698E+03  0.32540025698E+03  0.00000000000E+00 0.  1.
          2   -1    0    0  501    0  0.00000000000E+00 -0.00000000000E+00 -0.24448500234E+04  0.24448500234E+04  0.00000000000E+00 0. -1.
         23    2    1    2    0    0  0.46360147398E+03 -0.39577665914E+03 -0.40892645509E+03  0.73878203842E+03  0.83741053372E+02 0.  0.
        254    2    1    2    0    0 -0.46360147398E+03  0.39577665914E+03 -0.17105233113E+04  0.20314682419E+04  0.91071824889E+03 0.  0.
        -24    2    4    4    0    0  0.13263445496E+02  0.57080326862E+03 -0.79697763133E+03  0.98365366707E+03  0.80055614705E+02 0.  0.
         24    2    4    4    0    0 -0.47686491947E+03 -0.17502660948E+03 -0.91354567997E+03  0.10478145749E+04  0.72905476106E+02 0.  0.
         11    1    3    3    0    0  0.34072993930E+03 -0.32839695608E+03 -0.33937691421E+03  0.58233851169E+03  0.00000000000E+00 0. -1.
        -11    1    3    3    0    0  0.12287153468E+03 -0.67379703068E+02 -0.69549540879E+02  0.15644352673E+03  0.00000000000E+00 0.  1.
          4    1    6    6  502    0 -0.46733418906E+03 -0.16051905818E+03 -0.89544315583E+03  0.10227345978E+04  0.00000000000E+00 0. -1.
          1    1    5    5  503    0  0.32771483307E+02  0.18056706741E+03 -0.21487182954E+03  0.28257448413E+03  0.00000000000E+00 0. -1.
         -2    1    5    5    0  503 -0.19508037812E+02  0.39023620121E+03 -0.58210580179E+03  0.70107918294E+03  0.00000000000E+00 0.  1.
         -3    1    6    6    0  502 -0.95307304111E+01 -0.14507551298E+02 -0.18102524142E+02  0.25079977016E+02  0.00000000000E+00 0.  1.
<mgrwt>
<rscale>  0 0.17838776E+04</rscale>
<asrwt>0</asrwt>
<pdfrwt beam="1">  1        2 0.37613077E+00 0.17838776E+04</pdfrwt>
<pdfrwt beam="2">  1       -2 0.50061578E-01 0.17838776E+04</pdfrwt>
<totfact> 0.13381554E+01</totfact>
</mgrwt>
</event>
<event>
12    1  0.1506149E-007  0.2249433E+04  0.7818608E-02  0.8498130E-01
         -2   -1    0    0    0  501 -0.00000000000E+00  0.00000000000E+00  0.60591994927E+03  0.60591994927E+03  0.00000000000E+00 0.  1.
          2   -1    0    0  501    0  0.00000000000E+00 -0.00000000000E+00 -0.20877127690E+04  0.20877127690E+04  0.00000000000E+00 0. -1.
         23    2    1    2    0    0 -0.14635255151E+03 -0.90279619212E+03 -0.36969032769E+03  0.99186010119E+03  0.10322542371E+03 0.  0.
        254    2    1    2    0    0  0.14635255151E+03  0.90279619212E+03 -0.11121024921E+04  0.17017726171E+04  0.90708216479E+03 0.  0.
        -24    2    4    4    0    0  0.41652649336E+02  0.10675548664E+04 -0.86719858028E+03  0.13787715714E+04  0.87001911155E+02 0.  0.
         24    2    4    4    0    0  0.10469990218E+03 -0.16475867427E+03 -0.24490391180E+03  0.32300104572E+03  0.79020625536E+02 0.  0.
         13    1    3    3    0    0 -0.10971472147E+03 -0.60207335017E+03 -0.19576372680E+03  0.64253643929E+03  0.00000000000E+00 0.  1.
        -13    1    3    3    0    0 -0.36637830049E+02 -0.30072284195E+03 -0.17392660089E+03  0.34932366190E+03  0.00000000000E+00 0. -1.
          4    1    6    6  502    0  0.46673869914E+01 -0.77704064865E+02 -0.96436296972E+02  0.12393411787E+03  0.00000000000E+00 0. -1.
          1    1    5    5  503    0  0.92798261306E-01  0.29559389922E+01 -0.12655176631E+02  0.12996141059E+02  0.00000000000E+00 0. -1.
         -2    1    5    5    0  503  0.41559851075E+02  0.10645989274E+04 -0.85454340365E+03  0.13657754303E+04  0.00000000000E+00 0.  1.
         -3    1    6    6    0  502  0.10003251519E+03 -0.87054609400E+02 -0.14846761483E+03  0.19906692786E+03  0.00000000000E+00 0.  1.
<mgrwt>
<rscale>  0 0.22494327E+04</rscale>
<asrwt>0</asrwt>
<pdfrwt beam="1">  1        2 0.32118657E+00 0.22494327E+04</pdfrwt>
<pdfrwt beam="2">  1       -2 0.93218455E-01 0.22494327E+04</pdfrwt>
<totfact> 0.52931325E+00</totfact>
</mgrwt>
</event>
<event>
12    1  0.1506149E-007  0.1397428E+04  0.7818608E-02  0.8955683E-01
          1   -1    0    0  501    0  0.00000000000E+00  0.00000000000E+00  0.98696890948E+03  0.98696890948E+03  0.00000000000E+00 0. -1.
         -1   -1    0    0    0  501 -0.00000000000E+00 -0.00000000000E+00 -0.49464690988E+03  0.49464690988E+03  0.00000000000E+00 0.  1.
         23    2    1    2    0    0 -0.28305505389E+03 -0.47923238133E+01 -0.15383968237E+03  0.33479364788E+03  0.90978068183E+02 0.  0.
        254    2    1    2    0    0  0.28305505389E+03  0.47923238133E+01  0.64616168197E+03  0.11468221715E+04  0.90417533910E+03 0.  0.
        -24    2    4    4    0    0  0.55670221385E+03 -0.12035753154E+03  0.21320316334E+03  0.61348332411E+03  0.80640621222E+02 0.  0.
         24    2    4    4    0    0 -0.27364715996E+03  0.12514985536E+03  0.43295851863E+03  0.53333884737E+03  0.80324297768E+02 0.  0.
         11    1    3    3    0    0 -0.58301703529E+01 -0.43418442723E+01 -0.30525948762E+02  0.31379548209E+02  0.00000000000E+00 0. -1.
        -11    1    3    3    0    0 -0.27722488354E+03 -0.45047954101E+00 -0.12331373361E+03  0.30341409967E+03  0.00000000000E+00 0.  1.
          2    1    6    6  502    0 -0.62363528454E+02 -0.38724164142E+01  0.10870212765E+03  0.12538085120E+03  0.00000000000E+00 0. -1.
          3    1    5    5  503    0  0.13357603401E+02 -0.17745182033E+02  0.10291902738E+02  0.24479385531E+02  0.00000000000E+00 0. -1.
         -4    1    5    5    0  503  0.54334461045E+03 -0.10261234951E+03  0.20291126061E+03  0.58900393858E+03  0.00000000000E+00 0.  1.
         -1    1    6    6    0  502 -0.21128363151E+03  0.12902227177E+03  0.32425639097E+03  0.40795799618E+03  0.00000000000E+00 0.  1.
<mgrwt>
<rscale>  0 0.13974278E+04</rscale>
<asrwt>0</asrwt>
<pdfrwt beam="1">  1        1 0.15184137E+00 0.13974278E+04</pdfrwt>
<pdfrwt beam="2">  1       -1 0.76099525E-01 0.13974278E+04</pdfrwt>
<totfact> 0.26205374E+01</totfact>
</mgrwt>
</event>
<event>
12    1  0.1506149E-007  0.2226405E+04  0.7818608E-02  0.8507517E-01
         -2   -1    0    0    0  501 -0.00000000000E+00  0.00000000000E+00  0.18095092480E+04  0.18095092480E+04  0.00000000000E+00 0.  1.
          2   -1    0    0  501    0  0.00000000000E+00 -0.00000000000E+00 -0.68483748819E+03  0.68483748819E+03  0.00000000000E+00 0. -1.
         23    2    1    2    0    0  0.80578043046E+03 -0.43510704443E+03  0.31687583040E+03  0.97295445555E+03  0.87348946491E+02 0.  0.
        254    2    1    2    0    0 -0.80578043046E+03  0.43510704443E+03  0.80779592944E+03  0.15213922807E+04  0.90746898892E+03 0.  0.
        -24    2    4    4    0    0 -0.34976647579E+03  0.20026596310E+02 -0.13987933348E+03  0.38749188166E+03  0.88578091364E+02 0.  0.
         24    2    4    4    0    0 -0.45601395467E+03  0.41508044812E+03  0.94767526292E+03  0.11339003990E+04  0.86030260207E+02 0.  0.
         13    1    3    3    0    0  0.77289929430E+03 -0.40125158889E+03  0.31379751372E+03  0.92565924418E+03  0.00000000000E+00 0. -1.
        -13    1    3    3    0    0  0.32881136166E+02 -0.33855455538E+02  0.30783166800E+01  0.47295211373E+02  0.00000000000E+00 0.  1.
          2    1    6    6  502    0  0.30924679539E+01  0.54340939043E+01  0.42461644599E+01  0.75579525817E+01  0.00000000000E+00 0. -1.
          3    1    5    5  503    0 -0.14450663656E+03  0.27115446288E+02 -0.16628238187E+02  0.14796592088E+03  0.00000000000E+00 0. -1.
         -4    1    5    5    0  503 -0.20525983923E+03 -0.70888499785E+01 -0.12325109529E+03  0.23952596078E+03  0.00000000000E+00 0.  1.
         -3    1    6    6    0  502 -0.45910642262E+03  0.40964635421E+03  0.94342909846E+03  0.11263424464E+04  0.00000000000E+00 0.  1.
<mgrwt>
<rscale>  0 0.22264050E+04</rscale>
<asrwt>0</asrwt>
<pdfrwt beam="1">  1        2 0.10535961E+00 0.22264050E+04</pdfrwt>
<pdfrwt beam="2">  1       -2 0.27838604E+00 0.22264050E+04</pdfrwt>
<totfact> 0.16552606E+00</totfact>
</mgrwt>
</event>
<event>
12    1  0.1506149E-007  0.1373458E+04  0.7818608E-02  0.8973258E-01
          1   -1    0    0  501    0  0.00000000000E+00  0.00000000000E+00  0.16494360142E+04  0.16494360142E+04  0.00000000000E+00 0. -1.
         -1   -1    0    0    0  501 -0.00000000000E+00 -0.00000000000E+00 -0.28591379134E+03  0.28591379134E+03  0.00000000000E+00 0.  1.
         23    2    1    2    0    0 -0.11499536296E+03  0.36476393351E+03  0.33647833381E+03  0.51734643723E+03  0.90293999246E+02 0.  0.
        254    2    1    2    0    0  0.11499536296E+03 -0.36476393351E+03  0.10270438890E+04  0.14180033683E+04  0.89979872294E+03 0.  0.
        -24    2    4    4    0    0 -0.28900994256E+03 -0.41941773303E+03  0.77971062113E+03  0.93481556221E+03  0.80582262106E+02 0.  0.
         24    2    4    4    0    0  0.40400530552E+03  0.54653799518E+02  0.24733326787E+03  0.48318780606E+03  0.78034516973E+02 0.  0.
         11    1    3    3    0    0 -0.59710641542E+02  0.98527647613E+02  0.61367403855E+02  0.13053358309E+03  0.00000000000E+00 0.  1.
        -11    1    3    3    0    0 -0.55284721418E+02  0.26623628590E+03  0.27511092996E+03  0.38681285414E+03  0.00000000000E+00 0. -1.
          2    1    6    6  502    0  0.16661087871E+03  0.59520383495E+02  0.11972639367E+03  0.21362647377E+03  0.00000000000E+00 0. -1.
          1    1    5    5  503    0 -0.24685210087E+03 -0.38937901873E+03  0.66748057725E+03  0.81122271969E+03  0.00000000000E+00 0. -1.
         -2    1    5    5    0  503 -0.42157841693E+02 -0.30038714294E+02  0.11223004388E+03  0.12359284252E+03  0.00000000000E+00 0.  1.
         -1    1    6    6    0  502  0.23739442681E+03 -0.48665839770E+01  0.12760687420E+03  0.26956133229E+03  0.00000000000E+00 0.  1.
<mgrwt>
<rscale>  0 0.13734577E+04</rscale>
<asrwt>0</asrwt>
<pdfrwt beam="1">  1        1 0.25375938E+00 0.13734577E+04</pdfrwt>
<pdfrwt beam="2">  1       -1 0.43986738E-01 0.13734577E+04</pdfrwt>
<totfact> 0.25769904E+01</totfact>
</mgrwt>
</event>
<event>
12    1  0.1506149E-007  0.2176887E+04  0.7818608E-02  0.8528110E-01
         -1   -1    0    0    0  501 -0.00000000000E+00  0.00000000000E+00  0.84842978926E+03  0.84842978926E+03  0.00000000000E+00 0.  1.
          1   -1    0    0  501    0  0.00000000000E+00 -0.00000000000E+00 -0.13963553182E+04  0.13963553182E+04  0.00000000000E+00 0. -1.
         23    2    1    2    0    0 -0.44092024299E+03 -0.89253027530E+02  0.59059790956E+03  0.74801779285E+03  0.91367193436E+02 0.  0.
        254    2    1    2    0    0  0.44092024299E+03  0.89253027530E+02 -0.11385234385E+04  0.14967673146E+04  0.86122007087E+03 0.  0.
        -24    2    4    4    0    0  0.57362205341E+03  0.11631780826E+03 -0.11923088767E+04  0.13305889115E+04  0.79336632919E+02 0.  0.
         24    2    4    4    0    0 -0.13270181042E+03 -0.27064780729E+02  0.53785438203E+02  0.16617840309E+03  0.79875624853E+02 0.  0.
         13    1    3    3    0    0 -0.37601793093E+03 -0.42855266530E+02  0.47018141825E+03  0.60356990011E+03  0.00000000000E+00 0.  1.
        -13    1    3    3    0    0 -0.64902312057E+02 -0.46397761000E+02  0.12041649132E+03  0.14444789274E+03  0.00000000000E+00 0. -1.
          2    1    6    6  502    0 -0.86384605068E+02 -0.72697547581E+01  0.71924160287E+02  0.11264206213E+03  0.00000000000E+00 0. -1.
          3    1    5    5  503    0  0.55350409352E+03  0.95927429775E+02 -0.11423327588E+04  0.12729858543E+04  0.00000000000E+00 0. -1.
         -4    1    5    5    0  503  0.20117959887E+02  0.20390378484E+02 -0.49976117909E+02  0.57603057263E+02  0.00000000000E+00 0.  1.
         -1    1    6    6    0  502 -0.46317205352E+02 -0.19795025971E+02 -0.18138722084E+02  0.53536340963E+02  0.00000000000E+00 0.  1.
<mgrwt>
<rscale>  0 0.21768872E+04</rscale>
<asrwt>0</asrwt>
<pdfrwt beam="1">  1        1 0.21482389E+00 0.21768872E+04</pdfrwt>
<pdfrwt beam="2">  1       -1 0.13052766E+00 0.21768872E+04</pdfrwt>
<totfact> 0.35442093E+00</totfact>
</mgrwt>
</event>
<event>
12    1  0.1506149E-007  0.2221735E+04  0.7818608E-02  0.8509436E-01
         -2   -1    0    0    0  501 -0.00000000000E+00  0.00000000000E+00  0.12260960658E+04  0.12260960658E+04  0.00000000000E+00 0.  1.
          2   -1    0    0  501    0  0.00000000000E+00 -0.00000000000E+00 -0.10064677770E+04  0.10064677770E+04  0.00000000000E+00 0. -1.
         23    2    1    2    0    0 -0.26919458156E+03 -0.39718421319E+03 -0.70357513111E+03  0.85664262152E+03  0.92723211493E+02 0.  0.
        254    2    1    2    0    0  0.26919458156E+03  0.39718421319E+03  0.92320341996E+03  0.13759212213E+04  0.90035194824E+03 0.  0.
        -24    2    4    4    0    0  0.28742898007E+03 -0.46225196555E+02 -0.47313162622E+02  0.30565934399E+03  0.80230367281E+02 0.  0.
         24    2    4    4    0    0 -0.18234398504E+02  0.44340940974E+03  0.97051658258E+03  0.10702618773E+04  0.81324357105E+02 0.  0.
         11    1    3    3    0    0 -0.11273517708E+03 -0.13540416967E+03 -0.18827556602E+03  0.25785887240E+03  0.00000000000E+00 0.  1.
        -11    1    3    3    0    0 -0.15645940449E+03 -0.26178004352E+03 -0.51529956509E+03  0.59878374913E+03  0.00000000000E+00 0. -1.
          2    1    6    6  502    0 -0.25067351470E+02  0.45547026700E+02  0.13992764441E+03  0.14927373989E+03  0.00000000000E+00 0. -1.
          3    1    5    5  503    0  0.26127313620E+01  0.56809057243E+01  0.87688915303E+01  0.10769982065E+02  0.00000000000E+00 0. -1.
         -4    1    5    5    0  503  0.28481624870E+03 -0.51906102279E+02 -0.56082054152E+02  0.29488936193E+03  0.00000000000E+00 0.  1.
         -1    1    6    6    0  502  0.68329529666E+01  0.39786238304E+03  0.83058893818E+03  0.92098813744E+03  0.00000000000E+00 0.  1.
<mgrwt>
<rscale>  0 0.22217346E+04</rscale>
<asrwt>0</asrwt>
<pdfrwt beam="1">  1        2 0.15484120E+00 0.22217346E+04</pdfrwt>
<pdfrwt beam="2">  1       -2 0.18863016E+00 0.22217346E+04</pdfrwt>
<totfact> 0.36032507E+00</totfact>
</mgrwt>
</event>
<event>
12    1  0.1506149E-007  0.1336986E+04  0.7818608E-02  0.9000738E-01
          2   -1    0    0  501    0  0.00000000000E+00  0.00000000000E+00  0.11944015140E+04  0.11944015140E+04  0.00000000000E+00 0.  1.
         -2   -1    0    0    0  501 -0.00000000000E+00 -0.00000000000E+00 -0.37414812457E+03  0.37414812457E+03  0.00000000000E+00 0. -1.
         23    2    1    2    0    0 -0.42845443767E+02  0.24144824248E+03  0.52457770367E+03  0.58623157309E+03  0.91393130161E+02 0.  0.
        254    2    1    2    0    0  0.42845443767E+02 -0.24144824248E+03  0.29567568578E+03  0.98231806551E+03  0.90409716559E+03 0.  0.
        -24    2    4    4    0    0 -0.98439532428E+01 -0.25612546708E+02  0.59514991896E+03  0.60099819987E+03  0.79009519937E+02 0.  0.
         24    2    4    4    0    0  0.52689397010E+02 -0.21583569578E+03 -0.29947423318E+03  0.38131986565E+03  0.79742106011E+02 0.  0.
         13    1    3    3    0    0 -0.42099635546E+01  0.16344313829E+03  0.41660602021E+03  0.44753989690E+03  0.00000000000E+00 0.  1.
        -13    1    3    3    0    0 -0.38635480213E+02  0.78005104198E+02  0.10797168347E+03  0.13869167619E+03  0.00000000000E+00 0. -1.
          2    1    6    6  502    0  0.26680880781E+02 -0.23362228391E+02 -0.84288268938E+02  0.91444930944E+02  0.00000000000E+00 0. -1.
          3    1    5    5  503    0 -0.35557358934E+02 -0.19632751989E+02  0.16093374289E+03  0.16598024077E+03  0.00000000000E+00 0. -1.
         -4    1    5    5    0  503  0.25713405691E+02 -0.59797947184E+01  0.43421617607E+03  0.43501795910E+03  0.00000000000E+00 0.  1.
         -1    1    6    6    0  502  0.26008516230E+02 -0.19247346739E+03 -0.21518596424E+03  0.28987493470E+03  0.00000000000E+00 0.  1.
<mgrwt>
<rscale>  0 0.13369863E+04</rscale>
<asrwt>0</asrwt>
<pdfrwt beam="1">  1        2 0.18375408E+00 0.13369863E+04</pdfrwt>
<pdfrwt beam="2">  1       -2 0.57561250E-01 0.13369863E+04</pdfrwt>
<totfact> 0.52747828E+01</totfact>
</mgrwt>
</event>
<event>
12    1  0.1506149E-007  0.2283420E+04  0.7818608E-02  0.8484487E-01
          2   -1    0    0  501    0  0.00000000000E+00  0.00000000000E+00  0.20557204078E+04  0.20557204078E+04  0.00000000000E+00 0. -1.
         -2   -1    0    0    0  501 -0.00000000000E+00 -0.00000000000E+00 -0.63408532281E+03  0.63408532281E+03  0.00000000000E+00 0.  1.
         23    2    1    2    0    0 -0.96076815163E+02 -0.94107801477E+03  0.82673070932E+03  0.12598174701E+04  0.93796630949E+02 0.  0.
        254    2    1    2    0    0  0.96076815163E+02  0.94107801477E+03  0.59490437563E+03  0.14299882605E+04  0.89224246962E+03 0.  0.
        -24    2    4    4    0    0  0.15534804446E+03  0.11000127814E+04  0.51620756712E+03  0.12276605058E+04  0.80739898052E+02 0.  0.
         24    2    4    4    0    0 -0.59271229295E+02 -0.15893476660E+03  0.78696808514E+02  0.20232775462E+03  0.77265736023E+02 0.  0.
         11    1    3    3    0    0 -0.26246907827E+02 -0.30977627233E+03  0.21504576851E+03  0.37801444632E+03  0.00000000000E+00 0.  1.
        -11    1    3    3    0    0 -0.69829907336E+02 -0.63130174244E+03  0.61168494081E+03  0.88180302379E+03  0.00000000000E+00 0. -1.
          4    1    6    6  502    0 -0.11975865041E+02  0.54831744934E+01  0.14514347673E+02  0.19599817203E+02  0.00000000000E+00 0. -1.
          3    1    5    5  503    0  0.95783317562E+02  0.42496024178E+03  0.22107118140E+03  0.48850600637E+03  0.00000000000E+00 0. -1.
         -4    1    5    5    0  503  0.59564726896E+02  0.67505253959E+03  0.29513638572E+03  0.73915449947E+03  0.00000000000E+00 0.  1.
         -3    1    6    6    0  502 -0.47295364254E+02 -0.16441794109E+03  0.64182460840E+02  0.18272793742E+03  0.00000000000E+00 0.  1.
<mgrwt>
<rscale>  0 0.22834204E+04</rscale>
<asrwt>0</asrwt>
<pdfrwt beam="1">  1        2 0.31626467E+00 0.22834204E+04</pdfrwt>
<pdfrwt beam="2">  1       -2 0.97551589E-01 0.22834204E+04</pdfrwt>
<totfact> 0.49452009E+00</totfact>
</mgrwt>
</event>
<event>
12    1  0.1506149E-007  0.1128431E+04  0.7818608E-02  0.9177915E-01
         -1   -1    0    0    0  501 -0.00000000000E+00  0.00000000000E+00  0.24633238987E+03  0.24633238987E+03  0.00000000000E+00 0.  1.
          1   -1    0    0  501    0  0.00000000000E+00 -0.00000000000E+00 -0.12923161363E+04  0.12923161363E+04  0.00000000000E+00 0. -1.
         23    2    1    2    0    0 -0.50931752334E+02 -0.51170487316E+02 -0.50040061053E+03  0.51352317629E+03  0.89960098952E+02 0.  0.
        254    2    1    2    0    0  0.50931752334E+02  0.51170487316E+02 -0.54558313590E+03  0.10251253499E+04  0.86487488263E+03 0.  0.
        -24    2    4    4    0    0  0.16690796907E+03 -0.14385070615E+03  0.15770698369E+03  0.28225626272E+03  0.79030433012E+02 0.  0.
         24    2    4    4    0    0 -0.11597621674E+03  0.19502119347E+03 -0.70329011959E+03  0.74286908715E+03  0.75853408452E+02 0.  0.
         13    1    3    3    0    0 -0.41641963094E+02  0.67603805825E+00 -0.37777566729E+03  0.38006442206E+03  0.00000000000E+00 0. -1.
        -13    1    3    3    0    0 -0.92897892396E+01 -0.51846525374E+02 -0.12262494324E+03  0.13345875424E+03  0.00000000000E+00 0.  1.
          2    1    6    6  502    0 -0.79296465882E+02  0.60304588382E+02 -0.29369124759E+03  0.31012758954E+03  0.00000000000E+00 0. -1.
          3    1    5    5  503    0  0.15046261694E+03 -0.99597719709E+02  0.14952505906E+03  0.23434258715E+03  0.00000000000E+00 0. -1.
         -2    1    5    5    0  503  0.16445352132E+02 -0.44252986445E+02  0.81819246316E+01  0.47913675571E+02  0.00000000000E+00 0.  1.
         -1    1    6    6    0  502 -0.36679750853E+02  0.13471660509E+03 -0.40959887200E+03  0.43274149761E+03  0.00000000000E+00 0.  1.
<mgrwt>
<rscale>  0 0.11284313E+04</rscale>
<asrwt>0</asrwt>
<pdfrwt beam="1">  1        1 0.19881786E+00 0.11284313E+04</pdfrwt>
<pdfrwt beam="2">  1       -1 0.37897291E-01 0.11284313E+04</pdfrwt>
<totfact> 0.61208270E+01</totfact>
</mgrwt>
</event>
<event>
12    1  0.1506149E-007  0.1491027E+04  0.7818608E-02  0.8890442E-01
          1   -1    0    0  501    0  0.00000000000E+00  0.00000000000E+00  0.13041340440E+04  0.13041340440E+04  0.00000000000E+00 0. -1.
         -1   -1    0    0    0  501 -0.00000000000E+00 -0.00000000000E+00 -0.42617569566E+03  0.42617569566E+03  0.00000000000E+00 0.  1.
         23    2    1    2    0    0 -0.41376774618E+01 -0.11235532424E+03  0.74571438489E+03  0.76003071230E+03  0.94424046459E+02 0.  0.
        254    2    1    2    0    0  0.41376774618E+01  0.11235532424E+03  0.13224396341E+03  0.97027902732E+03  0.95462667349E+03 0.  0.
        -24    2    4    4    0    0 -0.34093218347E+03  0.53044990047E+02  0.39091095668E+03  0.52740793095E+03  0.79367656388E+02 0.  0.
         24    2    4    4    0    0  0.34506986094E+03  0.59310334189E+02 -0.25866699326E+03  0.44287109637E+03  0.81457166225E+02 0.  0.
         13    1    3    3    0    0 -0.22790333311E+02 -0.12010486837E+03  0.55808611744E+03  0.57131838162E+03  0.00000000000E+00 0. -1.
        -13    1    3    3    0    0  0.18652655849E+02  0.77495441328E+01  0.18762826745E+03  0.18871233068E+03  0.00000000000E+00 0.  1.
          2    1    6    6  502    0  0.18312138240E+03  0.62585560942E+02 -0.17327900780E+03  0.25976144378E+03  0.00000000000E+00 0. -1.
          3    1    5    5  503    0 -0.26584983575E+03  0.69473504851E+01  0.29373767435E+03  0.39624010672E+03  0.00000000000E+00 0. -1.
         -4    1    5    5    0  503 -0.75082347729E+02  0.46097639562E+02  0.97173282325E+02  0.13116782422E+03  0.00000000000E+00 0.  1.
         -1    1    6    6    0  502  0.16194847854E+03 -0.32752267532E+01 -0.85387985460E+02  0.18310965259E+03  0.00000000000E+00 0.  1.
<mgrwt>
<rscale>  0 0.14910268E+04</rscale>
<asrwt>0</asrwt>
<pdfrwt beam="1">  1        1 0.20063600E+00 0.14910268E+04</pdfrwt>
<pdfrwt beam="2">  1       -1 0.65565492E-01 0.14910268E+04</pdfrwt>
<totfact> 0.20507812E+01</totfact>
</mgrwt>
</event>
<event>
12    1  0.1506149E-007  0.2852372E+04  0.7818608E-02  0.8287191E-01
          2   -1    0    0  501    0  0.00000000000E+00  0.00000000000E+00  0.13886701107E+04  0.13886701107E+04  0.00000000000E+00 0. -1.
         -2   -1    0    0    0  501 -0.00000000000E+00 -0.00000000000E+00 -0.14647156329E+04  0.14647156329E+04  0.00000000000E+00 0.  1.
         23    2    1    2    0    0  0.66393551359E+03 -0.13456716284E+03 -0.11250258067E+04  0.13161987598E+04  0.88189694463E+02 0.  0.
        254    2    1    2    0    0 -0.66393551359E+03  0.13456716284E+03  0.10489802845E+04  0.15371869838E+04  0.89647392508E+03 0.  0.
        -24    2    4    4    0    0 -0.71357674957E+03 -0.15942561641E+03  0.97185795138E+03  0.12188143417E+04  0.79951342223E+02 0.  0.
         24    2    4    4    0    0  0.49641235980E+02  0.29399277926E+03  0.77122333079E+02  0.31837264209E+03  0.80729662485E+02 0.  0.
         13    1    3    3    0    0  0.17586687165E+03 -0.18032403643E+02 -0.22982140298E+03  0.28995206741E+03  0.00000000000E+00 0. -1.
        -13    1    3    3    0    0  0.48806864194E+03 -0.11653475920E+03 -0.89520440368E+03  0.10262466924E+04  0.00000000000E+00 0.  1.
          4    1    6    6  502    0 -0.15542145977E+02  0.12504620537E+02  0.45101461644E+01  0.20451534289E+02  0.00000000000E+00 0. -1.
          1    1    5    5  503    0 -0.25689651632E+03 -0.20932801810E+02  0.36376593360E+03  0.44582469283E+03  0.00000000000E+00 0. -1.
         -2    1    5    5    0  503 -0.45668023325E+03 -0.13849281460E+03  0.60809201777E+03  0.77298964884E+03  0.00000000000E+00 0.  1.
         -3    1    6    6    0  502  0.65183381957E+02  0.28148815872E+03  0.72612186914E+02  0.29792110780E+03  0.00000000000E+00 0.  1.
<mgrwt>
<rscale>  0 0.28523722E+04</rscale>
<asrwt>0</asrwt>
<pdfrwt beam="1">  1        2 0.21364156E+00 0.28523722E+04</pdfrwt>
<pdfrwt beam="2">  1       -2 0.22534087E+00 0.28523722E+04</pdfrwt>
<totfact> 0.11639422E+00</totfact>
</mgrwt>
</event>
<event>
12    1  0.1506149E-007  0.2695805E+04  0.7818608E-02  0.8336367E-01
         -1   -1    0    0    0  501 -0.00000000000E+00  0.00000000000E+00  0.16123594240E+04  0.16123594240E+04  0.00000000000E+00 0.  1.
          1   -1    0    0  501    0  0.00000000000E+00 -0.00000000000E+00 -0.11268211377E+04  0.11268211377E+04  0.00000000000E+00 0. -1.
         23    2    1    2    0    0  0.18937445336E+03  0.72097837741E+03 -0.73076617826E+03  0.10494540898E+04  0.10799155068E+03 0.  0.
        254    2    1    2    0    0 -0.18937445336E+03 -0.72097837741E+03  0.12163044646E+04  0.16897264719E+04  0.90559731398E+03 0.  0.
        -24    2    4    4    0    0 -0.49830614448E+03 -0.62519558118E+03  0.65436574166E+03  0.10363438225E+04  0.81458370849E+02 0.  0.
         24    2    4    4    0    0  0.30893169112E+03 -0.95782796235E+02  0.56193872292E+03  0.65338264945E+03  0.80750383589E+02 0.  0.
         11    1    3    3    0    0  0.36752501423E+02  0.10136703496E+03 -0.58997103730E+02  0.12290923637E+03  0.00000000000E+00 0.  1.
        -11    1    3    3    0    0  0.15262195193E+03  0.61961134245E+03 -0.67176907453E+03  0.92654485343E+03  0.00000000000E+00 0. -1.
          4    1    6    6  502    0  0.19694691503E+03 -0.20430242336E+02  0.34948720479E+03  0.40167995775E+03  0.00000000000E+00 0. -1.
          1    1    5    5  503    0 -0.12589292879E+03 -0.11468004077E+03  0.11442052860E+03  0.20516480847E+03  0.00000000000E+00 0. -1.
         -2    1    5    5    0  503 -0.37241321569E+03 -0.51051554041E+03  0.53994521307E+03  0.83117901401E+03  0.00000000000E+00 0.  1.
         -3    1    6    6    0  502  0.11198477610E+03 -0.75352553899E+02  0.21245151813E+03  0.25170269170E+03  0.00000000000E+00 0.  1.
<mgrwt>
<rscale>  0 0.26958047E+04</rscale>
<asrwt>0</asrwt>
<pdfrwt beam="1">  1        1 0.17335710E+00 0.26958047E+04</pdfrwt>
<pdfrwt beam="2">  1       -1 0.24805530E+00 0.26958047E+04</pdfrwt>
<totfact> 0.75899323E-01</totfact>
</mgrwt>
</event>
<event>
12    1  0.1506149E-007  0.1834324E+04  0.7818608E-02  0.8688256E-01
         -1   -1    0    0    0  501 -0.00000000000E+00  0.00000000000E+00  0.61397000329E+03  0.61397000329E+03  0.00000000000E+00 0.  1.
          1   -1    0    0  501    0  0.00000000000E+00 -0.00000000000E+00 -0.13700773850E+04  0.13700773850E+04  0.00000000000E+00 0. -1.
         23    2    1    2    0    0 -0.21109278507E+03 -0.64979896628E+03 -0.14766668675E+03  0.70483494983E+03  0.90487544104E+02 0.  0.
        254    2    1    2    0    0  0.21109278507E+03  0.64979896628E+03 -0.60844069494E+03  0.12792124384E+04  0.89408362187E+03 0.  0.
        -24    2    4    4    0    0  0.12485824070E+03  0.53044181748E+03 -0.83195842400E+03  0.99745147071E+03  0.76134848582E+02 0.  0.
         24    2    4    4    0    0  0.86234544369E+02  0.11935714880E+03  0.22351772906E+03  0.28176096772E+03  0.88014442659E+02 0.  0.
         11    1    3    3    0    0 -0.32655999723E+01 -0.27161781237E+01 -0.10727807121E+02  0.11538093967E+02  0.00000000000E+00 0.  1.
        -11    1    3    3    0    0 -0.20782718510E+03 -0.64708278816E+03 -0.13693887963E+03  0.69329685586E+03  0.00000000000E+00 0. -1.
          4    1    6    6  502    0  0.46887565123E+02  0.99537863599E+02  0.20752937597E+03  0.23489289462E+03  0.00000000000E+00 0. -1.
          3    1    5    5  503    0  0.10533964738E+03  0.43969076350E+03 -0.63285489014E+03  0.77777228081E+03  0.00000000000E+00 0. -1.
         -4    1    5    5    0  503  0.19518593317E+02  0.90751053974E+02 -0.19910353386E+03  0.21967918991E+03  0.00000000000E+00 0.  1.
         -3    1    6    6    0  502  0.39346979246E+02  0.19819285206E+02  0.15988353085E+02  0.46868073102E+02  0.00000000000E+00 0.  1.
<mgrwt>
<rscale>  0 0.18343243E+04</rscale>
<asrwt>0</asrwt>
<pdfrwt beam="1">  1        1 0.21078114E+00 0.18343243E+04</pdfrwt>
<pdfrwt beam="2">  1       -1 0.94456923E-01 0.18343243E+04</pdfrwt>
<totfact> 0.82305163E+00</totfact>
</mgrwt>
</event>
<event>
12    1  0.1506149E-007  0.1853769E+04  0.7818608E-02  0.8678217E-01
          2   -1    0    0  501    0  0.00000000000E+00  0.00000000000E+00  0.11801038639E+04  0.11801038639E+04  0.00000000000E+00 0. -1.
         -2   -1    0    0    0  501 -0.00000000000E+00 -0.00000000000E+00 -0.72799918570E+03  0.72799918570E+03  0.00000000000E+00 0.  1.
         23    2    1    2    0    0 -0.10059401198E+03  0.56542195893E+03 -0.24574539032E+03  0.63244372781E+03  0.98859117405E+02 0.  0.
        254    2    1    2    0    0  0.10059401198E+03 -0.56542195893E+03  0.69785006853E+03  0.12756593218E+04  0.90027264775E+03 0.  0.
        -24    2    4    4    0    0  0.43814960222E+03 -0.36423544253E+03  0.65511217944E+03  0.87175118119E+03  0.78330216029E+02 0.  0.
         24    2    4    4    0    0 -0.33755559024E+03 -0.20118651640E+03  0.42737889095E+02  0.40390814062E+03  0.83038954789E+02 0.  0.
         13    1    3    3    0    0 -0.38761461787E+02  0.71645527368E+02 -0.10918251678E+02  0.82187229734E+02  0.00000000000E+00 0. -1.
        -13    1    3    3    0    0 -0.61832550191E+02  0.49377643156E+03 -0.23482713865E+03  0.55025649807E+03  0.00000000000E+00 0.  1.
          2    1    6    6  502    0 -0.10500903171E+03 -0.79183189330E+02 -0.22231208085E+02  0.13338328541E+03  0.00000000000E+00 0. -1.
          1    1    5    5  503    0  0.28303169594E+02 -0.91050547561E+01  0.57701122470E+02  0.64910638307E+02  0.00000000000E+00 0. -1.
         -2    1    5    5    0  503  0.40984643262E+03 -0.35513038777E+03  0.59741105697E+03  0.80684054288E+03  0.00000000000E+00 0.  1.
         -1    1    6    6    0  502 -0.23254655852E+03 -0.12200332707E+03  0.64969097179E+02  0.27052485521E+03  0.00000000000E+00 0.  1.
<mgrwt>
<rscale>  0 0.18537688E+04</rscale>
<asrwt>0</asrwt>
<pdfrwt beam="1">  1        2 0.18155444E+00 0.18537688E+04</pdfrwt>
<pdfrwt beam="2">  1       -2 0.11199987E+00 0.18537688E+04</pdfrwt>
<totfact> 0.11511609E+01</totfact>
</mgrwt>
</event>
<event>
12    1  0.1506149E-007  0.1315262E+04  0.7818608E-02  0.9017549E-01
          1   -1    0    0  501    0  0.00000000000E+00  0.00000000000E+00  0.25901479880E+04  0.25901479880E+04  0.00000000000E+00 0. -1.
         -1   -1    0    0    0  501 -0.00000000000E+00 -0.00000000000E+00 -0.16697056051E+03  0.16697056051E+03  0.00000000000E+00 0.  1.
         23    2    1    2    0    0  0.12397643648E+03  0.26208550736E+03  0.10283782850E+04  0.10723845079E+04  0.91584200249E+02 0.  0.
        254    2    1    2    0    0 -0.12397643648E+03 -0.26208550736E+03  0.13947991425E+04  0.16847340406E+04  0.89933596045E+03 0.  0.
        -24    2    4    4    0    0  0.20962320882E+01  0.67405862068E+02 -0.10253126172E+03  0.14430401796E+03  0.75914725444E+02 0.  0.
         24    2    4    4    0    0 -0.12607266857E+03 -0.32949136943E+03  0.14973304042E+04  0.15404300226E+04  0.80420364785E+02 0.  0.
         11    1    3    3    0    0  0.29881471466E+02  0.10325086827E+03  0.24491532566E+03  0.26746431702E+03  0.00000000000E+00 0. -1.
        -11    1    3    3    0    0  0.94094965019E+02  0.15883463909E+03  0.78346295935E+03  0.80492019089E+03  0.00000000000E+00 0.  1.
          2    1    6    6  502    0 -0.65146625427E+02 -0.24514964675E+03  0.94898605126E+03  0.98230186684E+03  0.00000000000E+00 0. -1.
          3    1    5    5  503    0  0.83284499772E+01  0.38534646689E+02 -0.10736535912E+03  0.11437483296E+03  0.00000000000E+00 0. -1.
         -4    1    5    5    0  503 -0.62322178890E+01  0.28871215379E+02  0.48340974016E+01  0.29929185004E+02  0.00000000000E+00 0.  1.
         -1    1    6    6    0  502 -0.60926043146E+02 -0.84341722679E+02  0.54834435291E+03  0.55812815579E+03  0.00000000000E+00 0.  1.
<mgrwt>
<rscale>  0 0.13152619E+04</rscale>
<asrwt>0</asrwt>
<pdfrwt beam="1">  1        1 0.39848428E+00 0.13152619E+04</pdfrwt>
<pdfrwt beam="2">  1       -1 0.25687780E-01 0.13152619E+04</pdfrwt>
<totfact> 0.15461055E+01</totfact>
</mgrwt>
</event>
<event>
12    1  0.1506149E-007  0.1803220E+04  0.7818608E-02  0.8704589E-01
         -3   -1    0    0    0  501 -0.00000000000E+00  0.00000000000E+00  0.18247150164E+04  0.18247150164E+04  0.00000000000E+00 0.  1.
          3   -1    0    0  501    0  0.00000000000E+00 -0.00000000000E+00 -0.44549477768E+03  0.44549477768E+03  0.00000000000E+00 0. -1.
         23    2    1    2    0    0  0.36006620130E+02  0.66853675743E+03  0.53667799125E+03  0.86272365666E+03  0.89615672303E+02 0.  0.
        254    2    1    2    0    0 -0.36006620130E+02 -0.66853675743E+03  0.84254224750E+03  0.14074861375E+04  0.90713941352E+03 0.  0.
        -24    2    4    4    0    0 -0.40969854011E+02 -0.14928232232E+03  0.86379496918E+03  0.88166439741E+03  0.85009529919E+02 0.  0.
         24    2    4    4    0    0  0.49632338815E+01 -0.51925443512E+03 -0.21252721682E+02  0.52582174005E+03  0.79918846634E+02 0.  0.
         13    1    3    3    0    0  0.25782639715E+02  0.42345623439E+03  0.39385501699E+03  0.57887969507E+03  0.00000000000E+00 0.  1.
        -13    1    3    3    0    0  0.10223980415E+02  0.24508052305E+03  0.14282297426E+03  0.28384396159E+03  0.00000000000E+00 0. -1.
          4    1    6    6  502    0  0.39406285471E+00 -0.25209568937E+03 -0.50249117137E+02  0.25705518018E+03  0.00000000000E+00 0. -1.
          3    1    5    5  503    0 -0.17125087409E+02 -0.10336278608E+03  0.35202933831E+03  0.36728978912E+03  0.00000000000E+00 0. -1.
         -4    1    5    5    0  503 -0.23844766602E+02 -0.45919536236E+02  0.51176563088E+03  0.51437460829E+03  0.00000000000E+00 0.  1.
         -3    1    6    6    0  502  0.45691710268E+01 -0.26715874575E+03  0.28996395454E+02  0.26876655987E+03  0.00000000000E+00 0.  1.
<mgrwt>
<rscale>  0 0.18032205E+04</rscale>
<asrwt>0</asrwt>
<pdfrwt beam="1">  1        3 0.68537659E-01 0.18032205E+04</pdfrwt>
<pdfrwt beam="2">  1       -3 0.28072538E+00 0.18032205E+04</pdfrwt>
<totfact> 0.24645495E-01</totfact>
</mgrwt>
</event>
<event>
12    1  0.1652050E-007  0.1742159E+04  0.7818608E-02  0.8737678E-01
          2   -1    0    0  501    0  0.00000000000E+00  0.00000000000E+00  0.22313566802E+04  0.22313566802E+04  0.00000000000E+00 0. -1.
         -2   -1    0    0    0  501 -0.00000000000E+00 -0.00000000000E+00 -0.34005288123E+03  0.34005288123E+03  0.00000000000E+00 0.  1.
         23    2    1    2    0    0 -0.38740873877E+03 -0.37605106177E+03  0.12300279053E+04  0.13465189812E+04  0.92977346247E+02 0.  0.
        254    2    1    2    0    0  0.38740873877E+03  0.37605106177E+03  0.66127589371E+03  0.12248905803E+04  0.87839125346E+03 0.  0.
        -24    2    4    4    0    0  0.53940469070E+03  0.53501944265E+03  0.36591567688E+03  0.84777704594E+03  0.87340784719E+02 0.  0.
         24    2    4    4    0    0 -0.15199595193E+03 -0.15896838088E+03  0.29536021683E+03  0.37711353435E+03  0.81260350619E+02 0.  0.
         11    1    3    3    0    0 -0.28049657133E+03 -0.26318974724E+03  0.97117546417E+03  0.10445711808E+04  0.00000000000E+00 0. -1.
        -11    1    3    3    0    0 -0.10691216744E+03 -0.11286131453E+03  0.25885244113E+03  0.30194780037E+03  0.00000000000E+00 0.  1.
          2    1    6    6  502    0 -0.31094646609E+02 -0.21148120410E+02  0.11734566155E+02  0.39393147722E+02  0.00000000000E+00 0. -1.
          3    1    5    5  503    0  0.85691162815E+02  0.51932843619E+02  0.29002083623E+02  0.10431259025E+03  0.00000000000E+00 0. -1.
         -4    1    5    5    0  503  0.45371352788E+03  0.48308659904E+03  0.33691359326E+03  0.74346445569E+03  0.00000000000E+00 0.  1.
         -1    1    6    6    0  502 -0.12090130532E+03 -0.13782026047E+03  0.28362565067E+03  0.33772038663E+03  0.00000000000E+00 0.  1.
<mgrwt>
<rscale>  0 0.17421587E+04</rscale>
<asrwt>0</asrwt>
<pdfrwt beam="1">  1        2 0.34328563E+00 0.17421587E+04</pdfrwt>
<pdfrwt beam="2">  1       -2 0.52315829E-01 0.17421587E+04</pdfrwt>
<totfact> 0.16223159E+01</totfact>
</mgrwt>
</event>
<event>
12    1  0.1506149E-007  0.1403495E+04  0.7818608E-02  0.8951293E-01
         -1   -1    0    0    0  501 -0.00000000000E+00  0.00000000000E+00  0.15936044455E+04  0.15936044455E+04  0.00000000000E+00 0.  1.
          1   -1    0    0  501    0  0.00000000000E+00 -0.00000000000E+00 -0.30901619669E+03  0.30901619669E+03  0.00000000000E+00 0. -1.
         23    2    1    2    0    0  0.13916774588E+03  0.30187219027E+03  0.70786860370E+03  0.78748716637E+03  0.92539701494E+02 0.  0.
        254    2    1    2    0    0 -0.13916774588E+03 -0.30187219027E+03  0.57671964508E+03  0.11151334758E+04  0.89466342222E+03 0.  0.
        -24    2    4    4    0    0 -0.39242838207E+03 -0.39375074236E+03  0.61297512254E+03  0.83137187774E+03  0.80006350244E+02 0.  0.
         24    2    4    4    0    0  0.25326063618E+03  0.91878552096E+02 -0.36255477462E+02  0.28376159805E+03  0.81385297855E+02 0.  0.
         13    1    3    3    0    0  0.11819295545E+03  0.17027504042E+03  0.36686029944E+03  0.42136640043E+03  0.00000000000E+00 0. -1.
        -13    1    3    3    0    0  0.20974790436E+02  0.13159714984E+03  0.34100830426E+03  0.36612076594E+03  0.00000000000E+00 0.  1.
          4    1    6    6  502    0  0.13764604862E+03  0.91326614374E+02 -0.30670277636E+02  0.16801086609E+03  0.00000000000E+00 0. -1.
          1    1    5    5  503    0 -0.30231846990E+03 -0.29088815205E+03  0.50880216647E+03  0.65946343253E+03  0.00000000000E+00 0. -1.
         -2    1    5    5    0  503 -0.90109912165E+02 -0.10286259031E+03  0.10417295607E+03  0.17190844520E+03  0.00000000000E+00 0.  1.
         -3    1    6    6    0  502  0.11561458756E+03  0.55193772206E+00 -0.55851998260E+01  0.11575073196E+03  0.00000000000E+00 0.  1.
<mgrwt>
<rscale>  0 0.14034950E+04</rscale>
<asrwt>0</asrwt>
<pdfrwt beam="1">  1        1 0.47540954E-01 0.14034950E+04</pdfrwt>
<pdfrwt beam="2">  1       -1 0.24516991E+00 0.14034950E+04</pdfrwt>
<totfact> 0.61700594E+00</totfact>
</mgrwt>
</event>
<event>
12    1  0.1506149E-007  0.2346313E+04  0.7818608E-02  0.8459881E-01
          4   -1    0    0  501    0  0.00000000000E+00  0.00000000000E+00  0.15471326913E+04  0.15471326913E+04  0.00000000000E+00 0. -1.
         -4   -1    0    0    0  501 -0.00000000000E+00 -0.00000000000E+00 -0.88957888071E+03  0.88957888071E+03  0.00000000000E+00 0.  1.
         23    2    1    2    0    0 -0.36711820344E+03  0.92473876979E+03  0.18531054319E+03  0.10160826597E+04  0.90368170781E+02 0.  0.
        254    2    1    2    0    0  0.36711820344E+03 -0.92473876979E+03  0.47224326739E+03  0.14206289123E+04  0.89736014798E+03 0.  0.
        -24    2    4    4    0    0  0.60726302634E+02 -0.10008268027E+04  0.28656582591E+03  0.10458443773E+04  0.79551971381E+02 0.  0.
         24    2    4    4    0    0  0.30639190081E+03  0.76088032929E+02  0.18567744149E+03  0.37478453495E+03  0.79510689387E+02 0.  0.
         11    1    3    3    0    0 -0.66611545037E+02  0.23094139401E+03  0.76345395549E+02  0.25218970007E+03  0.00000000000E+00 0.  1.
        -11    1    3    3    0    0 -0.30050665841E+03  0.69379737578E+03  0.10896514764E+03  0.76389295964E+03  0.00000000000E+00 0. -1.
          4    1    6    6  502    0  0.28289347647E+03  0.46876505801E+02  0.15280481704E+03  0.32492374172E+03  0.00000000000E+00 0. -1.
          3    1    5    5  503    0  0.19125540973E+02 -0.43370964266E+03  0.83877313012E+02  0.44215974951E+03  0.00000000000E+00 0. -1.
         -4    1    5    5    0  503  0.41600761661E+02 -0.56711716007E+03  0.20268851290E+03  0.60368462782E+03  0.00000000000E+00 0.  1.
         -3    1    6    6    0  502  0.23498424344E+02  0.29211527128E+02  0.32872624448E+02  0.49860793234E+02  0.00000000000E+00 0.  1.
<mgrwt>
<rscale>  0 0.23463133E+04</rscale>
<asrwt>0</asrwt>
<pdfrwt beam="1">  1        4 0.23802041E+00 0.23463133E+04</pdfrwt>
<pdfrwt beam="2">  1       -4 0.13685829E+00 0.23463133E+04</pdfrwt>
<totfact> 0.51308366E-02</totfact>
</mgrwt>
</event>
<event>
12    1  0.1506149E-007  0.1355516E+04  0.7818608E-02  0.8986663E-01
         -1   -1    0    0    0  501 -0.00000000000E+00  0.00000000000E+00  0.29948633333E+03  0.29948633333E+03  0.00000000000E+00 0.  1.
          1   -1    0    0  501    0  0.00000000000E+00 -0.00000000000E+00 -0.15338125975E+04  0.15338125975E+04  0.00000000000E+00 0. -1.
         23    2    1    2    0    0  0.22816481222E+03 -0.23543164346E+03 -0.86544741730E+02  0.35111442836E+03  0.91126885176E+02 0.  0.
        254    2    1    2    0    0 -0.22816481222E+03  0.23543164346E+03 -0.11477815225E+04  0.14821845025E+04  0.87862462738E+03 0.  0.
        -24    2    4    4    0    0  0.18818449397E+03  0.33929378210E+03 -0.21112436043E+03  0.44877529550E+03  0.79322732824E+02 0.  0.
         24    2    4    4    0    0 -0.41634930619E+03 -0.10386213864E+03 -0.93665716205E+03  0.10334092070E+04  0.80460308669E+02 0.  0.
         11    1    3    3    0    0 -0.62876385069E+01 -0.30541906027E+01  0.49523502823E+01  0.85666943186E+01  0.00000000000E+00 0. -1.
        -11    1    3    3    0    0  0.23445245073E+03 -0.23237745286E+03 -0.91497092012E+02  0.34254773404E+03  0.00000000000E+00 0.  1.
          4    1    6    6  502    0 -0.37107267123E+03 -0.10882570233E+03 -0.78531273210E+03  0.87535938221E+03  0.00000000000E+00 0. -1.
          3    1    5    5  503    0  0.45449487616E+02  0.16183672111E+03 -0.96312027106E+02  0.19373380394E+03  0.00000000000E+00 0. -1.
         -4    1    5    5    0  503  0.14273500636E+03  0.17745706100E+03 -0.11481233332E+03  0.25504149156E+03  0.00000000000E+00 0.  1.
         -3    1    6    6    0  502 -0.45276634959E+02  0.49635636861E+01 -0.15134442995E+03  0.15804982479E+03  0.00000000000E+00 0.  1.
<mgrwt>
<rscale>  0 0.13555160E+04</rscale>
<asrwt>0</asrwt>
<pdfrwt beam="1">  1        1 0.23597117E+00 0.13555160E+04</pdfrwt>
<pdfrwt beam="2">  1       -1 0.46074820E-01 0.13555160E+04</pdfrwt>
<totfact> 0.28412665E+01</totfact>
</mgrwt>
</event>
<event>
12    1  0.1506149E-007  0.1314046E+04  0.7818608E-02  0.9018500E-01
         -2   -1    0    0    0  501 -0.00000000000E+00  0.00000000000E+00  0.16401065653E+03  0.16401065653E+03  0.00000000000E+00 0.  1.
          2   -1    0    0  501    0  0.00000000000E+00 -0.00000000000E+00 -0.26320185936E+04  0.26320185936E+04  0.00000000000E+00 0. -1.
         23    2    1    2    0    0 -0.32766482564E+03 -0.86351430635E+02 -0.56346993133E+03  0.66368692755E+03  0.90339176168E+02 0.  0.
        254    2    1    2    0    0  0.32766482564E+03  0.86351430635E+02 -0.19045380058E+04  0.21323423226E+04  0.89710532148E+03 0.  0.
        -24    2    4    4    0    0  0.59940542070E+03 -0.42304525171E+02 -0.15338169023E+04  0.16492422408E+04  0.79555941034E+02 0.  0.
         24    2    4    4    0    0 -0.27174059506E+03  0.12865595581E+03 -0.37072110345E+03  0.48310008181E+03  0.74540234342E+02 0.  0.
         11    1    3    3    0    0 -0.28169592397E+03 -0.62839268859E+02 -0.40723374484E+03  0.49913995055E+03  0.00000000000E+00 0.  1.
        -11    1    3    3    0    0 -0.45968901666E+02 -0.23512161776E+02 -0.15623618649E+03  0.16454697700E+03  0.00000000000E+00 0. -1.
          4    1    6    6  502    0 -0.27205681598E+03  0.11952023275E+03 -0.34251444028E+03  0.45344915808E+03  0.00000000000E+00 0. -1.
          3    1    5    5  503    0  0.55234271167E+03 -0.60417909582E+02 -0.14131853417E+04  0.15184945193E+04  0.00000000000E+00 0. -1.
         -4    1    5    5    0  503  0.47062709032E+02  0.18113384411E+02 -0.12063156059E+03  0.13074772154E+03  0.00000000000E+00 0.  1.
         -3    1    6    6    0  502  0.31622091922E+00  0.91357230612E+01 -0.28206663162E+02  0.29650923734E+02  0.00000000000E+00 0.  1.
<mgrwt>
<rscale>  0 0.13140458E+04</rscale>
<asrwt>0</asrwt>
<pdfrwt beam="1">  1        2 0.40492591E+00 0.13140458E+04</pdfrwt>
<pdfrwt beam="2">  1       -2 0.25232410E-01 0.13140458E+04</pdfrwt>
<totfact> 0.40496770E+01</totfact>
</mgrwt>
</event>
<event>
12    1  0.1506149E-007  0.2335399E+04  0.7818608E-02  0.8464093E-01
         -3   -1    0    0    0  501 -0.00000000000E+00  0.00000000000E+00  0.18343721797E+04  0.18343721797E+04  0.00000000000E+00 0.  1.
          3   -1    0    0  501    0  0.00000000000E+00 -0.00000000000E+00 -0.74331827809E+03  0.74331827809E+03  0.00000000000E+00 0. -1.
         23    2    1    2    0    0 -0.47616478469E+03  0.83305360940E+03  0.72561239101E+03  0.12064128006E+04  0.90594067377E+02 0.  0.
        254    2    1    2    0    0  0.47616478469E+03 -0.83305360940E+03  0.36544151058E+03  0.13712776572E+04  0.90892447278E+03 0.  0.
        -24    2    4    4    0    0  0.31703248063E+03 -0.31123130252E+03  0.61741449504E+03  0.76505367223E+03  0.82048432430E+02 0.  0.
         24    2    4    4    0    0  0.15913230406E+03 -0.52182230688E+03 -0.25197298446E+03  0.60622398498E+03  0.79972025831E+02 0.  0.
         13    1    3    3    0    0 -0.29966321231E+03  0.54819706043E+03  0.41940020488E+03  0.75247231825E+03  0.00000000000E+00 0.  1.
        -13    1    3    3    0    0 -0.17650157238E+03  0.28485654898E+03  0.30621218613E+03  0.45394048231E+03  0.00000000000E+00 0. -1.
          4    1    6    6  502    0  0.15225626620E+03 -0.50563311655E+03 -0.25788755726E+03  0.58766726244E+03  0.00000000000E+00 0. -1.
          3    1    5    5  503    0  0.23277498215E+03 -0.24558395924E+03  0.52054980785E+03  0.62086051236E+03  0.00000000000E+00 0. -1.
         -4    1    5    5    0  503  0.84257498483E+02 -0.65647343277E+02  0.96864687192E+02  0.14419315988E+03  0.00000000000E+00 0.  1.
         -3    1    6    6    0  502  0.68760378600E+01 -0.16189190332E+02  0.59145728006E+01  0.18556722546E+02  0.00000000000E+00 0.  1.
<mgrwt>
<rscale>  0 0.23353992E+04</rscale>
<asrwt>0</asrwt>
<pdfrwt beam="1">  1        3 0.11435666E+00 0.23353992E+04</pdfrwt>
<pdfrwt beam="2">  1       -3 0.28221110E+00 0.23353992E+04</pdfrwt>
<totfact> 0.71785047E-02</totfact>
</mgrwt>
</event>
<event>
12    1  0.1506149E-007  0.2097850E+04  0.7818608E-02  0.8562191E-01
          1   -1    0    0  501    0  0.00000000000E+00  0.00000000000E+00  0.80948364809E+03  0.80948364809E+03  0.00000000000E+00 0. -1.
         -1   -1    0    0    0  501 -0.00000000000E+00 -0.00000000000E+00 -0.13591918759E+04  0.13591918759E+04  0.00000000000E+00 0.  1.
         23    2    1    2    0    0  0.74987220402E+02 -0.55449372601E+03  0.43960287013E+03  0.71861674058E+03  0.10036414202E+03 0.  0.
        254    2    1    2    0    0 -0.74987220402E+02  0.55449372601E+03 -0.98931109796E+03  0.14500587834E+04  0.90047079435E+03 0.  0.
        -24    2    4    4    0    0 -0.37296142319E+03  0.61744454867E+03 -0.80967981757E+03  0.10874423417E+04  0.81310797304E+02 0.  0.
         24    2    4    4    0    0  0.29797420278E+03 -0.62950822665E+02 -0.17963128039E+03  0.36261644170E+03  0.80447842101E+02 0.  0.
         13    1    3    3    0    0 -0.18520126447E+02 -0.55301584196E+02  0.27014881666E+02  0.64273354741E+02  0.00000000000E+00 0.  1.
        -13    1    3    3    0    0  0.93507346849E+02 -0.49919214181E+03  0.41258798847E+03  0.65434338583E+03  0.00000000000E+00 0. -1.
          2    1    6    6  502    0  0.26002439732E+03 -0.40907703578E+02 -0.12185022635E+03  0.29005793400E+03  0.00000000000E+00 0. -1.
          1    1    5    5  503    0 -0.32330041369E+03  0.50826292763E+03 -0.63218080214E+03  0.87321642661E+03  0.00000000000E+00 0. -1.
         -2    1    5    5    0  503 -0.49661009497E+02  0.10918162104E+03 -0.17749901543E+03  0.21422591513E+03  0.00000000000E+00 0.  1.
         -1    1    6    6    0  502  0.37949805465E+02 -0.22043119087E+02 -0.57781054047E+02  0.72558507707E+02  0.00000000000E+00 0.  1.
<mgrwt>
<rscale>  0 0.20978499E+04</rscale>
<asrwt>0</asrwt>
<pdfrwt beam="1">  1        1 0.12453595E+00 0.20978499E+04</pdfrwt>
<pdfrwt beam="2">  1       -1 0.20910644E+00 0.20978499E+04</pdfrwt>
<totfact> 0.26011666E+00</totfact>
</mgrwt>
</event>
<event>
12    1  0.1506149E-007  0.2746641E+04  0.7818608E-02  0.8320028E-01
          2   -1    0    0  501    0  0.00000000000E+00  0.00000000000E+00  0.34461379398E+04  0.34461379398E+04  0.00000000000E+00 0. -1.
         -2   -1    0    0    0  501 -0.00000000000E+00 -0.00000000000E+00 -0.54728196130E+03  0.54728196130E+03  0.00000000000E+00 0.  1.
         23    2    1    2    0    0  0.69551249078E+03 -0.49027662359E+02 -0.15615270801E+03  0.72018482434E+03  0.90228468246E+02 0.  0.
        254    2    1    2    0    0 -0.69551249078E+03  0.49027662359E+02  0.30550086865E+04  0.32732350768E+04  0.94596429983E+03 0.  0.
        -24    2    4    4    0    0 -0.90812141812E+03  0.14538527635E+03  0.25242974726E+04  0.26877772326E+04  0.79040072953E+02 0.  0.
         24    2    4    4    0    0  0.21260892734E+03 -0.96357613995E+02  0.53071121390E+03  0.58545784417E+03  0.81358152557E+02 0.  0.
         13    1    3    3    0    0  0.56339689203E+03 -0.38446122620E+02 -0.16210185005E+03  0.58751269951E+03  0.00000000000E+00 0.  1.
        -13    1    3    3    0    0  0.13211559875E+03 -0.10581539739E+02  0.59491420381E+01  0.13267212483E+03  0.00000000000E+00 0. -1.
          2    1    6    6  502    0  0.17428239287E+03 -0.76073096629E+02  0.33697936448E+03  0.38693224288E+03  0.00000000000E+00 0. -1.
          1    1    5    5  503    0 -0.53239645331E+03  0.98413642799E+02  0.15907197085E+04  0.16803334251E+04  0.00000000000E+00 0. -1.
         -2    1    5    5    0  503 -0.37572496481E+03  0.46971633555E+02  0.93357776409E+03  0.10074438074E+04  0.00000000000E+00 0.  1.
         -1    1    6    6    0  502  0.38326534466E+02 -0.20284517366E+02  0.19373184942E+03  0.19852560129E+03  0.00000000000E+00 0.  1.
<mgrwt>
<rscale>  0 0.27466410E+04</rscale>
<asrwt>0</asrwt>
<pdfrwt beam="1">  1        2 0.53017505E+00 0.27466410E+04</pdfrwt>
<pdfrwt beam="2">  1       -2 0.84197227E-01 0.27466410E+04</pdfrwt>
<totfact> 0.95361896E-01</totfact>
</mgrwt>
</event>
<event>
12    1  0.1506149E-007  0.1769547E+04  0.7818608E-02  0.8722664E-01
          1   -1    0    0  501    0  0.00000000000E+00  0.00000000000E+00  0.25659355306E+04  0.25659355306E+04  0.00000000000E+00 0. -1.
         -1   -1    0    0    0  501 -0.00000000000E+00 -0.00000000000E+00 -0.30508323511E+03  0.30508323511E+03  0.00000000000E+00 0.  1.
         23    2    1    2    0    0 -0.32187355539E+03 -0.16169732024E+03 -0.43021950727E+02  0.37395963352E+03  0.90809196794E+02 0.  0.
        254    2    1    2    0    0  0.32187355539E+03  0.16169732024E+03  0.23038742462E+04  0.24970591322E+04  0.89315125162E+03 0.  0.
        -24    2    4    4    0    0 -0.24738705026E+03 -0.50032239154E+02  0.29186505609E+03  0.39364434472E+03  0.77891473033E+02 0.  0.
         24    2    4    4    0    0  0.56926060566E+03  0.21172955939E+03  0.20120091901E+04  0.21034147875E+04  0.85356567031E+02 0.  0.
         11    1    3    3    0    0 -0.32355170826E+03 -0.16631651396E+03 -0.48019290114E+02  0.36695060016E+03  0.00000000000E+00 0.  1.
        -11    1    3    3    0    0  0.16781528674E+01  0.46191937207E+01  0.49973393866E+01  0.70090333585E+01  0.00000000000E+00 0. -1.
          4    1    6    6  502    0  0.98728605339E+02  0.56363607395E+02  0.28861594530E+03  0.31019890011E+03  0.00000000000E+00 0. -1.
          1    1    5    5  503    0 -0.33273493779E+02  0.20036732390E+02  0.41514495126E+02  0.56851115545E+02  0.00000000000E+00 0. -1.
         -4    1    5    5    0  503 -0.21411355649E+03 -0.70068971544E+02  0.25035056096E+03  0.33679322918E+03  0.00000000000E+00 0.  1.
         -3    1    6    6    0  502  0.47053200032E+03  0.15536595200E+03  0.17233932448E+04  0.17932158874E+04  0.00000000000E+00 0.  1.
<mgrwt>
<rscale>  0 0.17695467E+04</rscale>
<asrwt>0</asrwt>
<pdfrwt beam="1">  1        1 0.39475930E+00 0.17695467E+04</pdfrwt>
<pdfrwt beam="2">  1       -1 0.46935884E-01 0.17695467E+04</pdfrwt>
<totfact> 0.52254767E+00</totfact>
</mgrwt>
</event>
<event>
12    1  0.1506149E-007  0.1352878E+04  0.7818608E-02  0.8988653E-01
          1   -1    0    0  501    0  0.00000000000E+00  0.00000000000E+00  0.53499331475E+03  0.53499331475E+03  0.00000000000E+00 0. -1.
         -1   -1    0    0    0  501 -0.00000000000E+00 -0.00000000000E+00 -0.85528069253E+03  0.85528069253E+03  0.00000000000E+00 0.  1.
         23    2    1    2    0    0 -0.18357053079E+03  0.45824446214E+02 -0.41483430320E+03  0.46725353976E+03  0.10217803901E+03 0.  0.
        254    2    1    2    0    0  0.18357053079E+03 -0.45824446214E+02  0.94546925420E+02  0.92302046753E+03  0.89845959437E+03 0.  0.
        -24    2    4    4    0    0  0.41450615603E+03  0.16027445898E+03  0.29999557139E+03  0.54312148252E+03  0.86488995463E+02 0.  0.
         24    2    4    4    0    0 -0.23093562524E+03 -0.20609890520E+03 -0.20544864597E+03  0.37989898500E+03  0.79410773482E+02 0.  0.
         13    1    3    3    0    0  0.18525026500E+00  0.27026185264E+02 -0.85316068896E+02  0.89494584303E+02  0.00000000000E+00 0. -1.
        -13    1    3    3    0    0 -0.18375578105E+03  0.18798260949E+02 -0.32951823431E+03  0.37775895545E+03  0.00000000000E+00 0.  1.
          2    1    6    6  502    0 -0.38698633456E+02 -0.13818361484E+01 -0.25342903051E+02  0.46279114485E+02  0.00000000000E+00 0. -1.
          1    1    5    5  503    0  0.84562881480E+02  0.71755539935E+02  0.66062968679E+02  0.12908932669E+03  0.00000000000E+00 0. -1.
         -2    1    5    5    0  503  0.32994327455E+03  0.88518919050E+02  0.23393260271E+03  0.41403215583E+03  0.00000000000E+00 0.  1.
         -1    1    6    6    0  502 -0.19223699179E+03 -0.20471706905E+03 -0.18010574292E+03  0.33361987052E+03  0.00000000000E+00 0.  1.
<mgrwt>
<rscale>  0 0.13528776E+04</rscale>
<asrwt>0</asrwt>
<pdfrwt beam="1">  1        1 0.82306665E-01 0.13528776E+04</pdfrwt>
<pdfrwt beam="2">  1       -1 0.13158164E+00 0.13528776E+04</pdfrwt>
<totfact> 0.19418312E+01</totfact>
</mgrwt>
</event>
<event>
12    1  0.1506149E-007  0.1713245E+04  0.7818608E-02  0.8753846E-01
          2   -1    0    0  501    0  0.00000000000E+00  0.00000000000E+00  0.99616489149E+03  0.99616489149E+03  0.00000000000E+00 0. -1.
         -2   -1    0    0    0  501 -0.00000000000E+00 -0.00000000000E+00 -0.73662716571E+03  0.73662716571E+03  0.00000000000E+00 0.  1.
         23    2    1    2    0    0  0.59457771050E+03 -0.10845812004E+03  0.23474867173E+03  0.65507990219E+03  0.93471502338E+02 0.  0.
        254    2    1    2    0    0 -0.59457771050E+03  0.10845812004E+03  0.24789054045E+02  0.10777121550E+04  0.89194348152E+03 0.  0.
        -24    2    4    4    0    0 -0.20284310468E+03  0.20971346424E+02 -0.41977947069E+03  0.47347111271E+03  0.79843397158E+02 0.  0.
         24    2    4    4    0    0 -0.39173460582E+03  0.87486773615E+02  0.44456852473E+03  0.60424104231E+03  0.79725322619E+02 0.  0.
         11    1    3    3    0    0  0.49463422495E+03 -0.10900365899E+03  0.22636297613E+03  0.55478375168E+03  0.00000000000E+00 0. -1.
        -11    1    3    3    0    0  0.99943485552E+02  0.54553894748E+00  0.83856955979E+01  0.10029615051E+03  0.00000000000E+00 0.  1.
          4    1    6    6  502    0 -0.14911916022E+03  0.52541147216E+02  0.22608886001E+03  0.27588633297E+03  0.00000000000E+00 0. -1.
          1    1    5    5  503    0 -0.17496190586E+03 -0.59093548562E+01 -0.37760645670E+03  0.41621295645E+03  0.00000000000E+00 0. -1.
         -2    1    5    5    0  503 -0.27881198821E+02  0.26880701280E+02 -0.42173013992E+02  0.57258156259E+02  0.00000000000E+00 0.  1.
         -3    1    6    6    0  502 -0.24261544560E+03  0.34945626399E+02  0.21847966472E+03  0.32835470934E+03  0.00000000000E+00 0.  1.
<mgrwt>
<rscale>  0 0.17132450E+04</rscale>
<asrwt>0</asrwt>
<pdfrwt beam="1">  1        2 0.15325614E+00 0.17132450E+04</pdfrwt>
<pdfrwt beam="2">  1       -2 0.11332726E+00 0.17132450E+04</pdfrwt>
<totfact> 0.14717172E+01</totfact>
</mgrwt>
</event>
<event>
12    1  0.1805098E-007  0.2066801E+04  0.7818608E-02  0.8576010E-01
          1   -1    0    0  501    0  0.00000000000E+00  0.00000000000E+00  0.54839686212E+03  0.54839686212E+03  0.00000000000E+00 0. -1.
         -1   -1    0    0    0  501 -0.00000000000E+00 -0.00000000000E+00 -0.19473425836E+04  0.19473425836E+04  0.00000000000E+00 0.  1.
         23    2    1    2    0    0 -0.65359253288E+03 -0.33188877974E+03 -0.10449951972E+04  0.12796393324E+04  0.90158181356E+02 0.  0.
        254    2    1    2    0    0  0.65359253288E+03  0.33188877974E+03 -0.35395052426E+03  0.12161001133E+04  0.90348500310E+03 0.  0.
        -24    2    4    4    0    0  0.49698682022E+03  0.35580213105E+03 -0.63396160392E+03  0.88490728338E+03  0.86962802461E+02 0.  0.
         24    2    4    4    0    0  0.15660571267E+03 -0.23913351316E+02  0.28001107965E+03  0.33119282994E+03  0.78646603629E+02 0.  0.
         13    1    3    3    0    0 -0.23667997532E+01 -0.10602819215E+02 -0.72701998020E+01  0.13072005261E+02  0.00000000000E+00 0. -1.
        -13    1    3    3    0    0 -0.65122573313E+03 -0.32128596052E+03 -0.10377249974E+04  0.12665673272E+04  0.00000000000E+00 0.  1.
          4    1    6    6  502    0 -0.81789301749E+01 -0.66682747161E+01  0.10930881503E+02  0.15193582755E+02  0.00000000000E+00 0. -1.
          1    1    5    5  503    0  0.45850741495E+02  0.68165443474E+02 -0.76997464449E+02  0.11259408382E+03  0.00000000000E+00 0. -1.
         -2    1    5    5    0  503  0.45113607872E+03  0.28763668758E+03 -0.55696413947E+03  0.77231319956E+03  0.00000000000E+00 0.  1.
         -3    1    6    6    0  502  0.16478464284E+03 -0.17245076600E+02  0.26908019815E+03  0.31599924718E+03  0.00000000000E+00 0.  1.
<mgrwt>
<rscale>  0 0.20668010E+04</rscale>
<asrwt>0</asrwt>
<pdfrwt beam="1">  1        1 0.84368747E-01 0.20668010E+04</pdfrwt>
<pdfrwt beam="2">  1       -1 0.29959117E+00 0.20668010E+04</pdfrwt>
<totfact> 0.11943911E+00</totfact>
</mgrwt>
</event>
<event>
12    1  0.1506149E-007  0.2704840E+04  0.7818608E-02  0.8333436E-01
         -2   -1    0    0    0  501 -0.00000000000E+00  0.00000000000E+00  0.10996060167E+04  0.10996060167E+04  0.00000000000E+00 0.  1.
          2   -1    0    0  501    0  0.00000000000E+00 -0.00000000000E+00 -0.16633593961E+04  0.16633593961E+04  0.00000000000E+00 0. -1.
         23    2    1    2    0    0 -0.11968561903E+04  0.11940720803E+03 -0.19025225563E+03  0.12214498037E+04  0.94978317116E+02 0.  0.
        254    2    1    2    0    0  0.11968561903E+04 -0.11940720803E+03 -0.37350112372E+03  0.15415156091E+04  0.88884445320E+03 0.  0.
        -24    2    4    4    0    0  0.65958326015E+03  0.34393381462E+03 -0.28374566423E+02  0.74864975676E+03  0.79566301750E+02 0.  0.
         24    2    4    4    0    0  0.53727293014E+03 -0.46334102266E+03 -0.34512655730E+03  0.79286585229E+03  0.78592712383E+02 0.  0.
         13    1    3    3    0    0 -0.19264385156E+03  0.27434588720E+02 -0.65659853415E+02  0.20536680976E+03  0.00000000000E+00 0.  1.
        -13    1    3    3    0    0 -0.10042123387E+04  0.91972619313E+02 -0.12459240222E+03  0.10160829940E+04  0.00000000000E+00 0. -1.
          4    1    6    6  502    0  0.40112033869E+03 -0.32619359969E+03 -0.28561292779E+03  0.59065602097E+03  0.00000000000E+00 0. -1.
          1    1    5    5  503    0  0.59896666568E+03  0.29971934539E+03 -0.40709103213E+01  0.66978304316E+03  0.00000000000E+00 0. -1.
         -2    1    5    5    0  503  0.60616594472E+02  0.44214469234E+02 -0.24303656102E+02  0.78866713605E+02  0.00000000000E+00 0.  1.
         -3    1    6    6    0  502  0.13615259145E+03 -0.13714742297E+03 -0.59513629509E+02  0.20220983132E+03  0.00000000000E+00 0.  1.
<mgrwt>
<rscale>  0 0.27048401E+04</rscale>
<asrwt>0</asrwt>
<pdfrwt beam="1">  1        2 0.25590144E+00 0.27048401E+04</pdfrwt>
<pdfrwt beam="2">  1       -2 0.16917016E+00 0.27048401E+04</pdfrwt>
<totfact> 0.19478840E+00</totfact>
</mgrwt>
</event>
<event>
12    1  0.1506149E-007  0.2170175E+04  0.7818608E-02  0.8530946E-01
          2   -1    0    0  501    0  0.00000000000E+00  0.00000000000E+00  0.10922263713E+04  0.10922263713E+04  0.00000000000E+00 0. -1.
         -2   -1    0    0    0  501 -0.00000000000E+00 -0.00000000000E+00 -0.10779951105E+04  0.10779951105E+04  0.00000000000E+00 0.  1.
         23    2    1    2    0    0 -0.57377138891E+02  0.76849286852E+03  0.46678275260E+03  0.90541246999E+03  0.89510768343E+02 0.  0.
        254    2    1    2    0    0  0.57377138891E+02 -0.76849286852E+03 -0.45255149176E+03  0.12648090119E+04  0.89502265824E+03 0.  0.
        -24    2    4    4    0    0  0.17574153091E+03 -0.81894204680E+03 -0.60139827843E+02  0.84381561145E+03  0.82805951077E+02 0.  0.
         24    2    4    4    0    0 -0.11836439202E+03  0.50449178276E+02 -0.39241166392E+03  0.42099340042E+03  0.81812470493E+02 0.  0.
         13    1    3    3    0    0 -0.37258131824E+02  0.34849430420E+03  0.26281194798E+03  0.43807141935E+03  0.00000000000E+00 0. -1.
        -13    1    3    3    0    0 -0.20119007067E+02  0.41999856432E+03  0.20397080462E+03  0.46734105064E+03  0.00000000000E+00 0.  1.
          2    1    6    6  502    0 -0.41365817481E+02  0.13973765474E+02 -0.25929239674E+03  0.26294285308E+03  0.00000000000E+00 0. -1.
          3    1    5    5  503    0  0.12167861273E+03 -0.63539386482E+03 -0.14494838585E+02  0.64710211605E+03  0.00000000000E+00 0. -1.
         -4    1    5    5    0  503  0.54062918177E+02 -0.18354818198E+03 -0.45644989257E+02  0.19671349540E+03  0.00000000000E+00 0.  1.
         -1    1    6    6    0  502 -0.76998574538E+02  0.36475412803E+02 -0.13311926718E+03  0.15805054734E+03  0.00000000000E+00 0.  1.
<mgrwt>
<rscale>  0 0.21701748E+04</rscale>
<asrwt>0</asrwt>
<pdfrwt beam="1">  1        2 0.16803483E+00 0.21701748E+04</pdfrwt>
<pdfrwt beam="2">  1       -2 0.16584540E+00 0.21701748E+04</pdfrwt>
<totfact> 0.46073919E+00</totfact>
</mgrwt>
</event>
<event>
12    1  0.1506149E-007  0.1700292E+04  0.7818608E-02  0.8761198E-01
         -2   -1    0    0    0  501 -0.00000000000E+00  0.00000000000E+00  0.35749272749E+03  0.35749272749E+03  0.00000000000E+00 0.  1.
          2   -1    0    0  501    0  0.00000000000E+00 -0.00000000000E+00 -0.20217149284E+04  0.20217149284E+04  0.00000000000E+00 0. -1.
         23    2    1    2    0    0  0.13228962160E+03 -0.25946948737E+03 -0.13586252332E+04  0.13926435275E+04  0.93640329763E+02 0.  0.
        254    2    1    2    0    0 -0.13228962160E+03  0.25946948737E+03 -0.30559696773E+03  0.98656412847E+03  0.89168061213E+03 0.  0.
        -24    2    4    4    0    0 -0.72953221027E+02 -0.31772386068E+03 -0.22938017753E+02  0.33623357742E+03  0.79096408403E+02 0.  0.
         24    2    4    4    0    0 -0.59336400572E+02  0.57719334805E+03 -0.28265894998E+03  0.65033055105E+03  0.79754461707E+02 0.  0.
         11    1    3    3    0    0  0.89331467188E+02 -0.11448300916E+03 -0.49423038033E+03  0.51512148009E+03  0.00000000000E+00 0.  1.
        -11    1    3    3    0    0  0.42958154411E+02 -0.14498647821E+03 -0.86439485290E+03  0.87752204737E+03  0.00000000000E+00 0. -1.
          4    1    6    6  502    0  0.60590474223E+01  0.18297946781E+03 -0.11994098846E+03  0.21886991207E+03  0.00000000000E+00 0. -1.
          1    1    5    5  503    0 -0.11577006243E+02 -0.62554398450E+01 -0.13181684367E+02  0.18625638350E+02  0.00000000000E+00 0. -1.
         -2    1    5    5    0  503 -0.61376214784E+02 -0.31146842084E+03 -0.97563333858E+01  0.31760793907E+03  0.00000000000E+00 0.  1.
         -3    1    6    6    0  502 -0.65395447994E+02  0.39421388024E+03 -0.16271796152E+03  0.43146063898E+03  0.00000000000E+00 0.  1.
<mgrwt>
<rscale>  0 0.17002922E+04</rscale>
<asrwt>0</asrwt>
<pdfrwt beam="1">  1        2 0.31103306E+00 0.17002922E+04</pdfrwt>
<pdfrwt beam="2">  1       -2 0.54998881E-01 0.17002922E+04</pdfrwt>
<totfact> 0.19225634E+01</totfact>
</mgrwt>
</event>
<event>
12    1  0.1506149E-007  0.1798741E+04  0.7818608E-02  0.8706969E-01
         -1   -1    0    0    0  501 -0.00000000000E+00  0.00000000000E+00  0.14237684064E+04  0.14237684064E+04  0.00000000000E+00 0.  1.
          1   -1    0    0  501    0  0.00000000000E+00 -0.00000000000E+00 -0.56811715791E+03  0.56811715791E+03  0.00000000000E+00 0. -1.
         23    2    1    2    0    0  0.16506353549E+00  0.37423994960E+03 -0.29356783470E+03  0.48434324442E+03  0.91382371004E+02 0.  0.
        254    2    1    2    0    0 -0.16506353549E+00 -0.37423994960E+03  0.11492190832E+04  0.15075423199E+04  0.90106813169E+03 0.  0.
        -24    2    4    4    0    0 -0.23200749729E+02 -0.56357266216E+03  0.32089864247E+03  0.65388400036E+03  0.80224228691E+02 0.  0.
         24    2    4    4    0    0  0.23035686193E+02  0.18933271256E+03  0.82832044071E+03  0.85365831951E+03  0.78995285220E+02 0.  0.
         11    1    3    3    0    0  0.40671475914E+02  0.27296867855E+03 -0.21705282840E+03  0.35110966768E+03  0.00000000000E+00 0. -1.
        -11    1    3    3    0    0 -0.40506412379E+02  0.10127127105E+03 -0.76515006297E+02  0.13323357674E+03  0.00000000000E+00 0.  1.
          2    1    6    6  502    0 -0.25205319551E+02  0.70213344296E+02  0.38136543748E+03  0.38859338486E+03  0.00000000000E+00 0. -1.
          1    1    5    5  503    0  0.12798780991E+02 -0.33295117616E+03  0.15478194664E+03  0.36739317565E+03  0.00000000000E+00 0. -1.
         -2    1    5    5    0  503 -0.35999530719E+02 -0.23062148599E+03  0.16611669582E+03  0.28649082471E+03  0.00000000000E+00 0.  1.
         -1    1    6    6    0  502  0.48241005744E+02  0.11911936827E+03  0.44695500323E+03  0.46506493466E+03  0.00000000000E+00 0.  1.
<mgrwt>
<rscale>  0 0.17987410E+04</rscale>
<asrwt>0</asrwt>
<pdfrwt beam="1">  1        1 0.87402640E-01 0.17987410E+04</pdfrwt>
<pdfrwt beam="2">  1       -1 0.21904129E+00 0.17987410E+04</pdfrwt>
<totfact> 0.39041276E+00</totfact>
</mgrwt>
</event>
<event>
12    1  0.1506149E-007  0.3831646E+04  0.7818608E-02  0.8039398E-01
         -2   -1    0    0    0  501 -0.00000000000E+00  0.00000000000E+00  0.10766881786E+04  0.10766881786E+04  0.00000000000E+00 0.  1.
          2   -1    0    0  501    0  0.00000000000E+00 -0.00000000000E+00 -0.34089517306E+04  0.34089517306E+04  0.00000000000E+00 0. -1.
         23    2    1    2    0    0  0.11383214149E+04  0.13567709100E+04 -0.15509888843E+04  0.23559728305E+04  0.91861381841E+02 0.  0.
        254    2    1    2    0    0 -0.11383214149E+04 -0.13567709100E+04 -0.78127466776E+03  0.21296670786E+04  0.88796892607E+03 0.  0.
        -24    2    4    4    0    0 -0.81478350105E+03 -0.13566861315E+04 -0.83599886332E+03  0.17918671355E+04  0.86164487009E+02 0.  0.
         24    2    4    4    0    0 -0.32353791382E+03 -0.84778472826E-01  0.54724195558E+02  0.33779994314E+03  0.80232631407E+02 0.  0.
         13    1    3    3    0    0  0.23168608051E+03  0.27879191482E+03 -0.26945933879E+03  0.45167655123E+03  0.00000000000E+00 0. -1.
        -13    1    3    3    0    0  0.90663533435E+03  0.10779789952E+04 -0.12815295455E+04  0.19042962793E+04  0.00000000000E+00 0.  1.
          4    1    6    6  502    0 -0.23464557642E+03 -0.35512527630E+02  0.32194904885E+02  0.23949154067E+03  0.00000000000E+00 0. -1.
          1    1    5    5  503    0 -0.33271100249E+03 -0.63666911690E+03 -0.38490746176E+03  0.81498339229E+03  0.00000000000E+00 0. -1.
         -2    1    5    5    0  503 -0.48207249856E+03 -0.72001701459E+03 -0.45109140157E+03  0.97688374321E+03  0.00000000000E+00 0.  1.
         -3    1    6    6    0  502 -0.88892337400E+02  0.35427749157E+02  0.22529290674E+02  0.98308402474E+02  0.00000000000E+00 0.  1.
<mgrwt>
<rscale>  0 0.38316461E+04</rscale>
<asrwt>0</asrwt>
<pdfrwt beam="1">  1        2 0.52445411E+00 0.38316461E+04</pdfrwt>
<pdfrwt beam="2">  1       -2 0.16564434E+00 0.38316461E+04</pdfrwt>
<totfact> 0.17192727E-01</totfact>
</mgrwt>
</event>
<event>
12    1  0.1506149E-007  0.2257189E+04  0.7818608E-02  0.8494995E-01
         -2   -1    0    0    0  501 -0.00000000000E+00  0.00000000000E+00  0.61364884674E+03  0.61364884674E+03  0.00000000000E+00 0.  1.
          2   -1    0    0  501    0  0.00000000000E+00 -0.00000000000E+00 -0.20756580982E+04  0.20756580982E+04  0.00000000000E+00 0. -1.
         23    2    1    2    0    0 -0.77685262304E+03 -0.12695496255E+03 -0.12332128505E+04  0.14659012155E+04  0.91841594738E+02 0.  0.
        254    2    1    2    0    0  0.77685262304E+03  0.12695496255E+03 -0.22879640099E+03  0.12234057295E+04  0.90816090279E+03 0.  0.
        -24    2    4    4    0    0  0.49358895122E+01  0.37487027173E+03 -0.29303883948E+02  0.38478011715E+03  0.81516484872E+02 0.  0.
         24    2    4    4    0    0  0.77191673353E+03 -0.24791530918E+03 -0.19949251705E+03  0.83862561232E+03  0.78601585567E+02 0.  0.
         13    1    3    3    0    0 -0.60845965488E+03 -0.65282720884E+02 -0.98668073751E+03  0.11610442985E+04  0.00000000000E+00 0. -1.
        -13    1    3    3    0    0 -0.16839296816E+03 -0.61672241664E+02 -0.24653211296E+03  0.30485691699E+03  0.00000000000E+00 0.  1.
          4    1    6    6  502    0  0.69838630571E+03 -0.24415674760E+03 -0.16873526415E+03  0.75883301113E+03  0.00000000000E+00 0. -1.
          1    1    5    5  503    0 -0.72766014789E+01  0.37043968806E+03 -0.30316429995E+02  0.37174937437E+03  0.00000000000E+00 0. -1.
         -2    1    5    5    0  503  0.12212490991E+02  0.44305836753E+01  0.10125460474E+01  0.13030742780E+02  0.00000000000E+00 0.  1.
         -3    1    6    6    0  502  0.73530427813E+02 -0.37585615874E+01 -0.30757252897E+02  0.79792601194E+02  0.00000000000E+00 0.  1.
<mgrwt>
<rscale>  0 0.22571887E+04</rscale>
<asrwt>0</asrwt>
<pdfrwt beam="1">  1        2 0.31933201E+00 0.22571887E+04</pdfrwt>
<pdfrwt beam="2">  1       -2 0.94407516E-01 0.22571887E+04</pdfrwt>
<totfact> 0.52160020E+00</totfact>
</mgrwt>
</event>
<event>
12    1  0.1506149E-007  0.4099604E+04  0.7818608E-02  0.7984749E-01
         -2   -1    0    0    0  501 -0.00000000000E+00  0.00000000000E+00  0.11628133584E+04  0.11628133584E+04  0.00000000000E+00 0.  1.
          2   -1    0    0  501    0  0.00000000000E+00 -0.00000000000E+00 -0.36133810906E+04  0.36133810906E+04  0.00000000000E+00 0. -1.
         23    2    1    2    0    0 -0.88512686647E+03 -0.12203794203E+04  0.27258756361E+03  0.15345421842E+04  0.87978610792E+02 0.  0.
        254    2    1    2    0    0  0.88512686647E+03  0.12203794203E+04 -0.27231552958E+04  0.32416522648E+04  0.90551595339E+03 0.  0.
        -24    2    4    4    0    0  0.29869393822E+03  0.58276147283E+03 -0.42574654940E+03  0.78499274111E+03  0.78259033552E+02 0.  0.
         24    2    4    4    0    0  0.58643292825E+03  0.63761794746E+03 -0.22974087464E+04  0.24566595237E+04  0.81417695816E+02 0.  0.
         11    1    3    3    0    0 -0.27589142390E+03 -0.44351395369E+03  0.74602645273E+02  0.52762321744E+03  0.00000000000E+00 0. -1.
        -11    1    3    3    0    0 -0.60923544257E+03 -0.77686546659E+03  0.19798491833E+03  0.10069189667E+04  0.00000000000E+00 0.  1.
          2    1    6    6  502    0  0.35619172581E+03  0.44443958822E+03 -0.15051812977E+04  0.16093383212E+04  0.00000000000E+00 0. -1.
          3    1    5    5  503    0  0.28325313529E+03  0.53316086173E+03 -0.36680858449E+03  0.70642860983E+03  0.00000000000E+00 0. -1.
         -4    1    5    5    0  503  0.15440802931E+02  0.49600611099E+02 -0.58937964911E+02  0.78564131284E+02  0.00000000000E+00 0.  1.
         -1    1    6    6    0  502  0.23024120244E+03  0.19317835924E+03 -0.79222744872E+03  0.84732120254E+03  0.00000000000E+00 0.  1.
<mgrwt>
<rscale>  0 0.40996038E+04</rscale>
<asrwt>0</asrwt>
<pdfrwt beam="1">  1        2 0.55590478E+00 0.40996038E+04</pdfrwt>
<pdfrwt beam="2">  1       -2 0.17889436E+00 0.40996038E+04</pdfrwt>
<totfact> 0.97307078E-02</totfact>
</mgrwt>
</event>
<event>
12    1  0.1506149E-007  0.2534720E+04  0.7818608E-02  0.8390720E-01
          2   -1    0    0  501    0  0.00000000000E+00  0.00000000000E+00  0.25776483021E+04  0.25776483021E+04  0.00000000000E+00 0. -1.
         -2   -1    0    0    0  501 -0.00000000000E+00 -0.00000000000E+00 -0.62312684367E+03  0.62312684367E+03  0.00000000000E+00 0.  1.
         23    2    1    2    0    0  0.98321567881E+03  0.40563038334E+03  0.50733962475E+03  0.11818432166E+04  0.90060061993E+02 0.  0.
        254    2    1    2    0    0 -0.98321567881E+03 -0.40563038334E+03  0.14471818337E+04  0.20189319292E+04  0.92222654273E+03 0.  0.
        -24    2    4    4    0    0 -0.50829471833E+03 -0.64353985326E+03  0.11180944850E+04  0.13890355834E+04  0.82325640613E+02 0.  0.
         24    2    4    4    0    0 -0.47492096049E+03  0.23790946992E+03  0.32908734867E+03  0.62989634583E+03  0.79498986433E+02 0.  0.
         11    1    3    3    0    0  0.81420312381E+03  0.36007213818E+03  0.39584684207E+03  0.97430662211E+03  0.00000000000E+00 0. -1.
        -11    1    3    3    0    0  0.16901255501E+03  0.45558245162E+02  0.11149278268E+03  0.20753659446E+03  0.00000000000E+00 0.  1.
          4    1    6    6  502    0 -0.26631153637E+02 -0.37997736505E+01  0.90187086804E+01  0.28372411426E+02  0.00000000000E+00 0. -1.
          3    1    5    5  503    0 -0.23754278667E+03 -0.36550900066E+03  0.57666517797E+03  0.72288735813E+03  0.00000000000E+00 0. -1.
         -4    1    5    5    0  503 -0.27075193166E+03 -0.27803085260E+03  0.54142930708E+03  0.66614822529E+03  0.00000000000E+00 0.  1.
         -3    1    6    6    0  502 -0.44828980685E+03  0.24170924357E+03  0.32006863999E+03  0.60152393440E+03  0.00000000000E+00 0.  1.
<mgrwt>
<rscale>  0 0.25347204E+04</rscale>
<asrwt>0</asrwt>
<pdfrwt beam="1">  1        2 0.39656127E+00 0.25347204E+04</pdfrwt>
<pdfrwt beam="2">  1       -2 0.95865669E-01 0.25347204E+04</pdfrwt>
<totfact> 0.25446624E+00</totfact>
</mgrwt>
</event>
<event>
12    1  0.1506149E-007  0.2416390E+04  0.7818608E-02  0.8433393E-01
         -2   -1    0    0    0  501 -0.00000000000E+00  0.00000000000E+00  0.47494945528E+03  0.47494945528E+03  0.00000000000E+00 0.  1.
          2   -1    0    0  501    0  0.00000000000E+00 -0.00000000000E+00 -0.30734525256E+04  0.30734525256E+04  0.00000000000E+00 0. -1.
         23    2    1    2    0    0  0.56532774557E+03  0.82414545425E+03 -0.15903603296E+04  0.18805177940E+04  0.91049469578E+02 0.  0.
        254    2    1    2    0    0 -0.56532774557E+03 -0.82414545425E+03 -0.10081427407E+04  0.16678841869E+04  0.87559961484E+03 0.  0.
        -24    2    4    4    0    0 -0.76897825605E+03 -0.62679737419E+03 -0.93160418231E+03  0.13634039966E+04  0.82350463086E+02 0.  0.
         24    2    4    4    0    0  0.20365051049E+03 -0.19734808006E+03 -0.76538558382E+02  0.30448019030E+03  0.80188778763E+02 0.  0.
         11    1    3    3    0    0  0.27473735665E+03  0.47124891380E+03 -0.82512500122E+03  0.98913468321E+03  0.00000000000E+00 0. -1.
        -11    1    3    3    0    0  0.29059038892E+03  0.35289654046E+03 -0.76523532842E+03  0.89138311082E+03  0.00000000000E+00 0.  1.
          2    1    6    6  502    0  0.17296046053E+03 -0.13223384567E+03 -0.81146375149E+02  0.23234854216E+03  0.00000000000E+00 0. -1.
          3    1    5    5  503    0 -0.28525609538E+03 -0.24039654413E+03 -0.29705225732E+03  0.47686641941E+03  0.00000000000E+00 0. -1.
         -4    1    5    5    0  503 -0.48372216068E+03 -0.38640083006E+03 -0.63455192498E+03  0.88653757715E+03  0.00000000000E+00 0.  1.
         -1    1    6    6    0  502  0.30690049962E+02 -0.65114234396E+02  0.46078167675E+01  0.72131648138E+02  0.00000000000E+00 0.  1.
<mgrwt>
<rscale>  0 0.24163895E+04</rscale>
<asrwt>0</asrwt>
<pdfrwt beam="1">  1        2 0.47283886E+00 0.24163895E+04</pdfrwt>
<pdfrwt beam="2">  1       -2 0.73069145E-01 0.24163895E+04</pdfrwt>
<totfact> 0.23783986E+00</totfact>
</mgrwt>
</event>
<event>
12    1  0.1506149E-007  0.1904819E+04  0.7818608E-02  0.8652461E-01
          1   -1    0    0  501    0  0.00000000000E+00  0.00000000000E+00  0.29999057291E+04  0.29999057291E+04  0.00000000000E+00 0. -1.
         -1   -1    0    0    0  501 -0.00000000000E+00 -0.00000000000E+00 -0.30237089920E+03  0.30237089920E+03  0.00000000000E+00 0.  1.
         23    2    1    2    0    0 -0.26802157583E+03 -0.63616468426E+03  0.61837984753E+03  0.93125776948E+03  0.91139051876E+02 0.  0.
        254    2    1    2    0    0  0.26802157583E+03  0.63616468426E+03  0.20791549823E+04  0.23710188588E+04  0.90680974718E+03 0.  0.
        -24    2    4    4    0    0 -0.28489834094E+03  0.13640793208E+02  0.45091736447E+03  0.54061348794E+03  0.87082362490E+02 0.  0.
         24    2    4    4    0    0  0.55291991678E+03  0.62252389105E+03  0.16282376179E+04  0.18304053709E+04  0.77263523767E+02 0.  0.
         11    1    3    3    0    0 -0.23299421101E+03 -0.56984269430E+03  0.58467227486E+03  0.84902807232E+03  0.00000000000E+00 0.  1.
        -11    1    3    3    0    0 -0.35027364823E+02 -0.66321989961E+02  0.33707572672E+02  0.82229697155E+02  0.00000000000E+00 0. -1.
          4    1    6    6  502    0  0.92487696386E+02  0.73595100006E+02  0.19395827910E+03  0.22713438040E+03  0.00000000000E+00 0. -1.
          3    1    5    5  503    0 -0.99412141159E+02 -0.36275283663E+02  0.17216769236E+03  0.20209004010E+03  0.00000000000E+00 0. -1.
         -4    1    5    5    0  503 -0.18548619978E+03  0.49916076871E+02  0.27874967210E+03  0.33852344784E+03  0.00000000000E+00 0.  1.
         -3    1    6    6    0  502  0.46043222039E+03  0.54892879104E+03  0.14342793388E+04  0.16032709904E+04  0.00000000000E+00 0.  1.
<mgrwt>
<rscale>  0 0.19048194E+04</rscale>
<asrwt>0</asrwt>
<pdfrwt beam="1">  1        1 0.46152394E+00 0.19048194E+04</pdfrwt>
<pdfrwt beam="2">  1       -1 0.46518602E-01 0.19048194E+04</pdfrwt>
<totfact> 0.25792304E+00</totfact>
</mgrwt>
</event>
<event>
12    1  0.1506149E-007  0.1154959E+04  0.7818608E-02  0.9153221E-01
          1   -1    0    0  501    0  0.00000000000E+00  0.00000000000E+00  0.26360278766E+03  0.26360278766E+03  0.00000000000E+00 0. -1.
         -1   -1    0    0    0  501 -0.00000000000E+00 -0.00000000000E+00 -0.12650939376E+04  0.12650939376E+04  0.00000000000E+00 0.  1.
         23    2    1    2    0    0  0.17072236382E+02  0.11811082633E+03 -0.43608867125E+03  0.46091366588E+03  0.89590455136E+02 0.  0.
        254    2    1    2    0    0 -0.17072236382E+02 -0.11811082633E+03 -0.56540247869E+03  0.10677830594E+04  0.89790816370E+03 0.  0.
        -24    2    4    4    0    0 -0.22503335921E+03  0.25730843787E+03 -0.52204542106E+03  0.62901554780E+03  0.79255869004E+02 0.  0.
         24    2    4    4    0    0  0.20796112283E+03 -0.37541926419E+03 -0.43357057630E+02  0.43876751158E+03  0.80309664619E+02 0.  0.
         11    1    3    3    0    0 -0.20502032910E+02 -0.19881677675E+01 -0.98570201582E+02  0.10069940816E+03  0.00000000000E+00 0. -1.
        -11    1    3    3    0    0  0.37574269292E+02  0.12009899410E+03 -0.33751846967E+03  0.36021425772E+03  0.00000000000E+00 0.  1.
          2    1    6    6  502    0  0.53046435434E+02 -0.16689645410E+03  0.16283216639E+01  0.17513138535E+03  0.00000000000E+00 0. -1.
          3    1    5    5  503    0 -0.24401366857E+02  0.57901688264E+02 -0.14175636496E+03  0.15505772865E+03  0.00000000000E+00 0. -1.
         -4    1    5    5    0  503 -0.20063199235E+03  0.19940674960E+03 -0.38028905610E+03  0.47395781915E+03  0.00000000000E+00 0.  1.
         -1    1    6    6    0  502  0.15491468740E+03 -0.20852281009E+03 -0.44985379293E+02  0.26363612622E+03  0.00000000000E+00 0.  1.
<mgrwt>
<rscale>  0 0.11549585E+04</rscale>
<asrwt>0</asrwt>
<pdfrwt beam="1">  1        1 0.40554275E-01 0.11549585E+04</pdfrwt>
<pdfrwt beam="2">  1       -1 0.19462984E+00 0.11549585E+04</pdfrwt>
<totfact> 0.16905009E+01</totfact>
</mgrwt>
</event>
<event>
12    1  0.1506149E-007  0.1343508E+04  0.7818608E-02  0.8995757E-01
          2   -1    0    0  501    0  0.00000000000E+00  0.00000000000E+00  0.94634981159E+03  0.94634981159E+03  0.00000000000E+00 0. -1.
         -2   -1    0    0    0  501 -0.00000000000E+00 -0.00000000000E+00 -0.47683563117E+03  0.47683563117E+03  0.00000000000E+00 0.  1.
         23    2    1    2    0    0 -0.22599354881E+03 -0.26556342430E+02  0.45378047470E+03  0.51502714123E+03  0.86936261478E+02 0.  0.
        254    2    1    2    0    0  0.22599354881E+03  0.26556342430E+02  0.15733705719E+02  0.90815830153E+03  0.87904813732E+03 0.  0.
        -24    2    4    4    0    0 -0.68218576470E+02 -0.22777354030E+03 -0.30604240889E+03  0.39723599978E+03  0.87177540934E+02 0.  0.
         24    2    4    4    0    0  0.29421212528E+03  0.25432988273E+03  0.32177611461E+03  0.51092230176E+03  0.79102886060E+02 0.  0.
         11    1    3    3    0    0 -0.20119401628E+03 -0.17342815232E+02  0.31805740845E+03  0.37674967882E+03  0.00000000000E+00 0. -1.
        -11    1    3    3    0    0 -0.24799532536E+02 -0.92135271983E+01  0.13572306625E+03  0.13827746241E+03  0.00000000000E+00 0.  1.
          2    1    6    6  502    0  0.96213470245E+02  0.61619520891E+02  0.54813864487E+02  0.12672236169E+03  0.00000000000E+00 0. -1.
          1    1    5    5  503    0 -0.30598320995E+02 -0.11872197276E+02 -0.54465380244E+02  0.63589967455E+02  0.00000000000E+00 0. -1.
         -2    1    5    5    0  503 -0.37620255475E+02 -0.21590134302E+03 -0.25157702865E+03  0.33364603232E+03  0.00000000000E+00 0.  1.
         -1    1    6    6    0  502  0.19799865504E+03  0.19271036184E+03  0.26696225013E+03  0.38419994007E+03  0.00000000000E+00 0.  1.
<mgrwt>
<rscale>  0 0.13435078E+04</rscale>
<asrwt>0</asrwt>
<pdfrwt beam="1">  1        2 0.14559228E+00 0.13435078E+04</pdfrwt>
<pdfrwt beam="2">  1       -2 0.73359328E-01 0.13435078E+04</pdfrwt>
<totfact> 0.44753020E+01</totfact>
</mgrwt>
</event>
<event>
12    1  0.1506149E-007  0.1272952E+04  0.7818608E-02  0.9051293E-01
         -1   -1    0    0    0  501 -0.00000000000E+00  0.00000000000E+00  0.86500547222E+03  0.86500547222E+03  0.00000000000E+00 0.  1.
          1   -1    0    0  501    0  0.00000000000E+00 -0.00000000000E+00 -0.46832303605E+03  0.46832303605E+03  0.00000000000E+00 0. -1.
         23    2    1    2    0    0 -0.30671962777E+03  0.27815936112E+02  0.84770482320E+02  0.33430773205E+03  0.98615255806E+02 0.  0.
        254    2    1    2    0    0  0.30671962777E+03 -0.27815936112E+02  0.31191195385E+03  0.99902077621E+03  0.89772088535E+03 0.  0.
        -24    2    4    4    0    0  0.43165102498E+03 -0.37039620786E+03  0.16167757178E+03  0.59669166712E+03  0.79908386536E+02 0.  0.
         24    2    4    4    0    0 -0.12493139721E+03  0.34258027174E+03  0.15023438207E+03  0.40232910909E+03  0.79556557681E+02 0.  0.
         11    1    3    3    0    0 -0.11762264487E+03 -0.12845833216E+01  0.81231296332E+02  0.14295195082E+03  0.00000000000E+00 0.  1.
        -11    1    3    3    0    0 -0.18909698290E+03  0.29100519434E+02  0.35391859883E+01  0.19135578123E+03  0.00000000000E+00 0. -1.
          4    1    6    6  502    0  0.10043501469E+01  0.47447684532E+02  0.42901260427E+02  0.63975070401E+02  0.00000000000E+00 0. -1.
          3    1    5    5  503    0  0.20117514780E+03 -0.15219761363E+03  0.10971241913E+03  0.27508611125E+03  0.00000000000E+00 0. -1.
         -4    1    5    5    0  503  0.23047587717E+03 -0.21819859422E+03  0.51965152647E+02  0.32160555587E+03  0.00000000000E+00 0.  1.
         -3    1    6    6    0  502 -0.12593574735E+03  0.29513258721E+03  0.10733312164E+03  0.33835403869E+03  0.00000000000E+00 0.  1.
<mgrwt>
<rscale>  0 0.12729525E+04</rscale>
<asrwt>0</asrwt>
<pdfrwt beam="1">  1        1 0.72049698E-01 0.12729525E+04</pdfrwt>
<pdfrwt beam="2">  1       -1 0.13307776E+00 0.12729525E+04</pdfrwt>
<totfact> 0.22820807E+01</totfact>
</mgrwt>
</event>
<event>
12    1  0.1506149E-007  0.1779431E+04  0.7818608E-02  0.8717315E-01
         -1   -1    0    0    0  501 -0.00000000000E+00  0.00000000000E+00  0.29221508280E+03  0.29221508280E+03  0.00000000000E+00 0.  1.
          1   -1    0    0  501    0  0.00000000000E+00 -0.00000000000E+00 -0.27089428319E+04  0.27089428319E+04  0.00000000000E+00 0. -1.
         23    2    1    2    0    0 -0.58807023250E+03  0.19462179791E+03 -0.12608088453E+04  0.14078292457E+04  0.92951590635E+02 0.  0.
        254    2    1    2    0    0  0.58807023250E+03 -0.19462179791E+03 -0.11559189039E+04  0.15933286690E+04  0.90489971414E+03 0.  0.
        -24    2    4    4    0    0  0.26594253685E+03 -0.54415947749E+03 -0.58507693224E+03  0.84585517665E+03  0.79504675231E+02 0.  0.
         24    2    4    4    0    0  0.32212769565E+03  0.34953767958E+03 -0.57084197162E+03  0.74747349237E+03  0.83145796511E+02 0.  0.
         13    1    3    3    0    0 -0.48474969301E+03  0.17648600459E+03 -0.96948025990E+03  0.10981901243E+04  0.00000000000E+00 0. -1.
        -13    1    3    3    0    0 -0.10332053949E+03  0.18135793316E+02 -0.29132858538E+03  0.30963912146E+03  0.00000000000E+00 0.  1.
          4    1    6    6  502    0  0.71766778225E+02  0.10730673958E+03 -0.20535007400E+03  0.24255692055E+03  0.00000000000E+00 0. -1.
          3    1    5    5  503    0  0.96519738028E+01 -0.10258169365E+01 -0.51262689214E+01  0.10976863474E+02  0.00000000000E+00 0. -1.
         -4    1    5    5    0  503  0.25629056305E+03 -0.54313366055E+03 -0.57995066332E+03  0.83487831318E+03  0.00000000000E+00 0.  1.
         -3    1    6    6    0  502  0.25036091743E+03  0.24223094000E+03 -0.36549189762E+03  0.50491657181E+03  0.00000000000E+00 0.  1.
<mgrwt>
<rscale>  0 0.17794313E+04</rscale>
<asrwt>0</asrwt>
<pdfrwt beam="1">  1        1 0.41676045E+00 0.17794313E+04</pdfrwt>
<pdfrwt beam="2">  1       -1 0.44956165E-01 0.17794313E+04</pdfrwt>
<totfact> 0.44943492E+00</totfact>
</mgrwt>
</event>
<event>
12    1  0.1506149E-007  0.2213924E+04  0.7818608E-02  0.8512655E-01
          2   -1    0    0  501    0  0.00000000000E+00  0.00000000000E+00  0.17265340840E+04  0.17265340840E+04  0.00000000000E+00 0.  1.
         -2   -1    0    0    0  501 -0.00000000000E+00 -0.00000000000E+00 -0.70972507118E+03  0.70972507118E+03  0.00000000000E+00 0. -1.
         23    2    1    2    0    0 -0.82648497274E+03 -0.14613626483E+03  0.87614146255E+03  0.12163327570E+04  0.86071455130E+02 0.  0.
        254    2    1    2    0    0  0.82648497274E+03  0.14613626483E+03  0.14066755028E+03  0.12199263981E+04  0.87407084332E+03 0.  0.
        -24    2    4    4    0    0  0.96054024820E+03  0.61098262106E+02  0.26700475838E+03  0.10021485110E+04  0.81483317561E+02 0.  0.
         24    2    4    4    0    0 -0.13405527546E+03  0.85038002722E+02 -0.12633720810E+03  0.21777788716E+03  0.79144419871E+02 0.  0.
         13    1    3    3    0    0 -0.60483404619E+03 -0.11151550721E+03  0.69448640614E+03  0.92766982278E+03  0.00000000000E+00 0.  1.
        -13    1    3    3    0    0 -0.22165092654E+03 -0.34620757621E+02  0.18165505641E+03  0.28866293426E+03  0.00000000000E+00 0. -1.
          4    1    6    6  502    0 -0.12982254895E+03  0.73865141098E+02 -0.13631096229E+03  0.20221432127E+03  0.00000000000E+00 0. -1.
          1    1    5    5  503    0  0.72918747545E+03  0.20586555829E+02  0.17719454915E+03  0.75069040814E+03  0.00000000000E+00 0. -1.
         -2    1    5    5    0  503  0.23135277275E+03  0.40511706278E+02  0.89810209234E+02  0.25145810285E+03  0.00000000000E+00 0.  1.
         -3    1    6    6    0  502 -0.42327265096E+01  0.11172861625E+02  0.99737541861E+01  0.15563565888E+02  0.00000000000E+00 0.  1.
<mgrwt>
<rscale>  0 0.22139237E+04</rscale>
<asrwt>0</asrwt>
<pdfrwt beam="1">  1        2 0.26562063E+00 0.22139237E+04</pdfrwt>
<pdfrwt beam="2">  1       -2 0.10918847E+00 0.22139237E+04</pdfrwt>
<totfact> 0.57893902E+00</totfact>
</mgrwt>
</event>
<event>
12    1  0.1506149E-007  0.1420274E+04  0.7818608E-02  0.8939272E-01
          1   -1    0    0  501    0  0.00000000000E+00  0.00000000000E+00  0.14170436168E+04  0.14170436168E+04  0.00000000000E+00 0. -1.
         -1   -1    0    0    0  501 -0.00000000000E+00 -0.00000000000E+00 -0.35587807700E+03  0.35587807700E+03  0.00000000000E+00 0.  1.
         23    2    1    2    0    0  0.28569864205E+03  0.29152394759E+03  0.29880913036E+03  0.51381093759E+03  0.90026979920E+02 0.  0.
        254    2    1    2    0    0 -0.28569864205E+03 -0.29152394759E+03  0.76235640940E+03  0.12591107562E+04  0.91518450341E+03 0.  0.
        -24    2    4    4    0    0 -0.15792592884E+03 -0.35684662387E+03  0.93810601640E+03  0.10189787201E+04  0.77424944559E+02 0.  0.
         24    2    4    4    0    0 -0.12777271321E+03  0.65322676286E+02 -0.17574960700E+03  0.24013203607E+03  0.78629206466E+02 0.  0.
         11    1    3    3    0    0  0.22342717386E+03  0.18205539398E+03  0.17485310460E+03  0.33710158214E+03  0.00000000000E+00 0. -1.
        -11    1    3    3    0    0  0.62271468191E+02  0.10946855361E+03  0.12395602576E+03  0.17670935545E+03  0.00000000000E+00 0.  1.
          2    1    6    6  502    0 -0.19347497725E+02 -0.16077813735E+02 -0.46218602337E+02  0.52621107597E+02  0.00000000000E+00 0. -1.
          3    1    5    5  503    0 -0.98073525208E+02 -0.14335628719E+03  0.46850145785E+03  0.49966294383E+03  0.00000000000E+00 0. -1.
         -2    1    5    5    0  503 -0.59852403627E+02 -0.21349033668E+03  0.46960455855E+03  0.51931577627E+03  0.00000000000E+00 0.  1.
         -1    1    6    6    0  502 -0.10842521549E+03  0.81400490022E+02 -0.12953100466E+03  0.18751092848E+03  0.00000000000E+00 0.  1.
<mgrwt>
<rscale>  0 0.14202743E+04</rscale>
<asrwt>0</asrwt>
<pdfrwt beam="1">  1        1 0.21800671E+00 0.14202743E+04</pdfrwt>
<pdfrwt beam="2">  1       -1 0.54750474E-01 0.14202743E+04</pdfrwt>
<totfact> 0.24523356E+01</totfact>
</mgrwt>
</event>
<event>
12    1  0.1778306E-007  0.1276915E+04  0.7818608E-02  0.9048075E-01
         -1   -1    0    0    0  501 -0.00000000000E+00  0.00000000000E+00  0.85596288739E+03  0.85596288739E+03  0.00000000000E+00 0.  1.
          1   -1    0    0  501    0  0.00000000000E+00 -0.00000000000E+00 -0.47622123808E+03  0.47622123808E+03  0.00000000000E+00 0. -1.
         23    2    1    2    0    0 -0.75883423979E+02  0.19762811192E+03  0.33520646712E+03  0.40697991238E+03  0.91946227928E+02 0.  0.
        254    2    1    2    0    0  0.75883423979E+02 -0.19762811192E+03  0.44535182200E+02  0.92520421309E+03  0.89955782961E+03 0.  0.
        -24    2    4    4    0    0  0.18640647289E+03  0.19951307555E+03  0.31511244807E+03  0.42558740284E+03  0.85299132896E+02 0.  0.
         24    2    4    4    0    0 -0.11052304891E+03 -0.39714118747E+03 -0.27057726588E+03  0.49961681025E+03  0.80426569965E+02 0.  0.
         13    1    3    3    0    0  0.11188136354E+01  0.75196118495E+01  0.76273732470E+02  0.76651670374E+02  0.00000000000E+00 0. -1.
        -13    1    3    3    0    0 -0.77002237614E+02  0.19010850007E+03  0.25893273465E+03  0.33032824201E+03  0.00000000000E+00 0.  1.
          2    1    6    6  502    0 -0.13386802539E+02 -0.38496401735E+02 -0.13767103251E+01  0.40780813627E+02  0.00000000000E+00 0. -1.
          3    1    5    5  503    0  0.28506645286E+02  0.27128989699E+02  0.89089423225E+01  0.40348236155E+02  0.00000000000E+00 0. -1.
         -4    1    5    5    0  503  0.15789982760E+03  0.17238408585E+03  0.30620350575E+03  0.38523916668E+03  0.00000000000E+00 0.  1.
         -1    1    6    6    0  502 -0.97136246370E+02 -0.35864478573E+03 -0.26920055555E+03  0.45883599663E+03  0.00000000000E+00 0.  1.
<mgrwt>
<rscale>  0 0.12769146E+04</rscale>
<asrwt>0</asrwt>
<pdfrwt beam="1">  1        1 0.73264806E-01 0.12769146E+04</pdfrwt>
<pdfrwt beam="2">  1       -1 0.13168660E+00 0.12769146E+04</pdfrwt>
<totfact> 0.22903354E+01</totfact>
</mgrwt>
</event>
<event>
12    1  0.1506149E-007  0.1134633E+04  0.7818608E-02  0.9172079E-01
          1   -1    0    0  501    0  0.00000000000E+00  0.00000000000E+00  0.91271934601E+03  0.91271934601E+03  0.00000000000E+00 0. -1.
         -1   -1    0    0    0  501 -0.00000000000E+00 -0.00000000000E+00 -0.35262519933E+03  0.35262519933E+03  0.00000000000E+00 0.  1.
         23    2    1    2    0    0 -0.22999129042E+01  0.98494999029E+02 -0.76328461246E+02  0.15492672731E+03  0.92030986120E+02 0.  0.
        254    2    1    2    0    0  0.22999129042E+01 -0.98494999029E+02  0.63642260793E+03  0.11104178180E+04  0.90459241667E+03 0.  0.
        -24    2    4    4    0    0 -0.19934704011E+03 -0.37364162784E+03  0.62610327870E+03  0.75991132939E+03  0.78183146999E+02 0.  0.
         24    2    4    4    0    0  0.20164695302E+03  0.27514662881E+03  0.10319329230E+02  0.35050648865E+03  0.79882094493E+02 0.  0.
         13    1    3    3    0    0  0.28415634025E+02  0.30321500266E+02  0.78970425651E+01  0.42298994275E+02  0.00000000000E+00 0. -1.
        -13    1    3    3    0    0 -0.30715546929E+02  0.68173498764E+02 -0.84225503811E+02  0.11262773304E+03  0.00000000000E+00 0.  1.
          2    1    6    6  502    0  0.30930794427E+02  0.16657059609E+02  0.20292656507E+02  0.40570476788E+02  0.00000000000E+00 0. -1.
          1    1    5    5  503    0 -0.23621241863E+02 -0.10283404188E+03  0.18988140007E+03  0.21722741385E+03  0.00000000000E+00 0. -1.
         -2    1    5    5    0  503 -0.17572579825E+03 -0.27080758596E+03  0.43622187863E+03  0.54268391553E+03  0.00000000000E+00 0.  1.
         -1    1    6    6    0  502  0.17071615859E+03  0.25848956920E+03 -0.99733272770E+01  0.30993601186E+03  0.00000000000E+00 0.  1.
<mgrwt>
<rscale>  0 0.11346327E+04</rscale>
<asrwt>0</asrwt>
<pdfrwt beam="1">  1        1 0.14041836E+00 0.11346327E+04</pdfrwt>
<pdfrwt beam="2">  1       -1 0.54250031E-01 0.11346327E+04</pdfrwt>
<totfact> 0.60595987E+01</totfact>
</mgrwt>
</event>
<event>
12    1  0.1506149E-007  0.2676413E+04  0.7818608E-02  0.8342699E-01
         -2   -1    0    0    0  501 -0.00000000000E+00  0.00000000000E+00  0.78788152213E+03  0.78788152213E+03  0.00000000000E+00 0.  1.
          2   -1    0    0  501    0  0.00000000000E+00 -0.00000000000E+00 -0.22729263897E+04  0.22729263897E+04  0.00000000000E+00 0. -1.
         23    2    1    2    0    0 -0.24245455896E+03 -0.11444744738E+04 -0.45910705058E+03  0.12617371048E+04  0.11222835336E+03 0.  0.
        254    2    1    2    0    0  0.24245455896E+03  0.11444744738E+04 -0.10259378170E+04  0.17990708070E+04  0.90305112263E+03 0.  0.
        -24    2    4    4    0    0  0.38146877024E+02  0.10606690526E+04 -0.11208875940E+04  0.15457690562E+04  0.80863794572E+02 0.  0.
         24    2    4    4    0    0  0.20430768193E+03  0.83805421156E+02  0.94949777044E+02  0.25330175082E+03  0.79883285454E+02 0.  0.
         11    1    3    3    0    0 -0.36203192708E+02 -0.19315218648E+03 -0.12341871808E+03  0.23205735988E+03  0.00000000000E+00 0. -1.
        -11    1    3    3    0    0 -0.20625136625E+03 -0.95132228733E+03 -0.33568833250E+03  0.10296797449E+04  0.00000000000E+00 0.  1.
          2    1    6    6  502    0  0.20713716089E+03  0.82772102880E+02  0.78337640092E+02  0.23641871815E+03  0.00000000000E+00 0. -1.
          3    1    5    5  503    0  0.14242626473E+02  0.91560806652E+03 -0.93438069123E+03  0.13082844721E+04  0.00000000000E+00 0. -1.
         -4    1    5    5    0  503  0.23904250550E+02  0.14506098612E+03 -0.18650690278E+03  0.23748458407E+03  0.00000000000E+00 0.  1.
         -1    1    6    6    0  502 -0.28294789603E+01  0.10333182764E+01  0.16612136952E+02  0.16883032665E+02  0.00000000000E+00 0.  1.
<mgrwt>
<rscale>  0 0.26764131E+04</rscale>
<asrwt>0</asrwt>
<pdfrwt beam="1">  1        2 0.34968098E+00 0.26764131E+04</pdfrwt>
<pdfrwt beam="2">  1       -2 0.12121254E+00 0.26764131E+04</pdfrwt>
<totfact> 0.21377051E+00</totfact>
</mgrwt>
</event>
<event>
12    1  0.1506149E-007  0.2403190E+04  0.7818608E-02  0.8438310E-01
          1   -1    0    0  501    0  0.00000000000E+00  0.00000000000E+00  0.23702969005E+04  0.23702969005E+04  0.00000000000E+00 0. -1.
         -1   -1    0    0    0  501 -0.00000000000E+00 -0.00000000000E+00 -0.60913483544E+03  0.60913483544E+03  0.00000000000E+00 0.  1.
         23    2    1    2    0    0  0.70463105380E+03  0.44863340217E+03  0.12504922205E+02  0.84083081605E+03  0.95201032720E+02 0.  0.
        254    2    1    2    0    0 -0.70463105380E+03 -0.44863340217E+03  0.17486571429E+04  0.21386009199E+04  0.90445300587E+03 0.  0.
        -24    2    4    4    0    0 -0.55834923588E+03  0.11922708761E+02  0.14705167297E+04  0.15752036381E+04  0.83372832244E+02 0.  0.
         24    2    4    4    0    0 -0.14628181791E+03 -0.46055611093E+03  0.27814041323E+03  0.56339728181E+03  0.80895649479E+02 0.  0.
         13    1    3    3    0    0  0.58790866186E+03  0.34334449397E+03  0.36568434753E+02  0.68180590101E+03  0.00000000000E+00 0.  1.
        -13    1    3    3    0    0  0.11672239194E+03  0.10528890820E+03 -0.24063512548E+02  0.15902491505E+03  0.00000000000E+00 0. -1.
          4    1    6    6  502    0 -0.12348138195E+03 -0.44112953987E+03  0.24802534984E+03  0.52092177608E+03  0.00000000000E+00 0. -1.
          1    1    5    5  503    0 -0.44130028672E+03 -0.20661722288E+02  0.11059309440E+04  0.11909055809E+04  0.00000000000E+00 0. -1.
         -2    1    5    5    0  503 -0.11704894916E+03  0.32584431049E+02  0.36458578570E+03  0.38429805721E+03  0.00000000000E+00 0.  1.
         -3    1    6    6    0  502 -0.22800435967E+02 -0.19426571066E+02  0.30115063392E+02  0.42475505727E+02  0.00000000000E+00 0.  1.
<mgrwt>
<rscale>  0 0.24031899E+04</rscale>
<asrwt>0</asrwt>
<pdfrwt beam="1">  1        1 0.36466106E+00 0.24031899E+04</pdfrwt>
<pdfrwt beam="2">  1       -1 0.93713053E-01 0.24031899E+04</pdfrwt>
<totfact> 0.16467366E+00</totfact>
</mgrwt>
</event>
<event>
12    1  0.1506149E-007  0.1329924E+04  0.7818608E-02  0.9006166E-01
          2   -1    0    0  501    0  0.00000000000E+00  0.00000000000E+00  0.24493231294E+04  0.24493231294E+04  0.00000000000E+00 0. -1.
         -2   -1    0    0    0  501 -0.00000000000E+00 -0.00000000000E+00 -0.18052915157E+03  0.18052915157E+03  0.00000000000E+00 0.  1.
         23    2    1    2    0    0  0.29411945726E+03 -0.17641085458E+03  0.49256916997E+03  0.60738147342E+03  0.93063538992E+02 0.  0.
        254    2    1    2    0    0 -0.29411945726E+03  0.17641085458E+03  0.17762248078E+04  0.20224708075E+04  0.90431551716E+03 0.  0.
        -24    2    4    4    0    0  0.29601010796E+03 -0.28782836896E+02  0.83442826786E+03  0.88955326177E+03  0.81142070476E+02 0.  0.
         24    2    4    4    0    0 -0.59012956522E+03  0.20519369148E+03  0.94179653995E+03  0.11329175457E+04  0.78511706207E+02 0.  0.
         13    1    3    3    0    0  0.14641166452E+03 -0.55854152864E+02  0.28708575298E+03  0.32706924567E+03  0.00000000000E+00 0. -1.
        -13    1    3    3    0    0  0.14770779274E+03 -0.12055670172E+03  0.20548341699E+03  0.28031222775E+03  0.00000000000E+00 0.  1.
          4    1    6    6  502    0 -0.45884245318E+03  0.14651061210E+03  0.77716187387E+03  0.91432069565E+03  0.00000000000E+00 0. -1.
          3    1    5    5  503    0  0.22784088717E+03  0.13088205768E+02  0.61015652641E+03  0.65143975755E+03  0.00000000000E+00 0. -1.
         -4    1    5    5    0  503  0.68169220786E+02 -0.41871042664E+02  0.22427174145E+03  0.23811350422E+03  0.00000000000E+00 0.  1.
         -3    1    6    6    0  502 -0.13128711204E+03  0.58683079377E+02  0.16463466609E+03  0.21859685009E+03  0.00000000000E+00 0.  1.
<mgrwt>
<rscale>  0 0.13299236E+04</rscale>
<asrwt>0</asrwt>
<pdfrwt beam="1">  1        2 0.37681892E+00 0.13299236E+04</pdfrwt>
<pdfrwt beam="2">  1       -2 0.27773717E-01 0.13299236E+04</pdfrwt>
<totfact> 0.43275121E+01</totfact>
</mgrwt>
</event>
<event>
12    1  0.1506149E-007  0.1163368E+04  0.7818608E-02  0.9145539E-01
          4   -1    0    0  501    0  0.00000000000E+00  0.00000000000E+00  0.98354330313E+03  0.98354330313E+03  0.00000000000E+00 0. -1.
         -4   -1    0    0    0  501 -0.00000000000E+00 -0.00000000000E+00 -0.34401771824E+03  0.34401771824E+03  0.00000000000E+00 0.  1.
         23    2    1    2    0    0 -0.18549779186E+03 -0.21393955709E+02  0.29281296028E+02  0.21030171989E+03  0.92207846552E+02 0.  0.
        254    2    1    2    0    0  0.18549779186E+03  0.21393955709E+02  0.61024428886E+03  0.11172593015E+04  0.91706222392E+03 0.  0.
        -24    2    4    4    0    0  0.26279365600E+03  0.44707714556E+02 -0.17179538688E+03  0.32707309408E+03  0.80024174757E+02 0.  0.
         24    2    4    4    0    0 -0.77295864137E+02 -0.23313758847E+02  0.78203967574E+03  0.79018620740E+03  0.79309557875E+02 0.  0.
         11    1    3    3    0    0 -0.11877291883E+03 -0.18337359294E+02 -0.26745912648E+02  0.12312030229E+03  0.00000000000E+00 0.  1.
        -11    1    3    3    0    0 -0.66724873038E+02 -0.30565964149E+01  0.56027208676E+02  0.87181417605E+02  0.00000000000E+00 0. -1.
          4    1    6    6  502    0 -0.78402840322E+02 -0.38967849650E+02  0.74253067157E+03  0.74767459292E+03  0.00000000000E+00 0. -1.
          1    1    5    5  503    0  0.20924153514E+03  0.65563161501E+02 -0.12139538668E+03  0.25063397233E+03  0.00000000000E+00 0. -1.
         -2    1    5    5    0  503  0.53552120858E+02 -0.20855446946E+02 -0.50400000194E+02  0.76439121758E+02  0.00000000000E+00 0.  1.
         -3    1    6    6    0  502  0.11069761849E+01  0.15654090803E+02  0.39509004163E+02  0.42511614473E+02  0.00000000000E+00 0.  1.
<mgrwt>
<rscale>  0 0.11633681E+04</rscale>
<asrwt>0</asrwt>
<pdfrwt beam="1">  1        4 0.15131435E+00 0.11633681E+04</pdfrwt>
<pdfrwt beam="2">  1       -4 0.52925803E-01 0.11633681E+04</pdfrwt>
<totfact> 0.19652764E+00</totfact>
</mgrwt>
</event>
<event>
12    1  0.1506149E-007  0.1663735E+04  0.7818608E-02  0.8782322E-01
         -2   -1    0    0    0  501 -0.00000000000E+00  0.00000000000E+00  0.66769459032E+03  0.66769459032E+03  0.00000000000E+00 0.  1.
          2   -1    0    0  501    0  0.00000000000E+00 -0.00000000000E+00 -0.10364078377E+04  0.10364078377E+04  0.00000000000E+00 0. -1.
         23    2    1    2    0    0  0.17639798216E+03 -0.16861625921E+02  0.43871772817E+03  0.48174786751E+03  0.90593599647E+02 0.  0.
        254    2    1    2    0    0 -0.17639798216E+03  0.16861625921E+02 -0.80743097556E+03  0.12223545605E+04  0.90044729374E+03 0.  0.
        -24    2    4    4    0    0  0.22283542877E+02  0.60455258923E+01  0.18721674837E+03  0.20488774093E+03  0.79973563404E+02 0.  0.
         24    2    4    4    0    0 -0.19868152504E+03  0.10816100029E+02 -0.99464772394E+03  0.10174668196E+04  0.79519166556E+02 0.  0.
         11    1    3    3    0    0  0.14774296575E+03  0.63461535341E+01  0.25861743961E+03  0.29791145943E+03  0.00000000000E+00 0.  1.
        -11    1    3    3    0    0  0.28655016414E+02 -0.23207779455E+02  0.18010028856E+03  0.18383640807E+03  0.00000000000E+00 0. -1.
          4    1    6    6  502    0 -0.16308207038E+03 -0.16294791877E+02 -0.86292064353E+03  0.87834692403E+03  0.00000000000E+00 0. -1.
          3    1    5    5  503    0 -0.10153032522E+02  0.29620025017E+02  0.13747717850E+03  0.14099788849E+03  0.00000000000E+00 0. -1.
         -4    1    5    5    0  503  0.32436575399E+02 -0.23574499125E+02  0.49739569876E+02  0.63889852434E+02  0.00000000000E+00 0.  1.
         -3    1    6    6    0  502 -0.35599454660E+02  0.27110891906E+02 -0.13172708040E+03  0.13911989557E+03  0.00000000000E+00 0.  1.
<mgrwt>
<rscale>  0 0.16637354E+04</rscale>
<asrwt>0</asrwt>
<pdfrwt beam="1">  1        2 0.15944736E+00 0.16637354E+04</pdfrwt>
<pdfrwt beam="2">  1       -2 0.10272224E+00 0.16637354E+04</pdfrwt>
<totfact> 0.17654784E+01</totfact>
</mgrwt>
</event>
<event>
12    1  0.1506149E-007  0.1859563E+04  0.7818608E-02  0.8675250E-01
          4   -1    0    0  501    0  0.00000000000E+00  0.00000000000E+00  0.16379314920E+04  0.16379314920E+04  0.00000000000E+00 0.  1.
         -4   -1    0    0    0  501 -0.00000000000E+00 -0.00000000000E+00 -0.52779621358E+03  0.52779621358E+03  0.00000000000E+00 0. -1.
         23    2    1    2    0    0 -0.35144484248E+03 -0.39029496440E+03 -0.12178136682E+03  0.54659882905E+03  0.89977453128E+02 0.  0.
        254    2    1    2    0    0  0.35144484248E+03  0.39029496440E+03  0.12319166453E+04  0.16191288766E+04  0.91000882495E+03 0.  0.
        -24    2    4    4    0    0  0.29174998870E+03 -0.24752096276E+03  0.60049068844E+03  0.71635332433E+03  0.78665973938E+02 0.  0.
         24    2    4    4    0    0  0.59694853780E+02  0.63781592716E+03  0.63142595682E+03  0.90277555223E+03  0.77021596029E+02 0.  0.
         13    1    3    3    0    0 -0.32351704415E+03 -0.31089466291E+03 -0.10345079035E+03  0.46045720247E+03  0.00000000000E+00 0. -1.
        -13    1    3    3    0    0 -0.27927798330E+02 -0.79400301487E+02 -0.18330576477E+02  0.86141626579E+02  0.00000000000E+00 0.  1.
          4    1    6    6  502    0  0.38535354289E+02  0.57879135911E+03  0.54446931891E+03  0.79556976447E+03  0.00000000000E+00 0. -1.
          3    1    5    5  503    0  0.15124144257E+03 -0.77407857378E+02  0.25461747862E+03  0.30609804108E+03  0.00000000000E+00 0. -1.
         -4    1    5    5    0  503  0.14050854613E+03 -0.17011310538E+03  0.34587320982E+03  0.41025528324E+03  0.00000000000E+00 0.  1.
         -3    1    6    6    0  502  0.21159499491E+02  0.59024568050E+02  0.86956637911E+02  0.10720578776E+03  0.00000000000E+00 0.  1.
<mgrwt>
<rscale>  0 0.18595634E+04</rscale>
<asrwt>0</asrwt>
<pdfrwt beam="1">  1        4 0.25198946E+00 0.18595634E+04</pdfrwt>
<pdfrwt beam="2">  1       -4 0.81199418E-01 0.18595634E+04</pdfrwt>
<totfact> 0.15489363E-01</totfact>
</mgrwt>
</event>
<event>
12    1  0.1506149E-007  0.1316190E+04  0.7818608E-02  0.9016824E-01
         -2   -1    0    0    0  501 -0.00000000000E+00  0.00000000000E+00  0.27119428677E+03  0.27119428677E+03  0.00000000000E+00 0.  1.
          2   -1    0    0  501    0  0.00000000000E+00 -0.00000000000E+00 -0.15969696334E+04  0.15969696334E+04  0.00000000000E+00 0. -1.
         23    2    1    2    0    0 -0.25941503611E+03 -0.14578216532E+03 -0.58072110592E+03  0.65860493869E+03  0.89302081341E+02 0.  0.
        254    2    1    2    0    0  0.25941503611E+03  0.14578216532E+03 -0.74505424072E+03  0.12095589815E+04  0.90519528687E+03 0.  0.
        -24    2    4    4    0    0  0.34195787263E+03 -0.41873025263E+02  0.73578675529E+02  0.36180393675E+03  0.82460476944E+02 0.  0.
         24    2    4    4    0    0 -0.82542836524E+02  0.18765519058E+03 -0.81863291625E+03  0.84775504472E+03  0.80628617006E+02 0.  0.
         13    1    3    3    0    0 -0.24788558876E+03 -0.15128073918E+03 -0.51126358981E+03  0.58798264041E+03  0.00000000000E+00 0. -1.
        -13    1    3    3    0    0 -0.11529447347E+02  0.54985738629E+01 -0.69457516110E+02  0.70622298283E+02  0.00000000000E+00 0.  1.
          2    1    6    6  502    0 -0.62120235290E+02  0.82331761534E+02 -0.27652567918E+03  0.29513368807E+03  0.00000000000E+00 0. -1.
          3    1    5    5  503    0  0.33735390381E+02 -0.29702612710E+02  0.12027222464E+01  0.44964077959E+02  0.00000000000E+00 0. -1.
         -4    1    5    5    0  503  0.30822248225E+03 -0.12170412553E+02  0.72375953283E+02  0.31683985879E+03  0.00000000000E+00 0.  1.
         -1    1    6    6    0  502 -0.20422601234E+02  0.10532342905E+03 -0.54210723707E+03  0.55262135665E+03  0.00000000000E+00 0.  1.
<mgrwt>
<rscale>  0 0.13161900E+04</rscale>
<asrwt>0</asrwt>
<pdfrwt beam="1">  1        2 0.24568764E+00 0.13161900E+04</pdfrwt>
<pdfrwt beam="2">  1       -2 0.41722198E-01 0.13161900E+04</pdfrwt>
<totfact> 0.59650003E+01</totfact>
</mgrwt>
</event>
<event>
12    1  0.1506149E-007  0.1596298E+04  0.7818608E-02  0.8822825E-01
          2   -1    0    0  501    0  0.00000000000E+00  0.00000000000E+00  0.10616640825E+04  0.10616640825E+04  0.00000000000E+00 0. -1.
         -2   -1    0    0    0  501 -0.00000000000E+00 -0.00000000000E+00 -0.60004121512E+03  0.60004121512E+03  0.00000000000E+00 0.  1.
         23    2    1    2    0    0  0.39528193021E+03  0.69590127645E+02  0.53551560179E+03  0.67518038639E+03  0.89448332493E+02 0.  0.
        254    2    1    2    0    0 -0.39528193021E+03 -0.69590127645E+02 -0.73892734439E+02  0.98652491119E+03  0.89815403689E+03 0.  0.
        -24    2    4    4    0    0 -0.66581625206E+03  0.26351090695E+02 -0.12848717837E+03  0.68324738155E+03  0.79450411574E+02 0.  0.
         24    2    4    4    0    0  0.27053432185E+03 -0.95941218340E+02  0.54594443931E+02  0.30327752964E+03  0.81259891723E+02 0.  0.
         11    1    3    3    0    0  0.10804437136E+03  0.18809620885E+02  0.21791942502E+03  0.24395955366E+03  0.00000000000E+00 0. -1.
        -11    1    3    3    0    0  0.28723755885E+03  0.50780506760E+02  0.31759617677E+03  0.43122083273E+03  0.00000000000E+00 0.  1.
          2    1    6    6  502    0  0.14091652326E+03 -0.87836407336E+02  0.49643017341E+02  0.17331223313E+03  0.00000000000E+00 0. -1.
          1    1    5    5  503    0 -0.41293014291E+03  0.39076013374E+02 -0.11135363380E+03  0.42946230278E+03  0.00000000000E+00 0. -1.
         -2    1    5    5    0  503 -0.25288610915E+03 -0.12724922679E+02 -0.17133544570E+02  0.25378507877E+03  0.00000000000E+00 0.  1.
         -1    1    6    6    0  502  0.12961779859E+03 -0.81048110044E+01  0.49514265901E+01  0.12996529652E+03  0.00000000000E+00 0.  1.
<mgrwt>
<rscale>  0 0.15962985E+04</rscale>
<asrwt>0</asrwt>
<pdfrwt beam="1">  1        2 0.16333294E+00 0.15962985E+04</pdfrwt>
<pdfrwt beam="2">  1       -2 0.92314033E-01 0.15962985E+04</pdfrwt>
<totfact> 0.22003829E+01</totfact>
</mgrwt>
</event>
<event>
12    1  0.1506149E-007  0.1234867E+04  0.7818608E-02  0.9082874E-01
          1   -1    0    0  501    0  0.00000000000E+00  0.00000000000E+00  0.19061739256E+04  0.19061739256E+04  0.00000000000E+00 0. -1.
         -1   -1    0    0    0  501 -0.00000000000E+00 -0.00000000000E+00 -0.19999426794E+03  0.19999426794E+03  0.00000000000E+00 0.  1.
         23    2    1    2    0    0 -0.24106463496E+03 -0.32629026525E+02  0.68372560441E+03  0.73097258378E+03  0.87540873419E+02 0.  0.
        254    2    1    2    0    0  0.24106463496E+03  0.32629026525E+02  0.10224540532E+04  0.13751956097E+04  0.88688999456E+03 0.  0.
        -24    2    4    4    0    0  0.47960256105E+02  0.45937862475E+02  0.11329116669E+04  0.11377261274E+04  0.80755325684E+02 0.  0.
         24    2    4    4    0    0  0.19310437885E+03 -0.13308835950E+02 -0.11045761365E+03  0.23746948234E+03  0.82002709604E+02 0.  0.
         13    1    3    3    0    0 -0.58207348711E+02  0.63890008324E+01  0.81259811247E+02  0.10016023013E+03  0.00000000000E+00 0.  1.
        -13    1    3    3    0    0 -0.18285728625E+03 -0.39018027357E+02  0.60246579316E+03  0.63081235366E+03  0.00000000000E+00 0. -1.
          4    1    6    6  502    0  0.33699401291E+02  0.25225817215E+02 -0.47625613415E+01  0.42363586865E+02  0.00000000000E+00 0. -1.
          1    1    5    5  503    0  0.10111369066E+02 -0.13002727767E+02  0.51981996153E+02  0.54529245712E+02  0.00000000000E+00 0. -1.
         -2    1    5    5    0  503  0.37848887039E+02  0.58940590242E+02  0.10809296707E+04  0.10831968817E+04  0.00000000000E+00 0.  1.
         -3    1    6    6    0  502  0.15940497756E+03 -0.38534653165E+02 -0.10569505231E+03  0.19510589547E+03  0.00000000000E+00 0.  1.
<mgrwt>
<rscale>  0 0.12348666E+04</rscale>
<asrwt>0</asrwt>
<pdfrwt beam="1">  1        1 0.29325751E+00 0.12348666E+04</pdfrwt>
<pdfrwt beam="2">  1       -1 0.30768350E-01 0.12348666E+04</pdfrwt>
<totfact> 0.33284486E+01</totfact>
</mgrwt>
</event>
<event>
12    1  0.1506149E-007  0.1107453E+04  0.7818608E-02  0.9197958E-01
         -2   -1    0    0    0  501 -0.00000000000E+00  0.00000000000E+00  0.81278356108E+03  0.81278356108E+03  0.00000000000E+00 0.  1.
          2   -1    0    0  501    0  0.00000000000E+00 -0.00000000000E+00 -0.37723820643E+03  0.37723820643E+03  0.00000000000E+00 0. -1.
         23    2    1    2    0    0 -0.15724717979E+03 -0.10942806965E+02 -0.90307656545E+01  0.18286593495E+03  0.92260364498E+02 0.  0.
        254    2    1    2    0    0  0.15724717979E+03  0.10942806965E+02  0.44457612030E+03  0.10071558326E+04  0.88986994766E+03 0.  0.
        -24    2    4    4    0    0 -0.27059367727E+03 -0.23697243816E+03  0.32692348360E+03  0.49254296726E+03  0.79641294818E+02 0.  0.
         24    2    4    4    0    0  0.42784085706E+03  0.24791524513E+03  0.11765263670E+03  0.51461286531E+03  0.80464218657E+02 0.  0.
         11    1    3    3    0    0 -0.11979151283E+03  0.21024125604E+02 -0.35847033811E+02  0.12679522955E+03  0.00000000000E+00 0. -1.
        -11    1    3    3    0    0 -0.37455666964E+02 -0.31966932569E+02  0.26816268156E+02  0.56070705394E+02  0.00000000000E+00 0.  1.
          4    1    6    6  502    0  0.27736279088E+02  0.33437999285E+02 -0.66192855749E+01  0.43945601774E+02  0.00000000000E+00 0. -1.
          3    1    5    5  503    0 -0.64675220979E+02 -0.75276722855E+02  0.13666057878E+03  0.16889518349E+03  0.00000000000E+00 0. -1.
         -4    1    5    5    0  503 -0.20591845629E+03 -0.16169571530E+03  0.19026290482E+03  0.32364778377E+03  0.00000000000E+00 0.  1.
         -3    1    6    6    0  502  0.40010457797E+03  0.21447724584E+03  0.12427192227E+03  0.47066726354E+03  0.00000000000E+00 0.  1.
<mgrwt>
<rscale>  0 0.11074530E+04</rscale>
<asrwt>0</asrwt>
<pdfrwt beam="1">  1        2 0.58036647E-01 0.11074530E+04</pdfrwt>
<pdfrwt beam="2">  1       -2 0.12504362E+00 0.11074530E+04</pdfrwt>
<totfact> 0.40365603E+01</totfact>
</mgrwt>
</event>
<event>
12    1  0.1506149E-007  0.1500785E+04  0.7818608E-02  0.8883931E-01
         -2   -1    0    0    0  501 -0.00000000000E+00  0.00000000000E+00  0.98487463078E+03  0.98487463078E+03  0.00000000000E+00 0.  1.
          2   -1    0    0  501    0  0.00000000000E+00 -0.00000000000E+00 -0.57173681375E+03  0.57173681375E+03  0.00000000000E+00 0. -1.
         23    2    1    2    0    0  0.40278652354E+03  0.98293889160E+02  0.36143955909E+03  0.56249105314E+03  0.11772407486E+03 0.  0.
        254    2    1    2    0    0 -0.40278652354E+03 -0.98293889160E+02  0.51698257939E+02  0.99412039139E+03  0.90205541432E+03 0.  0.
        -24    2    4    4    0    0 -0.56392517385E+03  0.84443124005E+02 -0.22381816515E+03  0.61777279767E+03  0.80040087408E+02 0.  0.
         24    2    4    4    0    0  0.16113865032E+03 -0.18273701317E+03  0.27551642309E+03  0.37634759372E+03  0.79810596415E+02 0.  0.
         11    1    3    3    0    0  0.44791878979E+02  0.26284405307E+02  0.10227527519E+03  0.11470577274E+03  0.00000000000E+00 0.  1.
        -11    1    3    3    0    0  0.35799464456E+03  0.72009483854E+02  0.25916428390E+03  0.44778528040E+03  0.00000000000E+00 0. -1.
          2    1    6    6  502    0  0.12936901576E+03 -0.91292783177E+02  0.18854925921E+03  0.24621441397E+03  0.00000000000E+00 0. -1.
          3    1    5    5  503    0 -0.47791380362E+03  0.51311028803E+02 -0.21015062849E+03  0.52459290123E+03  0.00000000000E+00 0. -1.
         -4    1    5    5    0  503 -0.86011370236E+02  0.33132095202E+02 -0.13667536659E+02  0.93179896440E+02  0.00000000000E+00 0.  1.
         -1    1    6    6    0  502  0.31769634556E+02 -0.91444229988E+02  0.86967163882E+02  0.13013317975E+03  0.00000000000E+00 0.  1.
<mgrwt>
<rscale>  0 0.15007852E+04</rscale>
<asrwt>0</asrwt>
<pdfrwt beam="1">  1        2 0.87959510E-01 0.15007852E+04</pdfrwt>
<pdfrwt beam="2">  1       -2 0.15151917E+00 0.15007852E+04</pdfrwt>
<totfact> 0.14802236E+01</totfact>
</mgrwt>
</event>
<event>
12    1  0.1506149E-007  0.1660085E+04  0.7818608E-02  0.8784462E-01
         -1   -1    0    0    0  501 -0.00000000000E+00  0.00000000000E+00  0.47908549453E+03  0.47908549453E+03  0.00000000000E+00 0.  1.
          1   -1    0    0  501    0  0.00000000000E+00 -0.00000000000E+00 -0.14380957575E+04  0.14380957575E+04  0.00000000000E+00 0. -1.
         23    2    1    2    0    0 -0.31998470809E+03 -0.27406676583E+03 -0.80089458592E+03  0.90945945285E+03  0.90451937841E+02 0.  0.
        254    2    1    2    0    0  0.31998470809E+03  0.27406676583E+03 -0.15811567707E+03  0.10077217992E+04  0.90166504409E+03 0.  0.
        -24    2    4    4    0    0  0.81673350563E+02  0.28277899717E+03 -0.49807389853E+03  0.58403292079E+03  0.79889590958E+02 0.  0.
         24    2    4    4    0    0  0.23831135753E+03 -0.87122313327E+01  0.33995822146E+03  0.42368887842E+03  0.84097962266E+02 0.  0.
         11    1    3    3    0    0 -0.31505782838E+03 -0.25524063517E+03 -0.72065201140E+03  0.82689088676E+03  0.00000000000E+00 0. -1.
        -11    1    3    3    0    0 -0.49268797085E+01 -0.18826130663E+02 -0.80242574527E+02  0.82568566090E+02  0.00000000000E+00 0.  1.
          2    1    6    6  502    0  0.11458234751E+03 -0.45590746382E+02  0.17854956782E+03  0.21699672505E+03  0.00000000000E+00 0. -1.
          3    1    5    5  503    0  0.89491179823E+02  0.17204412594E+03 -0.32175335631E+03  0.37567682233E+03  0.00000000000E+00 0. -1.
         -4    1    5    5    0  503 -0.78178292602E+01  0.11073487122E+03 -0.17632054222E+03  0.20835609847E+03  0.00000000000E+00 0.  1.
         -1    1    6    6    0  502  0.12372901002E+03  0.36878515049E+02  0.16140865365E+03  0.20669215337E+03  0.00000000000E+00 0.  1.
<mgrwt>
<rscale>  0 0.16600853E+04</rscale>
<asrwt>0</asrwt>
<pdfrwt beam="1">  1        1 0.22124550E+00 0.16600853E+04</pdfrwt>
<pdfrwt beam="2">  1       -1 0.73705462E-01 0.16600853E+04</pdfrwt>
<totfact> 0.12789456E+01</totfact>
</mgrwt>
</event>
<event>
12    1  0.1506149E-007  0.1198458E+04  0.7818608E-02  0.9114208E-01
          1   -1    0    0  501    0  0.00000000000E+00  0.00000000000E+00  0.27245100062E+03  0.27245100062E+03  0.00000000000E+00 0. -1.
         -1   -1    0    0    0  501 -0.00000000000E+00 -0.00000000000E+00 -0.13179443236E+04  0.13179443236E+04  0.00000000000E+00 0.  1.
         23    2    1    2    0    0  0.20074223868E+03 -0.51298019528E+02 -0.36426132899E+02  0.22814174947E+03  0.88277185586E+02 0.  0.
        254    2    1    2    0    0 -0.20074223868E+03  0.51298019528E+02 -0.10090671901E+04  0.13622535748E+04  0.89139737190E+03 0.  0.
        -24    2    4    4    0    0 -0.35193961740E+03  0.36260466681E+03 -0.80143107091E+03  0.95083187893E+03  0.80286125141E+02 0.  0.
         24    2    4    4    0    0  0.15119737871E+03 -0.31130664729E+03 -0.20763611922E+03  0.41142169585E+03  0.79891037294E+02 0.  0.
         11    1    3    3    0    0  0.13854285585E+03 -0.49503301485E+02 -0.63552117050E+02  0.16026094766E+03  0.00000000000E+00 0.  1.
        -11    1    3    3    0    0  0.62199382838E+02 -0.17947180430E+01  0.27125984152E+02  0.67880801811E+02  0.00000000000E+00 0. -1.
          4    1    6    6  502    0  0.14689759228E+01 -0.63903119877E+02 -0.55546015222E+02  0.84682503667E+02  0.00000000000E+00 0. -1.
          1    1    5    5  503    0 -0.29280529996E+02  0.17298268153E+02 -0.94933125315E+02  0.10084085382E+03  0.00000000000E+00 0. -1.
         -2    1    5    5    0  503 -0.32265908740E+03  0.34530639866E+03 -0.70649794559E+03  0.84999102511E+03  0.00000000000E+00 0.  1.
         -3    1    6    6    0  502  0.14972840279E+03 -0.24740352741E+03 -0.15209010399E+03  0.32673919218E+03  0.00000000000E+00 0.  1.
<mgrwt>
<rscale>  0 0.11984578E+04</rscale>
<asrwt>0</asrwt>
<pdfrwt beam="1">  1        1 0.41915539E-01 0.11984578E+04</pdfrwt>
<pdfrwt beam="2">  1       -1 0.20276066E+00 0.11984578E+04</pdfrwt>
<totfact> 0.14182002E+01</totfact>
</mgrwt>
</event>
<event>
12    1  0.1506149E-007  0.1511663E+04  0.7818608E-02  0.8876734E-01
          1   -1    0    0  501    0  0.00000000000E+00  0.00000000000E+00  0.62123768563E+03  0.62123768563E+03  0.00000000000E+00 0. -1.
         -1   -1    0    0    0  501 -0.00000000000E+00 -0.00000000000E+00 -0.91958511424E+03  0.91958511424E+03  0.00000000000E+00 0.  1.
         23    2    1    2    0    0  0.35031148932E+03 -0.31250681333E+03 -0.18248380831E+03  0.51215327179E+03  0.92854647580E+02 0.  0.
        254    2    1    2    0    0 -0.35031148932E+03  0.31250681333E+03 -0.11586362030E+03  0.10286695281E+04  0.90794161242E+03 0.  0.
        -24    2    4    4    0    0 -0.14242943153E+03  0.40103032946E+03 -0.44552369794E+03  0.62062479140E+03  0.74647827536E+02 0.  0.
         24    2    4    4    0    0 -0.20788205779E+03 -0.88523516128E+02  0.32966007764E+03  0.40804473668E+03  0.82300531500E+02 0.  0.
         13    1    3    3    0    0  0.29946209121E+03 -0.23154717579E+03 -0.11675955308E+03  0.39613688534E+03  0.00000000000E+00 0. -1.
        -13    1    3    3    0    0  0.50849398108E+02 -0.80959637542E+02 -0.65724255233E+02  0.11601638645E+03  0.00000000000E+00 0.  1.
          4    1    6    6  502    0 -0.19596675099E+03 -0.99156545780E+02  0.32332728644E+03  0.39086509466E+03  0.00000000000E+00 0. -1.
          3    1    5    5  503    0 -0.51474999934E+02  0.23886938592E+03 -0.22480665363E+03  0.33203356858E+03  0.00000000000E+00 0. -1.
         -4    1    5    5    0  503 -0.90954431600E+02  0.16216094354E+03 -0.22071704431E+03  0.28859122282E+03  0.00000000000E+00 0.  1.
         -3    1    6    6    0  502 -0.11915306794E+02  0.10633029652E+02  0.63327911989E+01  0.17179642021E+02  0.00000000000E+00 0.  1.
<mgrwt>
<rscale>  0 0.15116626E+04</rscale>
<asrwt>0</asrwt>
<pdfrwt beam="1">  1        1 0.95575028E-01 0.15116626E+04</pdfrwt>
<pdfrwt beam="2">  1       -1 0.14147463E+00 0.15116626E+04</pdfrwt>
<totfact> 0.12832783E+01</totfact>
</mgrwt>
</event>
<event>
12    1  0.1506149E-007  0.1913684E+04  0.7818608E-02  0.8648075E-01
         -2   -1    0    0    0  501 -0.00000000000E+00  0.00000000000E+00  0.32297111531E+03  0.32297111531E+03  0.00000000000E+00 0. -1.
          2   -1    0    0  501    0  0.00000000000E+00 -0.00000000000E+00 -0.28347624369E+04  0.28347624369E+04  0.00000000000E+00 0.  1.
         23    2    1    2    0    0  0.33213561042E+03  0.29165589654E+02  0.10909780007E+03  0.36180374973E+03  0.88515128705E+02 0.  0.
        254    2    1    2    0    0 -0.33213561042E+03 -0.29165589654E+02 -0.26208891217E+04  0.27959298025E+04  0.91487648182E+03 0.  0.
        -24    2    4    4    0    0 -0.18963283857E+03  0.40982875433E+03 -0.86977878084E+03  0.98324417833E+03  0.79584956388E+02 0.  0.
         24    2    4    4    0    0 -0.14250277185E+03 -0.43899434399E+03 -0.17511103409E+04  0.18126856242E+04  0.80116616251E+02 0.  0.
         13    1    3    3    0    0  0.61446666505E+02 -0.29230158925E+02  0.21001064337E+02  0.71211935226E+02  0.00000000000E+00 0.  1.
        -13    1    3    3    0    0  0.27068894392E+03  0.58395748579E+02  0.88096735731E+02  0.29059181451E+03  0.00000000000E+00 0. -1.
          4    1    6    6  502    0 -0.43579106078E+02 -0.50719047159E+02 -0.29218185491E+03  0.29973621164E+03  0.00000000000E+00 0. -1.
          1    1    5    5  503    0 -0.41570226869E+02  0.11651838178E+03 -0.31568407971E+03  0.33905907338E+03  0.00000000000E+00 0. -1.
         -2    1    5    5    0  503 -0.14806261170E+03  0.29331037255E+03 -0.55409470112E+03  0.64418510495E+03  0.00000000000E+00 0.  1.
         -3    1    6    6    0  502 -0.98923665776E+02 -0.38827529683E+03 -0.14589284859E+04  0.15129494125E+04  0.00000000000E+00 0.  1.
<mgrwt>
<rscale>  0 0.19136838E+04</rscale>
<asrwt>0</asrwt>
<pdfrwt beam="1">  1        2 0.43611731E+00 0.19136838E+04</pdfrwt>
<pdfrwt beam="2">  1       -2 0.49687863E-01 0.19136838E+04</pdfrwt>
<totfact> 0.79151127E+00</totfact>
</mgrwt>
</event>
<event>
12    1  0.1506149E-007  0.1468302E+04  0.7818608E-02  0.8905810E-01
         -2   -1    0    0    0  501 -0.00000000000E+00  0.00000000000E+00  0.95410840907E+03  0.95410840907E+03  0.00000000000E+00 0. -1.
          2   -1    0    0  501    0  0.00000000000E+00 -0.00000000000E+00 -0.56490182639E+03  0.56490182639E+03  0.00000000000E+00 0.  1.
         23    2    1    2    0    0 -0.10740373223E+03 -0.42087409268E+03 -0.45789890108E+02  0.44639870083E+03  0.92219967920E+02 0.  0.
        254    2    1    2    0    0  0.10740373223E+03  0.42087409268E+03  0.43499647279E+03  0.10726115346E+04  0.87897838956E+03 0.  0.
        -24    2    4    4    0    0  0.35600437676E+03  0.44697838346E+03  0.16420019904E+02  0.57800792161E+03  0.85409301813E+02 0.  0.
         24    2    4    4    0    0 -0.24860064453E+03 -0.26104290789E+02  0.41857645289E+03  0.49460361302E+03  0.83323301962E+02 0.  0.
         11    1    3    3    0    0 -0.25027000930E+02 -0.18355497352E+03 -0.60164273146E+02  0.19477812722E+03  0.00000000000E+00 0.  1.
        -11    1    3    3    0    0 -0.82376731300E+02 -0.23731911916E+03  0.14374383038E+02  0.25162057361E+03  0.00000000000E+00 0. -1.
          4    1    6    6  502    0 -0.32483507086E+02 -0.36374937859E+01  0.14386082532E+02  0.35712308303E+02  0.00000000000E+00 0. -1.
          1    1    5    5  503    0  0.88024365748E+02  0.15648725725E+03  0.32492608142E+02  0.18246183226E+03  0.00000000000E+00 0. -1.
         -2    1    5    5    0  503  0.26798001101E+03  0.29049112622E+03 -0.16072588238E+02  0.39554608935E+03  0.00000000000E+00 0.  1.
         -3    1    6    6    0  502 -0.21611713744E+03 -0.22466797003E+02  0.40419037035E+03  0.45889130472E+03  0.00000000000E+00 0.  1.
<mgrwt>
<rscale>  0 0.14683019E+04</rscale>
<asrwt>0</asrwt>
<pdfrwt beam="1">  1        2 0.86907974E-01 0.14683019E+04</pdfrwt>
<pdfrwt beam="2">  1       -2 0.14678591E+00 0.14683019E+04</pdfrwt>
<totfact> 0.16374265E+01</totfact>
</mgrwt>
</event>
<event>
12    1  0.1506149E-007  0.1690190E+04  0.7818608E-02  0.8766979E-01
          1   -1    0    0  501    0  0.00000000000E+00  0.00000000000E+00  0.22750706903E+04  0.22750706903E+04  0.00000000000E+00 0. -1.
         -1   -1    0    0    0  501 -0.00000000000E+00 -0.00000000000E+00 -0.31391792097E+03  0.31391792097E+03  0.00000000000E+00 0.  1.
         23    2    1    2    0    0  0.12502410020E+03  0.29159917436E+03  0.14666101123E+04  0.15032744577E+04  0.90707053498E+02 0.  0.
        254    2    1    2    0    0 -0.12502410020E+03 -0.29159917436E+03  0.49454265700E+03  0.10857141535E+04  0.91298503793E+03 0.  0.
        -24    2    4    4    0    0 -0.20617819358E+03  0.13402506377E+03 -0.15466675184E+03  0.30099876832E+03  0.78780004945E+02 0.  0.
         24    2    4    4    0    0  0.81154093382E+02 -0.42562423813E+03  0.64920940884E+03  0.78471538522E+03  0.81014815427E+02 0.  0.
         11    1    3    3    0    0  0.87416237591E+02  0.25538701518E+03  0.10832495983E+04  0.11163753035E+04  0.00000000000E+00 0. -1.
        -11    1    3    3    0    0  0.37607862610E+02  0.36212159183E+02  0.38336051400E+03  0.38689915417E+03  0.00000000000E+00 0.  1.
          2    1    6    6  502    0  0.63809552789E+01 -0.24701942073E+03  0.37110717494E+03  0.44584733497E+03  0.00000000000E+00 0. -1.
          3    1    5    5  503    0 -0.56395103148E+02  0.67195447600E+02 -0.87070263581E+02  0.12359962232E+03  0.00000000000E+00 0. -1.
         -4    1    5    5    0  503 -0.14978309044E+03  0.66829616173E+02 -0.67596488255E+02  0.17739914600E+03  0.00000000000E+00 0.  1.
         -1    1    6    6    0  502  0.74773138103E+02 -0.17860481741E+03  0.27810223390E+03  0.33886805026E+03  0.00000000000E+00 0.  1.
<mgrwt>
<rscale>  0 0.16901899E+04</rscale>
<asrwt>0</asrwt>
<pdfrwt beam="1">  1        1 0.35001086E+00 0.16901899E+04</pdfrwt>
<pdfrwt beam="2">  1       -1 0.48295066E-01 0.16901899E+04</pdfrwt>
<totfact> 0.79113889E+00</totfact>
</mgrwt>
</event>
<event>
12    1  0.1506149E-007  0.2043094E+04  0.7818608E-02  0.8586734E-01
          2   -1    0    0  501    0  0.00000000000E+00  0.00000000000E+00  0.39889887152E+04  0.39889887152E+04  0.00000000000E+00 0. -1.
         -2   -1    0    0    0  501 -0.00000000000E+00 -0.00000000000E+00 -0.26160982232E+03  0.26160982232E+03  0.00000000000E+00 0.  1.
         23    2    1    2    0    0 -0.65826648021E+03 -0.18838462790E+03  0.57017961329E+03  0.89580340355E+03  0.92495510133E+02 0.  0.
        254    2    1    2    0    0  0.65826648021E+03  0.18838462790E+03  0.31571992796E+04  0.33547951340E+04  0.90440011771E+03 0.  0.
        -24    2    4    4    0    0  0.68262241738E+03  0.12927952409E+03  0.11552411443E+04  0.13503700493E+04  0.78934203519E+02 0.  0.
         24    2    4    4    0    0 -0.24355937170E+02  0.59105103810E+02  0.20019581353E+04  0.20044250847E+04  0.76137504931E+02 0.  0.
         11    1    3    3    0    0 -0.58355842955E+03 -0.18157466769E+03  0.53783152678E+03  0.81410843986E+03  0.00000000000E+00 0.  1.
        -11    1    3    3    0    0 -0.74708050658E+02 -0.68099602088E+01  0.32348086510E+02  0.81694963688E+02  0.00000000000E+00 0. -1.
          2    1    6    6  502    0 -0.43256969545E+01  0.64229571026E+02  0.18435193119E+04  0.18446429472E+04  0.00000000000E+00 0. -1.
          1    1    5    5  503    0  0.58671239332E+03  0.86031095499E+02  0.10062167475E+04  0.11679490249E+04  0.00000000000E+00 0. -1.
         -2    1    5    5    0  503  0.95910024062E+02  0.43248428586E+02  0.14902439678E+03  0.18242102436E+03  0.00000000000E+00 0.  1.
         -1    1    6    6    0  502 -0.20030240215E+02 -0.51244672160E+01  0.15843882343E+03  0.15978213748E+03  0.00000000000E+00 0.  1.
<mgrwt>
<rscale>  0 0.20430943E+04</rscale>
<asrwt>0</asrwt>
<pdfrwt beam="1">  1        2 0.61369053E+00 0.20430943E+04</pdfrwt>
<pdfrwt beam="2">  1       -2 0.40247668E-01 0.20430943E+04</pdfrwt>
<totfact> 0.19074657E+00</totfact>
</mgrwt>
</event>
<event>
12    1  0.1506149E-007  0.4959746E+04  0.7818608E-02  0.7834747E-01
          1   -1    0    0  501    0  0.00000000000E+00  0.00000000000E+00  0.14073321828E+04  0.14073321828E+04  0.00000000000E+00 0. -1.
         -1   -1    0    0    0  501 -0.00000000000E+00 -0.00000000000E+00 -0.43698067287E+04  0.43698067287E+04  0.00000000000E+00 0.  1.
         23    2    1    2    0    0 -0.19624884315E+04  0.36379108501E+03 -0.29801745132E+04  0.35878607086E+04  0.87175330496E+02 0.  0.
        254    2    1    2    0    0  0.19624884315E+04 -0.36379108501E+03  0.17699967312E+02  0.21892782029E+04  0.89940033573E+03 0.  0.
        -24    2    4    4    0    0  0.19783796520E+04 -0.37055736568E+03 -0.13226046508E+03  0.20185817722E+04  0.76685928029E+02 0.  0.
         24    2    4    4    0    0 -0.15891220573E+02  0.67662806685E+01  0.14996043239E+03  0.17069643076E+03  0.79692074541E+02 0.  0.
         13    1    3    3    0    0 -0.19338257814E+04  0.34832637140E+03 -0.29391624816E+04  0.35354899953E+04  0.00000000000E+00 0.  1.
        -13    1    3    3    0    0 -0.28662650086E+02  0.15464713612E+02 -0.41012031582E+02  0.52370713300E+02  0.00000000000E+00 0. -1.
          2    1    6    6  502    0 -0.29363299352E+02  0.14383334863E+02  0.15164388491E+03  0.15512882228E+03  0.00000000000E+00 0. -1.
          1    1    5    5  503    0  0.13342487884E+04 -0.21496988292E+03 -0.99658499666E+02  0.13551249745E+04  0.00000000000E+00 0. -1.
         -2    1    5    5    0  503  0.64413086362E+03 -0.15558748276E+03 -0.32601965413E+02  0.66345679770E+03  0.00000000000E+00 0.  1.
         -1    1    6    6    0  502  0.13472078779E+02 -0.76170541944E+01 -0.16834525232E+01  0.15567608475E+02  0.00000000000E+00 0.  1.
<mgrwt>
<rscale>  0 0.49597458E+04</rscale>
<asrwt>0</asrwt>
<pdfrwt beam="1">  1        1 0.21651265E+00 0.49597458E+04</pdfrwt>
<pdfrwt beam="2">  1       -1 0.67227794E+00 0.49597458E+04</pdfrwt>
<totfact> 0.13761362E-03</totfact>
</mgrwt>
</event>
<event>
12    1  0.1506149E-007  0.3184239E+04  0.7818608E-02  0.8192992E-01
          2   -1    0    0  501    0  0.00000000000E+00  0.00000000000E+00  0.37563143176E+04  0.37563143176E+04  0.00000000000E+00 0. -1.
         -2   -1    0    0    0  501 -0.00000000000E+00 -0.00000000000E+00 -0.67482210272E+03  0.67482210272E+03  0.00000000000E+00 0.  1.
         23    2    1    2    0    0  0.95310035408E+03 -0.32964427935E+03 -0.55898363337E+02  0.10141383707E+04  0.91029511951E+02 0.  0.
        254    2    1    2    0    0 -0.95310035408E+03  0.32964427935E+03  0.31373905782E+04  0.34169980496E+04  0.90310043458E+03 0.  0.
        -24    2    4    4    0    0  0.97958471961E+02  0.55187119715E+01  0.10364205296E+04  0.10443761726E+04  0.83233150107E+02 0.  0.
         24    2    4    4    0    0 -0.10510588260E+04  0.32412556738E+03  0.21009700486E+04  0.23726218770E+04  0.74009370687E+02 0.  0.
         13    1    3    3    0    0  0.52475120698E+03 -0.22650243817E+03 -0.16462502964E+02  0.57178509751E+03  0.00000000000E+00 0. -1.
        -13    1    3    3    0    0  0.42834914710E+03 -0.10314184118E+03 -0.39435860373E+02  0.44235327320E+03  0.00000000000E+00 0.  1.
          2    1    6    6  502    0 -0.93549163210E+03  0.26620225870E+03  0.18765085745E+04  0.21135970918E+04  0.00000000000E+00 0. -1.
          3    1    5    5  503    0  0.75868312786E+02 -0.31385926844E+02  0.78734691022E+03  0.79161621656E+03  0.00000000000E+00 0. -1.
         -4    1    5    5    0  503  0.22090159175E+02  0.36904638816E+02  0.24907361938E+03  0.25275995603E+03  0.00000000000E+00 0.  1.
         -1    1    6    6    0  502 -0.11556719395E+03  0.57923308683E+02  0.22446147410E+03  0.25902478522E+03  0.00000000000E+00 0.  1.
<mgrwt>
<rscale>  0 0.31842386E+04</rscale>
<asrwt>0</asrwt>
<pdfrwt beam="1">  1        2 0.57789450E+00 0.31842386E+04</pdfrwt>
<pdfrwt beam="2">  1       -2 0.10381879E+00 0.31842386E+04</pdfrwt>
<totfact> 0.33699943E-01</totfact>
</mgrwt>
</event>
<event>
12    1  0.1506149E-007  0.1282136E+04  0.7818608E-02  0.9043853E-01
         -2   -1    0    0    0  501 -0.00000000000E+00  0.00000000000E+00  0.13679664670E+04  0.13679664670E+04  0.00000000000E+00 0.  1.
          2   -1    0    0  501    0  0.00000000000E+00 -0.00000000000E+00 -0.30042267509E+03  0.30042267509E+03  0.00000000000E+00 0. -1.
         23    2    1    2    0    0 -0.60861684262E+02 -0.30261906537E+03  0.19468444826E+03  0.37556341305E+03  0.88675811224E+02 0.  0.
        254    2    1    2    0    0  0.60861684262E+02  0.30261906537E+03  0.87285934365E+03  0.12928257290E+04  0.90234831884E+03 0.  0.
        -24    2    4    4    0    0 -0.70289795351E+02 -0.15170105743E+03  0.78318560004E+03  0.80482623943E+03  0.80073250238E+02 0.  0.
         24    2    4    4    0    0  0.13115147961E+03  0.45432012280E+03  0.89673743614E+02  0.48799948961E+03  0.80589310561E+02 0.  0.
         13    1    3    3    0    0  0.47271114308E+01 -0.17511992759E+03  0.83178594054E+02  0.19392785547E+03  0.00000000000E+00 0.  1.
        -13    1    3    3    0    0 -0.65588795693E+02 -0.12749913778E+03  0.11150585420E+03  0.18163555758E+03  0.00000000000E+00 0. -1.
          2    1    6    6  502    0  0.48249550942E+01  0.44207742919E+02  0.32498771250E+02  0.55079713674E+02  0.00000000000E+00 0. -1.
          1    1    5    5  503    0 -0.79843216004E+01 -0.13041372029E+01  0.44022733863E+01  0.92103298654E+01  0.00000000000E+00 0. -1.
         -2    1    5    5    0  503 -0.62305473750E+02 -0.15039692023E+03  0.77878332665E+03  0.79561590956E+03  0.00000000000E+00 0.  1.
         -3    1    6    6    0  502  0.12632652452E+03  0.41011237988E+03  0.57174972365E+02  0.43291977593E+03  0.00000000000E+00 0.  1.
<mgrwt>
<rscale>  0 0.12821359E+04</rscale>
<asrwt>0</asrwt>
<pdfrwt beam="1">  1        2 0.46218874E-01 0.12821359E+04</pdfrwt>
<pdfrwt beam="2">  1       -2 0.21045638E+00 0.12821359E+04</pdfrwt>
<totfact> 0.12230085E+01</totfact>
</mgrwt>
</event>
<event>
12    1  0.1506149E-007  0.1312071E+04  0.7818608E-02  0.9020047E-01
         -2   -1    0    0    0  501 -0.00000000000E+00  0.00000000000E+00  0.10075228535E+04  0.10075228535E+04  0.00000000000E+00 0.  1.
          2   -1    0    0  501    0  0.00000000000E+00 -0.00000000000E+00 -0.42716932057E+03  0.42716932057E+03  0.00000000000E+00 0. -1.
         23    2    1    2    0    0 -0.20495826010E+03  0.19519958387E+03 -0.56430558162E+02  0.30345030767E+03  0.93738548143E+02 0.  0.
        254    2    1    2    0    0  0.20495826010E+03 -0.19519958387E+03  0.63678409110E+03  0.11312418664E+04  0.89112480367E+03 0.  0.
        -24    2    4    4    0    0 -0.31134703989E+03 -0.83372688177E+02  0.46264224948E+03  0.56952202194E+03  0.80184151088E+02 0.  0.
         24    2    4    4    0    0  0.51630529998E+03 -0.11182689569E+03  0.17414184161E+03  0.56171984447E+03  0.78277616747E+02 0.  0.
         13    1    3    3    0    0 -0.19306689986E+03  0.20582848102E+03 -0.53660123450E+02  0.28726224999E+03  0.00000000000E+00 0. -1.
        -13    1    3    3    0    0 -0.11891360239E+02 -0.10628897154E+02 -0.27704347123E+01  0.16188057683E+02  0.00000000000E+00 0.  1.
          2    1    6    6  502    0  0.43641600371E+03 -0.65901717348E+02  0.13446718379E+03  0.46139287832E+03  0.00000000000E+00 0. -1.
          3    1    5    5  503    0 -0.23916660863E+03 -0.97814397826E+02  0.36668659659E+03  0.44858375274E+03  0.00000000000E+00 0. -1.
         -4    1    5    5    0  503 -0.72180431252E+02  0.14441709649E+02  0.95955652890E+02  0.12093826919E+03  0.00000000000E+00 0.  1.
         -1    1    6    6    0  502  0.79889296268E+02 -0.45925178342E+02  0.39674657826E+02  0.10032696615E+03  0.00000000000E+00 0.  1.
<mgrwt>
<rscale>  0 0.13120714E+04</rscale>
<asrwt>0</asrwt>
<pdfrwt beam="1">  1        2 0.65718357E-01 0.13120714E+04</pdfrwt>
<pdfrwt beam="2">  1       -2 0.15500352E+00 0.13120714E+04</pdfrwt>
<totfact> 0.19821584E+01</totfact>
</mgrwt>
</event>
<event>
12    1  0.1506149E-007  0.1421326E+04  0.7818608E-02  0.8938525E-01
         -1   -1    0    0    0  501 -0.00000000000E+00  0.00000000000E+00  0.56380283707E+03  0.56380283707E+03  0.00000000000E+00 0. -1.
          1   -1    0    0  501    0  0.00000000000E+00 -0.00000000000E+00 -0.89577725584E+03  0.89577725584E+03  0.00000000000E+00 0.  1.
         23    2    1    2    0    0  0.23815763523E+03  0.38612135694E+03 -0.80620991785E+02  0.46945690624E+03  0.89895945386E+02 0.  0.
        254    2    1    2    0    0 -0.23815763523E+03 -0.38612135694E+03 -0.25135342699E+03  0.99012318667E+03  0.84341959784E+03 0.  0.
        -24    2    4    4    0    0  0.14519704028E+03 -0.26934986007E+03  0.20513734277E+03  0.37733845018E+03  0.81678938291E+02 0.  0.
         24    2    4    4    0    0 -0.38335467551E+03 -0.11677149686E+03 -0.45649076976E+03  0.61278473648E+03  0.80776981128E+02 0.  0.
         13    1    3    3    0    0  0.89073887741E+02  0.17077425135E+03  0.84922568413E+01  0.19279554152E+03  0.00000000000E+00 0. -1.
        -13    1    3    3    0    0  0.14908374749E+03  0.21534710559E+03 -0.89113248626E+02  0.27666136472E+03  0.00000000000E+00 0.  1.
          2    1    6    6  502    0 -0.33657817695E+03 -0.11063734252E+03 -0.43476912012E+03  0.56084728631E+03  0.00000000000E+00 0. -1.
          3    1    5    5  503    0  0.10996236979E+03 -0.13057298711E+03  0.13642648423E+03  0.21852508628E+03  0.00000000000E+00 0. -1.
         -4    1    5    5    0  503  0.35234670483E+02 -0.13877687296E+03  0.68710858547E+02  0.15881336391E+03  0.00000000000E+00 0.  1.
         -1    1    6    6    0  502 -0.46776498561E+02 -0.61341543381E+01 -0.21721649640E+02  0.51937450170E+02  0.00000000000E+00 0.  1.
<mgrwt>
<rscale>  0 0.14213258E+04</rscale>
<asrwt>0</asrwt>
<pdfrwt beam="1">  1        1 0.13781188E+00 0.14213258E+04</pdfrwt>
<pdfrwt beam="2">  1       -1 0.86738899E-01 0.14213258E+04</pdfrwt>
<totfact> 0.23398506E+01</totfact>
</mgrwt>
</event>
<event>
12    1  0.1506149E-007  0.1593127E+04  0.7818608E-02  0.8824782E-01
          2   -1    0    0  501    0  0.00000000000E+00  0.00000000000E+00  0.43026408066E+03  0.43026408066E+03  0.00000000000E+00 0. -1.
         -2   -1    0    0    0  501 -0.00000000000E+00 -0.00000000000E+00 -0.14747064048E+04  0.14747064048E+04  0.00000000000E+00 0.  1.
         23    2    1    2    0    0  0.17999333386E+03 -0.28203855147E+03  0.14212310640E+03  0.37496691756E+03  0.91966663193E+02 0.  0.
        254    2    1    2    0    0 -0.17999333386E+03  0.28203855147E+03 -0.11865654306E+04  0.15300035679E+04  0.90610708644E+03 0.  0.
        -24    2    4    4    0    0  0.81387131126E+02 -0.25780661066E+03 -0.69537435158E+03  0.75061128550E+03  0.82363216750E+02 0.  0.
         24    2    4    4    0    0 -0.26138046499E+03  0.53984516213E+03 -0.49119107898E+03  0.77939228242E+03  0.80194184790E+02 0.  0.
         11    1    3    3    0    0  0.19554398007E+02 -0.41434349229E+01  0.27980330756E+02  0.34386646298E+02  0.00000000000E+00 0.  1.
        -11    1    3    3    0    0  0.16043893586E+03 -0.27789511655E+03  0.11414277565E+03  0.34058027126E+03  0.00000000000E+00 0. -1.
          2    1    6    6  502    0 -0.25236875925E+03  0.49929462889E+03 -0.47789147345E+03  0.73577535803E+03  0.00000000000E+00 0. -1.
          1    1    5    5  503    0  0.75799056740E+02 -0.26212044153E+03 -0.65399314613E+03  0.70863224457E+03  0.00000000000E+00 0. -1.
         -2    1    5    5    0  503  0.55880743865E+01  0.43138308745E+01 -0.41381205458E+02  0.41979040929E+02  0.00000000000E+00 0.  1.
         -1    1    6    6    0  502 -0.90117057432E+01  0.40550533240E+02 -0.13299605532E+02  0.43616924396E+02  0.00000000000E+00 0.  1.
<mgrwt>
<rscale>  0 0.15931267E+04</rscale>
<asrwt>0</asrwt>
<pdfrwt beam="1">  1        2 0.66194474E-01 0.15931267E+04</pdfrwt>
<pdfrwt beam="2">  1       -2 0.22687791E+00 0.15931267E+04</pdfrwt>
<totfact> 0.62786412E+00</totfact>
</mgrwt>
</event>
<event>
12    1  0.1506149E-007  0.2145496E+04  0.7818608E-02  0.8541463E-01
          2   -1    0    0  501    0  0.00000000000E+00  0.00000000000E+00  0.37845931609E+04  0.37845931609E+04  0.00000000000E+00 0. -1.
         -2   -1    0    0    0  501 -0.00000000000E+00 -0.00000000000E+00 -0.30407187891E+03  0.30407187891E+03  0.00000000000E+00 0.  1.
         23    2    1    2    0    0 -0.10310523086E+03  0.55908030369E+03  0.27190071282E+04  0.27793263837E+04  0.91945142015E+02 0.  0.
        254    2    1    2    0    0  0.10310523086E+03 -0.55908030369E+03  0.76151415377E+03  0.13093386561E+04  0.90070107994E+03 0.  0.
        -24    2    4    4    0    0 -0.15926733444E+03 -0.64679539304E+03  0.23777518320E+03  0.71156321294E+03  0.77941028917E+02 0.  0.
         24    2    4    4    0    0  0.26237256530E+03  0.87715089351E+02  0.52373897057E+03  0.59777544318E+03  0.80620538616E+02 0.  0.
         11    1    3    3    0    0 -0.75038278775E+02  0.46399123546E+03  0.23868523382E+04  0.24326904230E+04  0.00000000000E+00 0. -1.
        -11    1    3    3    0    0 -0.28066952083E+02  0.95089068231E+02  0.33215479000E+03  0.34663596065E+03  0.00000000000E+00 0.  1.
          2    1    6    6  502    0  0.19245743457E+03  0.31028057885E+02  0.39756228133E+03  0.44278479201E+03  0.00000000000E+00 0. -1.
          1    1    5    5  503    0 -0.13866659183E+03 -0.46114675853E+03  0.14435309914E+03  0.50271520151E+03  0.00000000000E+00 0. -1.
         -2    1    5    5    0  503 -0.20600742614E+02 -0.18564863451E+03  0.93422084057E+02  0.20884801144E+03  0.00000000000E+00 0.  1.
         -1    1    6    6    0  502  0.69915130729E+02  0.56687031466E+02  0.12617668924E+03  0.15499065117E+03  0.00000000000E+00 0.  1.
<mgrwt>
<rscale>  0 0.21454961E+04</rscale>
<asrwt>0</asrwt>
<pdfrwt beam="1">  1        2 0.58224507E+00 0.21454961E+04</pdfrwt>
<pdfrwt beam="2">  1       -2 0.46780292E-01 0.21454961E+04</pdfrwt>
<totfact> 0.20189807E+00</totfact>
</mgrwt>
</event>
<event>
12    1  0.1506149E-007  0.1680854E+04  0.7818608E-02  0.8772360E-01
         -1   -1    0    0    0  501 -0.00000000000E+00  0.00000000000E+00  0.16307064700E+04  0.16307064700E+04  0.00000000000E+00 0.  1.
          1   -1    0    0  501    0  0.00000000000E+00 -0.00000000000E+00 -0.43313597995E+03  0.43313597995E+03  0.00000000000E+00 0. -1.
         23    2    1    2    0    0  0.15382942848E+03 -0.42415612250E+03 -0.22784900343E+02  0.46161649387E+03  0.94861617132E+02 0.  0.
        254    2    1    2    0    0 -0.15382942848E+03  0.42415612250E+03  0.12203553904E+04  0.16022259561E+04  0.93503413100E+03 0.  0.
        -24    2    4    4    0    0 -0.10366374660E+03 -0.24951404379E+03  0.11353554090E+03  0.30313246563E+03  0.77430886997E+02 0.  0.
         24    2    4    4    0    0 -0.50165681879E+02  0.67367016630E+03  0.11068198495E+04  0.12990934905E+04  0.79029292706E+02 0.  0.
         11    1    3    3    0    0  0.12590656235E+03 -0.41076466654E+03 -0.16066745772E+02  0.42992814986E+03  0.00000000000E+00 0.  1.
        -11    1    3    3    0    0  0.27922866121E+02 -0.13391455966E+02 -0.67181545703E+01  0.31688344011E+02  0.00000000000E+00 0. -1.
          2    1    6    6  502    0 -0.51975662090E+02  0.56747146966E+03  0.87640208478E+03  0.10453735947E+04  0.00000000000E+00 0. -1.
          1    1    5    5  503    0 -0.69010866108E+02 -0.21878848083E+03  0.11535610943E+03  0.25678382147E+03  0.00000000000E+00 0. -1.
         -2    1    5    5    0  503 -0.34652880490E+02 -0.30725562961E+02 -0.18205685288E+01  0.46348644158E+02  0.00000000000E+00 0.  1.
         -1    1    6    6    0  502  0.18099802113E+01  0.10619869664E+03  0.23041776471E+03  0.25371989573E+03  0.00000000000E+00 0.  1.
<mgrwt>
<rscale>  0 0.16808541E+04</rscale>
<asrwt>0</asrwt>
<pdfrwt beam="1">  1        1 0.66636305E-01 0.16808541E+04</pdfrwt>
<pdfrwt beam="2">  1       -1 0.25087792E+00 0.16808541E+04</pdfrwt>
<totfact> 0.35370161E+00</totfact>
</mgrwt>
</event>
<event>
12    1  0.1506149E-007  0.1100062E+04  0.7818608E-02  0.9205132E-01
         -2   -1    0    0    0  501 -0.00000000000E+00  0.00000000000E+00  0.22049945392E+03  0.22049945392E+03  0.00000000000E+00 0.  1.
          2   -1    0    0  501    0  0.00000000000E+00 -0.00000000000E+00 -0.13720398505E+04  0.13720398505E+04  0.00000000000E+00 0. -1.
         23    2    1    2    0    0 -0.96867699139E+02 -0.13914327996E+03 -0.21817784482E+03  0.29217138760E+03  0.94964963379E+02 0.  0.
        254    2    1    2    0    0  0.96867699139E+02  0.13914327996E+03 -0.93336255173E+03  0.13003679168E+04  0.88940815295E+03 0.  0.
        -24    2    4    4    0    0  0.10247511872E+03 -0.36244229511E+03 -0.29722004498E+03  0.48638872251E+03  0.79803928502E+02 0.  0.
         24    2    4    4    0    0 -0.56074195782E+01  0.50158557507E+03 -0.63614250675E+03  0.81397919427E+03  0.79153695648E+02 0.  0.
         13    1    3    3    0    0 -0.96569519451E+02 -0.79433118988E+02 -0.10130455431E+03  0.16092826105E+03  0.00000000000E+00 0.  1.
        -13    1    3    3    0    0 -0.29817968762E+00 -0.59710160972E+02 -0.11687329050E+03  0.13124312655E+03  0.00000000000E+00 0. -1.
          2    1    6    6  502    0  0.27822294990E+02  0.76146286856E+02 -0.10053178886E+03  0.12914711639E+03  0.00000000000E+00 0. -1.
          1    1    5    5  503    0  0.64732128518E+02 -0.31448886679E+03 -0.22624270921E+03  0.39278398551E+03  0.00000000000E+00 0. -1.
         -2    1    5    5    0  503  0.37742990199E+02 -0.47953428322E+02 -0.70977335767E+02  0.93604737004E+02  0.00000000000E+00 0.  1.
         -1    1    6    6    0  502 -0.33429714569E+02  0.42543928822E+03 -0.53561071789E+03  0.68483207788E+03  0.00000000000E+00 0.  1.
<mgrwt>
<rscale>  0 0.11000619E+04</rscale>
<asrwt>0</asrwt>
<pdfrwt beam="1">  1        2 0.21108305E+00 0.11000619E+04</pdfrwt>
<pdfrwt beam="2">  1       -2 0.33922993E-01 0.11000619E+04</pdfrwt>
<totfact> 0.12112599E+02</totfact>
</mgrwt>
</event>
<event>
12    1  0.1506149E-007  0.1751408E+04  0.7818608E-02  0.8732576E-01
         -1   -1    0    0    0  501 -0.00000000000E+00  0.00000000000E+00  0.14548501547E+04  0.14548501547E+04  0.00000000000E+00 0.  1.
          1   -1    0    0  501    0  0.00000000000E+00 -0.00000000000E+00 -0.52710390905E+03  0.52710390905E+03  0.00000000000E+00 0. -1.
         23    2    1    2    0    0 -0.30504380506E+03  0.29314920692E+03  0.89903815338E+03  0.99777588271E+03  0.91098465121E+02 0.  0.
        254    2    1    2    0    0  0.30504380506E+03 -0.29314920692E+03  0.28708092222E+02  0.98417818100E+03  0.88814095552E+03 0.  0.
        -24    2    4    4    0    0  0.25404174515E+03 -0.35248776809E+03  0.40015039557E+03  0.59607851484E+03  0.80027631753E+02 0.  0.
         24    2    4    4    0    0  0.51002059907E+02  0.59338561170E+02 -0.37144230335E+03  0.38809966616E+03  0.80806504703E+02 0.  0.
         11    1    3    3    0    0 -0.75855742736E+02  0.12494839794E+03  0.35559582215E+03  0.38446662350E+03  0.00000000000E+00 0. -1.
        -11    1    3    3    0    0 -0.22918806232E+03  0.16820080898E+03  0.54344233123E+03  0.61330925921E+03  0.00000000000E+00 0.  1.
          4    1    6    6  502    0  0.38668218568E+02  0.78478871443E+02 -0.32186418998E+03  0.33354268270E+03  0.00000000000E+00 0. -1.
          3    1    5    5  503    0  0.19031681189E+03 -0.29778322335E+03  0.28756793874E+03  0.45562117640E+03  0.00000000000E+00 0. -1.
         -4    1    5    5    0  503  0.63724933259E+02 -0.54704544746E+02  0.11258245683E+03  0.14045733844E+03  0.00000000000E+00 0.  1.
         -3    1    6    6    0  502  0.12333841339E+02 -0.19140310273E+02 -0.49578113369E+02  0.54556983465E+02  0.00000000000E+00 0.  1.
<mgrwt>
<rscale>  0 0.17514077E+04</rscale>
<asrwt>0</asrwt>
<pdfrwt beam="1">  1        1 0.81092910E-01 0.17514077E+04</pdfrwt>
<pdfrwt beam="2">  1       -1 0.22382310E+00 0.17514077E+04</pdfrwt>
<totfact> 0.40482788E+00</totfact>
</mgrwt>
</event>
<event>
12    1  0.1506149E-007  0.1690822E+04  0.7818608E-02  0.8766616E-01
          2   -1    0    0  501    0  0.00000000000E+00  0.00000000000E+00  0.24019610613E+04  0.24019610613E+04  0.00000000000E+00 0.  1.
         -2   -1    0    0    0  501 -0.00000000000E+00 -0.00000000000E+00 -0.29755671223E+03  0.29755671223E+03  0.00000000000E+00 0. -1.
         23    2    1    2    0    0 -0.19786233777E+03 -0.75113170861E+02 -0.14214198009E+03  0.27078859337E+03  0.91272266608E+02 0.  0.
        254    2    1    2    0    0  0.19786233777E+03  0.75113170861E+02  0.22465463292E+04  0.24287291802E+04  0.89831148737E+03 0.  0.
        -24    2    4    4    0    0  0.21315036713E+03  0.24095509916E+03  0.22173625231E+04  0.22422469004E+04  0.86499505941E+02 0.  0.
         24    2    4    4    0    0 -0.15288029361E+02 -0.16584192830E+03  0.29183806061E+02  0.18648227979E+03  0.78655432846E+02 0.  0.
         13    1    3    3    0    0 -0.26168014784E+01 -0.14501573995E+02  0.83466491540E+01  0.16935461329E+02  0.00000000000E+00 0.  1.
        -13    1    3    3    0    0 -0.19524553629E+03 -0.60611596865E+02 -0.15048862924E+03  0.25385313204E+03  0.00000000000E+00 0. -1.
          4    1    6    6  502    0 -0.43613879661E+01 -0.74182218235E+02 -0.26246845019E+02  0.78809390815E+02  0.00000000000E+00 0. -1.
          3    1    5    5  503    0  0.15495014558E+03  0.18872564961E+03  0.13984241946E+04  0.14195834412E+04  0.00000000000E+00 0. -1.
         -4    1    5    5    0  503  0.58200221553E+02  0.52229449553E+02  0.81893832848E+03  0.82266345916E+03  0.00000000000E+00 0.  1.
         -3    1    6    6    0  502 -0.10926641395E+02 -0.91659710065E+02  0.55430651080E+02  0.10767288898E+03  0.00000000000E+00 0.  1.
<mgrwt>
<rscale>  0 0.16908219E+04</rscale>
<asrwt>0</asrwt>
<pdfrwt beam="1">  1        2 0.36953246E+00 0.16908219E+04</pdfrwt>
<pdfrwt beam="2">  1       -2 0.45777957E-01 0.16908219E+04</pdfrwt>
<totfact> 0.17106266E+01</totfact>
</mgrwt>
</event>
<event>
12    1  0.1506149E-007  0.2122619E+04  0.7818608E-02  0.8551345E-01
         -2   -1    0    0    0  501 -0.00000000000E+00  0.00000000000E+00  0.43309365925E+03  0.43309365925E+03  0.00000000000E+00 0.  1.
          2   -1    0    0  501    0  0.00000000000E+00 -0.00000000000E+00 -0.26007713251E+04  0.26007713251E+04  0.00000000000E+00 0. -1.
         23    2    1    2    0    0  0.29946588114E+03 -0.73327943764E+03 -0.42867722255E+03  0.90628185594E+03  0.10101531386E+03 0.  0.
        254    2    1    2    0    0 -0.29946588114E+03  0.73327943764E+03 -0.17390004433E+04  0.21275831284E+04  0.93547254307E+03 0.  0.
        -24    2    4    4    0    0  0.21503165961E+03  0.60683826804E+03 -0.12186594416E+04  0.13805933783E+04  0.80099585096E+02 0.  0.
         24    2    4    4    0    0 -0.51449754075E+03  0.12644116961E+03 -0.52034100173E+03  0.74698975009E+03  0.80894003787E+02 0.  0.
         13    1    3    3    0    0  0.22442285423E+03 -0.55246972198E+03 -0.37057023789E+03  0.70207600187E+03  0.00000000000E+00 0.  1.
        -13    1    3    3    0    0  0.75043026914E+02 -0.18080971567E+03 -0.58106984661E+02  0.20420585406E+03  0.00000000000E+00 0. -1.
          2    1    6    6  502    0 -0.22027933287E+03  0.20064880942E+02 -0.18489276837E+03  0.28828964555E+03  0.00000000000E+00 0. -1.
          1    1    5    5  503    0  0.20018126020E+03  0.59759107038E+03 -0.11709684846E+04  0.13297950279E+04  0.00000000000E+00 0. -1.
         -4    1    5    5    0  503  0.14850399414E+02  0.92471976565E+01 -0.47690956937E+02  0.50798350375E+02  0.00000000000E+00 0.  1.
         -1    1    6    6    0  502 -0.29421820788E+03  0.10637628867E+03 -0.33544823337E+03  0.45870010454E+03  0.00000000000E+00 0.  1.
<mgrwt>
<rscale>  0 0.21226187E+04</rscale>
<asrwt>0</asrwt>
<pdfrwt beam="1">  1        2 0.40011867E+00 0.21226187E+04</pdfrwt>
<pdfrwt beam="2">  1       -2 0.66629793E-01 0.21226187E+04</pdfrwt>
<totfact> 0.57898432E+00</totfact>
</mgrwt>
</event>
<event>
12    1  0.1506149E-007  0.1831922E+04  0.7818608E-02  0.8689506E-01
         -2   -1    0    0    0  501 -0.00000000000E+00  0.00000000000E+00  0.24712775560E+03  0.24712775560E+03  0.00000000000E+00 0.  1.
          2   -1    0    0  501    0  0.00000000000E+00 -0.00000000000E+00 -0.33949425660E+04  0.33949425660E+04  0.00000000000E+00 0. -1.
         23    2    1    2    0    0 -0.17501557872E+03 -0.11076221931E+02  0.13154172869E+03  0.23690811752E+03  0.89828137416E+02 0.  0.
        254    2    1    2    0    0  0.17501557872E+03  0.11076221931E+02 -0.32793565391E+04  0.34051622041E+04  0.90010954346E+03 0.  0.
        -24    2    4    4    0    0  0.33243490899E+03  0.35642180335E+03 -0.13634960374E+04  0.14502224063E+04  0.80461872562E+02 0.  0.
         24    2    4    4    0    0 -0.15741933027E+03 -0.34534558142E+03 -0.19158605017E+04  0.19549397978E+04  0.84992559406E+02 0.  0.
         11    1    3    3    0    0 -0.14356904331E+03 -0.85321657941E+01  0.14350081157E+03  0.20316828239E+03  0.00000000000E+00 0.  1.
        -11    1    3    3    0    0 -0.31446535410E+02 -0.25440561365E+01 -0.11959082877E+02  0.33739835124E+02  0.00000000000E+00 0. -1.
          4    1    6    6  502    0 -0.13145138932E+03 -0.32376971046E+03 -0.18216485500E+04  0.18548611087E+04  0.00000000000E+00 0. -1.
          3    1    5    5  503    0  0.20764970832E+03  0.26739193749E+03 -0.87371472611E+03  0.93701348561E+03  0.00000000000E+00 0. -1.
         -4    1    5    5    0  503  0.12478520067E+03  0.89029865861E+02 -0.48978131132E+03  0.51320892065E+03  0.00000000000E+00 0.  1.
         -3    1    6    6    0  502 -0.25967940952E+02 -0.21575870953E+02 -0.94211951693E+02  0.10007868907E+03  0.00000000000E+00 0.  1.
<mgrwt>
<rscale>  0 0.18319220E+04</rscale>
<asrwt>0</asrwt>
<pdfrwt beam="1">  1        2 0.52229886E+00 0.18319220E+04</pdfrwt>
<pdfrwt beam="2">  1       -2 0.38019655E-01 0.18319220E+04</pdfrwt>
<totfact> 0.59495479E+00</totfact>
</mgrwt>
</event>
<event>
12    1  0.1506149E-007  0.1327242E+04  0.7818608E-02  0.9008236E-01
         -2   -1    0    0    0  501 -0.00000000000E+00  0.00000000000E+00  0.55162458726E+03  0.55162458726E+03  0.00000000000E+00 0.  1.
          2   -1    0    0  501    0  0.00000000000E+00 -0.00000000000E+00 -0.79835635361E+03  0.79835635361E+03  0.00000000000E+00 0. -1.
         23    2    1    2    0    0 -0.95875981564E+01  0.26110295029E+03 -0.29349157676E+03  0.40339771626E+03  0.91245488478E+02 0.  0.
        254    2    1    2    0    0  0.95875981564E+01 -0.26110295029E+03  0.46759810410E+02  0.94658322462E+03  0.90860698246E+03 0.  0.
        -24    2    4    4    0    0  0.34781043963E+02 -0.28475616062E+03 -0.39448516903E+03  0.49524653795E+03  0.85760088301E+02 0.  0.
         24    2    4    4    0    0 -0.25193445807E+02  0.23653210327E+02  0.44124497944E+03  0.45133668667E+03  0.88393940865E+02 0.  0.
         11    1    3    3    0    0  0.99010483141E+01  0.12012587081E+03 -0.19870287009E+03  0.23240285321E+03  0.00000000000E+00 0. -1.
        -11    1    3    3    0    0 -0.19488646470E+02  0.14097707947E+03 -0.94788706665E+02  0.17099486305E+03  0.00000000000E+00 0.  1.
          2    1    6    6  502    0  0.12252092166E+02  0.44620505095E+02  0.15083901411E+03  0.15777677718E+03  0.00000000000E+00 0. -1.
          3    1    5    5  503    0  0.95984647364E+01 -0.34734604688E+02 -0.12746542458E+02  0.38224306832E+02  0.00000000000E+00 0. -1.
         -4    1    5    5    0  503  0.25182579227E+02 -0.25002155593E+03 -0.38173862657E+03  0.45702223112E+03  0.00000000000E+00 0.  1.
         -1    1    6    6    0  502 -0.37445537973E+02 -0.20967294768E+02  0.29040596532E+03  0.29355990949E+03  0.00000000000E+00 0.  1.
<mgrwt>
<rscale>  0 0.13272422E+04</rscale>
<asrwt>0</asrwt>
<pdfrwt beam="1">  1        2 0.12282405E+00 0.13272422E+04</pdfrwt>
<pdfrwt beam="2">  1       -2 0.84865321E-01 0.13272422E+04</pdfrwt>
<totfact> 0.40879836E+01</totfact>
</mgrwt>
</event>
<event>
12    1  0.1506149E-007  0.1999216E+04  0.7818608E-02  0.8606987E-01
          2   -1    0    0  501    0  0.00000000000E+00  0.00000000000E+00  0.84336628313E+03  0.84336628313E+03  0.00000000000E+00 0. -1.
         -2   -1    0    0    0  501 -0.00000000000E+00 -0.00000000000E+00 -0.11847951867E+04  0.11847951867E+04  0.00000000000E+00 0.  1.
         23    2    1    2    0    0  0.58332080234E+03  0.52875445195E+03 -0.22422673351E+03  0.82302144100E+03  0.85101324423E+02 0.  0.
        254    2    1    2    0    0 -0.58332080234E+03 -0.52875445195E+03 -0.11720217008E+03  0.12051400288E+04  0.90486557651E+03 0.  0.
        -24    2    4    4    0    0 -0.63482387991E+03 -0.72141922406E+03 -0.18067231912E+03  0.98104811821E+03  0.79786389846E+02 0.  0.
         24    2    4    4    0    0  0.51503077571E+02  0.19266477211E+03  0.63470149035E+02  0.22409191063E+03  0.80102703959E+02 0.  0.
         11    1    3    3    0    0  0.42717466631E+02  0.37238880662E+02 -0.40434127765E+02  0.69616340584E+02  0.00000000000E+00 0.  1.
        -11    1    3    3    0    0  0.54060333571E+03  0.49151557129E+03 -0.18379260574E+03  0.75340510041E+03  0.00000000000E+00 0. -1.
          2    1    6    6  502    0  0.18426226299E+02  0.31248691801E+01  0.18925917715E+02  0.26598514702E+02  0.00000000000E+00 0. -1.
          1    1    5    5  503    0 -0.84243755910E+01 -0.11748921004E+02 -0.13582760229E+02  0.19836799750E+02  0.00000000000E+00 0. -1.
         -2    1    5    5    0  503 -0.62639950432E+03 -0.70967030306E+03 -0.16708955889E+03  0.96121131846E+03  0.00000000000E+00 0.  1.
         -1    1    6    6    0  502  0.33076851273E+02  0.18953990293E+03  0.44544231320E+02  0.19749339593E+03  0.00000000000E+00 0.  1.
<mgrwt>
<rscale>  0 0.19992162E+04</rscale>
<asrwt>0</asrwt>
<pdfrwt beam="1">  1        2 0.12974866E+00 0.19992162E+04</pdfrwt>
<pdfrwt beam="2">  1       -2 0.18227618E+00 0.19992162E+04</pdfrwt>
<totfact> 0.52106467E+00</totfact>
</mgrwt>
</event>
<event>
12    1  0.1506149E-007  0.1825090E+04  0.7818608E-02  0.8693070E-01
         -2   -1    0    0    0  501 -0.00000000000E+00  0.00000000000E+00  0.10952669629E+04  0.10952669629E+04  0.00000000000E+00 0.  1.
          2   -1    0    0  501    0  0.00000000000E+00 -0.00000000000E+00 -0.76030620078E+03  0.76030620078E+03  0.00000000000E+00 0. -1.
         23    2    1    2    0    0  0.36611885406E+03  0.17066421428E+03 -0.43426144770E+03  0.60002351899E+03  0.90972133375E+02 0.  0.
        254    2    1    2    0    0 -0.36611885406E+03 -0.17066421428E+03  0.76922220981E+03  0.12555496447E+04  0.90638447298E+03 0.  0.
        -24    2    4    4    0    0 -0.63812036436E+03 -0.26268114217E+03  0.54003313120E+03  0.87991457811E+03  0.80093071610E+02 0.  0.
         24    2    4    4    0    0  0.27200151030E+03  0.92016927895E+02  0.22918907861E+03  0.37563506656E+03  0.78244059559E+02 0.  0.
         13    1    3    3    0    0  0.71916126374E+02  0.37671233425E+02 -0.40221868515E+02  0.90602702869E+02  0.00000000000E+00 0.  1.
        -13    1    3    3    0    0  0.29420272769E+03  0.13299298085E+03 -0.39403957918E+03  0.50942081612E+03  0.00000000000E+00 0. -1.
          4    1    6    6  502    0  0.19958309836E+03  0.80789641676E+02  0.20794335652E+03  0.29933395877E+03  0.00000000000E+00 0. -1.
          3    1    5    5  503    0 -0.50062920600E+03 -0.19623899416E+03  0.37813416982E+03  0.65736199701E+03  0.00000000000E+00 0. -1.
         -4    1    5    5    0  503 -0.13749115836E+03 -0.66442148013E+02  0.16189896138E+03  0.22255258110E+03  0.00000000000E+00 0.  1.
         -3    1    6    6    0  502  0.72418411940E+02  0.11227286219E+02  0.21245722090E+02  0.76301107796E+02  0.00000000000E+00 0.  1.
<mgrwt>
<rscale>  0 0.18250899E+04</rscale>
<asrwt>0</asrwt>
<pdfrwt beam="1">  1        2 0.11697018E+00 0.18250899E+04</pdfrwt>
<pdfrwt beam="2">  1       -2 0.16850261E+00 0.18250899E+04</pdfrwt>
<totfact> 0.75777044E+00</totfact>
</mgrwt>
</event>
<event>
12    1  0.1506149E-007  0.1480561E+04  0.7818608E-02  0.8897483E-01
         -1   -1    0    0    0  501 -0.00000000000E+00  0.00000000000E+00  0.29462345977E+03  0.29462345977E+03  0.00000000000E+00 0.  1.
          1   -1    0    0  501    0  0.00000000000E+00 -0.00000000000E+00 -0.18600536566E+04  0.18600536566E+04  0.00000000000E+00 0. -1.
         23    2    1    2    0    0  0.21278776187E+03  0.35803274736E+03 -0.17629237344E+03  0.46047072129E+03  0.86534411932E+02 0.  0.
        254    2    1    2    0    0 -0.21278776187E+03 -0.35803274736E+03 -0.13891378234E+04  0.16942063950E+04  0.87587975027E+03 0.  0.
        -24    2    4    4    0    0 -0.21187748913E+03 -0.14007930963E+03 -0.14330032903E+04  0.14574333412E+04  0.78097571950E+02 0.  0.
         24    2    4    4    0    0 -0.91027273580E+00 -0.21795343773E+03  0.43865466943E+02  0.23677305380E+03  0.81441820979E+02 0.  0.
         13    1    3    3    0    0  0.18697009373E+03  0.32731376172E+03 -0.12892008965E+03  0.39838737941E+03  0.00000000000E+00 0.  1.
        -13    1    3    3    0    0  0.25817668140E+02  0.30718985640E+02 -0.47372283792E+02  0.62083341877E+02  0.00000000000E+00 0. -1.
          4    1    6    6  502    0  0.31096636581E+02 -0.15102884337E+03  0.80804907059E+01  0.15440857057E+03  0.00000000000E+00 0. -1.
          1    1    5    5  503    0 -0.15688870807E+03 -0.62581731806E+02 -0.83308866152E+03  0.85003956251E+03  0.00000000000E+00 0. -1.
         -2    1    5    5    0  503 -0.54988781062E+02 -0.77497577829E+02 -0.59991462878E+03  0.60739377873E+03  0.00000000000E+00 0.  1.
         -3    1    6    6    0  502 -0.32006909317E+02 -0.66924594361E+02  0.35784976237E+02  0.82364483235E+02  0.00000000000E+00 0.  1.
<mgrwt>
<rscale>  0 0.14805613E+04</rscale>
<asrwt>0</asrwt>
<pdfrwt beam="1">  1        1 0.28616210E+00 0.14805613E+04</pdfrwt>
<pdfrwt beam="2">  1       -1 0.45326686E-01 0.14805613E+04</pdfrwt>
<totfact> 0.17366557E+01</totfact>
</mgrwt>
</event>
<event>
12    1  0.1506149E-007  0.2863797E+04  0.7818608E-02  0.8283731E-01
         -2   -1    0    0    0  501 -0.00000000000E+00  0.00000000000E+00  0.70910888534E+03  0.70910888534E+03  0.00000000000E+00 0.  1.
          2   -1    0    0  501    0  0.00000000000E+00 -0.00000000000E+00 -0.28914224642E+04  0.28914224642E+04  0.00000000000E+00 0. -1.
         23    2    1    2    0    0 -0.40542124792E+03  0.98818035645E+03 -0.18954715264E+04  0.21774470585E+04  0.87158363459E+02 0.  0.
        254    2    1    2    0    0  0.40542124792E+03 -0.98818035645E+03 -0.28684205249E+03  0.14230842910E+04  0.89555777653E+03 0.  0.
        -24    2    4    4    0    0  0.40993654631E+02 -0.26975395940E+03 -0.50979795874E+03  0.58368678968E+03  0.79678299338E+02 0.  0.
         24    2    4    4    0    0  0.36442759329E+03 -0.71842639705E+03  0.22295590626E+03  0.83939750132E+03  0.77038109792E+02 0.  0.
         13    1    3    3    0    0 -0.32922773090E+02  0.89264078964E+02 -0.22417986702E+03  0.24353356557E+03  0.00000000000E+00 0.  1.
        -13    1    3    3    0    0 -0.37249847483E+03  0.89891627748E+03 -0.16712916593E+04  0.19339134930E+04  0.00000000000E+00 0. -1.
          4    1    6    6  502    0  0.23408167534E+02 -0.92912676732E+02  0.13157573368E+02  0.96715198091E+02  0.00000000000E+00 0. -1.
          1    1    5    5  503    0 -0.22111918335E+02 -0.78770375770E+02 -0.12315012559E+03  0.14785013515E+03  0.00000000000E+00 0. -1.
         -2    1    5    5    0  503  0.63105572966E+02 -0.19098358363E+03 -0.38664783315E+03  0.43583665453E+03  0.00000000000E+00 0.  1.
         -3    1    6    6    0  502  0.34101942575E+03 -0.62551372032E+03  0.20979833289E+03  0.74268230323E+03  0.00000000000E+00 0.  1.
<mgrwt>
<rscale>  0 0.28637970E+04</rscale>
<asrwt>0</asrwt>
<pdfrwt beam="1">  1        2 0.44483422E+00 0.28637970E+04</pdfrwt>
<pdfrwt beam="2">  1       -2 0.10909368E+00 0.28637970E+04</pdfrwt>
<totfact> 0.11794720E+00</totfact>
</mgrwt>
</event>
<event>
12    1  0.1506149E-007  0.1411311E+04  0.7818608E-02  0.8945672E-01
         -1   -1    0    0    0  501 -0.00000000000E+00  0.00000000000E+00  0.88500904389E+03  0.88500904389E+03  0.00000000000E+00 0.  1.
          1   -1    0    0  501    0  0.00000000000E+00 -0.00000000000E+00 -0.56264920874E+03  0.56264920874E+03  0.00000000000E+00 0. -1.
         23    2    1    2    0    0 -0.53287014008E+02  0.52738035995E+02  0.52675989756E+03  0.53817603256E+03  0.80849527149E+02 0.  0.
        254    2    1    2    0    0  0.53287014008E+02 -0.52738035995E+02 -0.20440006242E+03  0.90948222007E+03  0.88303891013E+03 0.  0.
        -24    2    4    4    0    0 -0.18405803768E+03 -0.40624109150E+03 -0.11504955185E+03  0.46728805440E+03  0.78819672380E+02 0.  0.
         24    2    4    4    0    0  0.23734505169E+03  0.35350305550E+03 -0.89350510570E+02  0.44219416567E+03  0.79089080171E+02 0.  0.
         11    1    3    3    0    0  0.99055855414E+01 -0.14675256887E+02  0.74720320761E+02  0.76789388096E+02  0.00000000000E+00 0. -1.
        -11    1    3    3    0    0 -0.63192599550E+02  0.67413292882E+02  0.45203957680E+03  0.46138664446E+03  0.00000000000E+00 0.  1.
          4    1    6    6  502    0  0.21979367521E+03  0.33732886431E+03 -0.10178299200E+03  0.41528279500E+03  0.00000000000E+00 0. -1.
          3    1    5    5  503    0 -0.10873054463E+03 -0.22296968486E+03 -0.10353058803E+03  0.26880549540E+03  0.00000000000E+00 0. -1.
         -4    1    5    5    0  503 -0.75327493054E+02 -0.18327140664E+03 -0.11518963817E+02  0.19848255900E+03  0.00000000000E+00 0.  1.
         -3    1    6    6    0  502  0.17551376479E+02  0.16174191187E+02  0.12432481428E+02  0.26911370670E+02  0.00000000000E+00 0.  1.
<mgrwt>
<rscale>  0 0.14113109E+04</rscale>
<asrwt>0</asrwt>
<pdfrwt beam="1">  1        1 0.86561417E-01 0.14113109E+04</pdfrwt>
<pdfrwt beam="2">  1       -1 0.13615524E+00 0.14113109E+04</pdfrwt>
<totfact> 0.16492881E+01</totfact>
</mgrwt>
</event>
<event>
12    1  0.1506149E-007  0.1437718E+04  0.7818608E-02  0.8926960E-01
         -3   -1    0    0    0  501 -0.00000000000E+00  0.00000000000E+00  0.17736933189E+04  0.17736933189E+04  0.00000000000E+00 0.  1.
          3   -1    0    0  501    0  0.00000000000E+00 -0.00000000000E+00 -0.29134593742E+03  0.29134593742E+03  0.00000000000E+00 0. -1.
         23    2    1    2    0    0  0.16112105411E+02 -0.25254191137E+03 -0.30713492179E+02  0.27089056729E+03  0.91658954329E+02 0.  0.
        254    2    1    2    0    0 -0.16112105411E+02  0.25254191137E+03  0.15130608736E+04  0.17941486890E+04  0.93036514016E+03 0.  0.
        -24    2    4    4    0    0 -0.30897844120E+03 -0.99012203337E+02  0.11697375208E+04  0.12165265644E+04  0.79874407360E+02 0.  0.
         24    2    4    4    0    0  0.29286633579E+03  0.35155411470E+03  0.34332335287E+03  0.57762212458E+03  0.80096241958E+02 0.  0.
         11    1    3    3    0    0  0.13144650519E+02 -0.23582003395E+03 -0.44892558721E+00  0.23618651906E+03  0.00000000000E+00 0. -1.
        -11    1    3    3    0    0  0.29674548928E+01 -0.16721877412E+02 -0.30264566592E+02  0.34704048233E+02  0.00000000000E+00 0.  1.
          4    1    6    6  502    0  0.16494101064E+03  0.25419802551E+03  0.20866250202E+03  0.36791604058E+03  0.00000000000E+00 0. -1.
          3    1    5    5  503    0 -0.82560444162E+02 -0.52482024657E+02  0.45278642964E+03  0.46323443386E+03  0.00000000000E+00 0. -1.
         -4    1    5    5    0  503 -0.22641799704E+03 -0.46530178679E+02  0.71695109112E+03  0.75329213056E+03  0.00000000000E+00 0.  1.
         -3    1    6    6    0  502  0.12792532514E+03  0.97356089197E+02  0.13466085085E+03  0.20970608400E+03  0.00000000000E+00 0.  1.
<mgrwt>
<rscale>  0 0.14377181E+04</rscale>
<asrwt>0</asrwt>
<pdfrwt beam="1">  1        3 0.44822453E-01 0.14377181E+04</pdfrwt>
<pdfrwt beam="2">  1       -3 0.27287589E+00 0.14377181E+04</pdfrwt>
<totfact> 0.68316156E-01</totfact>
</mgrwt>
</event>
<event>
12    1  0.1506149E-007  0.1672305E+04  0.7818608E-02  0.8777319E-01
          1   -1    0    0  501    0  0.00000000000E+00  0.00000000000E+00  0.11340728469E+04  0.11340728469E+04  0.00000000000E+00 0. -1.
         -1   -1    0    0    0  501 -0.00000000000E+00 -0.00000000000E+00 -0.61649596564E+03  0.61649596564E+03  0.00000000000E+00 0.  1.
         23    2    1    2    0    0  0.41016588815E+03  0.20250876099E+03  0.57421987693E+03  0.73991309053E+03  0.92179500943E+02 0.  0.
        254    2    1    2    0    0 -0.41016588815E+03 -0.20250876099E+03 -0.56642995639E+02  0.10106557220E+04  0.89942798793E+03 0.  0.
        -24    2    4    4    0    0 -0.34344945378E+03  0.30587425982E+03  0.81495548469E+02  0.47357367119E+03  0.78191479784E+02 0.  0.
         24    2    4    4    0    0 -0.66716434378E+02 -0.50838302081E+03 -0.13813854411E+03  0.53708205085E+03  0.80439377907E+02 0.  0.
         11    1    3    3    0    0  0.37140713674E+02  0.31629505811E+01  0.18682092646E+02  0.41694813277E+02  0.00000000000E+00 0.  1.
        -11    1    3    3    0    0  0.37302517448E+03  0.19934581041E+03  0.55553778428E+03  0.69821827725E+03  0.00000000000E+00 0. -1.
          4    1    6    6  502    0 -0.18002889047E+02 -0.15764879973E+02 -0.81369503128E+01  0.25275391490E+02  0.00000000000E+00 0. -1.
          1    1    5    5  503    0 -0.40274089130E+02  0.58112570219E+02  0.36179386705E+02  0.79423051408E+02  0.00000000000E+00 0. -1.
         -2    1    5    5    0  503 -0.30317536465E+03  0.24776168960E+03  0.45316161765E+02  0.39415061979E+03  0.00000000000E+00 0.  1.
         -3    1    6    6    0  502 -0.48713545331E+02 -0.49261814083E+03 -0.13000159380E+03  0.51180665936E+03  0.00000000000E+00 0.  1.
<mgrwt>
<rscale>  0 0.16723054E+04</rscale>
<asrwt>0</asrwt>
<pdfrwt beam="1">  1        1 0.17447275E+00 0.16723054E+04</pdfrwt>
<pdfrwt beam="2">  1       -1 0.94845533E-01 0.16723054E+04</pdfrwt>
<totfact> 0.12255489E+01</totfact>
</mgrwt>
</event>
<event>
12    1  0.1506149E-007  0.1200667E+04  0.7818608E-02  0.9112272E-01
          1   -1    0    0  501    0  0.00000000000E+00  0.00000000000E+00  0.26547203678E+03  0.26547203678E+03  0.00000000000E+00 0. -1.
         -1   -1    0    0    0  501 -0.00000000000E+00 -0.00000000000E+00 -0.13575840346E+04  0.13575840346E+04  0.00000000000E+00 0.  1.
         23    2    1    2    0    0  0.51445101162E+02 -0.25560899890E+03 -0.38215094868E+03  0.47053457981E+03  0.85912074038E+02 0.  0.
        254    2    1    2    0    0 -0.51445101162E+02  0.25560899890E+03 -0.70996104916E+03  0.11525214916E+04  0.86964276487E+03 0.  0.
        -24    2    4    4    0    0  0.77377159294E+02  0.54051042020E+03 -0.58855070036E+03  0.80663829094E+03  0.78324111092E+02 0.  0.
         24    2    4    4    0    0 -0.12882226046E+03 -0.28490142130E+03 -0.12141034880E+03  0.34588320065E+03  0.84443596847E+02 0.  0.
         13    1    3    3    0    0  0.28855285323E+02 -0.13987854716E+03 -0.13422881848E+03  0.19600002847E+03  0.00000000000E+00 0. -1.
        -13    1    3    3    0    0  0.22589815839E+02 -0.11573045174E+03 -0.24792213020E+03  0.27453455134E+03  0.00000000000E+00 0.  1.
          2    1    6    6  502    0 -0.57260543238E+02 -0.21478706202E+03 -0.98372836029E+02  0.24308325054E+03  0.00000000000E+00 0. -1.
          3    1    5    5  503    0  0.25766351890E+02  0.39658426579E+03 -0.44912309369E+03  0.59971204595E+03  0.00000000000E+00 0. -1.
         -2    1    5    5    0  503  0.51610807404E+02  0.14392615441E+03 -0.13942760667E+03  0.20692624499E+03  0.00000000000E+00 0.  1.
         -1    1    6    6    0  502 -0.71561717219E+02 -0.70114359277E+02 -0.23037512771E+02  0.10279995011E+03  0.00000000000E+00 0.  1.
<mgrwt>
<rscale>  0 0.12006675E+04</rscale>
<asrwt>0</asrwt>
<pdfrwt beam="1">  1        1 0.40841852E-01 0.12006675E+04</pdfrwt>
<pdfrwt beam="2">  1       -1 0.20885908E+00 0.12006675E+04</pdfrwt>
<totfact> 0.13327395E+01</totfact>
</mgrwt>
</event>
<event>
12    1  0.1506149E-007  0.1781601E+04  0.7818608E-02  0.8716145E-01
         -2   -1    0    0    0  501 -0.00000000000E+00  0.00000000000E+00  0.43407508556E+03  0.43407508556E+03  0.00000000000E+00 0.  1.
          2   -1    0    0  501    0  0.00000000000E+00 -0.00000000000E+00 -0.18280835677E+04  0.18280835677E+04  0.00000000000E+00 0. -1.
         23    2    1    2    0    0  0.43146510029E+03 -0.31818613826E+03 -0.10059513496E+04  0.11434571138E+04  0.90285669753E+02 0.  0.
        254    2    1    2    0    0 -0.43146510029E+03  0.31818613826E+03 -0.38805713260E+03  0.11187015394E+04  0.90194248423E+03 0.  0.
        -24    2    4    4    0    0 -0.28475818668E+03  0.57308208109E+03 -0.47562889943E+03  0.80133020738E+03  0.79980964802E+02 0.  0.
         24    2    4    4    0    0 -0.14670691360E+03 -0.25489594283E+03  0.87571766829E+02  0.31737133207E+03  0.80999308049E+02 0.  0.
         11    1    3    3    0    0  0.24920588182E+03 -0.21290734501E+03 -0.53192059046E+03  0.62479806630E+03  0.00000000000E+00 0. -1.
        -11    1    3    3    0    0  0.18225921847E+03 -0.10527879325E+03 -0.47403075911E+03  0.51865904755E+03  0.00000000000E+00 0.  1.
          2    1    6    6  502    0 -0.78549018499E+02 -0.12464478101E+03  0.21450842544E+01  0.14734609301E+03  0.00000000000E+00 0. -1.
          1    1    5    5  503    0 -0.19764348681E+03  0.40640350740E+03 -0.28927774922E+03  0.53657094116E+03  0.00000000000E+00 0. -1.
         -2    1    5    5    0  503 -0.87114699875E+02  0.16667857369E+03 -0.18635115022E+03  0.26475926622E+03  0.00000000000E+00 0.  1.
         -1    1    6    6    0  502 -0.68157895106E+02 -0.13025116182E+03  0.85426682574E+02  0.17002523906E+03  0.00000000000E+00 0.  1.
<mgrwt>
<rscale>  0 0.17816010E+04</rscale>
<asrwt>0</asrwt>
<pdfrwt beam="1">  1        2 0.28124363E+00 0.17816010E+04</pdfrwt>
<pdfrwt beam="2">  1       -2 0.66780783E-01 0.17816010E+04</pdfrwt>
<totfact> 0.16206961E+01</totfact>
</mgrwt>
</event>
<event>
12    1  0.1506149E-007  0.1512920E+04  0.7818608E-02  0.8875907E-01
          2   -1    0    0  501    0  0.00000000000E+00  0.00000000000E+00  0.16321315004E+04  0.16321315004E+04  0.00000000000E+00 0. -1.
         -2   -1    0    0    0  501 -0.00000000000E+00 -0.00000000000E+00 -0.35060390470E+03  0.35060390470E+03  0.00000000000E+00 0.  1.
         23    2    1    2    0    0 -0.30048638635E+00  0.17155958079E+03  0.10051465351E+04  0.10238955588E+04  0.92788890559E+02 0.  0.
        254    2    1    2    0    0  0.30048638635E+00 -0.17155958079E+03  0.27638106058E+03  0.95883984631E+03  0.90197260500E+03 0.  0.
        -24    2    4    4    0    0  0.31454100400E+03  0.18300194634E+03  0.29926596150E+03  0.47773077746E+03  0.78998888964E+02 0.  0.
         24    2    4    4    0    0 -0.31424051761E+03 -0.35456152712E+03 -0.22884900920E+02  0.48110906885E+03  0.80506136514E+02 0.  0.
         13    1    3    3    0    0  0.37778050380E+02  0.14085504704E+03  0.72744971214E+03  0.74192345229E+03  0.00000000000E+00 0. -1.
        -13    1    3    3    0    0 -0.38078536767E+02  0.30704533747E+02  0.27769682295E+03  0.28197210648E+03  0.00000000000E+00 0.  1.
          2    1    6    6  502    0 -0.16662131742E+03 -0.13255329737E+03  0.55688896845E+01  0.21298838606E+03  0.00000000000E+00 0. -1.
          3    1    5    5  503    0  0.28592446679E+03  0.13462439135E+03  0.24931511801E+03  0.40253516061E+03  0.00000000000E+00 0. -1.
         -4    1    5    5    0  503  0.28616537206E+02  0.48377554983E+02  0.49950843486E+02  0.75195616845E+02  0.00000000000E+00 0.  1.
         -1    1    6    6    0  502 -0.14761920019E+03 -0.22200822975E+03 -0.28453790604E+02  0.26812068279E+03  0.00000000000E+00 0.  1.
<mgrwt>
<rscale>  0 0.15129199E+04</rscale>
<asrwt>0</asrwt>
<pdfrwt beam="1">  1        2 0.25109715E+00 0.15129199E+04</pdfrwt>
<pdfrwt beam="2">  1       -2 0.53939063E-01 0.15129199E+04</pdfrwt>
<totfact> 0.33430805E+01</totfact>
</mgrwt>
</event>
<event>
12    1  0.1506149E-007  0.2106682E+04  0.7818608E-02  0.8558306E-01
         -2   -1    0    0    0  501 -0.00000000000E+00  0.00000000000E+00  0.38219352560E+03  0.38219352560E+03  0.00000000000E+00 0.  1.
          2   -1    0    0  501    0  0.00000000000E+00 -0.00000000000E+00 -0.29030506298E+04  0.29030506298E+04  0.00000000000E+00 0. -1.
         23    2    1    2    0    0 -0.23750713141E+03 -0.35252479993E+03  0.12435547823E+03  0.45824266392E+03  0.11763792771E+03 0.  0.
        254    2    1    2    0    0  0.23750713141E+03  0.35252479993E+03 -0.26452125824E+04  0.28270014915E+04  0.90227737117E+03 0.  0.
        -24    2    4    4    0    0  0.13028345946E+03  0.52774817739E+03 -0.81000534346E+03  0.97884000928E+03  0.80791019315E+02 0.  0.
         24    2    4    4    0    0  0.10722367195E+03 -0.17522337746E+03 -0.18352072390E+04  0.18481614822E+04  0.74263762647E+02 0.  0.
         13    1    3    3    0    0 -0.17292408106E+03 -0.26939835744E+03  0.14423580355E+03  0.35111562174E+03  0.00000000000E+00 0.  1.
        -13    1    3    3    0    0 -0.64583050341E+02 -0.83126442483E+02 -0.19880325314E+02  0.10712704218E+03  0.00000000000E+00 0. -1.
          4    1    6    6  502    0 -0.54120496278E+01 -0.16954628013E+02 -0.67288565644E+02  0.69602447936E+02  0.00000000000E+00 0. -1.
          1    1    5    5  503    0 -0.43453225590E+01  0.10216118586E+03 -0.17409222916E+03  0.20190070327E+03  0.00000000000E+00 0. -1.
         -2    1    5    5    0  503  0.13462878201E+03  0.42558699152E+03 -0.63591311430E+03  0.77693930602E+03  0.00000000000E+00 0.  1.
         -3    1    6    6    0  502  0.11263572158E+03 -0.15826874945E+03 -0.17679186733E+04  0.17785590343E+04  0.00000000000E+00 0.  1.
<mgrwt>
<rscale>  0 0.21066819E+04</rscale>
<asrwt>0</asrwt>
<pdfrwt beam="1">  1        2 0.44662316E+00 0.21066819E+04</pdfrwt>
<pdfrwt beam="2">  1       -2 0.58799006E-01 0.21066819E+04</pdfrwt>
<totfact> 0.49869674E+00</totfact>
</mgrwt>
</event>
<event>
12    1  0.1506149E-007  0.1331314E+04  0.7818608E-02  0.9005095E-01
          2   -1    0    0  501    0  0.00000000000E+00  0.00000000000E+00  0.19181650766E+04  0.19181650766E+04  0.00000000000E+00 0. -1.
         -2   -1    0    0    0  501 -0.00000000000E+00 -0.00000000000E+00 -0.23100167229E+03  0.23100167229E+03  0.00000000000E+00 0.  1.
         23    2    1    2    0    0  0.32831299145E+03 -0.18419687617E+03  0.62398114819E+03  0.73445619711E+03  0.91408547939E+02 0.  0.
        254    2    1    2    0    0 -0.32831299145E+03  0.18419687617E+03  0.10631822561E+04  0.14147105517E+04  0.85400909012E+03 0.  0.
        -24    2    4    4    0    0 -0.17718355100E+03  0.22692689823E+03  0.11707135399E+04  0.12087559279E+04  0.87354867774E+02 0.  0.
         24    2    4    4    0    0 -0.15112944045E+03 -0.42730022066E+02 -0.10753128381E+03  0.20595462382E+03  0.78666177741E+02 0.  0.
         11    1    3    3    0    0  0.32222787028E+03 -0.17241102364E+03  0.55708854405E+03  0.66626121556E+03  0.00000000000E+00 0. -1.
        -11    1    3    3    0    0  0.60851211722E+01 -0.11785852527E+02  0.66892604139E+02  0.68194981546E+02  0.00000000000E+00 0.  1.
          2    1    6    6  502    0  0.85933935413E+01  0.35809457281E+01 -0.47003143624E+01  0.10428928035E+02  0.00000000000E+00 0. -1.
          1    1    5    5  503    0 -0.78512167326E+02  0.38203938853E+02  0.37580736899E+03  0.38581715870E+03  0.00000000000E+00 0. -1.
         -2    1    5    5    0  503 -0.98671383676E+02  0.18872295938E+03  0.79490617089E+03  0.82293876921E+03  0.00000000000E+00 0.  1.
         -1    1    6    6    0  502 -0.15972283399E+03 -0.46310967794E+02 -0.10283096944E+03  0.19552569579E+03  0.00000000000E+00 0.  1.
<mgrwt>
<rscale>  0 0.13313141E+04</rscale>
<asrwt>0</asrwt>
<pdfrwt beam="1">  1        2 0.29510231E+00 0.13313141E+04</pdfrwt>
<pdfrwt beam="2">  1       -2 0.35538720E-01 0.13313141E+04</pdfrwt>
<totfact> 0.54008455E+01</totfact>
</mgrwt>
</event>
<event>
12    1  0.1506149E-007  0.1188008E+04  0.7818608E-02  0.9123418E-01
          2   -1    0    0  501    0  0.00000000000E+00  0.00000000000E+00  0.11730122181E+04  0.11730122181E+04  0.00000000000E+00 0. -1.
         -2   -1    0    0    0  501 -0.00000000000E+00 -0.00000000000E+00 -0.30079907753E+03  0.30079907753E+03  0.00000000000E+00 0.  1.
         23    2    1    2    0    0 -0.51418215910E+02 -0.22129391410E+03  0.15299769391E+03  0.28891623977E+03  0.91920998243E+02 0.  0.
        254    2    1    2    0    0  0.51418215910E+02  0.22129391410E+03  0.71921544663E+03  0.11848950558E+04  0.91383291980E+03 0.  0.
        -24    2    4    4    0    0 -0.72314577017E+02 -0.13234880985E+03  0.77873592647E+03  0.79733063564E+03  0.80999344631E+02 0.  0.
         24    2    4    4    0    0  0.12373279293E+03  0.35364272395E+03 -0.59520479839E+02  0.38756442019E+03  0.79312748191E+02 0.  0.
         13    1    3    3    0    0 -0.47224867459E+02 -0.20575551246E+03  0.16573558149E+03  0.26839113619E+03  0.00000000000E+00 0. -1.
        -13    1    3    3    0    0 -0.41933484513E+01 -0.15538401637E+02 -0.12737887586E+02  0.20525103577E+02  0.00000000000E+00 0.  1.
          4    1    6    6  502    0  0.74911235179E+02  0.28762315986E+03 -0.24271661723E+02  0.29820779468E+03  0.00000000000E+00 0. -1.
          1    1    5    5  503    0 -0.78463422929E+02 -0.11556004161E+03  0.53479320150E+03  0.55273357083E+03  0.00000000000E+00 0. -1.
         -2    1    5    5    0  503  0.61488459125E+01 -0.16788768247E+02  0.24394272497E+03  0.24459706480E+03  0.00000000000E+00 0.  1.
         -3    1    6    6    0  502  0.48821557748E+02  0.66019564089E+02 -0.35248818116E+02  0.89356625507E+02  0.00000000000E+00 0.  1.
<mgrwt>
<rscale>  0 0.11880084E+04</rscale>
<asrwt>0</asrwt>
<pdfrwt beam="1">  1        2 0.18046342E+00 0.11880084E+04</pdfrwt>
<pdfrwt beam="2">  1       -2 0.46276782E-01 0.11880084E+04</pdfrwt>
<totfact> 0.85924081E+01</totfact>
</mgrwt>
</event>
<event>
12    1  0.1506149E-007  0.2146577E+04  0.7818608E-02  0.8540999E-01
          4   -1    0    0  501    0  0.00000000000E+00  0.00000000000E+00  0.13115016255E+04  0.13115016255E+04  0.00000000000E+00 0. -1.
         -4   -1    0    0    0  501 -0.00000000000E+00 -0.00000000000E+00 -0.87834326276E+03  0.87834326276E+03  0.00000000000E+00 0.  1.
         23    2    1    2    0    0 -0.73076830254E+03 -0.48001478317E+03  0.13627646121E+03  0.88948751277E+03  0.90444775566E+02 0.  0.
        254    2    1    2    0    0  0.73076830254E+03  0.48001478317E+03  0.29688190157E+03  0.13003573755E+04  0.91561669739E+03 0.  0.
        -24    2    4    4    0    0  0.60441040039E+03  0.32574394672E+02  0.49760390799E+03  0.78756197027E+03  0.79190810553E+02 0.  0.
         24    2    4    4    0    0  0.12635790215E+03  0.44744038850E+03 -0.20072200643E+03  0.51279540525E+03  0.80626193577E+02 0.  0.
         11    1    3    3    0    0 -0.53714314018E+03 -0.35302960590E+03  0.59400843262E+02  0.64550841657E+03  0.00000000000E+00 0. -1.
        -11    1    3    3    0    0 -0.19362516236E+03 -0.12698517727E+03  0.76875617943E+02  0.24397909619E+03  0.00000000000E+00 0.  1.
          2    1    6    6  502    0  0.22273408719E+02  0.21845153307E+03 -0.10809572279E+03  0.24474856960E+03  0.00000000000E+00 0. -1.
          3    1    5    5  503    0  0.43128042206E+03  0.58780095771E+02  0.34919572487E+03  0.55802827561E+03  0.00000000000E+00 0. -1.
         -4    1    5    5    0  503  0.17312997833E+03 -0.26205701099E+02  0.14840818312E+03  0.22953369466E+03  0.00000000000E+00 0.  1.
         -1    1    6    6    0  502  0.10408449343E+03  0.22898885542E+03 -0.92626283640E+02  0.26804683565E+03  0.00000000000E+00 0.  1.
<mgrwt>
<rscale>  0 0.21465774E+04</rscale>
<asrwt>0</asrwt>
<pdfrwt beam="1">  1        4 0.20176948E+00 0.21465774E+04</pdfrwt>
<pdfrwt beam="2">  1       -4 0.13512973E+00 0.21465774E+04</pdfrwt>
<totfact> 0.92098238E-02</totfact>
</mgrwt>
</event>
<event>
12    1  0.1506149E-007  0.1297459E+04  0.7818608E-02  0.9031582E-01
         -2   -1    0    0    0  501 -0.00000000000E+00  0.00000000000E+00  0.11333779547E+03  0.11333779547E+03  0.00000000000E+00 0.  1.
          2   -1    0    0  501    0  0.00000000000E+00 -0.00000000000E+00 -0.37132383841E+04  0.37132383841E+04  0.00000000000E+00 0. -1.
         23    2    1    2    0    0  0.22552562632E+03  0.22241927603E+03 -0.63726799756E+03  0.71370862766E+03  0.54197435535E+02 0.  0.
        254    2    1    2    0    0 -0.22552562632E+03 -0.22241927603E+03 -0.29626325910E+04  0.31128675519E+04  0.90134365453E+03 0.  0.
        -24    2    4    4    0    0 -0.72952458134E+02  0.24856299127E+03 -0.20811524908E+04  0.20987019706E+04  0.79048401076E+02 0.  0.
         24    2    4    4    0    0 -0.15257316818E+03 -0.47098226730E+03 -0.88148010024E+03  0.10141655813E+04  0.80136080151E+02 0.  0.
         13    1    3    3    0    0  0.19426811656E+03  0.21232569269E+03 -0.58538750484E+03  0.65230424781E+03  0.00000000000E+00 0. -1.
        -13    1    3    3    0    0  0.31257509756E+02  0.10093583338E+02 -0.51880492712E+02  0.61404379850E+02  0.00000000000E+00 0.  1.
          4    1    6    6  502    0 -0.96638416755E+02 -0.33113687976E+03 -0.68131904301E+03  0.76366632445E+03  0.00000000000E+00 0. -1.
          3    1    5    5  503    0 -0.28055295093E+02  0.14252290636E+03 -0.86518682179E+03  0.87729591075E+03  0.00000000000E+00 0. -1.
         -4    1    5    5    0  503 -0.44897163041E+02  0.10604008491E+03 -0.12159656690E+04  0.12214060599E+04  0.00000000000E+00 0.  1.
         -3    1    6    6    0  502 -0.55934751427E+02 -0.13984538754E+03 -0.20016105723E+03  0.25049925681E+03  0.00000000000E+00 0.  1.
<mgrwt>
<rscale>  0 0.12974594E+04</rscale>
<asrwt>0</asrwt>
<pdfrwt beam="1">  1        2 0.57126742E+00 0.12974594E+04</pdfrwt>
<pdfrwt beam="2">  1       -2 0.17436585E-01 0.12974594E+04</pdfrwt>
<totfact> 0.15587103E+01</totfact>
</mgrwt>
</event>
<event>
12    1  0.1506149E-007  0.1342973E+04  0.7818608E-02  0.8996164E-01
         -2   -1    0    0    0  501 -0.00000000000E+00  0.00000000000E+00  0.73265005932E+03  0.73265005932E+03  0.00000000000E+00 0.  1.
          2   -1    0    0  501    0  0.00000000000E+00 -0.00000000000E+00 -0.61542928095E+03  0.61542928095E+03  0.00000000000E+00 0. -1.
         23    2    1    2    0    0  0.33779309102E+03  0.91498958960E+02 -0.95945330841E+01  0.36210199129E+03  0.92463858897E+02 0.  0.
        254    2    1    2    0    0 -0.33779309102E+03 -0.91498958960E+02  0.12681531145E+03  0.98597734898E+03  0.91301313115E+03 0.  0.
        -24    2    4    4    0    0 -0.42051560470E+03 -0.41576783254E+03 -0.50521023701E+02  0.59914612434E+03  0.82020973543E+02 0.  0.
         24    2    4    4    0    0  0.82722513680E+02  0.32426887358E+03  0.17733633515E+03  0.38683122465E+03  0.78720416379E+02 0.  0.
         13    1    3    3    0    0  0.13525404953E+02 -0.14832282998E+02  0.44354889004E+01  0.20557401583E+02  0.00000000000E+00 0.  1.
        -13    1    3    3    0    0  0.32426768607E+03  0.10633124196E+03 -0.14030021985E+02  0.34154458971E+03  0.00000000000E+00 0. -1.
          2    1    6    6  502    0  0.37938867260E+02  0.64507689199E+02  0.69171553590E+02  0.10190830899E+03  0.00000000000E+00 0. -1.
          1    1    5    5  503    0 -0.14747056659E+03 -0.10306172073E+03 -0.37637271973E+02  0.18380927760E+03  0.00000000000E+00 0. -1.
         -4    1    5    5    0  503 -0.27304503811E+03 -0.31270611180E+03 -0.12883751728E+02  0.41533684673E+03  0.00000000000E+00 0.  1.
         -1    1    6    6    0  502  0.44783646420E+02  0.25976118438E+03  0.10816478156E+03  0.28492291566E+03  0.00000000000E+00 0.  1.
<mgrwt>
<rscale>  0 0.13429733E+04</rscale>
<asrwt>0</asrwt>
<pdfrwt beam="1">  1        2 0.94681428E-01 0.13429733E+04</pdfrwt>
<pdfrwt beam="2">  1       -2 0.11271539E+00 0.13429733E+04</pdfrwt>
<totfact> 0.29099483E+01</totfact>
</mgrwt>
</event>
<event>
12    1  0.1610800E-007  0.1996606E+04  0.7818608E-02  0.8608209E-01
         -2   -1    0    0    0  501 -0.00000000000E+00  0.00000000000E+00  0.89503106804E+03  0.89503106804E+03  0.00000000000E+00 0. -1.
          2   -1    0    0  501    0  0.00000000000E+00 -0.00000000000E+00 -0.11134908296E+04  0.11134908296E+04  0.00000000000E+00 0.  1.
         23    2    1    2    0    0  0.25539052353E+03  0.35838163781E+03 -0.74762986805E+03  0.87228132485E+03  0.90898692265E+02 0.  0.
        254    2    1    2    0    0 -0.25539052353E+03 -0.35838163781E+03  0.52917010645E+03  0.11362405728E+04  0.90407959823E+03 0.  0.
        -24    2    4    4    0    0 -0.39990259705E+03  0.13181164276E+03  0.51115507412E+02  0.43156468162E+03  0.79617102616E+02 0.  0.
         24    2    4    4    0    0  0.14451207353E+03 -0.49019328057E+03  0.47805459904E+03  0.70467589120E+03  0.82817391116E+02 0.  0.
         13    1    3    3    0    0  0.60525002124E+01  0.41451579211E+02 -0.40600959805E+02  0.58337844621E+02  0.00000000000E+00 0. -1.
        -13    1    3    3    0    0  0.24933802331E+03  0.31693005860E+03 -0.70702890825E+03  0.81394348023E+03  0.00000000000E+00 0.  1.
          4    1    6    6  502    0 -0.10489911823E+02 -0.19340579622E+02  0.19619482780E+02  0.29479151526E+02  0.00000000000E+00 0. -1.
          1    1    5    5  503    0 -0.49346334135E+02  0.58918661147E+01 -0.17740545178E+02  0.52768378051E+02  0.00000000000E+00 0. -1.
         -2    1    5    5    0  503 -0.35055626292E+03  0.12591977664E+03  0.68856052590E+02  0.37879630357E+03  0.00000000000E+00 0.  1.
         -3    1    6    6    0  502  0.15500198535E+03 -0.47085270094E+03  0.45843511626E+03  0.67519673967E+03  0.00000000000E+00 0.  1.
<mgrwt>
<rscale>  0 0.19966060E+04</rscale>
<asrwt>0</asrwt>
<pdfrwt beam="1">  1        2 0.17130628E+00 0.19966060E+04</pdfrwt>
<pdfrwt beam="2">  1       -2 0.13769709E+00 0.19966060E+04</pdfrwt>
<totfact> 0.74478732E+00</totfact>
</mgrwt>
</event>
<event>
12    1  0.1506149E-007  0.1759852E+04  0.7818608E-02  0.8727946E-01
          1   -1    0    0  501    0  0.00000000000E+00  0.00000000000E+00  0.59251030759E+03  0.59251030759E+03  0.00000000000E+00 0. -1.
         -1   -1    0    0    0  501 -0.00000000000E+00 -0.00000000000E+00 -0.13067620504E+04  0.13067620504E+04  0.00000000000E+00 0.  1.
         23    2    1    2    0    0  0.48681254281E+03 -0.33376561401E+03 -0.56999728108E+03  0.82560418758E+03  0.91320518980E+02 0.  0.
        254    2    1    2    0    0 -0.48681254281E+03  0.33376561401E+03 -0.14425446169E+03  0.10736681704E+04  0.88519379426E+03 0.  0.
        -24    2    4    4    0    0 -0.39385479500E+03 -0.13591466216E+03  0.20917788215E+03  0.47284077791E+03  0.78921606267E+02 0.  0.
         24    2    4    4    0    0 -0.92957747804E+02  0.46968027617E+03 -0.35343234384E+03  0.60082739245E+03  0.82694795161E+02 0.  0.
         11    1    3    3    0    0  0.13895968724E+03 -0.12868405145E+03 -0.13850277783E+03  0.23463247695E+03  0.00000000000E+00 0. -1.
        -11    1    3    3    0    0  0.34785285556E+03 -0.20508156256E+03 -0.43149450325E+03  0.59097171063E+03  0.00000000000E+00 0.  1.
          4    1    6    6  502    0  0.14316751906E+02  0.39610928378E+02 -0.23180282276E+02  0.48076194925E+02  0.00000000000E+00 0. -1.
          1    1    5    5  503    0 -0.38887471917E+02  0.75441279730E+01  0.82643823440E+01  0.40465409358E+02  0.00000000000E+00 0. -1.
         -2    1    5    5    0  503 -0.35496732309E+03 -0.14345879013E+03  0.20091349980E+03  0.43237536855E+03  0.00000000000E+00 0.  1.
         -3    1    6    6    0  502 -0.10727449971E+03  0.43006934779E+03 -0.33025206156E+03  0.55275119753E+03  0.00000000000E+00 0.  1.
<mgrwt>
<rscale>  0 0.17598522E+04</rscale>
<asrwt>0</asrwt>
<pdfrwt beam="1">  1        1 0.91155432E-01 0.17598522E+04</pdfrwt>
<pdfrwt beam="2">  1       -1 0.20104031E+00 0.17598522E+04</pdfrwt>
<totfact> 0.48875803E+00</totfact>
</mgrwt>
</event>
<event>
12    1  0.1506149E-007  0.1153372E+04  0.7818608E-02  0.9154678E-01
          2   -1    0    0  501    0  0.00000000000E+00  0.00000000000E+00  0.24909081311E+04  0.24909081311E+04  0.00000000000E+00 0.  1.
         -2   -1    0    0    0  501 -0.00000000000E+00 -0.00000000000E+00 -0.13351232215E+03  0.13351232215E+03  0.00000000000E+00 0. -1.
         23    2    1    2    0    0 -0.16606129782E+03 -0.73483674681E+01  0.17369550992E+03  0.25765596938E+03  0.92661293174E+02 0.  0.
        254    2    1    2    0    0  0.16606129782E+03  0.73483674681E+01  0.21837002990E+04  0.23667644839E+04  0.89743900796E+03 0.  0.
        -24    2    4    4    0    0  0.46306626925E+03  0.50857833802E+02  0.66059157603E+03  0.81240044084E+03  0.81217959799E+02 0.  0.
         24    2    4    4    0    0 -0.29700497142E+03 -0.43509466334E+02  0.15231087230E+04  0.15543640430E+04  0.77989547165E+02 0.  0.
         13    1    3    3    0    0 -0.51391909693E+02  0.17723431350E+02  0.11326472642E+03  0.12563497384E+03  0.00000000000E+00 0.  1.
        -13    1    3    3    0    0 -0.11466938813E+03 -0.25071798818E+02  0.60430783507E+02  0.13202099555E+03  0.00000000000E+00 0. -1.
          2    1    6    6  502    0 -0.13805071992E+03  0.18587863328E+02  0.71175050723E+03  0.72525326230E+03  0.00000000000E+00 0. -1.
          3    1    5    5  503    0  0.18588599867E+03 -0.19110943170E+02  0.27071246272E+03  0.32894387078E+03  0.00000000000E+00 0. -1.
         -4    1    5    5    0  503  0.27718027058E+03  0.69968776972E+02  0.38987911331E+03  0.48345657007E+03  0.00000000000E+00 0.  1.
         -1    1    6    6    0  502 -0.15895425150E+03 -0.62097329662E+02  0.81135821575E+03  0.82911078071E+03  0.00000000000E+00 0.  1.
<mgrwt>
<rscale>  0 0.11533723E+04</rscale>
<asrwt>0</asrwt>
<pdfrwt beam="1">  1        2 0.38321660E+00 0.11533723E+04</pdfrwt>
<pdfrwt beam="2">  1       -2 0.20540359E-01 0.11533723E+04</pdfrwt>
<totfact> 0.71637706E+01</totfact>
</mgrwt>
</event>
<event>
12    1  0.1506149E-007  0.1405442E+04  0.7818608E-02  0.8949889E-01
         -2   -1    0    0    0  501 -0.00000000000E+00  0.00000000000E+00  0.20825774470E+03  0.20825774470E+03  0.00000000000E+00 0.  1.
          2   -1    0    0  501    0  0.00000000000E+00 -0.00000000000E+00 -0.23711821477E+04  0.23711821477E+04  0.00000000000E+00 0. -1.
         23    2    1    2    0    0 -0.30608397621E+03 -0.22863944431E+03 -0.38844125789E+03  0.55228999011E+03  0.90411428242E+02 0.  0.
        254    2    1    2    0    0  0.30608397621E+03  0.22863944431E+03 -0.17744831451E+04  0.20271499023E+04  0.90254246332E+03 0.  0.
        -24    2    4    4    0    0  0.10229256708E+03  0.28327770272E+03 -0.17752898090E+04  0.18023608327E+04  0.78362229482E+02 0.  0.
         24    2    4    4    0    0  0.20379140912E+03 -0.54638258411E+02  0.80666389302E+00  0.22478906963E+03  0.77544809019E+02 0.  0.
         13    1    3    3    0    0 -0.10753903588E+03 -0.71384131639E+02 -0.74909584544E+02  0.14923734233E+03  0.00000000000E+00 0. -1.
        -13    1    3    3    0    0 -0.19854494033E+03 -0.15725531267E+03 -0.31353167335E+03  0.40305264778E+03  0.00000000000E+00 0.  1.
          2    1    6    6  502    0  0.11264823355E+03 -0.62458553412E+02  0.22546365728E+02  0.13076327475E+03  0.00000000000E+00 0. -1.
          3    1    5    5  503    0  0.84506647111E+02  0.25759073095E+03 -0.16883676266E+04  0.17099940352E+04  0.00000000000E+00 0. -1.
         -4    1    5    5    0  503  0.17785919973E+02  0.25686971768E+02 -0.86922182444E+02  0.92366797437E+02  0.00000000000E+00 0.  1.
         -1    1    6    6    0  502  0.91143175571E+02  0.78202950007E+01 -0.21739701835E+02  0.94025794881E+02  0.00000000000E+00 0.  1.
<mgrwt>
<rscale>  0 0.14054423E+04</rscale>
<asrwt>0</asrwt>
<pdfrwt beam="1">  1        2 0.36479726E+00 0.14054423E+04</pdfrwt>
<pdfrwt beam="2">  1       -2 0.32039653E-01 0.14054423E+04</pdfrwt>
<totfact> 0.36506512E+01</totfact>
</mgrwt>
</event>
<event>
12    1  0.1506149E-007  0.2124409E+04  0.7818608E-02  0.8550567E-01
         -1   -1    0    0    0  501 -0.00000000000E+00  0.00000000000E+00  0.81397109148E+03  0.81397109148E+03  0.00000000000E+00 0.  1.
          1   -1    0    0  501    0  0.00000000000E+00 -0.00000000000E+00 -0.13861403765E+04  0.13861403765E+04  0.00000000000E+00 0. -1.
         23    2    1    2    0    0  0.42042221580E+02  0.27561288213E+03 -0.10963071921E+04  0.11348934255E+04  0.91452821939E+02 0.  0.
        254    2    1    2    0    0 -0.42042221580E+02 -0.27561288213E+03  0.52413790707E+03  0.10652180425E+04  0.88444271900E+03 0.  0.
        -24    2    4    4    0    0  0.34218698044E+03 -0.32495525193E+03  0.10671296927E+03  0.49022731316E+03  0.79039960886E+02 0.  0.
         24    2    4    4    0    0 -0.38422920202E+03  0.49342369808E+02  0.41742493779E+03  0.57499072931E+03  0.79397801971E+02 0.  0.
         11    1    3    3    0    0  0.53242383060E+02  0.22127649821E+03 -0.73738714727E+03  0.77171098539E+03  0.00000000000E+00 0. -1.
        -11    1    3    3    0    0 -0.11200161481E+02  0.54336383918E+02 -0.35892004486E+03  0.36318244016E+03  0.00000000000E+00 0.  1.
          4    1    6    6  502    0 -0.33418155372E+03  0.15029096347E+02  0.36034123471E+03  0.49167976368E+03  0.00000000000E+00 0. -1.
          3    1    5    5  503    0  0.23039416395E+03 -0.26383348606E+03  0.65706915641E+02  0.35638038373E+03  0.00000000000E+00 0. -1.
         -4    1    5    5    0  503  0.11179281649E+03 -0.61121765877E+02  0.41006053634E+02  0.13384692943E+03  0.00000000000E+00 0.  1.
         -3    1    6    6    0  502 -0.50047648296E+02  0.34313273460E+02  0.57083703087E+02  0.83310965627E+02  0.00000000000E+00 0.  1.
<mgrwt>
<rscale>  0 0.21244088E+04</rscale>
<asrwt>0</asrwt>
<pdfrwt beam="1">  1        1 0.21325236E+00 0.21244088E+04</pdfrwt>
<pdfrwt beam="2">  1       -1 0.12522632E+00 0.21244088E+04</pdfrwt>
<totfact> 0.40174917E+00</totfact>
</mgrwt>
</event>
<event>
12    1  0.1506149E-007  0.1680429E+04  0.7818608E-02  0.8772606E-01
         -1   -1    0    0    0  501 -0.00000000000E+00  0.00000000000E+00  0.25737634981E+03  0.25737634981E+03  0.00000000000E+00 0.  1.
          1   -1    0    0  501    0  0.00000000000E+00 -0.00000000000E+00 -0.27429111109E+04  0.27429111109E+04  0.00000000000E+00 0. -1.
         23    2    1    2    0    0 -0.16545748908E+03 -0.43981107274E+03 -0.13154832234E+04  0.13998070240E+04  0.90297470039E+02 0.  0.
        254    2    1    2    0    0  0.16545748908E+03  0.43981107274E+03 -0.11700515377E+04  0.16004804367E+04  0.98575203117E+03 0.  0.
        -24    2    4    4    0    0 -0.63081431150E+01  0.44624010225E+03 -0.40662832838E+02  0.45511678352E+03  0.79421654150E+02 0.  0.
         24    2    4    4    0    0  0.17176563220E+03 -0.64290295087E+01 -0.11293887049E+04  0.11453636532E+04  0.82427461994E+02 0.  0.
         11    1    3    3    0    0 -0.15844543565E+03 -0.44305222028E+03 -0.12992690842E+04  0.13818467278E+04  0.00000000000E+00 0.  1.
        -11    1    3    3    0    0 -0.70120534349E+01  0.32411475440E+01 -0.16214139139E+02  0.17960296178E+02  0.00000000000E+00 0. -1.
          4    1    6    6  502    0  0.52890716129E+02  0.65309674808E+01 -0.16033132556E+03  0.16895625275E+03  0.00000000000E+00 0. -1.
          1    1    5    5  503    0  0.34508907180E+02  0.20923836620E+03 -0.32037020984E+02  0.21447127844E+03  0.00000000000E+00 0. -1.
         -2    1    5    5    0  503 -0.40817050295E+02  0.23700173605E+03 -0.86258118542E+01  0.24064550508E+03  0.00000000000E+00 0.  1.
         -3    1    6    6    0  502  0.11887491607E+03 -0.12959996989E+02 -0.96905737932E+03  0.97640740042E+03  0.00000000000E+00 0.  1.
<mgrwt>
<rscale>  0 0.16804291E+04</rscale>
<asrwt>0</asrwt>
<pdfrwt beam="1">  1        1 0.42198630E+00 0.16804291E+04</pdfrwt>
<pdfrwt beam="2">  1       -1 0.39596364E-01 0.16804291E+04</pdfrwt>
<totfact> 0.54270004E+00</totfact>
</mgrwt>
</event>
<event>
12    1  0.1506149E-007  0.1146309E+04  0.7818608E-02  0.9161195E-01
         -1   -1    0    0    0  501 -0.00000000000E+00  0.00000000000E+00  0.33245822826E+03  0.33245822826E+03  0.00000000000E+00 0.  1.
          1   -1    0    0  501    0  0.00000000000E+00 -0.00000000000E+00 -0.98811260934E+03  0.98811260934E+03  0.00000000000E+00 0. -1.
         23    2    1    2    0    0  0.10091133796E+03  0.93805227502E+02 -0.31236997606E+03  0.35362165399E+03  0.92145284129E+02 0.  0.
        254    2    1    2    0    0 -0.10091133796E+03 -0.93805227502E+02 -0.34328440501E+03  0.96694918362E+03  0.89340025864E+03 0.  0.
        -24    2    4    4    0    0  0.32326772996E+03  0.23574235960E+02  0.88519273581E+02  0.34524364888E+03  0.79370935909E+02 0.  0.
         24    2    4    4    0    0 -0.42417906792E+03 -0.11737946346E+03 -0.43180367859E+03  0.62170553473E+03  0.79734151853E+02 0.  0.
         11    1    3    3    0    0  0.87924030265E+02  0.11074214972E+03 -0.29037322035E+03  0.32297223707E+03  0.00000000000E+00 0. -1.
        -11    1    3    3    0    0  0.12987307695E+02 -0.16936922218E+02 -0.21996755715E+02  0.30649416917E+02  0.00000000000E+00 0.  1.
          2    1    6    6  502    0 -0.27563332281E+03 -0.67892607964E+02 -0.22449067539E+03  0.36191048368E+03  0.00000000000E+00 0. -1.
          1    1    5    5  503    0  0.25277421710E+03 -0.10034253342E+02  0.48834587599E+02  0.25764376185E+03  0.00000000000E+00 0. -1.
         -2    1    5    5    0  503  0.70493512853E+02  0.33608489302E+02  0.39684685982E+02  0.87599887038E+02  0.00000000000E+00 0.  1.
         -3    1    6    6    0  502 -0.14854574511E+03 -0.49486855498E+02 -0.20731300320E+03  0.25979505106E+03  0.00000000000E+00 0.  1.
<mgrwt>
<rscale>  0 0.11463092E+04</rscale>
<asrwt>0</asrwt>
<pdfrwt beam="1">  1        1 0.15201732E+00 0.11463092E+04</pdfrwt>
<pdfrwt beam="2">  1       -1 0.51147420E-01 0.11463092E+04</pdfrwt>
<totfact> 0.59012198E+01</totfact>
</mgrwt>
</event>
<event>
12    1  0.1506149E-007  0.1455477E+04  0.7818608E-02  0.8914612E-01
         -1   -1    0    0    0  501 -0.00000000000E+00  0.00000000000E+00  0.15367761160E+03  0.15367761160E+03  0.00000000000E+00 0.  1.
          1   -1    0    0  501    0  0.00000000000E+00 -0.00000000000E+00 -0.34461977571E+04  0.34461977571E+04  0.00000000000E+00 0. -1.
         23    2    1    2    0    0 -0.20515708432E+03 -0.21458686128E+03 -0.18640992458E+04  0.18898547209E+04  0.92454948141E+02 0.  0.
        254    2    1    2    0    0  0.20515708432E+03  0.21458686128E+03 -0.14284208997E+04  0.17100206478E+04  0.89199069452E+03 0.  0.
        -24    2    4    4    0    0 -0.11017376500E+03  0.45879771757E+03 -0.10523501334E+04  0.11559297385E+04  0.78097073281E+02 0.  0.
         24    2    4    4    0    0  0.31533084932E+03 -0.24421085629E+03 -0.37607076626E+03  0.55409090935E+03  0.80715721731E+02 0.  0.
         13    1    3    3    0    0 -0.11306694426E+03 -0.69784833002E+02 -0.62811005670E+03  0.64200957947E+03  0.00000000000E+00 0.  1.
        -13    1    3    3    0    0 -0.92090140055E+02 -0.14480202828E+03 -0.12359891891E+04  0.12478451414E+04  0.00000000000E+00 0. -1.
          4    1    6    6  502    0  0.20720001975E+02 -0.24528596264E+02 -0.62252418222E+01  0.32706637740E+02  0.00000000000E+00 0. -1.
          3    1    5    5  503    0 -0.45363745678E+02  0.91458721168E+02 -0.17544551714E+03  0.20298693698E+03  0.00000000000E+00 0. -1.
         -4    1    5    5    0  503 -0.64810019321E+02  0.36733899640E+03 -0.87690461627E+03  0.95294280149E+03  0.00000000000E+00 0.  1.
         -3    1    6    6    0  502  0.29461084734E+03 -0.21968226003E+03 -0.36984552443E+03  0.52138427161E+03  0.00000000000E+00 0.  1.
<mgrwt>
<rscale>  0 0.14554772E+04</rscale>
<asrwt>0</asrwt>
<pdfrwt beam="1">  1        1 0.53018425E+00 0.14554772E+04</pdfrwt>
<pdfrwt beam="2">  1       -1 0.23642710E-01 0.14554772E+04</pdfrwt>
<totfact> 0.41713477E+00</totfact>
</mgrwt>
</event>
<event>
12    1  0.1506149E-007  0.1404463E+04  0.7818608E-02  0.8950595E-01
         -1   -1    0    0    0  501 -0.00000000000E+00  0.00000000000E+00  0.43879932599E+03  0.43879932599E+03  0.00000000000E+00 0.  1.
          1   -1    0    0  501    0  0.00000000000E+00 -0.00000000000E+00 -0.11238138131E+04  0.11238138131E+04  0.00000000000E+00 0. -1.
         23    2    1    2    0    0  0.30343622336E+03 -0.25161239958E+03 -0.64527472097E+02  0.40846231369E+03  0.85412679258E+02 0.  0.
        254    2    1    2    0    0 -0.30343622336E+03  0.25161239958E+03 -0.62048701500E+03  0.11541508254E+04  0.88976269346E+03 0.  0.
        -24    2    4    4    0    0  0.10198606732E+03  0.16783475051E+03 -0.69416415719E+03  0.72587424531E+03  0.80373387845E+02 0.  0.
         24    2    4    4    0    0 -0.40542229068E+03  0.83777649071E+02  0.73677142191E+02  0.42827658007E+03  0.81280867923E+02 0.  0.
         13    1    3    3    0    0  0.27130317602E+02 -0.47875045058E+02 -0.31927331461E+02  0.63619404011E+02  0.00000000000E+00 0. -1.
        -13    1    3    3    0    0  0.27630590576E+03 -0.20373735452E+03 -0.32600140636E+02  0.34484290968E+03  0.00000000000E+00 0.  1.
          4    1    6    6  502    0 -0.28720901089E+03  0.32640845661E+02  0.78025843307E+02  0.29940352865E+03  0.00000000000E+00 0. -1.
          1    1    5    5  503    0  0.11066922529E+03  0.16574785971E+03 -0.62174369231E+03  0.65290523765E+03  0.00000000000E+00 0. -1.
         -2    1    5    5    0  503 -0.86831579678E+01  0.20868907952E+01 -0.72420464879E+02  0.72969007660E+02  0.00000000000E+00 0.  1.
         -3    1    6    6    0  502 -0.11821327979E+03  0.51136803410E+02 -0.43487011162E+01  0.12887305142E+03  0.00000000000E+00 0.  1.
<mgrwt>
<rscale>  0 0.14044625E+04</rscale>
<asrwt>0</asrwt>
<pdfrwt beam="1">  1        1 0.17289443E+00 0.14044625E+04</pdfrwt>
<pdfrwt beam="2">  1       -1 0.67507590E-01 0.14044625E+04</pdfrwt>
<totfact> 0.26356776E+01</totfact>
</mgrwt>
</event>
<event>
12    1  0.1506149E-007  0.1363112E+04  0.7818608E-02  0.8980961E-01
         -1   -1    0    0    0  501 -0.00000000000E+00  0.00000000000E+00  0.30939037366E+03  0.30939037366E+03  0.00000000000E+00 0.  1.
          1   -1    0    0  501    0  0.00000000000E+00 -0.00000000000E+00 -0.15013998928E+04  0.15013998928E+04  0.00000000000E+00 0. -1.
         23    2    1    2    0    0  0.10821589941E+02  0.37109197257E+03 -0.24966988006E+03  0.45671001735E+03  0.91774898655E+02 0.  0.
        254    2    1    2    0    0 -0.10821589941E+02 -0.37109197257E+03 -0.94233963906E+03  0.13540802491E+04  0.89872296437E+03 0.  0.
        -24    2    4    4    0    0  0.98818604037E+02 -0.61897738173E+03 -0.41593351875E+03  0.75647966467E+03  0.79766380436E+02 0.  0.
         24    2    4    4    0    0 -0.10964019398E+03  0.24788540916E+03 -0.52640612031E+03  0.59760058441E+03  0.80962378759E+02 0.  0.
         11    1    3    3    0    0  0.52857862660E+00  0.26551348515E+03 -0.12635373888E+03  0.29404584255E+03  0.00000000000E+00 0. -1.
        -11    1    3    3    0    0  0.10293011315E+02  0.10557848743E+03 -0.12331614118E+03  0.16266417481E+03  0.00000000000E+00 0.  1.
          4    1    6    6  502    0 -0.12164064731E+03  0.21997964088E+03 -0.45130100893E+03  0.51658502702E+03  0.00000000000E+00 0. -1.
          1    1    5    5  503    0  0.78891296134E+02 -0.46922336847E+03 -0.35469011621E+03  0.59346397082E+03  0.00000000000E+00 0. -1.
         -2    1    5    5    0  503  0.19927307902E+02 -0.14975401326E+03 -0.61243402535E+02  0.16301569385E+03  0.00000000000E+00 0.  1.
         -3    1    6    6    0  502  0.12000453330E+02  0.27905768273E+02 -0.75105111378E+02  0.81015557383E+02  0.00000000000E+00 0.  1.
<mgrwt>
<rscale>  0 0.13631121E+04</rscale>
<asrwt>0</asrwt>
<pdfrwt beam="1">  1        1 0.23098460E+00 0.13631121E+04</pdfrwt>
<pdfrwt beam="2">  1       -1 0.47598519E-01 0.13631121E+04</pdfrwt>
<totfact> 0.28124382E+01</totfact>
</mgrwt>
</event>
<event>
12    1  0.1506149E-007  0.3421342E+04  0.7818608E-02  0.8132688E-01
         -1   -1    0    0    0  501 -0.00000000000E+00  0.00000000000E+00  0.14504551512E+04  0.14504551512E+04  0.00000000000E+00 0.  1.
          1   -1    0    0  501    0  0.00000000000E+00 -0.00000000000E+00 -0.20175703660E+04  0.20175703660E+04  0.00000000000E+00 0. -1.
         23    2    1    2    0    0 -0.11537421872E+04  0.81616743415E+03 -0.10618956810E+04  0.17700055906E+04  0.89705284643E+02 0.  0.
        254    2    1    2    0    0  0.11537421872E+04 -0.81616743415E+03  0.49478046625E+03  0.16980199266E+04  0.80075816963E+03 0.  0.
        -24    2    4    4    0    0 -0.44751999048E+02 -0.10186693335E+03  0.23922590890E+03  0.27728413777E+03  0.85310280965E+02 0.  0.
         24    2    4    4    0    0  0.11984941863E+04 -0.71430050079E+03  0.25555455735E+03  0.14207357888E+04  0.81046467865E+02 0.  0.
         13    1    3    3    0    0 -0.15103708157E+03  0.85769864773E+02 -0.16138107118E+03  0.23709179625E+03  0.00000000000E+00 0.  1.
        -13    1    3    3    0    0 -0.10027051057E+04  0.73039756937E+03 -0.90051460985E+03  0.15329137943E+04  0.00000000000E+00 0. -1.
          2    1    6    6  502    0  0.60603714222E+03 -0.40764223768E+03  0.14053144211E+03  0.74377570403E+03  0.00000000000E+00 0. -1.
          1    1    5    5  503    0 -0.96870959497E+01  0.11340340236E+02  0.68092592592E+01  0.16395400461E+02  0.00000000000E+00 0. -1.
         -2    1    5    5    0  503 -0.35064903098E+02 -0.11320727359E+03  0.23241664964E+03  0.26088873731E+03  0.00000000000E+00 0.  1.
         -1    1    6    6    0  502  0.59245704406E+03 -0.30665826311E+03  0.11502311524E+03  0.67696008481E+03  0.00000000000E+00 0.  1.
<mgrwt>
<rscale>  0 0.34213420E+04</rscale>
<asrwt>0</asrwt>
<pdfrwt beam="1">  1        1 0.31039544E+00 0.34213420E+04</pdfrwt>
<pdfrwt beam="2">  1       -1 0.22314695E+00 0.34213420E+04</pdfrwt>
<totfact> 0.24964137E-01</totfact>
</mgrwt>
</event>
<event>
12    1  0.1506149E-007  0.1377693E+04  0.7818608E-02  0.8970126E-01
         -1   -1    0    0    0  501 -0.00000000000E+00  0.00000000000E+00  0.14304102107E+03  0.14304102107E+03  0.00000000000E+00 0.  1.
          1   -1    0    0  501    0  0.00000000000E+00 -0.00000000000E+00 -0.33172960110E+04  0.33172960110E+04  0.00000000000E+00 0. -1.
         23    2    1    2    0    0 -0.47845383519E+02 -0.89534931100E+02 -0.18164057455E+04  0.18214771477E+04  0.90241247017E+02 0.  0.
        254    2    1    2    0    0  0.47845383519E+02  0.89534931100E+02 -0.13578492444E+04  0.16388598843E+04  0.91203150461E+03 0.  0.
        -24    2    4    4    0    0  0.31429284301E+03  0.17635481139E+03 -0.12889045790E+04  0.13403168592E+04  0.72754783706E+02 0.  0.
         24    2    4    4    0    0 -0.26644745949E+03 -0.86819880289E+02 -0.68944665360E+02  0.29854302514E+03  0.76437102881E+02 0.  0.
         13    1    3    3    0    0 -0.45302876602E+02 -0.10497627695E+03 -0.17212485991E+04  0.17250417703E+04  0.00000000000E+00 0. -1.
        -13    1    3    3    0    0 -0.25425069176E+01  0.15441345849E+02 -0.95157146449E+02  0.96435377447E+02  0.00000000000E+00 0.  1.
          2    1    6    6  502    0 -0.10454487601E+03  0.40264921356E+01 -0.19521525007E+02  0.10642806809E+03  0.00000000000E+00 0. -1.
          3    1    5    5  503    0  0.18766517798E+03  0.83759006203E+02 -0.84066296409E+03  0.86541782356E+03  0.00000000000E+00 0. -1.
         -4    1    5    5    0  503  0.12662766502E+03  0.92595805186E+02 -0.44824161494E+03  0.47489903564E+03  0.00000000000E+00 0.  1.
         -1    1    6    6    0  502 -0.16190258348E+03 -0.90846372424E+02 -0.49423140353E+02  0.19211495705E+03  0.00000000000E+00 0.  1.
<mgrwt>
<rscale>  0 0.13776929E+04</rscale>
<asrwt>0</asrwt>
<pdfrwt beam="1">  1        1 0.51035325E+00 0.13776929E+04</pdfrwt>
<pdfrwt beam="2">  1       -1 0.22006310E-01 0.13776929E+04</pdfrwt>
<totfact> 0.59652013E+00</totfact>
</mgrwt>
</event>
<event>
12    1  0.1506149E-007  0.1748374E+04  0.7818608E-02  0.8734246E-01
         -2   -1    0    0    0  501 -0.00000000000E+00  0.00000000000E+00  0.37606888121E+03  0.37606888121E+03  0.00000000000E+00 0.  1.
          2   -1    0    0  501    0  0.00000000000E+00 -0.00000000000E+00 -0.20320811482E+04  0.20320811482E+04  0.00000000000E+00 0. -1.
         23    2    1    2    0    0  0.78384599593E+02  0.46151512781E+03 -0.12517071696E+02  0.47675899887E+03  0.89454498353E+02 0.  0.
        254    2    1    2    0    0 -0.78384599593E+02 -0.46151512781E+03 -0.16434951953E+04  0.19313910306E+04  0.90003027576E+03 0.  0.
        -24    2    4    4    0    0  0.26903898901E+03 -0.10626285955E+03 -0.11377845656E+03  0.32103908291E+03  0.80291859191E+02 0.  0.
         24    2    4    4    0    0 -0.34742358860E+03 -0.35525226826E+03 -0.15297167388E+04  0.16103519477E+04  0.79326984493E+02 0.  0.
         11    1    3    3    0    0  0.82876136347E+01  0.11070239861E+03  0.33757306847E+02  0.11603129476E+03  0.00000000000E+00 0. -1.
        -11    1    3    3    0    0  0.70096985958E+02  0.35081272919E+03 -0.46274378543E+02  0.36072770411E+03  0.00000000000E+00 0.  1.
          2    1    6    6  502    0 -0.56536366456E+02 -0.10157146452E+03 -0.31330664922E+03  0.33417686871E+03  0.00000000000E+00 0. -1.
          3    1    5    5  503    0  0.12037993830E+03 -0.80569339603E+02 -0.83400848535E+02  0.16714798703E+03  0.00000000000E+00 0. -1.
         -4    1    5    5    0  503  0.14865905071E+03 -0.25693519945E+02 -0.30377608029E+02  0.15389109589E+03  0.00000000000E+00 0.  1.
         -1    1    6    6    0  502 -0.29088722215E+03 -0.25368080374E+03 -0.12164100895E+04  0.12761750790E+04  0.00000000000E+00 0.  1.
<mgrwt>
<rscale>  0 0.17483735E+04</rscale>
<asrwt>0</asrwt>
<pdfrwt beam="1">  1        2 0.31262786E+00 0.17483735E+04</pdfrwt>
<pdfrwt beam="2">  1       -2 0.57856753E-01 0.17483735E+04</pdfrwt>
<totfact> 0.16998921E+01</totfact>
</mgrwt>
</event>
<event>
12    1  0.1506149E-007  0.1230005E+04  0.7818608E-02  0.9086991E-01
         -2   -1    0    0    0  501 -0.00000000000E+00  0.00000000000E+00  0.40802490110E+03  0.40802490110E+03  0.00000000000E+00 0.  1.
          2   -1    0    0  501    0  0.00000000000E+00 -0.00000000000E+00 -0.92697258449E+03  0.92697258449E+03  0.00000000000E+00 0. -1.
         23    2    1    2    0    0  0.17551138654E+03  0.10939144517E+03 -0.31902700458E+03  0.39064822414E+03  0.89761184772E+02 0.  0.
        254    2    1    2    0    0 -0.17551138654E+03 -0.10939144517E+03 -0.19992067881E+03  0.94434926145E+03  0.89947568878E+03 0.  0.
        -24    2    4    4    0    0  0.23042265971E+03 -0.36319506095E+03 -0.76078293283E+02  0.44402956435E+03  0.79806596840E+02 0.  0.
         24    2    4    4    0    0 -0.40593404625E+03  0.25380361578E+03 -0.12384238553E+03  0.50031969711E+03  0.76053517812E+02 0.  0.
         11    1    3    3    0    0  0.13404666358E+03  0.80663567236E+02 -0.29683451008E+03  0.33553814309E+03  0.00000000000E+00 0. -1.
        -11    1    3    3    0    0  0.41464722964E+02  0.28727877934E+02 -0.22192494499E+02  0.55110081049E+02  0.00000000000E+00 0.  1.
          2    1    6    6  502    0 -0.33825565693E+03  0.24221566170E+03 -0.10373839109E+03  0.42877379818E+03  0.00000000000E+00 0. -1.
          1    1    5    5  503    0  0.55070494102E+02 -0.12508995442E+03  0.70599926958E+01  0.13685795379E+03  0.00000000000E+00 0. -1.
         -2    1    5    5    0  503  0.17535216561E+03 -0.23810510652E+03 -0.83138285978E+02  0.30717161056E+03  0.00000000000E+00 0.  1.
         -1    1    6    6    0  502 -0.67678389320E+02  0.11587954072E+02 -0.20103994441E+02  0.71545898925E+02  0.00000000000E+00 0.  1.
<mgrwt>
<rscale>  0 0.12300047E+04</rscale>
<asrwt>0</asrwt>
<pdfrwt beam="1">  1        2 0.14261117E+00 0.12300047E+04</pdfrwt>
<pdfrwt beam="2">  1       -2 0.62773062E-01 0.12300047E+04</pdfrwt>
<totfact> 0.65171123E+01</totfact>
</mgrwt>
</event>
<event>
12    1  0.1506149E-007  0.1162823E+04  0.7818608E-02  0.9146035E-01
          3   -1    0    0  501    0  0.00000000000E+00  0.00000000000E+00  0.27137088776E+03  0.27137088776E+03  0.00000000000E+00 0. -1.
         -3   -1    0    0    0  501 -0.00000000000E+00 -0.00000000000E+00 -0.12456725159E+04  0.12456725159E+04  0.00000000000E+00 0.  1.
         23    2    1    2    0    0 -0.79366135010E+02  0.15943511072E+03 -0.44862598061E+02  0.21380056756E+03  0.10945086600E+03 0.  0.
        254    2    1    2    0    0  0.79366135010E+02 -0.15943511072E+03 -0.92943903007E+03  0.13032428361E+04  0.89602814759E+03 0.  0.
        -24    2    4    4    0    0 -0.33621504213E+03 -0.23005160128E+03 -0.20744817743E+03  0.46419088336E+03  0.80462016305E+02 0.  0.
         24    2    4    4    0    0  0.41558117714E+03  0.70616490566E+02 -0.72199085264E+03  0.83905195273E+03  0.71013974296E+02 0.  0.
         13    1    3    3    0    0 -0.37141340630E+02  0.43394037211E+01  0.17626930312E+02  0.41340274318E+02  0.00000000000E+00 0.  1.
        -13    1    3    3    0    0 -0.42224794380E+02  0.15509570700E+03 -0.62489528374E+02  0.17246029324E+03  0.00000000000E+00 0. -1.
          2    1    6    6  502    0  0.32436848296E+03  0.48021806842E+02 -0.49928599449E+03  0.59733366804E+03  0.00000000000E+00 0. -1.
          3    1    5    5  503    0 -0.17145501231E+03 -0.11243483322E+03 -0.14910588671E+03  0.25351721523E+03  0.00000000000E+00 0. -1.
         -4    1    5    5    0  503 -0.16476002983E+03 -0.11761676807E+03 -0.58342290723E+02  0.21067366813E+03  0.00000000000E+00 0.  1.
         -1    1    6    6    0  502  0.91212694177E+02  0.22594683724E+02 -0.22270485815E+03  0.24171828469E+03  0.00000000000E+00 0.  1.
<mgrwt>
<rscale>  0 0.11628229E+04</rscale>
<asrwt>0</asrwt>
<pdfrwt beam="1">  1        3 0.41749367E-01 0.11628229E+04</pdfrwt>
<pdfrwt beam="2">  1       -3 0.19164193E+00 0.11628229E+04</pdfrwt>
<totfact> 0.24543429E+00</totfact>
</mgrwt>
</event>
<event>
12    1  0.1506149E-007  0.2132695E+04  0.7818608E-02  0.8546976E-01
          2   -1    0    0  501    0  0.00000000000E+00  0.00000000000E+00  0.26464419137E+04  0.26464419137E+04  0.00000000000E+00 0. -1.
         -2   -1    0    0    0  501 -0.00000000000E+00 -0.00000000000E+00 -0.42967016490E+03  0.42967016490E+03  0.00000000000E+00 0.  1.
         23    2    1    2    0    0 -0.12986170535E+03 -0.46070401793E+03 -0.14094939911E+03  0.50681106629E+03  0.88760741031E+02 0.  0.
        254    2    1    2    0    0  0.12986170535E+03  0.46070401793E+03  0.23577211479E+04  0.25693010123E+04  0.90185720929E+03 0.  0.
        -24    2    4    4    0    0 -0.23296959032E+03 -0.12582347935E+03  0.10832927474E+04  0.11180095042E+04  0.79471358942E+02 0.  0.
         24    2    4    4    0    0  0.36283129567E+03  0.58652749728E+03  0.12744284004E+04  0.14512915081E+04  0.80113914993E+02 0.  0.
         13    1    3    3    0    0 -0.19570528059E+02 -0.20938140908E+03 -0.84336936278E+02  0.22657515058E+03  0.00000000000E+00 0. -1.
        -13    1    3    3    0    0 -0.11029117729E+03 -0.25132260885E+03 -0.56612462829E+02  0.28023591571E+03  0.00000000000E+00 0.  1.
          2    1    6    6  502    0  0.46125543604E+02  0.38590047559E+02  0.13764343318E+03  0.15020809645E+03  0.00000000000E+00 0. -1.
          1    1    5    5  503    0 -0.73421992630E+02 -0.61682742079E+01  0.37530871937E+03  0.38247283752E+03  0.00000000000E+00 0. -1.
         -2    1    5    5    0  503 -0.15954759769E+03 -0.11965520515E+03  0.70798402806E+03  0.73553666668E+03  0.00000000000E+00 0.  1.
         -1    1    6    6    0  502  0.31670575207E+03  0.54793744973E+03  0.11367849673E+04  0.13010834116E+04  0.00000000000E+00 0.  1.
<mgrwt>
<rscale>  0 0.21326951E+04</rscale>
<asrwt>0</asrwt>
<pdfrwt beam="1">  1        2 0.40714490E+00 0.21326951E+04</pdfrwt>
<pdfrwt beam="2">  1       -2 0.66103104E-01 0.21326951E+04</pdfrwt>
<totfact> 0.55317527E+00</totfact>
</mgrwt>
</event>
<event>
12    1  0.1506149E-007  0.1454282E+04  0.7818608E-02  0.8915437E-01
          2   -1    0    0  501    0  0.00000000000E+00  0.00000000000E+00  0.23660076424E+04  0.23660076424E+04  0.00000000000E+00 0. -1.
         -2   -1    0    0    0  501 -0.00000000000E+00 -0.00000000000E+00 -0.22347105235E+03  0.22347105235E+03  0.00000000000E+00 0.  1.
         23    2    1    2    0    0 -0.10510379542E+02 -0.25892963357E+02 -0.12074697260E+03  0.15458507728E+03  0.92389399264E+02 0.  0.
        254    2    1    2    0    0  0.10510379542E+02  0.25892963357E+02  0.22632835627E+04  0.24348936175E+04  0.89748177127E+03 0.  0.
        -24    2    4    4    0    0  0.30923283955E+03 -0.51743948724E+02  0.19833190701E+04  0.20098161694E+04  0.86626299392E+02 0.  0.
         24    2    4    4    0    0 -0.29872246001E+03  0.77636912080E+02  0.27996449261E+03  0.42507744810E+03  0.83953091243E+02 0.  0.
         13    1    3    3    0    0 -0.20088145016E+02  0.29738050388E+02 -0.26070171557E+02  0.44356950482E+02  0.00000000000E+00 0. -1.
        -13    1    3    3    0    0  0.95777654745E+01 -0.55631013745E+02 -0.94676801046E+02  0.11022812680E+03  0.00000000000E+00 0.  1.
          4    1    6    6  502    0 -0.49588319465E+02  0.46788109769E+02  0.49036620664E+02  0.83980466831E+02  0.00000000000E+00 0. -1.
          3    1    5    5  503    0  0.38743161081E+02 -0.38049250167E+02  0.35383611542E+03  0.35797873476E+03  0.00000000000E+00 0. -1.
         -4    1    5    5    0  503  0.27048967847E+03 -0.13694698556E+02  0.16294829547E+04  0.16518374346E+04  0.00000000000E+00 0.  1.
         -1    1    6    6    0  502 -0.24913414054E+03  0.30848802312E+02  0.23092787194E+03  0.34109698127E+03  0.00000000000E+00 0.  1.
<mgrwt>
<rscale>  0 0.14542823E+04</rscale>
<asrwt>0</asrwt>
<pdfrwt beam="1">  1        2 0.36400116E+00 0.14542823E+04</pdfrwt>
<pdfrwt beam="2">  1       -2 0.34380163E-01 0.14542823E+04</pdfrwt>
<totfact> 0.32023787E+01</totfact>
</mgrwt>
</event>
<event>
12    1  0.1506149E-007  0.2566074E+04  0.7818608E-02  0.8379817E-01
          2   -1    0    0  501    0  0.00000000000E+00  0.00000000000E+00  0.19937281122E+04  0.19937281122E+04  0.00000000000E+00 0. -1.
         -2   -1    0    0    0  501 -0.00000000000E+00 -0.00000000000E+00 -0.82568111716E+03  0.82568111716E+03  0.00000000000E+00 0.  1.
         23    2    1    2    0    0  0.44160543926E+03 -0.79578429756E+03 -0.22055545787E+03  0.94099553426E+03  0.92411434793E+02 0.  0.
        254    2    1    2    0    0 -0.44160543926E+03  0.79578429756E+03  0.13886024529E+04  0.18784136951E+04  0.87859730563E+03 0.  0.
        -24    2    4    4    0    0  0.62234774880E+02  0.73940070201E+03  0.72965750857E+03  0.10436457113E+04  0.78801811626E+02 0.  0.
         24    2    4    4    0    0 -0.50384021414E+03  0.56383595548E+02  0.65894494434E+03  0.83476798382E+03  0.74800239982E+02 0.  0.
         13    1    3    3    0    0  0.12101062832E+03 -0.19180344920E+03 -0.16414516756E+02  0.22737979605E+03  0.00000000000E+00 0. -1.
        -13    1    3    3    0    0  0.32059481094E+03 -0.60398084836E+03 -0.20414094111E+03  0.71361573821E+03  0.00000000000E+00 0.  1.
          4    1    6    6  502    0 -0.47966565195E+02 -0.16675403253E+02  0.65552592526E+02  0.82921666874E+02  0.00000000000E+00 0. -1.
          1    1    5    5  503    0  0.52735711674E+02  0.21862028321E+03  0.23646159686E+03  0.32632801030E+03  0.00000000000E+00 0. -1.
         -2    1    5    5    0  503  0.94990632067E+01  0.52078041880E+03  0.49319591171E+03  0.71731770098E+03  0.00000000000E+00 0.  1.
         -3    1    6    6    0  502 -0.45587364895E+03  0.73058998801E+02  0.59339235182E+03  0.75184631695E+03  0.00000000000E+00 0.  1.
<mgrwt>
<rscale>  0 0.25660738E+04</rscale>
<asrwt>0</asrwt>
<pdfrwt beam="1">  1        2 0.30672740E+00 0.25660738E+04</pdfrwt>
<pdfrwt beam="2">  1       -2 0.12702786E+00 0.25660738E+04</pdfrwt>
<totfact> 0.27509485E+00</totfact>
</mgrwt>
</event>
<event>
12    1  0.1506149E-007  0.1566230E+04  0.7818608E-02  0.8841567E-01
         -2   -1    0    0    0  501 -0.00000000000E+00  0.00000000000E+00  0.25108741246E+03  0.25108741246E+03  0.00000000000E+00 0. -1.
          2   -1    0    0  501    0  0.00000000000E+00 -0.00000000000E+00 -0.24424534067E+04  0.24424534067E+04  0.00000000000E+00 0.  1.
         23    2    1    2    0    0 -0.44324025770E+03  0.49505613267E+02 -0.28436872787E+03  0.53699911355E+03  0.92680865190E+02 0.  0.
        254    2    1    2    0    0  0.44324025770E+03 -0.49505613267E+02 -0.19069972663E+04  0.21565417056E+04  0.90284041906E+03 0.  0.
        -24    2    4    4    0    0 -0.17643052684E+03  0.17525568960E+03 -0.21027263092E+03  0.33447535956E+03  0.76268599665E+02 0.  0.
         24    2    4    4    0    0  0.61967078454E+03 -0.22476130287E+03 -0.16967246354E+04  0.18220663460E+04  0.80881125142E+02 0.  0.
         11    1    3    3    0    0 -0.20492072789E+03  0.23348223882E+02 -0.77467110744E+02  0.22031522309E+03  0.00000000000E+00 0. -1.
        -11    1    3    3    0    0 -0.23831952981E+03  0.26157389385E+02 -0.20690161713E+03  0.31668389046E+03  0.00000000000E+00 0.  1.
          4    1    6    6  502    0  0.40048910847E+03 -0.10580671583E+03 -0.10932278287E+04  0.11690738525E+04  0.00000000000E+00 0. -1.
          3    1    5    5  503    0 -0.12771119740E+03  0.16772855709E+03 -0.17000669190E+03  0.27082336328E+03  0.00000000000E+00 0. -1.
         -2    1    5    5    0  503 -0.48719329440E+02  0.75271325107E+01 -0.40265939022E+02  0.63651996278E+02  0.00000000000E+00 0.  1.
         -3    1    6    6    0  502  0.21918167607E+03 -0.11895458703E+03 -0.60349680667E+03  0.65299249350E+03  0.00000000000E+00 0.  1.
<mgrwt>
<rscale>  0 0.15662303E+04</rscale>
<asrwt>0</asrwt>
<pdfrwt beam="1">  1        2 0.37576208E+00 0.15662303E+04</pdfrwt>
<pdfrwt beam="2">  1       -2 0.38628831E-01 0.15662303E+04</pdfrwt>
<totfact> 0.22922851E+01</totfact>
</mgrwt>
</event>
<event>
12    1  0.1506149E-007  0.2262264E+04  0.7818608E-02  0.8492950E-01
         -1   -1    0    0    0  501 -0.00000000000E+00  0.00000000000E+00  0.13136938264E+04  0.13136938264E+04  0.00000000000E+00 0.  1.
          1   -1    0    0  501    0  0.00000000000E+00 -0.00000000000E+00 -0.97394017117E+03  0.97394017117E+03  0.00000000000E+00 0. -1.
         23    2    1    2    0    0  0.65695364972E+03 -0.40441712237E+03  0.69862290415E+03  0.10433456453E+04  0.73176954792E+02 0.  0.
        254    2    1    2    0    0 -0.65695364972E+03  0.40441712237E+03 -0.35886924895E+03  0.12442883522E+04  0.90792348731E+03 0.  0.
        -24    2    4    4    0    0 -0.13991016591E+03  0.57826090529E+03 -0.27592921094E+02  0.60099239730E+03  0.80436081479E+02 0.  0.
         24    2    4    4    0    0 -0.51704348380E+03 -0.17384378291E+03 -0.33127632786E+03  0.64329595490E+03  0.80808756862E+02 0.  0.
         11    1    3    3    0    0  0.56763227694E+03 -0.34290895253E+03  0.63186683613E+03  0.91599598806E+03  0.00000000000E+00 0.  1.
        -11    1    3    3    0    0  0.89321372773E+02 -0.61508169845E+02  0.66756068024E+02  0.12734965728E+03  0.00000000000E+00 0. -1.
          2    1    6    6  502    0 -0.13447021902E+03 -0.63392683898E+02 -0.12818944635E+03  0.19629927745E+03  0.00000000000E+00 0. -1.
          1    1    5    5  503    0 -0.11962395057E+03  0.37710859011E+03  0.80134026974E+01  0.39570821689E+03  0.00000000000E+00 0. -1.
         -2    1    5    5    0  503 -0.20286215338E+02  0.20115231518E+03 -0.35606323791E+02  0.20528418041E+03  0.00000000000E+00 0.  1.
         -1    1    6    6    0  502 -0.38257326478E+03 -0.11045109902E+03 -0.20308688151E+03  0.44699667744E+03  0.00000000000E+00 0.  1.
<mgrwt>
<rscale>  0 0.22622636E+04</rscale>
<asrwt>0</asrwt>
<pdfrwt beam="1">  1        1 0.14983695E+00 0.22622636E+04</pdfrwt>
<pdfrwt beam="2">  1       -1 0.20210674E+00 0.22622636E+04</pdfrwt>
<totfact> 0.20937468E+00</totfact>
</mgrwt>
</event>
<event>
12    1  0.1506149E-007  0.1479467E+04  0.7818608E-02  0.8898223E-01
         -2   -1    0    0    0  501 -0.00000000000E+00  0.00000000000E+00  0.19371772649E+03  0.19371772649E+03  0.00000000000E+00 0.  1.
          2   -1    0    0  501    0  0.00000000000E+00 -0.00000000000E+00 -0.28247567210E+04  0.28247567210E+04  0.00000000000E+00 0. -1.
         23    2    1    2    0    0 -0.34861146615E+03 -0.29524263375E+03 -0.97794518481E+03  0.10830221675E+04  0.88668279415E+02 0.  0.
        254    2    1    2    0    0  0.34861146615E+03  0.29524263375E+03 -0.16530938097E+04  0.19354522799E+04  0.89697169251E+03 0.  0.
        -24    2    4    4    0    0 -0.98491885394E+02  0.27738334658E+03 -0.13596029652E+04  0.13933482761E+04  0.79101347654E+02 0.  0.
         24    2    4    4    0    0  0.44710335155E+03  0.17859287174E+02 -0.29349084448E+03  0.54210400379E+03  0.86715131474E+02 0.  0.
         13    1    3    3    0    0 -0.22068045668E+01  0.41929029411E+01 -0.28986159120E+02  0.29370867233E+02  0.00000000000E+00 0. -1.
        -13    1    3    3    0    0 -0.34640466159E+03 -0.29943553670E+03 -0.94895902569E+03  0.10536513003E+04  0.00000000000E+00 0.  1.
          4    1    6    6  502    0  0.15024217425E+03  0.34474962490E+02 -0.13639770290E+03  0.20582897589E+03  0.00000000000E+00 0. -1.
          1    1    5    5  503    0 -0.87910393188E+00  0.20615082980E+02 -0.35583894840E+02  0.41133539137E+02  0.00000000000E+00 0. -1.
         -2    1    5    5    0  503 -0.97612781462E+02  0.25676826360E+03 -0.13240190704E+04  0.13522147370E+04  0.00000000000E+00 0.  1.
         -3    1    6    6    0  502  0.29686117730E+03 -0.16615675316E+02 -0.15709314158E+03  0.33627502790E+03  0.00000000000E+00 0.  1.
<mgrwt>
<rscale>  0 0.14794667E+04</rscale>
<asrwt>0</asrwt>
<pdfrwt beam="1">  1        2 0.43457795E+00 0.14794667E+04</pdfrwt>
<pdfrwt beam="2">  1       -2 0.29802728E-01 0.14794667E+04</pdfrwt>
<totfact> 0.22570538E+01</totfact>
</mgrwt>
</event>
<event>
12    1  0.1506149E-007  0.1451438E+04  0.7818608E-02  0.8917404E-01
          1   -1    0    0  501    0  0.00000000000E+00  0.00000000000E+00  0.20289067037E+04  0.20289067037E+04  0.00000000000E+00 0. -1.
         -1   -1    0    0    0  501 -0.00000000000E+00 -0.00000000000E+00 -0.25958219452E+03  0.25958219452E+03  0.00000000000E+00 0.  1.
         23    2    1    2    0    0 -0.22180399515E+03 -0.21851410068E+03  0.10350951396E+04  0.10848879940E+04  0.92814800531E+02 0.  0.
        254    2    1    2    0    0  0.22180399515E+03  0.21851410068E+03  0.73422936959E+03  0.12036009042E+04  0.90145268587E+03 0.  0.
        -24    2    4    4    0    0  0.37762368619E+03 -0.22873754040E+03  0.49428378234E+03  0.66743898313E+03  0.78979921266E+02 0.  0.
         24    2    4    4    0    0 -0.15581969104E+03  0.44725164107E+03  0.23994558726E+03  0.53616192103E+03  0.74712208910E+02 0.  0.
         13    1    3    3    0    0 -0.19034093717E+03 -0.20808337403E+03  0.98684888385E+03  0.10263523189E+04  0.00000000000E+00 0. -1.
        -13    1    3    3    0    0 -0.31463057980E+02 -0.10430726649E+02  0.48246255710E+02  0.58535675155E+02  0.00000000000E+00 0.  1.
          4    1    6    6  502    0 -0.53759235559E+02  0.25469463740E+03  0.11138978327E+03  0.28313794790E+03  0.00000000000E+00 0. -1.
          3    1    5    5  503    0  0.72643979603E+02 -0.26409976011E+02  0.51059851135E+02  0.92637697529E+02  0.00000000000E+00 0. -1.
         -4    1    5    5    0  503  0.30497970659E+03 -0.20232756438E+03  0.44322393120E+03  0.57480128560E+03  0.00000000000E+00 0.  1.
         -3    1    6    6    0  502 -0.10206045548E+03  0.19255700368E+03  0.12855580399E+03  0.25302397313E+03  0.00000000000E+00 0.  1.
<mgrwt>
<rscale>  0 0.14514380E+04</rscale>
<asrwt>0</asrwt>
<pdfrwt beam="1">  1        1 0.31213948E+00 0.14514380E+04</pdfrwt>
<pdfrwt beam="2">  1       -1 0.39935724E-01 0.14514380E+04</pdfrwt>
<totfact> 0.16912086E+01</totfact>
</mgrwt>
</event>
<event>
12    1  0.1506149E-007  0.2107999E+04  0.7818608E-02  0.8557728E-01
          1   -1    0    0  501    0  0.00000000000E+00  0.00000000000E+00  0.83386447989E+03  0.83386447989E+03  0.00000000000E+00 0. -1.
         -1   -1    0    0    0  501 -0.00000000000E+00 -0.00000000000E+00 -0.13322489230E+04  0.13322489230E+04  0.00000000000E+00 0.  1.
         23    2    1    2    0    0 -0.83279473117E+02 -0.49526693816E+03  0.50365682774E+03  0.71714090117E+03  0.91630024126E+02 0.  0.
        254    2    1    2    0    0  0.83279473117E+02  0.49526693816E+03 -0.10020412709E+04  0.14489725018E+04  0.91826455426E+03 0.  0.
        -24    2    4    4    0    0 -0.37236949751E+03  0.38439810413E+03 -0.35947200352E+03  0.64917360665E+03  0.76061193274E+02 0.  0.
         24    2    4    4    0    0  0.45564897062E+03  0.11086883403E+03 -0.64256926736E+03  0.79979889510E+03  0.82916382340E+02 0.  0.
         13    1    3    3    0    0 -0.71337597651E+02 -0.40807287270E+03  0.45952151325E+03  0.61868614290E+03  0.00000000000E+00 0. -1.
        -13    1    3    3    0    0 -0.11941875466E+02 -0.87194065461E+02  0.44135314491E+02  0.98454758273E+02  0.00000000000E+00 0.  1.
          4    1    6    6  502    0  0.36779058716E+03  0.72088379568E+02 -0.45856493633E+03  0.59224019731E+03  0.00000000000E+00 0. -1.
          3    1    5    5  503    0 -0.17279206749E+03  0.21081235470E+03 -0.21915579858E+03  0.34975450180E+03  0.00000000000E+00 0. -1.
         -4    1    5    5    0  503 -0.19957743001E+03  0.17358574943E+03 -0.14031620495E+03  0.29941910485E+03  0.00000000000E+00 0.  1.
         -3    1    6    6    0  502  0.87858383459E+02  0.38780454461E+02 -0.18400433103E+03  0.20755869779E+03  0.00000000000E+00 0.  1.
<mgrwt>
<rscale>  0 0.21079991E+04</rscale>
<asrwt>0</asrwt>
<pdfrwt beam="1">  1        1 0.12828684E+00 0.21079991E+04</pdfrwt>
<pdfrwt beam="2">  1       -1 0.20496137E+00 0.21079991E+04</pdfrwt>
<totfact> 0.26428837E+00</totfact>
</mgrwt>
</event>
<event>
12    1  0.1506149E-007  0.1779493E+04  0.7818608E-02  0.8717281E-01
         -2   -1    0    0    0  501 -0.00000000000E+00  0.00000000000E+00  0.64256672882E+03  0.64256672882E+03  0.00000000000E+00 0.  1.
          2   -1    0    0  501    0  0.00000000000E+00 -0.00000000000E+00 -0.12320107562E+04  0.12320107562E+04  0.00000000000E+00 0. -1.
         23    2    1    2    0    0 -0.27218606501E+01 -0.13641215333E+03 -0.89209965998E+03  0.90701976055E+03  0.90704788062E+02 0.  0.
        254    2    1    2    0    0  0.27218606501E+01  0.13641215333E+03  0.30265563260E+03  0.96755772447E+03  0.90881892264E+03 0.  0.
        -24    2    4    4    0    0 -0.39096601984E+02 -0.10507274805E+03  0.57570728934E+03  0.59195713880E+03  0.80034645696E+02 0.  0.
         24    2    4    4    0    0  0.41818462635E+02  0.24148490139E+03 -0.27305165674E+03  0.37560058567E+03  0.80342089160E+02 0.  0.
         13    1    3    3    0    0  0.18582883668E+02 -0.75182820570E+02 -0.25165333599E+03  0.26330055372E+03  0.00000000000E+00 0. -1.
        -13    1    3    3    0    0 -0.21304744318E+02 -0.61229332764E+02 -0.64044632400E+03  0.64371920683E+03  0.00000000000E+00 0.  1.
          2    1    6    6  502    0  0.24343199862E+02  0.14237433381E+02 -0.45525935720E+02  0.53552840373E+02  0.00000000000E+00 0. -1.
          1    1    5    5  503    0  0.13757857797E+01 -0.85654017806E+02  0.27845249495E+03  0.29133193354E+03  0.00000000000E+00 0. -1.
         -2    1    5    5    0  503 -0.40472387764E+02 -0.19418730246E+02  0.29725479438E+03  0.30062520526E+03  0.00000000000E+00 0.  1.
         -1    1    6    6    0  502  0.17475262772E+02  0.22724746801E+03 -0.22752572102E+03  0.32204774530E+03  0.00000000000E+00 0.  1.
<mgrwt>
<rscale>  0 0.17794933E+04</rscale>
<asrwt>0</asrwt>
<pdfrwt beam="1">  1        2 0.18954011E+00 0.17794933E+04</pdfrwt>
<pdfrwt beam="2">  1       -2 0.98856421E-01 0.17794933E+04</pdfrwt>
<totfact> 0.14551557E+01</totfact>
</mgrwt>
</event>
<event>
12    1  0.1506149E-007  0.2033500E+04  0.7818608E-02  0.8591117E-01
          1   -1    0    0  501    0  0.00000000000E+00  0.00000000000E+00  0.12102211510E+04  0.12102211510E+04  0.00000000000E+00 0. -1.
         -1   -1    0    0    0  501 -0.00000000000E+00 -0.00000000000E+00 -0.85420789136E+03  0.85420789136E+03  0.00000000000E+00 0.  1.
         23    2    1    2    0    0  0.33373556299E+03  0.89750313207E+02 -0.60403659926E+03  0.70122673985E+03  0.86163697196E+02 0.  0.
        254    2    1    2    0    0 -0.33373556299E+03 -0.89750313207E+02  0.96004985887E+03  0.13632023025E+04  0.90398575277E+03 0.  0.
        -24    2    4    4    0    0 -0.15569279587E+03  0.38055597945E+03  0.62983922552E+03  0.75640173592E+03  0.79893904153E+02 0.  0.
         24    2    4    4    0    0 -0.17804276712E+03 -0.47030629266E+03  0.33021063334E+03  0.60680056654E+03  0.79250421701E+02 0.  0.
         13    1    3    3    0    0  0.33318584871E+03  0.80953860436E+02 -0.56250481462E+03  0.65877006897E+03  0.00000000000E+00 0.  1.
        -13    1    3    3    0    0  0.54971428007E+00  0.87964527710E+01 -0.41531784635E+02  0.42456670879E+02  0.00000000000E+00 0. -1.
          4    1    6    6  502    0 -0.51692171838E+02 -0.95792316327E+02  0.10813570132E+03  0.15343265101E+03  0.00000000000E+00 0. -1.
          3    1    5    5  503    0  0.65819492972E+01  0.45983063105E+01  0.22715340855E+02  0.24092596116E+02  0.00000000000E+00 0. -1.
         -4    1    5    5    0  503 -0.16227474516E+03  0.37595767314E+03  0.60712388467E+03  0.73230913981E+03  0.00000000000E+00 0.  1.
         -3    1    6    6    0  502 -0.12635059529E+03 -0.37451397633E+03  0.22207493203E+03  0.45336791553E+03  0.00000000000E+00 0.  1.
<mgrwt>
<rscale>  0 0.20334999E+04</rscale>
<asrwt>0</asrwt>
<pdfrwt beam="1">  1        1 0.18618787E+00 0.20334999E+04</pdfrwt>
<pdfrwt beam="2">  1       -1 0.13141660E+00 0.20334999E+04</pdfrwt>
<totfact> 0.47939823E+00</totfact>
</mgrwt>
</event>
<event>
12    1  0.1506149E-007  0.1521387E+04  0.7818608E-02  0.8870354E-01
         -2   -1    0    0    0  501 -0.00000000000E+00  0.00000000000E+00  0.27786962801E+04  0.27786962801E+04  0.00000000000E+00 0.  1.
          2   -1    0    0  501    0  0.00000000000E+00 -0.00000000000E+00 -0.20824666807E+03  0.20824666807E+03  0.00000000000E+00 0. -1.
         23    2    1    2    0    0  0.34583688195E+03 -0.21413665322E+03  0.31920101020E+03  0.52467657019E+03  0.89098615149E+02 0.  0.
        254    2    1    2    0    0 -0.34583688195E+03  0.21413665322E+03  0.22512486018E+04  0.24622663779E+04  0.91059200178E+03 0.  0.
        -24    2    4    4    0    0 -0.20194174340E+03 -0.19273571961E+03  0.17702884302E+03  0.34211524585E+03  0.88182225180E+02 0.  0.
         24    2    4    4    0    0 -0.14389513855E+03  0.40687237283E+03  0.20742197588E+04  0.21201511321E+04  0.80014227338E+02 0.  0.
         11    1    3    3    0    0  0.12616551132E+03 -0.12406663245E+03  0.11086334301E+03  0.20880839629E+03  0.00000000000E+00 0. -1.
        -11    1    3    3    0    0  0.21967137063E+03 -0.90070020763E+02  0.20833766719E+03  0.31586817390E+03  0.00000000000E+00 0.  1.
          4    1    6    6  502    0 -0.19557176718E+02  0.92793079053E+01  0.79406210319E+02  0.82303918216E+02  0.00000000000E+00 0. -1.
          3    1    5    5  503    0 -0.50822086522E+02 -0.71475580704E+02  0.10154505542E+03  0.13417541279E+03  0.00000000000E+00 0. -1.
         -4    1    5    5    0  503 -0.15111965688E+03 -0.12126013891E+03  0.75483787595E+02  0.20793983306E+03  0.00000000000E+00 0.  1.
         -3    1    6    6    0  502 -0.12433796183E+03  0.39759306492E+03  0.19948135484E+04  0.20378472139E+04  0.00000000000E+00 0.  1.
<mgrwt>
<rscale>  0 0.15213865E+04</rscale>
<asrwt>0</asrwt>
<pdfrwt beam="1">  1        2 0.32037951E-01 0.15213865E+04</pdfrwt>
<pdfrwt beam="2">  1       -2 0.42749171E+00 0.15213865E+04</pdfrwt>
<totfact> 0.78721441E-01</totfact>
</mgrwt>
</event>
<event>
12    1  0.1506149E-007  0.1391576E+04  0.7818608E-02  0.8959939E-01
         -1   -1    0    0    0  501 -0.00000000000E+00  0.00000000000E+00  0.30974784335E+03  0.30974784335E+03  0.00000000000E+00 0.  1.
          1   -1    0    0  501    0  0.00000000000E+00 -0.00000000000E+00 -0.15629519023E+04  0.15629519023E+04  0.00000000000E+00 0. -1.
         23    2    1    2    0    0  0.21916384691E+03 -0.32577342889E+03 -0.27075736344E+03  0.48555324642E+03  0.91056501611E+02 0.  0.
        254    2    1    2    0    0 -0.21916384691E+03  0.32577342889E+03 -0.98244669547E+03  0.13871464992E+04  0.89711358369E+03 0.  0.
        -24    2    4    4    0    0 -0.12669689864E+02 -0.27896333379E+03 -0.12980994394E+03  0.31870200244E+03  0.82093131121E+02 0.  0.
         24    2    4    4    0    0 -0.20649415704E+03  0.60473676268E+03 -0.85263675153E+03  0.10684444968E+04  0.78979893306E+02 0.  0.
         13    1    3    3    0    0  0.19936425687E+03 -0.25642965996E+03 -0.25181929317E+03  0.41099298515E+03  0.00000000000E+00 0.  1.
        -13    1    3    3    0    0  0.19799590034E+02 -0.69343768932E+02 -0.18938070266E+02  0.74560261270E+02  0.00000000000E+00 0. -1.
          4    1    6    6  502    0 -0.32528504124E+02  0.17514604151E+03 -0.27817177801E+03  0.33032374653E+03  0.00000000000E+00 0. -1.
          3    1    5    5  503    0 -0.13736917914E+02 -0.17538153011E+01 -0.66696656887E+01  0.15370856264E+02  0.00000000000E+00 0. -1.
         -4    1    5    5    0  503  0.10672280505E+01 -0.27720951849E+03 -0.12314027825E+03  0.30333114618E+03  0.00000000000E+00 0.  1.
         -3    1    6    6    0  502 -0.17396565292E+03  0.42959072118E+03 -0.57446497352E+03  0.73812075023E+03  0.00000000000E+00 0.  1.
<mgrwt>
<rscale>  0 0.13915761E+04</rscale>
<asrwt>0</asrwt>
<pdfrwt beam="1">  1        1 0.24045414E+00 0.13915761E+04</pdfrwt>
<pdfrwt beam="2">  1       -1 0.47653515E-01 0.13915761E+04</pdfrwt>
<totfact> 0.25388510E+01</totfact>
</mgrwt>
</event>
<event>
12    1  0.1506149E-007  0.2121699E+04  0.7818608E-02  0.8551745E-01
         -2   -1    0    0    0  501 -0.00000000000E+00  0.00000000000E+00  0.51423466407E+03  0.51423466407E+03  0.00000000000E+00 0.  1.
          2   -1    0    0  501    0  0.00000000000E+00 -0.00000000000E+00 -0.21884984613E+04  0.21884984613E+04  0.00000000000E+00 0. -1.
         23    2    1    2    0    0 -0.46854046452E+03  0.59302944213E+03 -0.14233518888E+03  0.77443864264E+03  0.91004500378E+02 0.  0.
        254    2    1    2    0    0  0.46854046452E+03 -0.59302944213E+03 -0.15319286084E+04  0.19282944827E+04  0.89459502847E+03 0.  0.
        -24    2    4    4    0    0  0.94199692555E+02 -0.44061842410E+03 -0.14343579051E+04  0.15055110005E+04  0.78502197632E+02 0.  0.
         24    2    4    4    0    0  0.37434077197E+03 -0.15241101803E+03 -0.97570703267E+02  0.42278348224E+03  0.76587849816E+02 0.  0.
         11    1    3    3    0    0 -0.32402139763E+03  0.47300671581E+03 -0.10373509807E+03  0.58265443437E+03  0.00000000000E+00 0.  1.
        -11    1    3    3    0    0 -0.14451906690E+03  0.12002272632E+03 -0.38600090819E+02  0.19178420827E+03  0.00000000000E+00 0. -1.
          2    1    6    6  502    0  0.22558063322E+02  0.73050583888E+01 -0.13898237922E+02  0.27484379495E+02  0.00000000000E+00 0. -1.
          1    1    5    5  503    0 -0.84875849854E+01 -0.23267208849E+02 -0.47331760800E+02  0.53420012045E+02  0.00000000000E+00 0. -1.
         -2    1    5    5    0  503  0.10268727754E+03 -0.41735121525E+03 -0.13870261443E+04  0.14520909885E+04  0.00000000000E+00 0.  1.
         -1    1    6    6    0  502  0.35178270865E+03 -0.15971607642E+03 -0.83672465344E+02  0.39529910274E+03  0.00000000000E+00 0.  1.
<mgrwt>
<rscale>  0 0.21216991E+04</rscale>
<asrwt>0</asrwt>
<pdfrwt beam="1">  1        2 0.33669207E+00 0.21216991E+04</pdfrwt>
<pdfrwt beam="2">  1       -2 0.79113025E-01 0.21216991E+04</pdfrwt>
<totfact> 0.68335724E+00</totfact>
</mgrwt>
</event>
<event>
12    1  0.1798330E-007  0.1993470E+04  0.7818608E-02  0.8609680E-01
          2   -1    0    0  501    0  0.00000000000E+00  0.00000000000E+00  0.98551566328E+03  0.98551566328E+03  0.00000000000E+00 0. -1.
         -2   -1    0    0    0  501 -0.00000000000E+00 -0.00000000000E+00 -0.10080823323E+04  0.10080823323E+04  0.00000000000E+00 0.  1.
         23    2    1    2    0    0 -0.11725118072E+03 -0.17682077545E+03 -0.77335247303E+03  0.80687072097E+03  0.89178959425E+02 0.  0.
        254    2    1    2    0    0  0.11725118072E+03  0.17682077545E+03  0.75078580403E+03  0.11867272746E+04  0.89421970158E+03 0.  0.
        -24    2    4    4    0    0  0.66715003687E+02  0.37157058660E+03  0.86112043485E+03  0.94361086461E+03  0.79733731626E+02 0.  0.
         24    2    4    4    0    0  0.50536177033E+02 -0.19474981115E+03 -0.11033463082E+03  0.24311640997E+03  0.80314780141E+02 0.  0.
         13    1    3    3    0    0 -0.12135432217E+03 -0.14332676942E+03 -0.71700293950E+03  0.74119002260E+03  0.00000000000E+00 0.  1.
        -13    1    3    3    0    0  0.41031414510E+01 -0.33494006033E+02 -0.56349533523E+02  0.65680698368E+02  0.00000000000E+00 0. -1.
          2    1    6    6  502    0  0.11446804354E+02 -0.43420027596E+01 -0.30711541172E+02  0.33061776708E+02  0.00000000000E+00 0. -1.
          1    1    5    5  503    0 -0.13679781066E+02  0.35462521776E+02  0.11998855853E+03  0.12586493173E+03  0.00000000000E+00 0. -1.
         -2    1    5    5    0  503  0.80394784752E+02  0.33610806482E+03  0.74113187632E+03  0.81774593288E+03  0.00000000000E+00 0.  1.
         -1    1    6    6    0  502  0.39089372679E+02 -0.19040780839E+03 -0.79623089649E+02  0.21005463326E+03  0.00000000000E+00 0.  1.
<mgrwt>
<rscale>  0 0.19934703E+04</rscale>
<asrwt>0</asrwt>
<pdfrwt beam="1">  1        2 0.15161779E+00 0.19934703E+04</pdfrwt>
<pdfrwt beam="2">  1       -2 0.15508959E+00 0.19934703E+04</pdfrwt>
<totfact> 0.65564811E+00</totfact>
</mgrwt>
</event>
<event>
12    1  0.1506149E-007  0.1709420E+04  0.7818608E-02  0.8756010E-01
         -1   -1    0    0    0  501 -0.00000000000E+00  0.00000000000E+00  0.58508175001E+03  0.58508175001E+03  0.00000000000E+00 0.  1.
          1   -1    0    0  501    0  0.00000000000E+00 -0.00000000000E+00 -0.12485934944E+04  0.12485934944E+04  0.00000000000E+00 0. -1.
         23    2    1    2    0    0 -0.48711143602E+03 -0.26770573978E+03 -0.52664721049E+03  0.77106397569E+03  0.90765941202E+02 0.  0.
        254    2    1    2    0    0  0.48711143602E+03  0.26770573978E+03 -0.13686453388E+03  0.10626112687E+04  0.89524683386E+03 0.  0.
        -24    2    4    4    0    0  0.35535505395E+03  0.33633571173E+03 -0.47455139055E+03  0.68586978283E+03  0.76285066461E+02 0.  0.
         24    2    4    4    0    0  0.13175638207E+03 -0.68629971958E+02  0.33768685667E+03  0.37674148588E+03  0.76366987306E+02 0.  0.
         11    1    3    3    0    0 -0.20642406577E+03 -0.63809183917E+02 -0.21214667882E+03  0.30280145346E+03  0.00000000000E+00 0. -1.
        -11    1    3    3    0    0 -0.28068737025E+03 -0.20389655586E+03 -0.31450053167E+03  0.46826252223E+03  0.00000000000E+00 0.  1.
          4    1    6    6  502    0  0.13466255859E+03 -0.46978317270E+02  0.26630503215E+03  0.30209160387E+03  0.00000000000E+00 0. -1.
          3    1    5    5  503    0  0.34401934603E+03  0.31316484090E+03 -0.46656650190E+03  0.65886707970E+03  0.00000000000E+00 0. -1.
         -4    1    5    5    0  503  0.11335707925E+02  0.23170870832E+02 -0.79848886466E+01  0.27002703124E+02  0.00000000000E+00 0.  1.
         -3    1    6    6    0  502 -0.29061765232E+01 -0.21651654688E+02  0.71381824521E+02  0.74649882014E+02  0.00000000000E+00 0.  1.
<mgrwt>
<rscale>  0 0.17094201E+04</rscale>
<asrwt>0</asrwt>
<pdfrwt beam="1">  1        1 0.19209131E+00 0.17094201E+04</pdfrwt>
<pdfrwt beam="2">  1       -1 0.90012577E-01 0.17094201E+04</pdfrwt>
<totfact> 0.11310827E+01</totfact>
</mgrwt>
</event>
<event>
12    1  0.1506149E-007  0.1680726E+04  0.7818608E-02  0.8772434E-01
         -2   -1    0    0    0  501 -0.00000000000E+00  0.00000000000E+00  0.35250713992E+03  0.35250713992E+03  0.00000000000E+00 0.  1.
          2   -1    0    0  501    0  0.00000000000E+00 -0.00000000000E+00 -0.20033925060E+04  0.20033925060E+04  0.00000000000E+00 0. -1.
         23    2    1    2    0    0 -0.28179280396E+03  0.49362287881E+03 -0.81002716014E+03  0.99401163171E+03  0.94044632731E+02 0.  0.
        254    2    1    2    0    0  0.28179280396E+03 -0.49362287881E+03 -0.84085820591E+03  0.13618880142E+04  0.90808904292E+03 0.  0.
        -24    2    4    4    0    0  0.50645252422E+03 -0.46623226445E+03 -0.27210501166E+03  0.74455306214E+03  0.80320864538E+02 0.  0.
         24    2    4    4    0    0 -0.22465972026E+03 -0.27390614367E+02 -0.56875319425E+03  0.61733495203E+03  0.80000071103E+02 0.  0.
         13    1    3    3    0    0 -0.58764858953E+02  0.41375389541E+02 -0.10114787338E+03  0.12408111781E+03  0.00000000000E+00 0.  1.
        -13    1    3    3    0    0 -0.22302794501E+03  0.45224748927E+03 -0.70887928677E+03  0.86993051390E+03  0.00000000000E+00 0. -1.
          2    1    6    6  502    0 -0.17784784825E+03 -0.85216335947E+01 -0.50829757656E+03  0.53858045054E+03  0.00000000000E+00 0. -1.
          1    1    5    5  503    0  0.29457696309E+03 -0.23213697824E+03 -0.11773596744E+03  0.39309658085E+03  0.00000000000E+00 0. -1.
         -4    1    5    5    0  503  0.21187556112E+03 -0.23409528621E+03 -0.15436904422E+03  0.35145648129E+03  0.00000000000E+00 0.  1.
         -1    1    6    6    0  502 -0.46811872000E+02 -0.18868980773E+02 -0.60455617687E+02  0.78754501493E+02  0.00000000000E+00 0.  1.
<mgrwt>
<rscale>  0 0.16807262E+04</rscale>
<asrwt>0</asrwt>
<pdfrwt beam="1">  1        2 0.30821423E+00 0.16807262E+04</pdfrwt>
<pdfrwt beam="2">  1       -2 0.54231868E-01 0.16807262E+04</pdfrwt>
<totfact> 0.20296621E+01</totfact>
</mgrwt>
</event>
<event>
12    1  0.1506149E-007  0.1993984E+04  0.7818608E-02  0.8609438E-01
          2   -1    0    0  501    0  0.00000000000E+00  0.00000000000E+00  0.31545606598E+04  0.31545606598E+04  0.00000000000E+00 0.  1.
         -2   -1    0    0    0  501 -0.00000000000E+00 -0.00000000000E+00 -0.31509718631E+03  0.31509718631E+03  0.00000000000E+00 0. -1.
         23    2    1    2    0    0 -0.46257854190E+03 -0.24987721919E+03  0.10638675040E+03  0.54406382801E+03  0.90938309827E+02 0.  0.
        254    2    1    2    0    0  0.46257854190E+03  0.24987721919E+03  0.27330767231E+04  0.29255940181E+04  0.90165095924E+03 0.  0.
        -24    2    4    4    0    0  0.72925985471E+02 -0.52372539663E+02  0.21680835404E+04  0.21713858769E+04  0.79178949263E+02 0.  0.
         24    2    4    4    0    0  0.38965255642E+03  0.30224975885E+03  0.56499318268E+03  0.75420814118E+03  0.80178502644E+02 0.  0.
         11    1    3    3    0    0 -0.89023209266E+02 -0.12769730146E+02  0.31670065034E+02  0.95347736288E+02  0.00000000000E+00 0.  1.
        -11    1    3    3    0    0 -0.37355533263E+03 -0.23710748904E+03  0.74716685365E+02  0.44871609172E+03  0.00000000000E+00 0. -1.
          2    1    6    6  502    0  0.38090618744E+03  0.29708074107E+03  0.56586735454E+03  0.74401099002E+03  0.00000000000E+00 0. -1.
          3    1    5    5  503    0  0.61948722622E+02 -0.68899024105E+02  0.14089983069E+04  0.14120414117E+04  0.00000000000E+00 0. -1.
         -4    1    5    5    0  503  0.10977262848E+02  0.16526484443E+02  0.75908523352E+03  0.75934446514E+03  0.00000000000E+00 0.  1.
         -1    1    6    6    0  502  0.87463689859E+01  0.51690177794E+01 -0.87417185334E+00  0.10197151155E+02  0.00000000000E+00 0.  1.
<mgrwt>
<rscale>  0 0.19939841E+04</rscale>
<asrwt>0</asrwt>
<pdfrwt beam="1">  1        2 0.48531700E+00 0.19939841E+04</pdfrwt>
<pdfrwt beam="2">  1       -2 0.48476492E-01 0.19939841E+04</pdfrwt>
<totfact> 0.52171788E+00</totfact>
</mgrwt>
</event>
<event>
12    1  0.1878969E-007  0.2452431E+04  0.7818608E-02  0.8420131E-01
         -2   -1    0    0    0  501 -0.00000000000E+00  0.00000000000E+00  0.12375822600E+04  0.12375822600E+04  0.00000000000E+00 0.  1.
          2   -1    0    0  501    0  0.00000000000E+00 -0.00000000000E+00 -0.12149535618E+04  0.12149535618E+04  0.00000000000E+00 0. -1.
         23    2    1    2    0    0 -0.49806724744E+03 -0.29460530599E+03  0.89821858761E+03  0.10714540740E+04  0.79711556539E+02 0.  0.
        254    2    1    2    0    0  0.49806724744E+03  0.29460530599E+03 -0.87558988943E+03  0.13810817478E+04  0.89770032328E+03 0.  0.
        -24    2    4    4    0    0  0.63188483659E+03  0.38213203606E+03 -0.93337204116E+03  0.11929259254E+04  0.81151442339E+02 0.  0.
         24    2    4    4    0    0 -0.13381758915E+03 -0.87526730065E+02  0.57782151733E+02  0.18815582242E+03  0.80596282854E+02 0.  0.
         11    1    3    3    0    0 -0.11248919880E+03 -0.66493407177E+02  0.26879294784E+03  0.29887261810E+03  0.00000000000E+00 0. -1.
        -11    1    3    3    0    0 -0.38557804864E+03 -0.22811189882E+03  0.62942563977E+03  0.77258145588E+03  0.00000000000E+00 0.  1.
          4    1    6    6  502    0 -0.92650582216E+01 -0.33106918654E+02  0.37252768878E+02  0.50691993013E+02  0.00000000000E+00 0. -1.
          3    1    5    5  503    0  0.19004261293E+03  0.15881144114E+03 -0.32283146393E+03  0.40688748158E+03  0.00000000000E+00 0. -1.
         -4    1    5    5    0  503  0.44184222366E+03  0.22332059492E+03 -0.61054057723E+03  0.78603844383E+03  0.00000000000E+00 0.  1.
         -3    1    6    6    0  502 -0.12455253093E+03 -0.54419811411E+02  0.20529382854E+02  0.13746382941E+03  0.00000000000E+00 0.  1.
<mgrwt>
<rscale>  0 0.24524314E+04</rscale>
<asrwt>0</asrwt>
<pdfrwt beam="1">  1        2 0.18691593E+00 0.24524314E+04</pdfrwt>
<pdfrwt beam="2">  1       -2 0.19039727E+00 0.24524314E+04</pdfrwt>
<totfact> 0.25593787E+00</totfact>
</mgrwt>
</event>
<event>
12    1  0.1506149E-007  0.1245029E+04  0.7818608E-02  0.9074331E-01
          2   -1    0    0  501    0  0.00000000000E+00  0.00000000000E+00  0.15144604455E+04  0.15144604455E+04  0.00000000000E+00 0. -1.
         -2   -1    0    0    0  501 -0.00000000000E+00 -0.00000000000E+00 -0.25588284134E+03  0.25588284134E+03  0.00000000000E+00 0.  1.
         23    2    1    2    0    0  0.21396209532E+03  0.16919521117E+03  0.42168387527E+03  0.51047719152E+03  0.91448754393E+02 0.  0.
        254    2    1    2    0    0 -0.21396209532E+03 -0.16919521117E+03  0.83689372885E+03  0.12598660953E+04  0.90136821940E+03 0.  0.
        -24    2    4    4    0    0 -0.15081284995E+03 -0.21673409667E+03  0.10135518211E+04  0.10503433049E+04  0.78838947645E+02 0.  0.
         24    2    4    4    0    0 -0.63149245371E+02  0.47538885501E+02 -0.17665809226E+03  0.20952279041E+03  0.80274188353E+02 0.  0.
         13    1    3    3    0    0  0.21787686848E+03  0.14199941639E+03  0.38614225730E+03  0.46555344156E+03  0.00000000000E+00 0. -1.
        -13    1    3    3    0    0 -0.39147731568E+01  0.27195794780E+02  0.35541617966E+02  0.44923749958E+02  0.00000000000E+00 0.  1.
          4    1    6    6  502    0 -0.68089015199E+02  0.33480217932E+01 -0.10884873152E+03  0.12843430070E+03  0.00000000000E+00 0. -1.
          3    1    5    5  503    0 -0.38926673188E+02 -0.79850319693E+02  0.48327844380E+03  0.49137502347E+03  0.00000000000E+00 0. -1.
         -4    1    5    5    0  503 -0.11188617676E+03 -0.13688377697E+03  0.53027337730E+03  0.55896828141E+03  0.00000000000E+00 0.  1.
         -3    1    6    6    0  502  0.49397698280E+01  0.44190863708E+02 -0.67809360732E+02  0.81088489714E+02  0.00000000000E+00 0.  1.
<mgrwt>
<rscale>  0 0.12450292E+04</rscale>
<asrwt>0</asrwt>
<pdfrwt beam="1">  1        2 0.23299391E+00 0.12450292E+04</pdfrwt>
<pdfrwt beam="2">  1       -2 0.39366592E-01 0.12450292E+04</pdfrwt>
<totfact> 0.74750081E+01</totfact>
</mgrwt>
</event>
<event>
12    1  0.1506149E-007  0.1834091E+04  0.7818608E-02  0.8688377E-01
          1   -1    0    0  501    0  0.00000000000E+00  0.00000000000E+00  0.95953561806E+03  0.95953561806E+03  0.00000000000E+00 0. -1.
         -1   -1    0    0    0  501 -0.00000000000E+00 -0.00000000000E+00 -0.87643704862E+03  0.87643704862E+03  0.00000000000E+00 0.  1.
         23    2    1    2    0    0  0.38256205804E+03 -0.51867201653E+03 -0.21501494595E+03  0.68580234459E+03  0.93375799226E+02 0.  0.
        254    2    1    2    0    0 -0.38256205804E+03  0.51867201653E+03  0.29811351539E+03  0.11501703221E+04  0.90479042478E+03 0.  0.
        -24    2    4    4    0    0  0.28640696016E+02  0.19441325331E+03 -0.28948662134E+03  0.35896706990E+03  0.80237465106E+02 0.  0.
         24    2    4    4    0    0 -0.41120275405E+03  0.32425876322E+03  0.58760013673E+03  0.79120325219E+03  0.80605304519E+02 0.  0.
         13    1    3    3    0    0  0.74672441764E+02 -0.60184749382E+02 -0.88986120286E+01  0.96319068274E+02  0.00000000000E+00 0. -1.
        -13    1    3    3    0    0  0.30788961627E+03 -0.45848726715E+03 -0.20611633392E+03  0.58948327631E+03  0.00000000000E+00 0.  1.
          4    1    6    6  502    0  0.32908799818E+01  0.72775779356E+01  0.10161590335E+02  0.12924819140E+02  0.00000000000E+00 0. -1.
          3    1    5    5  503    0 -0.22984759932E+02  0.89241941743E+02 -0.98326816020E+02  0.13476121884E+03  0.00000000000E+00 0. -1.
         -2    1    5    5    0  503  0.51625455947E+02  0.10517131157E+03 -0.19115980532E+03  0.22420585106E+03  0.00000000000E+00 0.  1.
         -3    1    6    6    0  502 -0.41449363403E+03  0.31698118528E+03  0.57743854640E+03  0.77827843305E+03  0.00000000000E+00 0.  1.
<mgrwt>
<rscale>  0 0.18340911E+04</rscale>
<asrwt>0</asrwt>
<pdfrwt beam="1">  1        1 0.14762086E+00 0.18340911E+04</pdfrwt>
<pdfrwt beam="2">  1       -1 0.13483647E+00 0.18340911E+04</pdfrwt>
<totfact> 0.70816092E+00</totfact>
</mgrwt>
</event>
<event>
12    1  0.1506149E-007  0.1230780E+04  0.7818608E-02  0.9086334E-01
         -2   -1    0    0    0  501 -0.00000000000E+00  0.00000000000E+00  0.88081222927E+02  0.88081222927E+02  0.00000000000E+00 0.  1.
          2   -1    0    0  501    0  0.00000000000E+00 -0.00000000000E+00 -0.42994928005E+04  0.42994928005E+04  0.00000000000E+00 0. -1.
         23    2    1    2    0    0 -0.76376340938E+02 -0.25563214614E+03 -0.67687476028E+03  0.73311560043E+03  0.90099405616E+02 0.  0.
        254    2    1    2    0    0  0.76376340938E+02  0.25563214614E+03 -0.35345368173E+04  0.36544584230E+04  0.88934510345E+03 0.  0.
        -24    2    4    4    0    0 -0.24446705394E+03 -0.15041811086E+03 -0.55890341523E+03  0.63307839726E+03  0.77623971654E+02 0.  0.
         24    2    4    4    0    0  0.32084339488E+03  0.40605025701E+03 -0.29756334021E+04  0.30213800258E+04  0.80782555256E+02 0.  0.
         11    1    3    3    0    0 -0.77145036820E+02 -0.10366373600E+03 -0.33088052571E+03  0.35521746742E+03  0.00000000000E+00 0. -1.
        -11    1    3    3    0    0  0.76869588177E+00 -0.15196841015E+03 -0.34599423457E+03  0.37789813301E+03  0.00000000000E+00 0.  1.
          4    1    6    6  502    0  0.27675004957E+02  0.76486823158E+02 -0.54730789902E+03  0.55331914511E+03  0.00000000000E+00 0. -1.
          1    1    5    5  503    0 -0.15783981850E+03 -0.62708512837E+02 -0.37513273601E+03  0.41178918819E+03  0.00000000000E+00 0. -1.
         -2    1    5    5    0  503 -0.86627235442E+02 -0.87709598024E+02 -0.18377067923E+03  0.22128920907E+03  0.00000000000E+00 0.  1.
         -1    1    6    6    0  502  0.29316838992E+03  0.32956343385E+03 -0.24283255031E+04  0.24680608807E+04  0.00000000000E+00 0.  1.
<mgrwt>
<rscale>  0 0.12307796E+04</rscale>
<asrwt>0</asrwt>
<pdfrwt beam="1">  1        2 0.66146037E+00 0.12307796E+04</pdfrwt>
<pdfrwt beam="2">  1       -2 0.13550959E-01 0.12307796E+04</pdfrwt>
<totfact> 0.81719466E+00</totfact>
</mgrwt>
</event>
<event>
12    1  0.1506149E-007  0.1991306E+04  0.7818608E-02  0.8610696E-01
         -2   -1    0    0    0  501 -0.00000000000E+00  0.00000000000E+00  0.12025888243E+04  0.12025888243E+04  0.00000000000E+00 0.  1.
          2   -1    0    0  501    0  0.00000000000E+00 -0.00000000000E+00 -0.82432552798E+03  0.82432552798E+03  0.00000000000E+00 0. -1.
         23    2    1    2    0    0 -0.44166553383E+03 -0.49755913098E+03 -0.28354103428E+03  0.72862210905E+03  0.88662997284E+02 0.  0.
        254    2    1    2    0    0  0.44166553383E+03  0.49755913098E+03  0.66180433058E+03  0.12982922432E+04  0.89718685022E+03 0.  0.
        -24    2    4    4    0    0  0.65246967465E+03  0.10598345817E+03  0.40020112236E+03  0.77654615482E+03  0.76901381556E+02 0.  0.
         24    2    4    4    0    0 -0.21080414082E+03  0.39157567281E+03  0.26160320822E+03  0.52174608839E+03  0.77542561662E+02 0.  0.
         13    1    3    3    0    0 -0.40423447314E+03 -0.45666523987E+03 -0.23074876862E+03  0.65206874239E+03  0.00000000000E+00 0. -1.
        -13    1    3    3    0    0 -0.37431060686E+02 -0.40893891110E+02 -0.52792265656E+02  0.76553366662E+02  0.00000000000E+00 0.  1.
          4    1    6    6  502    0 -0.19792087192E+03  0.37783690226E+03  0.26562943192E+03  0.50248621011E+03  0.00000000000E+00 0. -1.
          3    1    5    5  503    0  0.39689577501E+03  0.89753184645E+02  0.21271079082E+03  0.45915985333E+03  0.00000000000E+00 0. -1.
         -4    1    5    5    0  503  0.25557389964E+03  0.16230273521E+02  0.18749033154E+03  0.31738630149E+03  0.00000000000E+00 0.  1.
         -3    1    6    6    0  502 -0.12883268905E+02  0.13738770556E+02 -0.40262236972E+01  0.19259878279E+02  0.00000000000E+00 0.  1.
<mgrwt>
<rscale>  0 0.19913058E+04</rscale>
<asrwt>0</asrwt>
<pdfrwt beam="1">  1        2 0.12681931E+00 0.19913058E+04</pdfrwt>
<pdfrwt beam="2">  1       -2 0.18501367E+00 0.19913058E+04</pdfrwt>
<totfact> 0.51509304E+00</totfact>
</mgrwt>
</event>
<event>
12    1  0.1506149E-007  0.1688755E+04  0.7818608E-02  0.8767804E-01
          2   -1    0    0  501    0  0.00000000000E+00  0.00000000000E+00  0.24930968245E+04  0.24930968245E+04  0.00000000000E+00 0. -1.
         -2   -1    0    0    0  501 -0.00000000000E+00 -0.00000000000E+00 -0.28597904325E+03  0.28597904325E+03  0.00000000000E+00 0.  1.
         23    2    1    2    0    0  0.56281004368E+03  0.17666619696E+03  0.77651809788E+03  0.97983310981E+03  0.95532593071E+02 0.  0.
        254    2    1    2    0    0 -0.56281004368E+03 -0.17666619696E+03  0.14305996834E+04  0.17992427580E+04  0.91798309220E+03 0.  0.
        -24    2    4    4    0    0 -0.75568188175E+03 -0.50603471054E+02  0.13365729773E+04  0.15383456811E+04  0.80400828026E+02 0.  0.
         24    2    4    4    0    0  0.19287183807E+03 -0.12606272590E+03  0.94026706099E+02  0.26089707690E+03  0.78325643883E+02 0.  0.
         13    1    3    3    0    0  0.10394700649E+03  0.71538497107E+02  0.18307426895E+03  0.22234865567E+03  0.00000000000E+00 0. -1.
        -13    1    3    3    0    0  0.45886303719E+03  0.10512769985E+03  0.59344382892E+03  0.75748445414E+03  0.00000000000E+00 0.  1.
          2    1    6    6  502    0  0.15614633027E+03 -0.87922655021E+02  0.36808489058E+02  0.18293970206E+03  0.00000000000E+00 0. -1.
          1    1    5    5  503    0 -0.75454974694E+03 -0.44976000449E+02  0.13266779786E+04  0.15269062250E+04  0.00000000000E+00 0. -1.
         -2    1    5    5    0  503 -0.11321348076E+01 -0.56274706058E+01  0.98949987158E+01  0.11439456028E+02  0.00000000000E+00 0.  1.
         -1    1    6    6    0  502  0.36725507804E+02 -0.38140070883E+02  0.57218217041E+02  0.77957374839E+02  0.00000000000E+00 0.  1.
<mgrwt>
<rscale>  0 0.16887551E+04</rscale>
<asrwt>0</asrwt>
<pdfrwt beam="1">  1        2 0.38355334E+00 0.16887551E+04</pdfrwt>
<pdfrwt beam="2">  1       -2 0.43996778E-01 0.16887551E+04</pdfrwt>
<totfact> 0.16419724E+01</totfact>
</mgrwt>
</event>
<event>
12    1  0.1506149E-007  0.1475200E+04  0.7818608E-02  0.8901114E-01
          2   -1    0    0  501    0  0.00000000000E+00  0.00000000000E+00  0.28070445229E+04  0.28070445229E+04  0.00000000000E+00 0.  1.
         -2   -1    0    0    0  501 -0.00000000000E+00 -0.00000000000E+00 -0.19381738874E+03  0.19381738874E+03  0.00000000000E+00 0. -1.
         23    2    1    2    0    0  0.36886295740E+03 -0.55011927049E+02  0.13666857870E+04  0.14196143661E+04  0.91589926874E+02 0.  0.
        254    2    1    2    0    0 -0.36886295740E+03  0.55011927049E+02  0.12465413472E+04  0.15812475456E+04  0.89855009685E+03 0.  0.
        -24    2    4    4    0    0  0.17257273108E+03  0.31379770248E+03  0.48142235915E+03  0.60542607162E+03  0.80764439666E+02 0.  0.
         24    2    4    4    0    0 -0.54143568848E+03 -0.25878577543E+03  0.76511898810E+03  0.97582147396E+03  0.81840092746E+02 0.  0.
         13    1    3    3    0    0  0.11062470554E+03 -0.19499659493E+02  0.58272384865E+03  0.59345189019E+03  0.00000000000E+00 0. -1.
        -13    1    3    3    0    0  0.25823825186E+03 -0.35512267556E+02  0.78396193832E+03  0.82616247591E+03  0.00000000000E+00 0.  1.
          4    1    6    6  502    0 -0.47581410184E+02 -0.41351915688E+02  0.11305560469E+03  0.12944319711E+03  0.00000000000E+00 0. -1.
          1    1    5    5  503    0  0.10225728957E+03  0.25038357796E+03  0.38282618037E+03  0.46872633141E+03  0.00000000000E+00 0. -1.
         -2    1    5    5    0  503  0.70315441507E+02  0.63414124520E+02  0.98596178778E+02  0.13669974021E+03  0.00000000000E+00 0.  1.
         -3    1    6    6    0  502 -0.49385427829E+03 -0.21743385974E+03  0.65206338341E+03  0.84637827686E+03  0.00000000000E+00 0.  1.
<mgrwt>
<rscale>  0 0.14752004E+04</rscale>
<asrwt>0</asrwt>
<pdfrwt beam="1">  1        2 0.43185297E+00 0.14752004E+04</pdfrwt>
<pdfrwt beam="2">  1       -2 0.29818062E-01 0.14752004E+04</pdfrwt>
<totfact> 0.23118769E+01</totfact>
</mgrwt>
</event>
<event>
12    1  0.1506149E-007  0.3889807E+04  0.7818608E-02  0.8027153E-01
         -2   -1    0    0    0  501 -0.00000000000E+00  0.00000000000E+00  0.16140076271E+04  0.16140076271E+04  0.00000000000E+00 0.  1.
          2   -1    0    0  501    0  0.00000000000E+00 -0.00000000000E+00 -0.23436376126E+04  0.23436376126E+04  0.00000000000E+00 0. -1.
         23    2    1    2    0    0 -0.85189425887E+02  0.15739492512E+04  0.55123811951E+03  0.16722746463E+04  0.89808378122E+02 0.  0.
        254    2    1    2    0    0  0.85189425887E+02 -0.15739492512E+04 -0.12808681050E+04  0.22853705934E+04  0.10477223694E+04 0.  0.
        -24    2    4    4    0    0  0.23764646023E+03 -0.72089503609E+03 -0.33106462217E+02  0.76406202581E+03  0.80803764246E+02 0.  0.
         24    2    4    4    0    0 -0.15245703434E+03 -0.85305421509E+03 -0.12477616428E+04  0.15213085676E+04  0.80783659093E+02 0.  0.
         13    1    3    3    0    0 -0.46289687057E+02  0.13027266324E+04  0.42986168268E+03  0.13725962553E+04  0.00000000000E+00 0.  1.
        -13    1    3    3    0    0 -0.38899738831E+02  0.27122261881E+03  0.12137643683E+03  0.29967839104E+03  0.00000000000E+00 0. -1.
          2    1    6    6  502    0 -0.10411092814E+03 -0.54969321907E+03 -0.73714514154E+03  0.92541054681E+03  0.00000000000E+00 0. -1.
          1    1    5    5  503    0  0.85009928726E+02 -0.38674258221E+03 -0.18659203354E+02  0.39641478119E+03  0.00000000000E+00 0. -1.
         -2    1    5    5    0  503  0.15263653150E+03 -0.33415245388E+03 -0.14447258863E+02  0.36764724462E+03  0.00000000000E+00 0.  1.
         -1    1    6    6    0  502 -0.48346106198E+02 -0.30336099602E+03 -0.51061650123E+03  0.59589802082E+03  0.00000000000E+00 0.  1.
<mgrwt>
<rscale>  0 0.38898067E+04</rscale>
<asrwt>0</asrwt>
<pdfrwt beam="1">  1        2 0.36055963E+00 0.38898067E+04</pdfrwt>
<pdfrwt beam="2">  1       -2 0.24830887E+00 0.38898067E+04</pdfrwt>
<totfact> 0.22433113E-01</totfact>
</mgrwt>
</event>
<event>
12    1  0.1506149E-007  0.2144751E+04  0.7818608E-02  0.8541782E-01
          2   -1    0    0  501    0  0.00000000000E+00  0.00000000000E+00  0.38308976419E+04  0.38308976419E+04  0.00000000000E+00 0. -1.
         -2   -1    0    0    0  501 -0.00000000000E+00 -0.00000000000E+00 -0.30018798462E+03  0.30018798462E+03  0.00000000000E+00 0.  1.
         23    2    1    2    0    0  0.53710740021E+03 -0.14898766194E+03  0.27678599077E+04  0.28249166230E+04  0.91781128064E+02 0.  0.
        254    2    1    2    0    0 -0.53710740021E+03  0.14898766194E+03  0.76284974964E+03  0.13061690036E+04  0.90191798000E+03 0.  0.
        -24    2    4    4    0    0 -0.64734010825E+03  0.31843509503E+03  0.80615958308E+03  0.10848054671E+04  0.80371031001E+02 0.  0.
         24    2    4    4    0    0  0.11023270804E+03 -0.16944743310E+03 -0.43309833444E+02  0.22136353646E+03  0.79135270866E+02 0.  0.
         11    1    3    3    0    0  0.53425380998E+03 -0.15066498894E+03  0.27659392856E+04  0.28210897192E+04  0.00000000000E+00 0. -1.
        -11    1    3    3    0    0  0.28535902300E+01  0.16773270016E+01  0.19206220833E+01  0.38269037429E+01  0.00000000000E+00 0.  1.
          4    1    6    6  502    0  0.92049104817E+02 -0.12211722733E+03  0.26263666643E+01  0.15294624124E+03  0.00000000000E+00 0. -1.
          3    1    5    5  503    0 -0.34049678250E+03  0.19925467124E+03  0.39725862445E+03  0.55987042930E+03  0.00000000000E+00 0. -1.
         -4    1    5    5    0  503 -0.30684332575E+03  0.11918042379E+03  0.40890095863E+03  0.52493503783E+03  0.00000000000E+00 0.  1.
         -3    1    6    6    0  502  0.18183603222E+02 -0.47330205768E+02 -0.45936200108E+02  0.68417295215E+02  0.00000000000E+00 0.  1.
<mgrwt>
<rscale>  0 0.21447512E+04</rscale>
<asrwt>0</asrwt>
<pdfrwt beam="1">  1        2 0.58936883E+00 0.21447512E+04</pdfrwt>
<pdfrwt beam="2">  1       -2 0.46182770E-01 0.21447512E+04</pdfrwt>
<totfact> 0.19109897E+00</totfact>
</mgrwt>
</event>
<event>
12    1  0.1506149E-007  0.1200047E+04  0.7818608E-02  0.9112815E-01
         -2   -1    0    0    0  501 -0.00000000000E+00  0.00000000000E+00  0.46793946424E+03  0.46793946424E+03  0.00000000000E+00 0.  1.
          2   -1    0    0  501    0  0.00000000000E+00 -0.00000000000E+00 -0.76939117792E+03  0.76939117792E+03  0.00000000000E+00 0. -1.
         23    2    1    2    0    0 -0.10201564961E+03  0.92239923026E+02  0.15175385238E+03  0.22411595948E+03  0.91012831040E+02 0.  0.
        254    2    1    2    0    0  0.10201564961E+03 -0.92239923026E+02 -0.45320556606E+03  0.10132146827E+04  0.89570827389E+03 0.  0.
        -24    2    4    4    0    0  0.18570019556E+03 -0.46896593746E+03 -0.28415133646E+03  0.58438527893E+03  0.79690395188E+02 0.  0.
         24    2    4    4    0    0 -0.83684545953E+02  0.37672601443E+03 -0.16905422960E+03  0.42882940375E+03  0.79935797930E+02 0.  0.
         11    1    3    3    0    0 -0.89935631971E+02  0.83891756166E+02  0.70945249236E+02  0.14198405910E+03  0.00000000000E+00 0.  1.
        -11    1    3    3    0    0 -0.12080017639E+02  0.83481668596E+01  0.80808603147E+02  0.82131900372E+02  0.00000000000E+00 0. -1.
          4    1    6    6  502    0 -0.31057731645E+02  0.59256337571E+02 -0.36355918102E+01  0.67000848988E+02  0.00000000000E+00 0. -1.
          1    1    5    5  503    0 -0.15371247462E+01 -0.85442874918E+01 -0.19355424873E+02  0.21213205162E+02  0.00000000000E+00 0. -1.
         -2    1    5    5    0  503  0.18723732031E+03 -0.46042164997E+03 -0.26479591159E+03  0.56317207377E+03  0.00000000000E+00 0.  1.
         -3    1    6    6    0  502 -0.52626814308E+02  0.31746967686E+03 -0.16541863779E+03  0.36182855476E+03  0.00000000000E+00 0.  1.
<mgrwt>
<rscale>  0 0.12000475E+04</rscale>
<asrwt>0</asrwt>
<pdfrwt beam="1">  1        2 0.11836787E+00 0.12000475E+04</pdfrwt>
<pdfrwt beam="2">  1       -2 0.71990688E-01 0.12000475E+04</pdfrwt>
<totfact> 0.62591436E+01</totfact>
</mgrwt>
</event>
<event>
12    1  0.1506149E-007  0.1917157E+04  0.7818608E-02  0.8646363E-01
          1   -1    0    0  501    0  0.00000000000E+00  0.00000000000E+00  0.58878237201E+03  0.58878237201E+03  0.00000000000E+00 0. -1.
         -1   -1    0    0    0  501 -0.00000000000E+00 -0.00000000000E+00 -0.15606317819E+04  0.15606317819E+04  0.00000000000E+00 0.  1.
         23    2    1    2    0    0 -0.47746047843E+03 -0.30054877661E+03  0.16459990196E+03  0.59387977755E+03  0.85451664015E+02 0.  0.
        254    2    1    2    0    0  0.47746047843E+03  0.30054877661E+03 -0.11364493118E+04  0.15555343764E+04  0.89992893167E+03 0.  0.
        -24    2    4    4    0    0  0.69705504493E+03  0.25351943091E+03 -0.56535218357E+03  0.93665203763E+03  0.86810774745E+02 0.  0.
         24    2    4    4    0    0 -0.21959456650E+03  0.47029345695E+02 -0.57109712828E+03  0.61888233873E+03  0.80186571637E+02 0.  0.
         13    1    3    3    0    0 -0.91494871024E+02 -0.67626787844E+02  0.68968229361E+02  0.13304627210E+03  0.00000000000E+00 0.  1.
        -13    1    3    3    0    0 -0.38596560741E+03 -0.23292198876E+03  0.95631672595E+02  0.46083350546E+03  0.00000000000E+00 0. -1.
          4    1    6    6  502    0 -0.10610208166E+02  0.25030286707E+02 -0.48168647442E+02  0.55311032953E+02  0.00000000000E+00 0. -1.
          1    1    5    5  503    0  0.17027443769E+03  0.94602860376E+02 -0.12011287749E+03  0.22884533786E+03  0.00000000000E+00 0. -1.
         -2    1    5    5    0  503  0.52678060724E+03  0.15891657053E+03 -0.44523930608E+03  0.70780669977E+03  0.00000000000E+00 0.  1.
         -3    1    6    6    0  502 -0.20898435834E+03  0.21999058988E+02 -0.52292848084E+03  0.56357130578E+03  0.00000000000E+00 0.  1.
<mgrwt>
<rscale>  0 0.19171567E+04</rscale>
<asrwt>0</asrwt>
<pdfrwt beam="1">  1        1 0.90581905E-01 0.19171567E+04</pdfrwt>
<pdfrwt beam="2">  1       -1 0.24009719E+00 0.19171567E+04</pdfrwt>
<totfact> 0.26617211E+00</totfact>
</mgrwt>
</event>
<event>
12    1  0.1506149E-007  0.2092464E+04  0.7818608E-02  0.8564570E-01
          2   -1    0    0  501    0  0.00000000000E+00  0.00000000000E+00  0.23355647754E+04  0.23355647754E+04  0.00000000000E+00 0. -1.
         -2   -1    0    0    0  501 -0.00000000000E+00 -0.00000000000E+00 -0.46866687184E+03  0.46866687184E+03  0.00000000000E+00 0.  1.
         23    2    1    2    0    0 -0.53570840196E+03  0.52883619353E+03  0.23898662591E+03  0.79531354149E+03  0.93583173744E+02 0.  0.
        254    2    1    2    0    0  0.53570840196E+03 -0.52883619353E+03  0.16279112776E+04  0.20089181057E+04  0.90498929065E+03 0.  0.
        -24    2    4    4    0    0  0.14712989951E+03 -0.66562505052E+03  0.65282018690E+03  0.94690794029E+03  0.75871837690E+02 0.  0.
         24    2    4    4    0    0  0.38857850245E+03  0.13678885700E+03  0.97509109073E+03  0.10620101654E+04  0.85781771378E+02 0.  0.
         11    1    3    3    0    0 -0.52945025444E+03  0.50928368706E+03  0.21880820351E+03  0.76652754403E+03  0.00000000000E+00 0.  1.
        -11    1    3    3    0    0 -0.62581475178E+01  0.19552506464E+02  0.20178422401E+02  0.28785997463E+02  0.00000000000E+00 0. -1.
          2    1    6    6  502    0  0.31472628462E+03  0.12252796731E+03  0.86576310232E+03  0.92930699252E+03  0.00000000000E+00 0. -1.
          1    1    5    5  503    0  0.14328240301E+03 -0.49975634574E+03  0.48800965534E+03  0.71304956057E+03  0.00000000000E+00 0. -1.
         -2    1    5    5    0  503  0.38474965018E+01 -0.16586870479E+03  0.16481053156E+03  0.23385837973E+03  0.00000000000E+00 0.  1.
         -1    1    6    6    0  502  0.73852217821E+02  0.14260889694E+02  0.10932798841E+03  0.13270317292E+03  0.00000000000E+00 0.  1.
<mgrwt>
<rscale>  0 0.20924644E+04</rscale>
<asrwt>0</asrwt>
<pdfrwt beam="1">  1        2 0.35931765E+00 0.20924644E+04</pdfrwt>
<pdfrwt beam="2">  1       -2 0.72102597E-01 0.20924644E+04</pdfrwt>
<totfact> 0.69518456E+00</totfact>
</mgrwt>
</event>
<event>
12    1  0.1506149E-007  0.1097064E+04  0.7818608E-02  0.9208058E-01
         -1   -1    0    0    0  501 -0.00000000000E+00  0.00000000000E+00  0.47531374759E+03  0.47531374759E+03  0.00000000000E+00 0.  1.
          1   -1    0    0  501    0  0.00000000000E+00 -0.00000000000E+00 -0.63302922064E+03  0.63302922064E+03  0.00000000000E+00 0. -1.
         23    2    1    2    0    0 -0.61792503250E+02  0.16925450355E+03  0.13580874266E+02  0.20263521329E+03  0.91712535066E+02 0.  0.
        254    2    1    2    0    0  0.61792503250E+02 -0.16925450355E+03 -0.17129634732E+03  0.90570775495E+03  0.87091830750E+03 0.  0.
        -24    2    4    4    0    0 -0.19511476979E+03 -0.43205512779E+03 -0.21514640123E+03  0.52692220336E+03  0.81348801978E+02 0.  0.
         24    2    4    4    0    0  0.25690727304E+03  0.26280062425E+03  0.43850053905E+02  0.37878555159E+03  0.80561478489E+02 0.  0.
         11    1    3    3    0    0  0.23962927520E+02  0.27280792398E+02  0.30367905792E+01  0.36437420685E+02  0.00000000000E+00 0. -1.
        -11    1    3    3    0    0 -0.85755430770E+02  0.14197371115E+03  0.10544083687E+02  0.16619779260E+03  0.00000000000E+00 0.  1.
          4    1    6    6  502    0  0.15344284114E+01  0.28771291716E+02  0.11008517747E+02  0.30843624309E+02  0.00000000000E+00 0. -1.
          1    1    5    5  503    0 -0.29135683552E+02 -0.21651774960E+02 -0.42185784159E+01  0.36544272038E+02  0.00000000000E+00 0. -1.
         -2    1    5    5    0  503 -0.16597908624E+03 -0.41040335283E+03 -0.21092782281E+03  0.49037793132E+03  0.00000000000E+00 0.  1.
         -3    1    6    6    0  502  0.25537284463E+03  0.23402933253E+03  0.32841536158E+02  0.34794192728E+03  0.00000000000E+00 0.  1.
<mgrwt>
<rscale>  0 0.10970642E+04</rscale>
<asrwt>0</asrwt>
<pdfrwt beam="1">  1        1 0.97389111E-01 0.10970642E+04</pdfrwt>
<pdfrwt beam="2">  1       -1 0.73125192E-01 0.10970642E+04</pdfrwt>
<totfact> 0.59527161E+01</totfact>
</mgrwt>
</event>
<event>
12    1  0.1506149E-007  0.1330845E+04  0.7818608E-02  0.9005456E-01
         -2   -1    0    0    0  501 -0.00000000000E+00  0.00000000000E+00  0.41655664935E+03  0.41655664935E+03  0.00000000000E+00 0. -1.
          2   -1    0    0  501    0  0.00000000000E+00 -0.00000000000E+00 -0.10629692117E+04  0.10629692117E+04  0.00000000000E+00 0.  1.
         23    2    1    2    0    0 -0.22271396697E+03 -0.70597985378E+02 -0.46717737316E+03  0.53056104553E+03  0.93030846589E+02 0.  0.
        254    2    1    2    0    0  0.22271396697E+03  0.70597985378E+02 -0.17923518919E+03  0.94896481553E+03  0.90212160015E+03 0.  0.
        -24    2    4    4    0    0 -0.12348742093E+02 -0.35405331045E+03 -0.26471263941E+03  0.44913980349E+03  0.78406272357E+02 0.  0.
         24    2    4    4    0    0  0.23506270906E+03  0.42465129583E+03  0.85477450226E+02  0.49982501204E+03  0.83279336726E+02 0.  0.
         13    1    3    3    0    0 -0.26754101649E+02  0.19423507353E+02 -0.38870826456E+02  0.51029361571E+02  0.00000000000E+00 0. -1.
        -13    1    3    3    0    0 -0.19595986532E+03 -0.90021492731E+02 -0.42830654670E+03  0.47953168396E+03  0.00000000000E+00 0.  1.
          2    1    6    6  502    0  0.18101409365E+03  0.26818664997E+03  0.83987698087E+02  0.33428149029E+03  0.00000000000E+00 0. -1.
          1    1    5    5  503    0  0.21073619475E+02 -0.28625389233E+03 -0.20304061506E+03  0.35158338936E+03  0.00000000000E+00 0. -1.
         -2    1    5    5    0  503 -0.33422361567E+02 -0.67799418118E+02 -0.61672024354E+02  0.97556414130E+02  0.00000000000E+00 0.  1.
         -1    1    6    6    0  502  0.54048615407E+02  0.15646464586E+03  0.14897521393E+01  0.16554352175E+03  0.00000000000E+00 0.  1.
<mgrwt>
<rscale>  0 0.13308447E+04</rscale>
<asrwt>0</asrwt>
<pdfrwt beam="1">  1        2 0.16353373E+00 0.13308447E+04</pdfrwt>
<pdfrwt beam="2">  1       -2 0.64085638E-01 0.13308447E+04</pdfrwt>
<totfact> 0.50578518E+01</totfact>
</mgrwt>
</event>
<event>
12    1  0.1506149E-007  0.1610016E+04  0.7818608E-02  0.8814418E-01
         -1   -1    0    0    0  501 -0.00000000000E+00  0.00000000000E+00  0.22270886899E+03  0.22270886899E+03  0.00000000000E+00 0.  1.
          1   -1    0    0  501    0  0.00000000000E+00 -0.00000000000E+00 -0.29097999546E+04  0.29097999546E+04  0.00000000000E+00 0. -1.
         23    2    1    2    0    0 -0.91351773686E+02  0.71418552565E+02  0.11608260662E+03  0.18749042211E+03  0.90728885248E+02 0.  0.
        254    2    1    2    0    0  0.91351773686E+02 -0.71418552565E+02 -0.28031736922E+04  0.29450184015E+04  0.89549141818E+03 0.  0.
        -24    2    4    4    0    0 -0.18143453559E+03  0.31837045774E+03 -0.78423214084E+03  0.86913249578E+03  0.78057705763E+02 0.  0.
         24    2    4    4    0    0  0.27278630927E+03 -0.38978901031E+03 -0.20189415514E+04  0.20758859057E+04  0.82640561846E+02 0.  0.
         13    1    3    3    0    0 -0.98654999968E+02  0.43272713481E+02  0.11614286297E+03  0.15841244071E+03  0.00000000000E+00 0.  1.
        -13    1    3    3    0    0  0.73032262822E+01  0.28145839083E+02 -0.60256354424E-01  0.29077981406E+02  0.00000000000E+00 0. -1.
          4    1    6    6  502    0  0.11931848359E+03 -0.19276693866E+03 -0.79323698764E+03  0.82499752226E+03  0.00000000000E+00 0. -1.
          3    1    5    5  503    0 -0.47388696656E+02  0.14214718179E+03 -0.37532798187E+03  0.40413191391E+03  0.00000000000E+00 0. -1.
         -4    1    5    5    0  503 -0.13404583893E+03  0.17622327596E+03 -0.40890415897E+03  0.46500058187E+03  0.00000000000E+00 0.  1.
         -3    1    6    6    0  502  0.15346782569E+03 -0.19702207165E+03 -0.12257045637E+04  0.12508883834E+04  0.00000000000E+00 0.  1.
<mgrwt>
<rscale>  0 0.16100165E+04</rscale>
<asrwt>0</asrwt>
<pdfrwt beam="1">  1        1 0.44766153E+00 0.16100165E+04</pdfrwt>
<pdfrwt beam="2">  1       -1 0.34262903E-01 0.16100165E+04</pdfrwt>
<totfact> 0.53950766E+00</totfact>
</mgrwt>
</event>
<event>
12    1  0.1506149E-007  0.2202462E+04  0.7818608E-02  0.8517404E-01
         -1   -1    0    0    0  501 -0.00000000000E+00  0.00000000000E+00  0.11449046463E+04  0.11449046463E+04  0.00000000000E+00 0.  1.
          1   -1    0    0  501    0  0.00000000000E+00 -0.00000000000E+00 -0.10592234931E+04  0.10592234931E+04  0.00000000000E+00 0. -1.
         23    2    1    2    0    0 -0.17902977221E+03 -0.78634989097E+03  0.46849148976E+03  0.93704803157E+03  0.90426363023E+02 0.  0.
        254    2    1    2    0    0  0.17902977221E+03  0.78634989097E+03 -0.38281033663E+03  0.12670801078E+04  0.89919432575E+03 0.  0.
        -24    2    4    4    0    0 -0.31880128438E+03  0.57211448361E+03 -0.22353325759E+03  0.69657819808E+03  0.79402943944E+02 0.  0.
         24    2    4    4    0    0  0.49783105659E+03  0.21423540735E+03 -0.15927707904E+03  0.57050190975E+03  0.79816479829E+02 0.  0.
         13    1    3    3    0    0 -0.11305460370E+03 -0.63418870068E+03  0.39499440820E+03  0.75564358927E+03  0.00000000000E+00 0.  1.
        -13    1    3    3    0    0 -0.65975168514E+02 -0.15216119028E+03  0.73497081554E+02  0.18140444230E+03  0.00000000000E+00 0. -1.
          2    1    6    6  502    0  0.34805373375E+03  0.11774643901E+03 -0.82972135814E+02  0.37668289157E+03  0.00000000000E+00 0. -1.
          1    1    5    5  503    0 -0.27990495906E+03  0.44817857940E+03 -0.19744509371E+03  0.56408810497E+03  0.00000000000E+00 0. -1.
         -2    1    5    5    0  503 -0.38896325315E+02  0.12393590421E+03 -0.26088163874E+02  0.13249009310E+03  0.00000000000E+00 0.  1.
         -1    1    6    6    0  502  0.14977732284E+03  0.96488968346E+02 -0.76304943224E+02  0.19381901818E+03  0.00000000000E+00 0.  1.
<mgrwt>
<rscale>  0 0.22024622E+04</rscale>
<asrwt>0</asrwt>
<pdfrwt beam="1">  1        1 0.16295746E+00 0.22024622E+04</pdfrwt>
<pdfrwt beam="2">  1       -1 0.17613918E+00 0.22024622E+04</pdfrwt>
<totfact> 0.27543288E+00</totfact>
</mgrwt>
</event>
<event>
12    1  0.1506149E-007  0.1692261E+04  0.7818608E-02  0.8765790E-01
          2   -1    0    0  501    0  0.00000000000E+00  0.00000000000E+00  0.47131785453E+03  0.47131785453E+03  0.00000000000E+00 0. -1.
         -2   -1    0    0    0  501 -0.00000000000E+00 -0.00000000000E+00 -0.15190112048E+04  0.15190112048E+04  0.00000000000E+00 0.  1.
         23    2    1    2    0    0  0.23841717637E+02 -0.58576939087E+03 -0.20320598197E+03  0.62610655295E+03  0.83800583303E+02 0.  0.
        254    2    1    2    0    0 -0.23841717637E+02  0.58576939087E+03 -0.84448736829E+03  0.13642225064E+04  0.89679982434E+03 0.  0.
        -24    2    4    4    0    0 -0.77813948780E+02  0.76365788511E+03 -0.86660962804E+03  0.11604308026E+04  0.79743488886E+02 0.  0.
         24    2    4    4    0    0  0.53972231143E+02 -0.17788849425E+03  0.22122259753E+02  0.20379170381E+03  0.80525437247E+02 0.  0.
         13    1    3    3    0    0  0.17299761541E+02 -0.21563994455E+03 -0.33643089616E+02  0.21893315170E+03  0.00000000000E+00 0. -1.
        -13    1    3    3    0    0  0.65419560956E+01 -0.37012944631E+03 -0.16956289236E+03  0.40717340125E+03  0.00000000000E+00 0.  1.
          2    1    6    6  502    0  0.55450062522E+02 -0.52049566199E+02  0.21793550496E+00  0.76052049750E+02  0.00000000000E+00 0. -1.
          3    1    5    5  503    0  0.16248084569E+02  0.15225940587E+03 -0.17587381317E+03  0.23319203479E+03  0.00000000000E+00 0. -1.
         -4    1    5    5    0  503 -0.94062033349E+02  0.61139847925E+03 -0.69073581487E+03  0.92723876779E+03  0.00000000000E+00 0.  1.
         -1    1    6    6    0  502 -0.14778313791E+01 -0.12583892805E+03  0.21904324248E+02  0.12773965406E+03  0.00000000000E+00 0.  1.
<mgrwt>
<rscale>  0 0.16922613E+04</rscale>
<asrwt>0</asrwt>
<pdfrwt beam="1">  1        2 0.72510439E-01 0.16922613E+04</pdfrwt>
<pdfrwt beam="2">  1       -2 0.23369403E+00 0.16922613E+04</pdfrwt>
<totfact> 0.50882344E+00</totfact>
</mgrwt>
</event>
<event>
12    1  0.1506149E-007  0.1373574E+04  0.7818608E-02  0.8973172E-01
          2   -1    0    0  501    0  0.00000000000E+00  0.00000000000E+00  0.24255954822E+04  0.24255954822E+04  0.00000000000E+00 0. -1.
         -2   -1    0    0    0  501 -0.00000000000E+00 -0.00000000000E+00 -0.19445799953E+03  0.19445799953E+03  0.00000000000E+00 0.  1.
         23    2    1    2    0    0  0.15305805706E+03  0.10033642110E+03  0.12881470318E+04  0.13041604928E+04  0.89541327152E+02 0.  0.
        254    2    1    2    0    0 -0.15305805706E+03 -0.10033642110E+03  0.94299045089E+03  0.13158929889E+04  0.89936044031E+03 0.  0.
        -24    2    4    4    0    0 -0.12768915721E+03 -0.33560330657E+03  0.30065796784E+02  0.36921703883E+03  0.80518130753E+02 0.  0.
         24    2    4    4    0    0 -0.25368899845E+02  0.23526688547E+03  0.91292465411E+03  0.94667595009E+03  0.82279049119E+02 0.  0.
         13    1    3    3    0    0  0.10374618891E+03  0.30746894959E+02  0.50996501590E+03  0.52131848299E+03  0.00000000000E+00 0. -1.
        -13    1    3    3    0    0  0.49311868148E+02  0.69589526136E+02  0.77818201586E+03  0.78284200979E+03  0.00000000000E+00 0.  1.
          4    1    6    6  502    0 -0.66017699218E+01  0.22008514785E+03  0.73963218434E+03  0.77171032375E+03  0.00000000000E+00 0. -1.
          1    1    5    5  503    0 -0.28022563220E+02 -0.91167980662E+02  0.43656072439E+02  0.10489383875E+03  0.00000000000E+00 0. -1.
         -2    1    5    5    0  503 -0.99666593991E+02 -0.24443532590E+03 -0.13590275656E+02  0.26432320008E+03  0.00000000000E+00 0.  1.
         -3    1    6    6    0  502 -0.18767129923E+02  0.15181737621E+02  0.17329246976E+03  0.17496562634E+03  0.00000000000E+00 0.  1.
<mgrwt>
<rscale>  0 0.13735741E+04</rscale>
<asrwt>0</asrwt>
<pdfrwt beam="1">  1        2 0.37316852E+00 0.13735741E+04</pdfrwt>
<pdfrwt beam="2">  1       -2 0.29916617E-01 0.13735741E+04</pdfrwt>
<totfact> 0.38758389E+01</totfact>
</mgrwt>
</event>
<event>
12    1  0.1506149E-007  0.1647382E+04  0.7818608E-02  0.8791957E-01
          2   -1    0    0  501    0  0.00000000000E+00  0.00000000000E+00  0.12051809987E+04  0.12051809987E+04  0.00000000000E+00 0.  1.
         -2   -1    0    0    0  501 -0.00000000000E+00 -0.00000000000E+00 -0.56295872898E+03  0.56295872898E+03  0.00000000000E+00 0. -1.
         23    2    1    2    0    0  0.34013200148E+03 -0.33665418279E+03 -0.11279683997E+03  0.49987826758E+03  0.90162841959E+02 0.  0.
        254    2    1    2    0    0 -0.34013200148E+03  0.33665418279E+03  0.75501910969E+03  0.12682614601E+04  0.89967074974E+03 0.  0.
        -24    2    4    4    0    0  0.89106096274E+02 -0.18649849137E+03 -0.37268352224E+02  0.22322172609E+03  0.75613657767E+02 0.  0.
         24    2    4    4    0    0 -0.42923809775E+03  0.52315267416E+03  0.79228746191E+03  0.10450397340E+04  0.80340265748E+02 0.  0.
         13    1    3    3    0    0  0.31041899975E+03 -0.27065254356E+03 -0.11455358266E+03  0.42747547069E+03  0.00000000000E+00 0. -1.
        -13    1    3    3    0    0  0.29713001730E+02 -0.66001639227E+02  0.17567426848E+01  0.72402796889E+02  0.00000000000E+00 0.  1.
          4    1    6    6  502    0 -0.21836911775E+03  0.25114541385E+03  0.32973993007E+03  0.46849494338E+03  0.00000000000E+00 0. -1.
          1    1    5    5  503    0  0.87407790510E+02 -0.17657538337E+03 -0.53465510851E+02  0.20415079893E+03  0.00000000000E+00 0. -1.
         -2    1    5    5    0  503  0.16983057637E+01 -0.99231080074E+01  0.16197158627E+02  0.19070927156E+02  0.00000000000E+00 0.  1.
         -3    1    6    6    0  502 -0.21086898000E+03  0.27200726031E+03  0.46254753184E+03  0.57654479062E+03  0.00000000000E+00 0.  1.
<mgrwt>
<rscale>  0 0.16473824E+04</rscale>
<asrwt>0</asrwt>
<pdfrwt beam="1">  1        2 0.18541246E+00 0.16473824E+04</pdfrwt>
<pdfrwt beam="2">  1       -2 0.86609035E-01 0.16473824E+04</pdfrwt>
<totfact> 0.20745401E+01</totfact>
</mgrwt>
</event>
<event>
12    1  0.1506149E-007  0.1399633E+04  0.7818608E-02  0.8954084E-01
          2   -1    0    0  501    0  0.00000000000E+00  0.00000000000E+00  0.11114943840E+04  0.11114943840E+04  0.00000000000E+00 0. -1.
         -2   -1    0    0    0  501 -0.00000000000E+00 -0.00000000000E+00 -0.44061692546E+03  0.44061692546E+03  0.00000000000E+00 0.  1.
         23    2    1    2    0    0 -0.35393991142E+03 -0.36204085535E+02  0.41333358465E+03  0.55234119492E+03  0.87475406229E+02 0.  0.
        254    2    1    2    0    0  0.35393991142E+03  0.36204085535E+02  0.25754387391E+03  0.99977011456E+03  0.89812428887E+03 0.  0.
        -24    2    4    4    0    0  0.34716982619E+03  0.39023596580E+03 -0.40709946491E+02  0.52997071503E+03  0.80004136299E+02 0.  0.
         24    2    4    4    0    0  0.67700852317E+01 -0.35403188026E+03  0.29825382040E+03  0.46979939953E+03  0.79823105184E+02 0.  0.
         13    1    3    3    0    0 -0.29515294929E+02  0.21798583539E+02  0.45786195291E+02  0.58674581876E+02  0.00000000000E+00 0. -1.
        -13    1    3    3    0    0 -0.32442461649E+03 -0.58002669074E+02  0.36754738936E+03  0.49366661304E+03  0.00000000000E+00 0.  1.
          4    1    6    6  502    0 -0.16990193351E+02 -0.24093870431E+03  0.23954555536E+03  0.34017965694E+03  0.00000000000E+00 0. -1.
          3    1    5    5  503    0  0.20506072719E+03  0.17619713970E+03 -0.38139560256E+02  0.27303838545E+03  0.00000000000E+00 0. -1.
         -4    1    5    5    0  503  0.14210909901E+03  0.21403882610E+03 -0.25703862353E+01  0.25693232958E+03  0.00000000000E+00 0.  1.
         -3    1    6    6    0  502  0.23760278583E+02 -0.11309317595E+03  0.58708265041E+02  0.12961974259E+03  0.00000000000E+00 0.  1.
<mgrwt>
<rscale>  0 0.13996331E+04</rscale>
<asrwt>0</asrwt>
<pdfrwt beam="1">  1        2 0.17099913E+00 0.13996331E+04</pdfrwt>
<pdfrwt beam="2">  1       -2 0.67787220E-01 0.13996331E+04</pdfrwt>
<totfact> 0.41597877E+01</totfact>
</mgrwt>
</event>
<event>
12    1  0.1506149E-007  0.2366436E+04  0.7818608E-02  0.8452177E-01
         -1   -1    0    0    0  501 -0.00000000000E+00  0.00000000000E+00  0.18829821514E+04  0.18829821514E+04  0.00000000000E+00 0.  1.
          1   -1    0    0  501    0  0.00000000000E+00 -0.00000000000E+00 -0.74350408961E+03  0.74350408961E+03  0.00000000000E+00 0. -1.
         23    2    1    2    0    0 -0.65035937299E+03 -0.61030404753E+03 -0.15149859815E+01  0.89639796311E+03  0.89937025799E+02 0.  0.
        254    2    1    2    0    0  0.65035937299E+03  0.61030404753E+03  0.11409930478E+04  0.17300882779E+04  0.94652098223E+03 0.  0.
        -24    2    4    4    0    0  0.69358147282E+03  0.65608377475E+03  0.49899377322E+03  0.10802292106E+04  0.79994892726E+02 0.  0.
         24    2    4    4    0    0 -0.43222099831E+02 -0.45779727216E+02  0.64199927453E+03  0.64985906726E+03  0.78675316711E+02 0.  0.
         11    1    3    3    0    0 -0.65123776315E+03 -0.59991063244E+03 -0.48317630045E+01  0.88545284290E+03  0.00000000000E+00 0. -1.
        -11    1    3    3    0    0  0.87839015841E+00 -0.10393415090E+02  0.33167770230E+01  0.10945120206E+02  0.00000000000E+00 0.  1.
          2    1    6    6  502    0  0.29601256352E+00  0.20240042659E+02  0.91679208550E+02  0.93887295363E+02  0.00000000000E+00 0. -1.
          1    1    5    5  503    0  0.33491479298E+02  0.22471543655E+02  0.56550367209E+01  0.40726267938E+02  0.00000000000E+00 0. -1.
         -2    1    5    5    0  503  0.66008999352E+03  0.63361223109E+03  0.49333873650E+03  0.10395029427E+04  0.00000000000E+00 0.  1.
         -1    1    6    6    0  502 -0.43518112394E+02 -0.66019769875E+02  0.55032006598E+03  0.55597177189E+03  0.00000000000E+00 0.  1.
<mgrwt>
<rscale>  0 0.23664361E+04</rscale>
<asrwt>0</asrwt>
<pdfrwt beam="1">  1        1 0.11438525E+00 0.23664361E+04</pdfrwt>
<pdfrwt beam="2">  1       -1 0.28968956E+00 0.23664361E+04</pdfrwt>
<totfact> 0.85957102E-01</totfact>
</mgrwt>
</event>
<event>
12    1  0.1506149E-007  0.1268156E+04  0.7818608E-02  0.9055206E-01
          1   -1    0    0  501    0  0.00000000000E+00  0.00000000000E+00  0.12311540135E+04  0.12311540135E+04  0.00000000000E+00 0. -1.
         -1   -1    0    0    0  501 -0.00000000000E+00 -0.00000000000E+00 -0.32656772135E+03  0.32656772135E+03  0.00000000000E+00 0.  1.
         23    2    1    2    0    0  0.15922042410E+03  0.12344970221E+03  0.51737922827E+03  0.56264044394E+03  0.91060589099E+02 0.  0.
        254    2    1    2    0    0 -0.15922042410E+03 -0.12344970221E+03  0.38720706385E+03  0.99508129089E+03  0.89424073535E+03 0.  0.
        -24    2    4    4    0    0 -0.19910467019E+03  0.32226671845E+03 -0.15501578002E+02  0.38779802547E+03  0.81538347607E+02 0.  0.
         24    2    4    4    0    0  0.39884246090E+02 -0.44571642066E+03  0.40270864186E+03  0.60728326541E+03  0.79779906609E+02 0.  0.
         13    1    3    3    0    0  0.11700869244E+03  0.59404582108E+02  0.22600716275E+03  0.26134111061E+03  0.00000000000E+00 0. -1.
        -13    1    3    3    0    0  0.42211731660E+02  0.64045120100E+02  0.29137206553E+03  0.30129933333E+03  0.00000000000E+00 0.  1.
          4    1    6    6  502    0  0.16510396523E+02 -0.15106565935E+03  0.88314230268E+02  0.17576356248E+03  0.00000000000E+00 0. -1.
          3    1    5    5  503    0 -0.57756874708E+02  0.16865310060E+03  0.23749850311E+01  0.17828450710E+03  0.00000000000E+00 0. -1.
         -4    1    5    5    0  503 -0.14134779548E+03  0.15361361785E+03 -0.17876563033E+02  0.20951351838E+03  0.00000000000E+00 0.  1.
         -3    1    6    6    0  502  0.23373849568E+02 -0.29465076130E+03  0.31439441159E+03  0.43151970293E+03  0.00000000000E+00 0.  1.
<mgrwt>
<rscale>  0 0.12681564E+04</rscale>
<asrwt>0</asrwt>
<pdfrwt beam="1">  1        1 0.18940831E+00 0.12681564E+04</pdfrwt>
<pdfrwt beam="2">  1       -1 0.50241189E-01 0.12681564E+04</pdfrwt>
<totfact> 0.39711580E+01</totfact>
</mgrwt>
</event>
<event>
12    1  0.1506149E-007  0.1385702E+04  0.7818608E-02  0.8964234E-01
         -2   -1    0    0    0  501 -0.00000000000E+00  0.00000000000E+00  0.30803851337E+03  0.30803851337E+03  0.00000000000E+00 0.  1.
          2   -1    0    0  501    0  0.00000000000E+00 -0.00000000000E+00 -0.15583843867E+04  0.15583843867E+04  0.00000000000E+00 0. -1.
         23    2    1    2    0    0  0.86076565429E+01 -0.39006247080E+03 -0.46915013068E+03  0.61670402451E+03  0.89438167749E+02 0.  0.
        254    2    1    2    0    0 -0.86076565429E+01  0.39006247080E+03 -0.78119574265E+03  0.12497188756E+04  0.89404007557E+03 0.  0.
        -24    2    4    4    0    0  0.28382733637E+03  0.23061683501E+03  0.22806890210E+02  0.37507816230E+03  0.80133589311E+02 0.  0.
         24    2    4    4    0    0 -0.29243499291E+03  0.15944563579E+03 -0.80400263286E+03  0.87464071326E+03  0.87378531606E+02 0.  0.
         11    1    3    3    0    0 -0.25034230651E+02 -0.19327523144E+03 -0.17977658568E+03  0.26514458046E+03  0.00000000000E+00 0. -1.
        -11    1    3    3    0    0  0.33641887194E+02 -0.19678723937E+03 -0.28937354500E+03  0.35155944405E+03  0.00000000000E+00 0.  1.
          4    1    6    6  502    0 -0.20955082798E+03  0.14943251905E+03 -0.54935990636E+03  0.60666130087E+03  0.00000000000E+00 0. -1.
          1    1    5    5  503    0  0.22776014976E+03  0.14065886248E+03  0.26592752711E+02  0.26901073568E+03  0.00000000000E+00 0. -1.
         -4    1    5    5    0  503  0.56067186608E+02  0.89957972535E+02 -0.37858625015E+01  0.10606742663E+03  0.00000000000E+00 0.  1.
         -3    1    6    6    0  502 -0.82884164936E+02  0.10013116740E+02 -0.25464272650E+03  0.26797941239E+03  0.00000000000E+00 0.  1.
<mgrwt>
<rscale>  0 0.13857019E+04</rscale>
<asrwt>0</asrwt>
<pdfrwt beam="1">  1        2 0.23975144E+00 0.13857019E+04</pdfrwt>
<pdfrwt beam="2">  1       -2 0.47390541E-01 0.13857019E+04</pdfrwt>
<totfact> 0.48370695E+01</totfact>
</mgrwt>
</event>
<event>
12    1  0.1506149E-007  0.1505429E+04  0.7818608E-02  0.8880851E-01
          1   -1    0    0  501    0  0.00000000000E+00  0.00000000000E+00  0.19455919930E+04  0.19455919930E+04  0.00000000000E+00 0. -1.
         -1   -1    0    0    0  501 -0.00000000000E+00 -0.00000000000E+00 -0.29121164827E+03  0.29121164827E+03  0.00000000000E+00 0.  1.
         23    2    1    2    0    0  0.19553749844E+03  0.35596673344E+02 -0.12552752110E+03  0.25204182667E+03  0.90916925735E+02 0.  0.
        254    2    1    2    0    0 -0.19553749844E+03 -0.35596673344E+02  0.17799078658E+04  0.19847618146E+04  0.85539781004E+03 0.  0.
        -24    2    4    4    0    0  0.15090963792E+03  0.94205818327E+02  0.15039697795E+04  0.15164533348E+04  0.77827785717E+02 0.  0.
         24    2    4    4    0    0 -0.34644713636E+03 -0.12980249167E+03  0.27593808634E+03  0.46830847973E+03  0.79351745746E+02 0.  0.
         13    1    3    3    0    0  0.96667487399E+02  0.26656463455E+02 -0.11621710222E+02  0.10094669045E+03  0.00000000000E+00 0. -1.
        -13    1    3    3    0    0  0.98870011045E+02  0.89402098890E+01 -0.11390581088E+03  0.15109513622E+03  0.00000000000E+00 0.  1.
          4    1    6    6  502    0 -0.37146807020E+02 -0.88426988038E+01  0.63400173111E+02  0.74011219044E+02  0.00000000000E+00 0. -1.
          1    1    5    5  503    0  0.87494478046E+02  0.60821330140E+02  0.57990631459E+03  0.58961500285E+03  0.00000000000E+00 0. -1.
         -2    1    5    5    0  503  0.63415159873E+02  0.33384488187E+02  0.92406346487E+03  0.92683833200E+03  0.00000000000E+00 0.  1.
         -3    1    6    6    0  502 -0.30930032934E+03 -0.12095979287E+03  0.21253791323E+03  0.39429726068E+03  0.00000000000E+00 0.  1.
<mgrwt>
<rscale>  0 0.15054289E+04</rscale>
<asrwt>0</asrwt>
<pdfrwt beam="1">  1        1 0.29932184E+00 0.15054289E+04</pdfrwt>
<pdfrwt beam="2">  1       -1 0.44801793E-01 0.15054289E+04</pdfrwt>
<totfact> 0.15498869E+01</totfact>
</mgrwt>
</event>
<event>
12    1  0.1506149E-007  0.1378723E+04  0.7818608E-02  0.8969366E-01
          1   -1    0    0  501    0  0.00000000000E+00  0.00000000000E+00  0.22618899705E+04  0.22618899705E+04  0.00000000000E+00 0. -1.
         -1   -1    0    0    0  501 -0.00000000000E+00 -0.00000000000E+00 -0.21009823569E+03  0.21009823569E+03  0.00000000000E+00 0.  1.
         23    2    1    2    0    0 -0.33916611895E+03  0.15713601543E+03  0.41921759692E+03  0.56969037981E+03  0.95280384578E+02 0.  0.
        254    2    1    2    0    0  0.33916611895E+03 -0.15713601543E+03  0.16325741379E+04  0.19022978264E+04  0.90206059716E+03 0.  0.
        -24    2    4    4    0    0  0.49897925663E+03  0.14480960078E+03  0.53282498613E+03  0.74832812788E+03  0.78373478360E+02 0.  0.
         24    2    4    4    0    0 -0.15981313768E+03 -0.30194561621E+03  0.10997491518E+04  0.11539696985E+04  0.74070737361E+02 0.  0.
         13    1    3    3    0    0 -0.18767734760E+02  0.23765877702E+02  0.75019588865E+02  0.80901072456E+02  0.00000000000E+00 0. -1.
        -13    1    3    3    0    0 -0.32039838419E+03  0.13337013773E+03  0.34419800805E+03  0.48878930735E+03  0.00000000000E+00 0.  1.
          4    1    6    6  502    0 -0.87908449817E+02 -0.10245415367E+03  0.49691895055E+03  0.51493027933E+03  0.00000000000E+00 0. -1.
          3    1    5    5  503    0  0.28330874070E+03  0.44083768711E+02  0.27191516122E+03  0.39515196586E+03  0.00000000000E+00 0. -1.
         -4    1    5    5    0  503  0.21567051593E+03  0.10072583207E+03  0.26090982490E+03  0.35317616202E+03  0.00000000000E+00 0.  1.
         -3    1    6    6    0  502 -0.71904687860E+02 -0.19949146254E+03  0.60283020121E+03  0.63903941917E+03  0.00000000000E+00 0.  1.
<mgrwt>
<rscale>  0 0.13787227E+04</rscale>
<asrwt>0</asrwt>
<pdfrwt beam="1">  1        1 0.34798306E+00 0.13787227E+04</pdfrwt>
<pdfrwt beam="2">  1       -1 0.32322807E-01 0.13787227E+04</pdfrwt>
<totfact> 0.17303656E+01</totfact>
</mgrwt>
</event>
<event>
12    1  0.1506149E-007  0.3185943E+04  0.7818608E-02  0.8192539E-01
          2   -1    0    0  501    0  0.00000000000E+00  0.00000000000E+00  0.21168439448E+04  0.21168439448E+04  0.00000000000E+00 0. -1.
         -2   -1    0    0    0  501 -0.00000000000E+00 -0.00000000000E+00 -0.11987460141E+04  0.11987460141E+04  0.00000000000E+00 0.  1.
         23    2    1    2    0    0 -0.11031208454E+04  0.58502470411E+03  0.12227843844E+04  0.17498331824E+04  0.87091972839E+02 0.  0.
        254    2    1    2    0    0  0.11031208454E+04 -0.58502470411E+03 -0.30468645358E+03  0.15657567765E+04  0.89422085865E+03 0.  0.
        -24    2    4    4    0    0 -0.57551338048E+02 -0.17670269780E+03 -0.26277216298E+03  0.33189576990E+03  0.81053022894E+02 0.  0.
         24    2    4    4    0    0  0.11606721834E+04 -0.40832200631E+03 -0.41914290606E+02  0.12338610066E+04  0.82276348240E+02 0.  0.
         11    1    3    3    0    0 -0.10680251923E+04  0.58190322926E+03  0.11932344552E+04  0.17038478937E+04  0.00000000000E+00 0. -1.
        -11    1    3    3    0    0 -0.35095653059E+02  0.31214748426E+01  0.29549929184E+02  0.45985288774E+02  0.00000000000E+00 0.  1.
          4    1    6    6  502    0  0.10095512767E+04 -0.38124988443E+03 -0.25294136029E+02  0.10794373756E+04  0.00000000000E+00 0. -1.
          1    1    5    5  503    0 -0.65270840504E+02 -0.17662711293E+03 -0.26379672033E+03  0.32410820616E+03  0.00000000000E+00 0. -1.
         -2    1    5    5    0  503  0.77195024565E+01 -0.75584871253E-01  0.10245573537E+01  0.77875637409E+01  0.00000000000E+00 0.  1.
         -3    1    6    6    0  502  0.15112090680E+03 -0.27072121880E+02 -0.16620154577E+02  0.15442363094E+03  0.00000000000E+00 0.  1.
<mgrwt>
<rscale>  0 0.31859430E+04</rscale>
<asrwt>0</asrwt>
<pdfrwt beam="1">  1        2 0.32566830E+00 0.31859430E+04</pdfrwt>
<pdfrwt beam="2">  1       -2 0.18442246E+00 0.31859430E+04</pdfrwt>
<totfact> 0.81959308E-01</totfact>
</mgrwt>
</event>
<event>
12    1  0.1506149E-007  0.1105170E+04  0.7818608E-02  0.9200167E-01
          1   -1    0    0  501    0  0.00000000000E+00  0.00000000000E+00  0.56052604290E+03  0.56052604290E+03  0.00000000000E+00 0. -1.
         -1   -1    0    0    0  501 -0.00000000000E+00 -0.00000000000E+00 -0.54475647183E+03  0.54475647183E+03  0.00000000000E+00 0.  1.
         23    2    1    2    0    0  0.13679737194E+03  0.30224404550E+02  0.94018597132E+02  0.19232190432E+03  0.92310252273E+02 0.  0.
        254    2    1    2    0    0 -0.13679737194E+03 -0.30224404550E+02 -0.78249026057E+02  0.91296061040E+03  0.89874753433E+03 0.  0.
        -24    2    4    4    0    0  0.14196493083E+03 -0.13100290167E+03  0.33705851669E+03  0.39651463012E+03  0.79370059795E+02 0.  0.
         24    2    4    4    0    0 -0.27876230277E+03  0.10077849712E+03 -0.41530754275E+03  0.51644598029E+03  0.79820852948E+02 0.  0.
         11    1    3    3    0    0  0.40978797550E+02  0.21977942740E+02 -0.13153651934E+02  0.48325049145E+02  0.00000000000E+00 0.  1.
        -11    1    3    3    0    0  0.95818574393E+02  0.82464618092E+01  0.10717224907E+03  0.14399685518E+03  0.00000000000E+00 0. -1.
          2    1    6    6  502    0 -0.97863233908E+01  0.21378531133E+02 -0.15796736817E+02  0.28325794128E+02  0.00000000000E+00 0. -1.
          3    1    5    5  503    0  0.99418158482E+02 -0.59989229799E+02  0.25381947307E+03  0.27911825959E+03  0.00000000000E+00 0. -1.
         -4    1    5    5    0  503  0.42546772349E+02 -0.71013671869E+02  0.83239043619E+02  0.11739637052E+03  0.00000000000E+00 0.  1.
         -1    1    6    6    0  502 -0.26897597938E+03  0.79399965986E+02 -0.39951080593E+03  0.48812018616E+03  0.00000000000E+00 0.  1.
<mgrwt>
<rscale>  0 0.11051700E+04</rscale>
<asrwt>0</asrwt>
<pdfrwt beam="1">  1        1 0.86234776E-01 0.11051700E+04</pdfrwt>
<pdfrwt beam="2">  1       -1 0.83808688E-01 0.11051700E+04</pdfrwt>
<totfact> 0.53130312E+01</totfact>
</mgrwt>
</event>
<event>
12    1  0.1506149E-007  0.1742852E+04  0.7818608E-02  0.8737295E-01
          2   -1    0    0  501    0  0.00000000000E+00  0.00000000000E+00  0.45147495268E+03  0.45147495268E+03  0.00000000000E+00 0. -1.
         -2   -1    0    0    0  501 -0.00000000000E+00 -0.00000000000E+00 -0.16820049513E+04  0.16820049513E+04  0.00000000000E+00 0.  1.
         23    2    1    2    0    0 -0.23883732388E+03 -0.45989221899E+03 -0.36369775747E+01  0.52637721025E+03  0.92280114323E+02 0.  0.
        254    2    1    2    0    0  0.23883732388E+03  0.45989221899E+03 -0.12268930210E+04  0.16071026937E+04  0.89942674115E+03 0.  0.
        -24    2    4    4    0    0 -0.33438204900E+03  0.11036593457E+03 -0.44127186009E+03  0.57054863127E+03  0.82540244308E+02 0.  0.
         24    2    4    4    0    0  0.57321937288E+03  0.34952628443E+03 -0.78562116095E+03  0.10365540624E+04  0.80589347274E+02 0.  0.
         13    1    3    3    0    0 -0.18142486675E+03 -0.37550579089E+03  0.32017313576E+02  0.41826389952E+03  0.00000000000E+00 0. -1.
        -13    1    3    3    0    0 -0.57412457129E+02 -0.84386428101E+02 -0.35654291151E+02  0.10811331074E+03  0.00000000000E+00 0.  1.
          2    1    6    6  502    0  0.97728262474E+02  0.46829255354E+02 -0.17241890819E+03  0.20364693061E+03  0.00000000000E+00 0. -1.
          3    1    5    5  503    0 -0.73617879186E+02  0.72365403419E+01 -0.50469652877E+02  0.89549681817E+02  0.00000000000E+00 0. -1.
         -4    1    5    5    0  503 -0.26076416981E+03  0.10312939423E+03 -0.39080220722E+03  0.48099894945E+03  0.00000000000E+00 0.  1.
         -1    1    6    6    0  502  0.47549111040E+03  0.30269702907E+03 -0.61320225275E+03  0.83290713184E+03  0.00000000000E+00 0.  1.
<mgrwt>
<rscale>  0 0.17428518E+04</rscale>
<asrwt>0</asrwt>
<pdfrwt beam="1">  1        2 0.69457685E-01 0.17428518E+04</pdfrwt>
<pdfrwt beam="2">  1       -2 0.25876999E+00 0.17428518E+04</pdfrwt>
<totfact> 0.37313364E+00</totfact>
</mgrwt>
</event>
<event>
12    1  0.1506149E-007  0.1237478E+04  0.7818608E-02  0.9080670E-01
         -2   -1    0    0    0  501 -0.00000000000E+00  0.00000000000E+00  0.28188924836E+03  0.28188924836E+03  0.00000000000E+00 0.  1.
          2   -1    0    0  501    0  0.00000000000E+00 -0.00000000000E+00 -0.13581145553E+04  0.13581145553E+04  0.00000000000E+00 0. -1.
         23    2    1    2    0    0  0.15345545101E+03 -0.10894342921E+03 -0.54029401976E+03  0.57976250006E+03  0.93753306457E+02 0.  0.
        254    2    1    2    0    0 -0.15345545101E+03  0.10894342921E+03 -0.53593128720E+03  0.10602413036E+04  0.89524970321E+03 0.  0.
        -24    2    4    4    0    0 -0.23956598453E+03 -0.30535928039E+03 -0.31642191969E+02  0.39721455435E+03  0.78371058500E+02 0.  0.
         24    2    4    4    0    0  0.86110533521E+02  0.41430270960E+03 -0.50428909524E+03  0.66302674927E+03  0.78963406145E+02 0.  0.
         13    1    3    3    0    0 -0.86422323683E+01 -0.26845022094E+02 -0.84675606796E+02  0.89248539359E+02  0.00000000000E+00 0.  1.
        -13    1    3    3    0    0  0.16209768338E+03 -0.82098407115E+02 -0.45561841296E+03  0.49051396070E+03  0.00000000000E+00 0. -1.
          4    1    6    6  502    0  0.62956918478E+02  0.36188406081E+03 -0.46902289179E+03  0.59573997690E+03  0.00000000000E+00 0. -1.
          1    1    5    5  503    0 -0.19687559799E+03 -0.22411802902E+03  0.51114360667E+01  0.29835384830E+03  0.00000000000E+00 0. -1.
         -2    1    5    5    0  503 -0.42690386539E+02 -0.81241251375E+02 -0.36753628035E+02  0.98860706055E+02  0.00000000000E+00 0.  1.
         -1    1    6    6    0  502  0.23153615044E+02  0.52418648798E+02 -0.35266203444E+02  0.67286772376E+02  0.00000000000E+00 0.  1.
<mgrwt>
<rscale>  0 0.12374779E+04</rscale>
<asrwt>0</asrwt>
<pdfrwt beam="1">  1        2 0.20894070E+00 0.12374779E+04</pdfrwt>
<pdfrwt beam="2">  1       -2 0.43367577E-01 0.12374779E+04</pdfrwt>
<totfact> 0.75870701E+01</totfact>
</mgrwt>
</event>
<event>
12    1  0.1506149E-007  0.1327859E+04  0.7818608E-02  0.9007760E-01
          2   -1    0    0  501    0  0.00000000000E+00  0.00000000000E+00  0.16300067788E+04  0.16300067788E+04  0.00000000000E+00 0. -1.
         -2   -1    0    0    0  501 -0.00000000000E+00 -0.00000000000E+00 -0.27042966943E+03  0.27042966943E+03  0.00000000000E+00 0.  1.
         23    2    1    2    0    0 -0.28644942251E+03  0.20534089935E+03  0.56769239915E+03  0.67184649007E+03  0.69891984977E+02 0.  0.
        254    2    1    2    0    0  0.28644942251E+03 -0.20534089935E+03  0.79188471024E+03  0.12285899582E+04  0.87070875408E+03 0.  0.
        -24    2    4    4    0    0 -0.10752304583E+03  0.17270107016E+03 -0.47523376211E+02  0.22405116262E+03  0.80954228831E+02 0.  0.
         24    2    4    4    0    0  0.39397246834E+03 -0.37804196951E+03  0.83940808645E+03  0.10045387956E+04  0.79763523452E+02 0.  0.
         11    1    3    3    0    0 -0.22698671825E+03  0.17807309200E+03  0.50287954598E+03  0.57975928981E+03  0.00000000000E+00 0. -1.
        -11    1    3    3    0    0 -0.59462704260E+02  0.27267807348E+02  0.64812853170E+02  0.92087200259E+02  0.00000000000E+00 0.  1.
          4    1    6    6  502    0  0.99211129465E+02 -0.53384192625E+02  0.19168654848E+03  0.22234309771E+03  0.00000000000E+00 0. -1.
          3    1    5    5  503    0 -0.62986746201E+02  0.30986314128E+02 -0.19835171436E+02  0.72944608342E+02  0.00000000000E+00 0. -1.
         -4    1    5    5    0  503 -0.44536299625E+02  0.14171475603E+03 -0.27688204774E+02  0.15110655427E+03  0.00000000000E+00 0.  1.
         -3    1    6    6    0  502  0.29476133887E+03 -0.32465777689E+03  0.64772153797E+03  0.78219569785E+03  0.00000000000E+00 0.  1.
<mgrwt>
<rscale>  0 0.13278587E+04</rscale>
<asrwt>0</asrwt>
<pdfrwt beam="1">  1        2 0.25077027E+00 0.13278587E+04</pdfrwt>
<pdfrwt beam="2">  1       -2 0.41604565E-01 0.13278587E+04</pdfrwt>
<totfact> 0.57440682E+01</totfact>
</mgrwt>
</event>
<event>
12    1  0.1506149E-007  0.1993615E+04  0.7818608E-02  0.8609612E-01
         -2   -1    0    0    0  501 -0.00000000000E+00  0.00000000000E+00  0.92633563212E+03  0.92633563212E+03  0.00000000000E+00 0.  1.
          2   -1    0    0  501    0  0.00000000000E+00 -0.00000000000E+00 -0.10726409552E+04  0.10726409552E+04  0.00000000000E+00 0. -1.
         23    2    1    2    0    0 -0.71717656511E+03 -0.20840790228E+03  0.20313205353E+03  0.78048724531E+03  0.10060631019E+03 0.  0.
        254    2    1    2    0    0  0.71717656511E+03  0.20840790228E+03 -0.34943737662E+03  0.12184893420E+04  0.89712525167E+03 0.  0.
        -24    2    4    4    0    0  0.24458217219E+03  0.49810551911E+03 -0.34514866420E+03  0.65842029566E+03  0.80374984958E+02 0.  0.
         24    2    4    4    0    0  0.47259439292E+03 -0.28969761683E+03 -0.42887124228E+01  0.56006904637E+03  0.79929808183E+02 0.  0.
         11    1    3    3    0    0 -0.46447957545E+03 -0.90378879742E+02  0.10394939906E+03  0.48447404005E+03  0.00000000000E+00 0.  1.
        -11    1    3    3    0    0 -0.25269698965E+03 -0.11802902254E+03  0.99182654466E+02  0.29601320526E+03  0.00000000000E+00 0. -1.
          4    1    6    6  502    0  0.82550190862E+02 -0.88614132653E+02  0.38124322796E+01  0.12116737662E+03  0.00000000000E+00 0. -1.
          1    1    5    5  503    0 -0.14232266700E+01 -0.99895647306E+00  0.19393773935E+01  0.26047404599E+01  0.00000000000E+00 0. -1.
         -2    1    5    5    0  503  0.24600539886E+03  0.49910447559E+03 -0.34708804160E+03  0.65581555520E+03  0.00000000000E+00 0.  1.
         -3    1    6    6    0  502  0.39004420205E+03 -0.20108348418E+03 -0.81011447024E+01  0.43890166975E+03  0.00000000000E+00 0.  1.
<mgrwt>
<rscale>  0 0.19936153E+04</rscale>
<asrwt>0</asrwt>
<pdfrwt beam="1">  1        2 0.16502169E+00 0.19936153E+04</pdfrwt>
<pdfrwt beam="2">  1       -2 0.14251317E+00 0.19936153E+04</pdfrwt>
<totfact> 0.72207493E+00</totfact>
</mgrwt>
</event>
<event>
12    1  0.1506149E-007  0.1090259E+04  0.7818608E-02  0.9214739E-01
          2   -1    0    0  501    0  0.00000000000E+00  0.00000000000E+00  0.12729967868E+04  0.12729967868E+04  0.00000000000E+00 0. -1.
         -2   -1    0    0    0  501 -0.00000000000E+00 -0.00000000000E+00 -0.23343810067E+03  0.23343810067E+03  0.00000000000E+00 0.  1.
         23    2    1    2    0    0 -0.67507734282E+02  0.50909331170E+02  0.33375004298E+03  0.35592746237E+03  0.90256374242E+02 0.  0.
        254    2    1    2    0    0  0.67507734282E+02 -0.50909331170E+02  0.70580864315E+03  0.11505074251E+04  0.90462834374E+03 0.  0.
        -24    2    4    4    0    0  0.21294264778E+03 -0.36877905853E+03  0.66022459547E+03  0.78949918440E+03  0.77909437511E+02 0.  0.
         24    2    4    4    0    0 -0.14543491350E+03  0.31786972736E+03  0.45584047683E+02  0.36100824071E+03  0.77823947609E+02 0.  0.
         13    1    3    3    0    0 -0.85733659175E+02  0.57585717049E+02  0.26265764016E+03  0.28223290215E+03  0.00000000000E+00 0.  1.
        -13    1    3    3    0    0  0.18225924893E+02 -0.66763858791E+01  0.71092402827E+02  0.73694560222E+02  0.00000000000E+00 0. -1.
          2    1    6    6  502    0 -0.12498195404E+03  0.23503953861E+03  0.43264115528E+01  0.26623822299E+03  0.00000000000E+00 0. -1.
          3    1    5    5  503    0  0.11196177787E+03 -0.25294240279E+03  0.38167331880E+03  0.47137015298E+03  0.00000000000E+00 0. -1.
         -4    1    5    5    0  503  0.10098086992E+03 -0.11583665574E+03  0.27855127667E+03  0.31812903142E+03  0.00000000000E+00 0.  1.
         -1    1    6    6    0  502 -0.20452959457E+02  0.82830188749E+02  0.41257636130E+02  0.94770017716E+02  0.00000000000E+00 0.  1.
<mgrwt>
<rscale>  0 0.10902586E+04</rscale>
<asrwt>0</asrwt>
<pdfrwt beam="1">  1        2 0.19584566E+00 0.10902586E+04</pdfrwt>
<pdfrwt beam="2">  1       -2 0.35913555E-01 0.10902586E+04</pdfrwt>
<totfact> 0.12405904E+02</totfact>
</mgrwt>
</event>
<event>
12    1  0.1506149E-007  0.1969742E+04  0.7818608E-02  0.8620899E-01
         -2   -1    0    0    0  501 -0.00000000000E+00  0.00000000000E+00  0.51099809623E+03  0.51099809623E+03  0.00000000000E+00 0. -1.
          2   -1    0    0  501    0  0.00000000000E+00 -0.00000000000E+00 -0.18981884293E+04  0.18981884293E+04  0.00000000000E+00 0.  1.
         23    2    1    2    0    0 -0.36262006636E+03 -0.68315879669E+03 -0.43538623949E+03  0.89212595363E+03  0.90157005141E+02 0.  0.
        254    2    1    2    0    0  0.36262006636E+03  0.68315879669E+03 -0.95180409360E+03  0.15170605719E+04  0.89294036320E+03 0.  0.
        -24    2    4    4    0    0  0.57397168289E+03  0.16158004736E+03 -0.59394778242E+03  0.84532163490E+03  0.79013250325E+02 0.  0.
         24    2    4    4    0    0 -0.21135161652E+03  0.52157874933E+03 -0.35785631118E+03  0.67173893701E+03  0.80362693372E+02 0.  0.
         13    1    3    3    0    0 -0.94553414361E+02 -0.11202895670E+03 -0.10156654969E+03  0.17834404763E+03  0.00000000000E+00 0.  1.
        -13    1    3    3    0    0 -0.26806665200E+03 -0.57112983999E+03 -0.33381968979E+03  0.71378190600E+03  0.00000000000E+00 0. -1.
          2    1    6    6  502    0  0.44685164851E+01  0.42576380545E+02 -0.32833527105E+02  0.53951425579E+02  0.00000000000E+00 0. -1.
          1    1    5    5  503    0  0.31108748292E+03  0.12049437260E+03 -0.36277595150E+03  0.49284957831E+03  0.00000000000E+00 0. -1.
         -2    1    5    5    0  503  0.26288419997E+03  0.41085674764E+02 -0.23117183092E+03  0.35247205659E+03  0.00000000000E+00 0.  1.
         -1    1    6    6    0  502 -0.21582013301E+03  0.47900236878E+03 -0.32502278408E+03  0.61778751143E+03  0.00000000000E+00 0.  1.
<mgrwt>
<rscale>  0 0.19697418E+04</rscale>
<asrwt>0</asrwt>
<pdfrwt beam="1">  1        2 0.29202899E+00 0.19697418E+04</pdfrwt>
<pdfrwt beam="2">  1       -2 0.78615090E-01 0.19697418E+04</pdfrwt>
<totfact> 0.10189512E+01</totfact>
</mgrwt>
</event>
<event>
12    1  0.1506149E-007  0.2352114E+04  0.7818608E-02  0.8457652E-01
          2   -1    0    0  501    0  0.00000000000E+00  0.00000000000E+00  0.54450350584E+03  0.54450350584E+03  0.00000000000E+00 0. -1.
         -2   -1    0    0    0  501 -0.00000000000E+00 -0.00000000000E+00 -0.25401300157E+04  0.25401300157E+04  0.00000000000E+00 0.  1.
         23    2    1    2    0    0 -0.38777687218E+03  0.89430114872E+03 -0.53944177581E+03  0.11177815855E+04  0.91064791189E+02 0.  0.
        254    2    1    2    0    0  0.38777687218E+03 -0.89430114872E+03 -0.14561847340E+04  0.19668519360E+04  0.89324526945E+03 0.  0.
        -24    2    4    4    0    0  0.15753137552E+03 -0.97127866796E+03 -0.82716477674E+03  0.12879419159E+04  0.79965153432E+02 0.  0.
         24    2    4    4    0    0  0.23024549666E+03  0.76977519240E+02 -0.62901995729E+03  0.67891002011E+03  0.79461824430E+02 0.  0.
         13    1    3    3    0    0 -0.15214032252E+03  0.33191384991E+03 -0.15301001846E+03  0.39588577551E+03  0.00000000000E+00 0. -1.
        -13    1    3    3    0    0 -0.23563654966E+03  0.56238729880E+03 -0.38643175735E+03  0.72189580999E+03  0.00000000000E+00 0.  1.
          4    1    6    6  502    0  0.32806837525E+02 -0.80254919893E+01 -0.15178835290E+03  0.15550048612E+03  0.00000000000E+00 0. -1.
          3    1    5    5  503    0  0.12515344886E+02 -0.30842110799E+03 -0.25679089284E+03  0.40152431602E+03  0.00000000000E+00 0. -1.
         -4    1    5    5    0  503  0.14501603064E+03 -0.66285755997E+03 -0.57037388389E+03  0.88641759988E+03  0.00000000000E+00 0.  1.
         -3    1    6    6    0  502  0.19743865913E+03  0.85003011229E+02 -0.47723160439E+03  0.52340953398E+03  0.00000000000E+00 0.  1.
<mgrwt>
<rscale>  0 0.23521137E+04</rscale>
<asrwt>0</asrwt>
<pdfrwt beam="1">  1        2 0.83769769E-01 0.23521137E+04</pdfrwt>
<pdfrwt beam="2">  1       -2 0.39078924E+00 0.23521137E+04</pdfrwt>
<totfact> 0.42910346E-01</totfact>
</mgrwt>
</event>
<event>
12    1  0.1506149E-007  0.1362512E+04  0.7818608E-02  0.8981411E-01
         -2   -1    0    0    0  501 -0.00000000000E+00  0.00000000000E+00  0.22363786751E+03  0.22363786751E+03  0.00000000000E+00 0.  1.
          2   -1    0    0  501    0  0.00000000000E+00 -0.00000000000E+00 -0.20752728361E+04  0.20752728361E+04  0.00000000000E+00 0. -1.
         23    2    1    2    0    0 -0.16235060956E+03 -0.32588163065E+03 -0.62278594994E+03  0.72723617023E+03  0.91943190209E+02 0.  0.
        254    2    1    2    0    0  0.16235060956E+03  0.32588163065E+03 -0.12288490186E+04  0.15716745334E+04  0.90968916155E+03 0.  0.
        -24    2    4    4    0    0 -0.29980991403E+03  0.35530808477E+03 -0.83725000773E+03  0.96095717461E+03  0.79506580396E+02 0.  0.
         24    2    4    4    0    0  0.46216052359E+03 -0.29426454127E+02 -0.39159901089E+03  0.61071735876E+03  0.71886307412E+02 0.  0.
         13    1    3    3    0    0 -0.11675272817E+03 -0.19846972417E+03 -0.46838450931E+03  0.52192478338E+03  0.00000000000E+00 0.  1.
        -13    1    3    3    0    0 -0.45597881393E+02 -0.12741190648E+03 -0.15440144063E+03  0.20531138685E+03  0.00000000000E+00 0. -1.
          4    1    6    6  502    0  0.27882693212E+03 -0.27740082296E+02 -0.19188107607E+03  0.33960612125E+03  0.00000000000E+00 0. -1.
          3    1    5    5  503    0 -0.21123715384E+03  0.30106522390E+03 -0.65091034013E+03  0.74762669501E+03  0.00000000000E+00 0. -1.
         -4    1    5    5    0  503 -0.88572760184E+02  0.54242860875E+02 -0.18633966760E+03  0.21333047960E+03  0.00000000000E+00 0.  1.
         -3    1    6    6    0  502  0.18333359147E+03 -0.16863718311E+01 -0.19971793483E+03  0.27111123750E+03  0.00000000000E+00 0.  1.
<mgrwt>
<rscale>  0 0.13625118E+04</rscale>
<asrwt>0</asrwt>
<pdfrwt beam="1">  1        2 0.31927274E+00 0.13625118E+04</pdfrwt>
<pdfrwt beam="2">  1       -2 0.34405826E-01 0.13625118E+04</pdfrwt>
<totfact> 0.46909161E+01</totfact>
</mgrwt>
</event>
<event>
12    1  0.1506149E-007  0.1415222E+04  0.7818608E-02  0.8942873E-01
          2   -1    0    0  501    0  0.00000000000E+00  0.00000000000E+00  0.65932098145E+03  0.65932098145E+03  0.00000000000E+00 0. -1.
         -2   -1    0    0    0  501 -0.00000000000E+00 -0.00000000000E+00 -0.75943808366E+03  0.75943808366E+03  0.00000000000E+00 0.  1.
         23    2    1    2    0    0  0.30463858544E+03  0.23558014709E+03 -0.27460955785E+03  0.48297144151E+03  0.97715559674E+02 0.  0.
        254    2    1    2    0    0 -0.30463858544E+03 -0.23558014709E+03  0.17449245565E+03  0.93578762361E+03  0.83483422664E+03 0.  0.
        -24    2    4    4    0    0 -0.49264777802E+03 -0.34803587992E+03  0.29147843734E+03  0.67476916095E+03  0.80764684318E+02 0.  0.
         24    2    4    4    0    0  0.18800919258E+03  0.11245573283E+03 -0.11698598169E+03  0.26101846266E+03  0.80319173285E+02 0.  0.
         13    1    3    3    0    0  0.81408846941E+02  0.15591534321E+02 -0.43858381596E+02  0.93776617230E+02  0.00000000000E+00 0. -1.
        -13    1    3    3    0    0  0.22322973850E+03  0.21998861277E+03 -0.23075117625E+03  0.38919482428E+03  0.00000000000E+00 0.  1.
          2    1    6    6  502    0  0.15729863887E+03  0.56790915666E+02 -0.10134714669E+03  0.19554875105E+03  0.00000000000E+00 0. -1.
          1    1    5    5  503    0 -0.43817773699E+03 -0.30203650574E+03  0.28360720298E+03  0.60304131333E+03  0.00000000000E+00 0. -1.
         -2    1    5    5    0  503 -0.54470041024E+02 -0.45999374178E+02  0.78712343645E+01  0.71727847621E+02  0.00000000000E+00 0.  1.
         -1    1    6    6    0  502  0.30710553704E+02  0.55664817161E+02 -0.15638835000E+02  0.65469711612E+02  0.00000000000E+00 0.  1.
<mgrwt>
<rscale>  0 0.14152222E+04</rscale>
<asrwt>0</asrwt>
<pdfrwt beam="1">  1        2 0.10143400E+00 0.14152222E+04</pdfrwt>
<pdfrwt beam="2">  1       -2 0.11683663E+00 0.14152222E+04</pdfrwt>
<totfact> 0.24358437E+01</totfact>
</mgrwt>
</event>
<event>
12    1  0.1506149E-007  0.1533806E+04  0.7818608E-02  0.8862278E-01
         -1   -1    0    0    0  501 -0.00000000000E+00  0.00000000000E+00  0.61514958153E+03  0.61514958153E+03  0.00000000000E+00 0. -1.
          1   -1    0    0  501    0  0.00000000000E+00 -0.00000000000E+00 -0.95609288637E+03  0.95609288637E+03  0.00000000000E+00 0.  1.
         23    2    1    2    0    0 -0.34502799974E+03 -0.17030973937E+03  0.19336658710E+03  0.44009829047E+03  0.90808261441E+02 0.  0.
        254    2    1    2    0    0  0.34502799974E+03  0.17030973937E+03 -0.53430989193E+03  0.11311441774E+04  0.91975559884E+03 0.  0.
        -24    2    4    4    0    0 -0.15184396275E+03  0.40367479494E+03 -0.19277868274E+03  0.47923755502E+03  0.80592087217E+02 0.  0.
         24    2    4    4    0    0  0.49687196249E+03 -0.23336505557E+03 -0.34153120919E+03  0.65190662242E+03  0.83652144173E+02 0.  0.
         13    1    3    3    0    0 -0.33028194610E+03 -0.18035239012E+03  0.17690345605E+03  0.41582205486E+03  0.00000000000E+00 0. -1.
        -13    1    3    3    0    0 -0.14746053632E+02  0.10042650749E+02  0.16463131046E+02  0.24276235615E+02  0.00000000000E+00 0.  1.
          4    1    6    6  502    0  0.45072104382E+03 -0.18183655520E+03 -0.29506747587E+03  0.56857612284E+03  0.00000000000E+00 0. -1.
          3    1    5    5  503    0 -0.12416773513E+03  0.24313293991E+03 -0.14676714351E+03  0.30995458914E+03  0.00000000000E+00 0. -1.
         -4    1    5    5    0  503 -0.27676227628E+02  0.16054185503E+03 -0.46011539232E+02  0.16928296588E+03  0.00000000000E+00 0.  1.
         -3    1    6    6    0  502  0.46150918674E+02 -0.51528500379E+02 -0.46463733325E+02  0.83330499580E+02  0.00000000000E+00 0.  1.
<mgrwt>
<rscale>  0 0.15338059E+04</rscale>
<asrwt>0</asrwt>
<pdfrwt beam="1">  1        1 0.14709121E+00 0.15338059E+04</pdfrwt>
<pdfrwt beam="2">  1       -1 0.94638397E-01 0.15338059E+04</pdfrwt>
<totfact> 0.17080732E+01</totfact>
</mgrwt>
</event>
<event>
12    1  0.2155722E-007  0.1582679E+04  0.7818608E-02  0.8831260E-01
         -2   -1    0    0    0  501 -0.00000000000E+00  0.00000000000E+00  0.50344170468E+03  0.50344170468E+03  0.00000000000E+00 0.  1.
          2   -1    0    0  501    0  0.00000000000E+00 -0.00000000000E+00 -0.12438740693E+04  0.12438740693E+04  0.00000000000E+00 0. -1.
         23    2    1    2    0    0 -0.14844055537E+03 -0.19332436713E+03  0.26652455421E+03  0.37205498163E+03  0.89334550733E+02 0.  0.
        254    2    1    2    0    0  0.14844055537E+03  0.19332436713E+03 -0.10069569189E+04  0.13752607924E+04  0.90441754804E+03 0.  0.
        -24    2    4    4    0    0  0.20708188192E+03 -0.24497295201E+03 -0.82844961908E+03  0.89185933748E+03  0.78674350685E+02 0.  0.
         24    2    4    4    0    0 -0.58641326557E+02  0.43829731914E+03 -0.17850729979E+03  0.48340145491E+03  0.79175535238E+02 0.  0.
         13    1    3    3    0    0 -0.11219172997E+03 -0.15972727138E+03  0.25530621424E+03  0.32137368985E+03  0.00000000000E+00 0.  1.
        -13    1    3    3    0    0 -0.36248825395E+02 -0.33597095746E+02  0.11218339975E+02  0.50681291784E+02  0.00000000000E+00 0. -1.
          2    1    6    6  502    0 -0.62740578010E+02  0.42739384873E+03 -0.15827880915E+03  0.46005876091E+03  0.00000000000E+00 0. -1.
          1    1    5    5  503    0  0.20927865489E+03 -0.21682523557E+03 -0.77232202141E+03  0.82903078527E+03  0.00000000000E+00 0. -1.
         -2    1    5    5    0  503 -0.21967729633E+01 -0.28147716445E+02 -0.56127597676E+02  0.62828552214E+02  0.00000000000E+00 0.  1.
         -1    1    6    6    0  502  0.40992514534E+01  0.10903470411E+02 -0.20228490643E+02  0.23342694000E+02  0.00000000000E+00 0.  1.
<mgrwt>
<rscale>  0 0.15826788E+04</rscale>
<asrwt>0</asrwt>
<pdfrwt beam="1">  1        2 0.19136524E+00 0.15826788E+04</pdfrwt>
<pdfrwt beam="2">  1       -2 0.77452570E-01 0.15826788E+04</pdfrwt>
<totfact> 0.25457902E+01</totfact>
</mgrwt>
</event>
<event>
12    1  0.1506149E-007  0.1266888E+04  0.7818608E-02  0.9056243E-01
         -1   -1    0    0    0  501 -0.00000000000E+00  0.00000000000E+00  0.25559073186E+03  0.25559073186E+03  0.00000000000E+00 0.  1.
          1   -1    0    0  501    0  0.00000000000E+00 -0.00000000000E+00 -0.15698974429E+04  0.15698974429E+04  0.00000000000E+00 0. -1.
         23    2    1    2    0    0  0.18253685396E+03  0.37440195679E+02  0.11911993611E+02  0.20691954134E+03  0.89175835793E+02 0.  0.
        254    2    1    2    0    0 -0.18253685396E+03 -0.37440195679E+02 -0.13262187047E+04  0.16185686335E+04  0.90894823684E+03 0.  0.
        -24    2    4    4    0    0 -0.50052529237E+03  0.23020662017E+01 -0.11196998397E+04  0.12289949615E+04  0.78549452326E+02 0.  0.
         24    2    4    4    0    0  0.31798843841E+03 -0.39742261881E+02 -0.20651886498E+03  0.38957367200E+03  0.80134324596E+02 0.  0.
         11    1    3    3    0    0  0.66849374063E+02 -0.60783311687E+01 -0.33775886963E+02  0.75143831833E+02  0.00000000000E+00 0. -1.
        -11    1    3    3    0    0  0.11568747990E+03  0.43518526848E+02  0.45687880574E+02  0.13177570951E+03  0.00000000000E+00 0.  1.
          2    1    6    6  502    0  0.66758582526E+02 -0.30003813947E+02 -0.78898758941E+02  0.10761947479E+03  0.00000000000E+00 0. -1.
          1    1    5    5  503    0 -0.16657133057E+03  0.36786965923E+02 -0.39882228019E+03  0.43377240600E+03  0.00000000000E+00 0. -1.
         -2    1    5    5    0  503 -0.33395396181E+03 -0.34484899721E+02 -0.72087755952E+03  0.79522255547E+03  0.00000000000E+00 0.  1.
         -1    1    6    6    0  502  0.25122985588E+03 -0.97384479335E+01 -0.12762010604E+03  0.28195419720E+03  0.00000000000E+00 0.  1.
<mgrwt>
<rscale>  0 0.12668879E+04</rscale>
<asrwt>0</asrwt>
<pdfrwt beam="1">  1        1 0.24152269E+00 0.12668879E+04</pdfrwt>
<pdfrwt beam="2">  1       -1 0.39321650E-01 0.12668879E+04</pdfrwt>
<totfact> 0.36225575E+01</totfact>
</mgrwt>
</event>
<event>
12    1  0.1506149E-007  0.2631034E+04  0.7818608E-02  0.8357736E-01
          2   -1    0    0  501    0  0.00000000000E+00  0.00000000000E+00  0.15299652231E+04  0.15299652231E+04  0.00000000000E+00 0. -1.
         -2   -1    0    0    0  501 -0.00000000000E+00 -0.00000000000E+00 -0.11311267876E+04  0.11311267876E+04  0.00000000000E+00 0.  1.
         23    2    1    2    0    0  0.25827860695E+03 -0.79230960311E+03 -0.64330664602E+03  0.10572981121E+04  0.97844320034E+02 0.  0.
        254    2    1    2    0    0 -0.25827860695E+03  0.79230960311E+03  0.10421450816E+04  0.16037938987E+04  0.88973375371E+03 0.  0.
        -24    2    4    4    0    0 -0.22246392611E+03  0.55518536423E+02  0.77990346926E+03  0.81678268804E+03  0.79448296495E+02 0.  0.
         24    2    4    4    0    0 -0.35814680839E+02  0.73679106669E+03  0.26224161230E+03  0.78701121066E+03  0.80450078689E+02 0.  0.
         13    1    3    3    0    0  0.19339572567E+03 -0.44611643971E+03 -0.39297201499E+03  0.62517900560E+03  0.00000000000E+00 0.  1.
        -13    1    3    3    0    0  0.64882881277E+02 -0.34619316340E+03 -0.25033463104E+03  0.43211910646E+03  0.00000000000E+00 0. -1.
          4    1    6    6  502    0 -0.12940557645E+02  0.20165168465E+02  0.12396872967E+01  0.23992267004E+02  0.00000000000E+00 0. -1.
          1    1    5    5  503    0 -0.39942840921E+02 -0.49501366045E+01  0.24688580975E+03  0.25014503283E+03  0.00000000000E+00 0. -1.
         -2    1    5    5    0  503 -0.18252108519E+03  0.60468673027E+02  0.53301765950E+03  0.56663765521E+03  0.00000000000E+00 0.  1.
         -3    1    6    6    0  502 -0.22874123193E+02  0.71662589822E+03  0.26100192500E+03  0.76301894365E+03  0.00000000000E+00 0.  1.
<mgrwt>
<rscale>  0 0.26310337E+04</rscale>
<asrwt>0</asrwt>
<pdfrwt beam="1">  1        2 0.23537927E+00 0.26310337E+04</pdfrwt>
<pdfrwt beam="2">  1       -2 0.17401951E+00 0.26310337E+04</pdfrwt>
<totfact> 0.21506983E+00</totfact>
</mgrwt>
</event>
<event>
12    1  0.1506149E-007  0.1412882E+04  0.7818608E-02  0.8944546E-01
          1   -1    0    0  501    0  0.00000000000E+00  0.00000000000E+00  0.63482961816E+03  0.63482961816E+03  0.00000000000E+00 0. -1.
         -1   -1    0    0    0  501 -0.00000000000E+00 -0.00000000000E+00 -0.78613087275E+03  0.78613087275E+03  0.00000000000E+00 0.  1.
         23    2    1    2    0    0 -0.22622487235E+03 -0.12965388636E+03  0.20467005378E+03  0.34265829261E+03  0.86816193551E+02 0.  0.
        254    2    1    2    0    0  0.22622487235E+03  0.12965388636E+03 -0.35597130837E+03  0.10783021983E+04  0.98388629188E+03 0.  0.
        -24    2    4    4    0    0 -0.37228058954E+03  0.51190971741E+02 -0.25687359165E+03  0.46132444942E+03  0.74985682730E+02 0.  0.
         24    2    4    4    0    0  0.59850546188E+03  0.78462914620E+02 -0.99097716722E+02  0.61697774888E+03  0.80473401037E+02 0.  0.
         13    1    3    3    0    0 -0.58027259794E+02 -0.33184191892E+02  0.94543173210E+01  0.67511018262E+02  0.00000000000E+00 0.  1.
        -13    1    3    3    0    0 -0.16819761255E+03 -0.96469694468E+02  0.19521573646E+03  0.27514727435E+03  0.00000000000E+00 0. -1.
          2    1    6    6  502    0  0.55724954107E+03  0.89342035006E+02 -0.10453751122E+03  0.57396615013E+03  0.00000000000E+00 0. -1.
          3    1    5    5  503    0 -0.29478799563E+03  0.10905356100E+02 -0.21088937251E+03  0.36261993408E+03  0.00000000000E+00 0. -1.
         -4    1    5    5    0  503 -0.77492593908E+02  0.40285615641E+02 -0.45984219144E+02  0.98704515340E+02  0.00000000000E+00 0.  1.
         -1    1    6    6    0  502  0.41255920818E+02 -0.10879120386E+02  0.54397945024E+01  0.43011598751E+02  0.00000000000E+00 0.  1.
<mgrwt>
<rscale>  0 0.14128824E+04</rscale>
<asrwt>0</asrwt>
<pdfrwt beam="1">  1        1 0.97666095E-01 0.14128824E+04</pdfrwt>
<pdfrwt beam="2">  1       -1 0.12094321E+00 0.14128824E+04</pdfrwt>
<totfact> 0.18663044E+01</totfact>
</mgrwt>
</event>
<event>
12    1  0.1506149E-007  0.3170710E+04  0.7818608E-02  0.8196596E-01
          1   -1    0    0  501    0  0.00000000000E+00  0.00000000000E+00  0.15223577323E+04  0.15223577323E+04  0.00000000000E+00 0. -1.
         -1   -1    0    0    0  501 -0.00000000000E+00 -0.00000000000E+00 -0.16509594502E+04  0.16509594502E+04  0.00000000000E+00 0.  1.
         23    2    1    2    0    0 -0.59919000321E+02  0.12515330505E+04  0.67882444426E+03  0.14277203025E+04  0.87506417022E+02 0.  0.
        254    2    1    2    0    0  0.59919000321E+02 -0.12515330505E+04 -0.80742616215E+03  0.17455968799E+04  0.90843062287E+03 0.  0.
        -24    2    4    4    0    0  0.54144851500E+02 -0.13274490360E+04 -0.50481803674E+03  0.14234462190E+04  0.79405794493E+02 0.  0.
         24    2    4    4    0    0  0.57741488211E+01  0.75915985456E+02 -0.30260812541E+03  0.32215066085E+03  0.80079916819E+02 0.  0.
         11    1    3    3    0    0 -0.66151482881E+02  0.12379481854E+04  0.67737832736E+03  0.14127041894E+04  0.00000000000E+00 0. -1.
        -11    1    3    3    0    0  0.62324825603E+01  0.13584865100E+02  0.14461168948E+01  0.15016113103E+02  0.00000000000E+00 0.  1.
          4    1    6    6  502    0 -0.30752107553E+02  0.62360744656E+02 -0.16305450520E+03  0.17726061678E+03  0.00000000000E+00 0. -1.
          1    1    5    5  503    0  0.70269413790E+02 -0.84438678679E+03 -0.33563237654E+03  0.91135938487E+03  0.00000000000E+00 0. -1.
         -2    1    5    5    0  503 -0.16124562290E+02 -0.48306224919E+03 -0.16918566020E+03  0.51208683416E+03  0.00000000000E+00 0.  1.
         -3    1    6    6    0  502  0.36526256374E+02  0.13555240800E+02 -0.13955362021E+03  0.14489004407E+03  0.00000000000E+00 0.  1.
<mgrwt>
<rscale>  0 0.31707103E+04</rscale>
<asrwt>0</asrwt>
<pdfrwt beam="1">  1        1 0.23420888E+00 0.31707103E+04</pdfrwt>
<pdfrwt beam="2">  1       -1 0.25399376E+00 0.31707103E+04</pdfrwt>
<totfact> 0.34761120E-01</totfact>
</mgrwt>
</event>
<event>
12    1  0.1506149E-007  0.1304915E+04  0.7818608E-02  0.9025677E-01
         -2   -1    0    0    0  501 -0.00000000000E+00  0.00000000000E+00  0.62707465680E+03  0.62707465680E+03  0.00000000000E+00 0. -1.
          2   -1    0    0  501    0  0.00000000000E+00 -0.00000000000E+00 -0.67886751351E+03  0.67886751351E+03  0.00000000000E+00 0.  1.
         23    2    1    2    0    0  0.21360598430E+03 -0.46553161885E+02  0.25477958330E+03  0.34776522910E+03  0.90737561636E+02 0.  0.
        254    2    1    2    0    0 -0.21360598430E+03  0.46553161885E+02 -0.30657244001E+03  0.95817694121E+03  0.88109118500E+03 0.  0.
        -24    2    4    4    0    0 -0.50779329889E+03  0.21357382421E+03 -0.22864321954E+03  0.60178541015E+03  0.80000907787E+02 0.  0.
         24    2    4    4    0    0  0.29418731459E+03 -0.16702066232E+03 -0.77929220469E+02  0.35639153106E+03  0.80621847566E+02 0.  0.
         11    1    3    3    0    0  0.14160422606E+01 -0.12743451911E+02  0.47553328244E+02  0.49251596618E+02  0.00000000000E+00 0.  1.
        -11    1    3    3    0    0  0.21218994204E+03 -0.33809709974E+02  0.20722625506E+03  0.29851363248E+03  0.00000000000E+00 0. -1.
          2    1    6    6  502    0  0.13574499487E+03 -0.74294946440E+02  0.52725392953E+01  0.15483617913E+03  0.00000000000E+00 0. -1.
          1    1    5    5  503    0 -0.14254033565E+03  0.91039610663E+02 -0.95110797770E+02  0.19404128903E+03  0.00000000000E+00 0. -1.
         -2    1    5    5    0  503 -0.36525296324E+03  0.12253421355E+03 -0.13353242177E+03  0.40774412112E+03  0.00000000000E+00 0.  1.
         -1    1    6    6    0  502  0.15844231972E+03 -0.92725715884E+02 -0.83201759764E+02  0.20155535193E+03  0.00000000000E+00 0.  1.
<mgrwt>
<rscale>  0 0.13049147E+04</rscale>
<asrwt>0</asrwt>
<pdfrwt beam="1">  1        2 0.10444116E+00 0.13049147E+04</pdfrwt>
<pdfrwt beam="2">  1       -2 0.96473023E-01 0.13049147E+04</pdfrwt>
<totfact> 0.37527620E+01</totfact>
</mgrwt>
</event>
<event>
12    1  0.1506149E-007  0.2401010E+04  0.7818608E-02  0.8439126E-01
          1   -1    0    0  501    0  0.00000000000E+00  0.00000000000E+00  0.20265257154E+04  0.20265257154E+04  0.00000000000E+00 0. -1.
         -1   -1    0    0    0  501 -0.00000000000E+00 -0.00000000000E+00 -0.71117368588E+03  0.71117368588E+03  0.00000000000E+00 0.  1.
         23    2    1    2    0    0 -0.57389659589E+03 -0.17256915933E+03 -0.40117188491E+03  0.72697346653E+03  0.91728524853E+02 0.  0.
        254    2    1    2    0    0  0.57389659589E+03  0.17256915933E+03  0.17165239144E+04  0.20107259347E+04  0.85873570920E+03 0.  0.
        -24    2    4    4    0    0  0.77442914293E+03  0.23620203676E+03  0.12343286437E+04  0.14784733266E+04  0.82366723260E+02 0.  0.
         24    2    4    4    0    0 -0.20053254704E+03 -0.63632877428E+02  0.48219527070E+03  0.53225260814E+03  0.80734839310E+02 0.  0.
         13    1    3    3    0    0 -0.38343567978E+03 -0.13570226760E+03 -0.22449239600E+03  0.46458030718E+03  0.00000000000E+00 0.  1.
        -13    1    3    3    0    0 -0.19046091611E+03 -0.36866891732E+02 -0.17667948891E+03  0.26239315935E+03  0.00000000000E+00 0. -1.
          2    1    6    6  502    0 -0.11084009009E+03 -0.75985990733E+02  0.27197143561E+03  0.30336093708E+03  0.00000000000E+00 0. -1.
          3    1    5    5  503    0  0.64921673916E+02  0.80991855381E+01  0.67980841961E+02  0.94349432559E+02  0.00000000000E+00 0. -1.
         -4    1    5    5    0  503  0.70950746902E+03  0.22810285122E+03  0.11663478017E+04  0.13841238940E+04  0.00000000000E+00 0.  1.
         -1    1    6    6    0  502 -0.89692456954E+02  0.12353113305E+02  0.21022383509E+03  0.22889167106E+03  0.00000000000E+00 0.  1.
<mgrwt>
<rscale>  0 0.24010096E+04</rscale>
<asrwt>0</asrwt>
<pdfrwt beam="1">  1        1 0.31177318E+00 0.24010096E+04</pdfrwt>
<pdfrwt beam="2">  1       -1 0.10941134E+00 0.24010096E+04</pdfrwt>
<totfact> 0.19796455E+00</totfact>
</mgrwt>
</event>
<event>
12    1  0.1506149E-007  0.1576654E+04  0.7818608E-02  0.8835020E-01
         -2   -1    0    0    0  501 -0.00000000000E+00  0.00000000000E+00  0.41819418266E+03  0.41819418266E+03  0.00000000000E+00 0.  1.
          2   -1    0    0  501    0  0.00000000000E+00 -0.00000000000E+00 -0.14860541368E+04  0.14860541368E+04  0.00000000000E+00 0. -1.
         23    2    1    2    0    0  0.19186569775E+03 -0.48077831243E+03 -0.20687896102E+03  0.56205167768E+03  0.71714379288E+02 0.  0.
        254    2    1    2    0    0 -0.19186569775E+03  0.48077831243E+03 -0.86098099307E+03  0.13421966417E+04  0.89008051487E+03 0.  0.
        -24    2    4    4    0    0 -0.17988556136E+03  0.25995678667E+03  0.10924007935E+03  0.34387071007E+03  0.79858150415E+02 0.  0.
         24    2    4    4    0    0 -0.11980136389E+02  0.22082152576E+03 -0.97022107242E+03  0.99832593166E+03  0.80125317694E+02 0.  0.
         13    1    3    3    0    0 -0.30896289460E+01 -0.37313880010E+01  0.28985327703E+01  0.56454012841E+01  0.00000000000E+00 0.  1.
        -13    1    3    3    0    0  0.19495532670E+03 -0.47704692443E+03 -0.20977749379E+03  0.55640627640E+03  0.00000000000E+00 0. -1.
          2    1    6    6  502    0 -0.17812688014E+02  0.22049033140E+03 -0.86145781700E+03  0.88940589640E+03  0.00000000000E+00 0. -1.
          3    1    5    5  503    0 -0.13337175145E+03  0.21639055919E+03  0.54747248627E+02  0.26001953662E+03  0.00000000000E+00 0. -1.
         -4    1    5    5    0  503 -0.46513809915E+02  0.43566227478E+02  0.54492830722E+02  0.83851173454E+02  0.00000000000E+00 0.  1.
         -1    1    6    6    0  502  0.58325516249E+01  0.33119436163E+00 -0.10876325543E+03  0.10892003525E+03  0.00000000000E+00 0.  1.
<mgrwt>
<rscale>  0 0.15766537E+04</rscale>
<asrwt>0</asrwt>
<pdfrwt beam="1">  1        2 0.22862371E+00 0.15766537E+04</pdfrwt>
<pdfrwt beam="2">  1       -2 0.64337566E-01 0.15766537E+04</pdfrwt>
<totfact> 0.27710722E+01</totfact>
</mgrwt>
</event>
<event>
12    1  0.1506149E-007  0.2133330E+04  0.7818608E-02  0.8546702E-01
         -2   -1    0    0    0  501 -0.00000000000E+00  0.00000000000E+00  0.54786160020E+03  0.54786160020E+03  0.00000000000E+00 0.  1.
          2   -1    0    0  501    0  0.00000000000E+00 -0.00000000000E+00 -0.20767541906E+04  0.20767541906E+04  0.00000000000E+00 0. -1.
         23    2    1    2    0    0  0.54163031940E+02 -0.60575949182E+03  0.14160722267E+03  0.63120476953E+03  0.92133922139E+02 0.  0.
        254    2    1    2    0    0 -0.54163031940E+02  0.60575949182E+03 -0.16704998130E+04  0.19934110212E+04  0.90179802521E+03 0.  0.
        -24    2    4    4    0    0  0.16287208443E+03  0.75607732847E+03 -0.98823058057E+03  0.12576367226E+04  0.82886689343E+02 0.  0.
         24    2    4    4    0    0 -0.21703511637E+03 -0.15031783665E+03 -0.68226923246E+03  0.73577429858E+03  0.78567290499E+02 0.  0.
         13    1    3    3    0    0  0.66416732886E+02 -0.57579034188E+03  0.14799270528E+03  0.59820359496E+03  0.00000000000E+00 0.  1.
        -13    1    3    3    0    0 -0.12253700945E+02 -0.29969149938E+02 -0.63854826045E+01  0.33001174569E+02  0.00000000000E+00 0. -1.
          2    1    6    6  502    0 -0.14431933729E+03 -0.12626282390E+03 -0.40468479256E+03  0.44781709787E+03  0.00000000000E+00 0. -1.
          3    1    5    5  503    0  0.98815448339E+02  0.43440095373E+03 -0.50262298248E+03  0.67163870045E+03  0.00000000000E+00 0. -1.
         -4    1    5    5    0  503  0.64056636093E+02  0.32167637474E+03 -0.48560759809E+03  0.58599802220E+03  0.00000000000E+00 0.  1.
         -1    1    6    6    0  502 -0.72715779081E+02 -0.24055012745E+02 -0.27758443991E+03  0.28795720072E+03  0.00000000000E+00 0.  1.
<mgrwt>
<rscale>  0 0.21333297E+04</rscale>
<asrwt>0</asrwt>
<pdfrwt beam="1">  1        2 0.31950064E+00 0.21333297E+04</pdfrwt>
<pdfrwt beam="2">  1       -2 0.84286400E-01 0.21333297E+04</pdfrwt>
<totfact> 0.68335953E+00</totfact>
</mgrwt>
</event>
<event>
12    1  0.1506149E-007  0.1266562E+04  0.7818608E-02  0.9056510E-01
         -1   -1    0    0    0  501 -0.00000000000E+00  0.00000000000E+00  0.28487717631E+03  0.28487717631E+03  0.00000000000E+00 0.  1.
          1   -1    0    0  501    0  0.00000000000E+00 -0.00000000000E+00 -0.14077820505E+04  0.14077820505E+04  0.00000000000E+00 0. -1.
         23    2    1    2    0    0  0.22206892978E+03 -0.12179900236E+03 -0.59661294091E+02  0.27573031260E+03  0.91203775822E+02 0.  0.
        254    2    1    2    0    0 -0.22206892978E+03  0.12179900236E+03 -0.10632435801E+04  0.14169289142E+04  0.90169342395E+03 0.  0.
        -24    2    4    4    0    0  0.29938950079E+03 -0.11335420390E+03 -0.22821443461E+03  0.40157300204E+03  0.81827862473E+02 0.  0.
         24    2    4    4    0    0 -0.52145843057E+03  0.23515320627E+03 -0.83502914552E+03  0.10153559122E+04  0.80361865025E+02 0.  0.
         11    1    3    3    0    0  0.48143574346E+00 -0.50963981169E+01 -0.21861825534E+02  0.22453161688E+02  0.00000000000E+00 0. -1.
        -11    1    3    3    0    0  0.22158749404E+03 -0.11670260424E+03 -0.37799468557E+02  0.25327715091E+03  0.00000000000E+00 0.  1.
          4    1    6    6  502    0 -0.20024449150E+03  0.12888446690E+03 -0.31340177095E+03  0.39361114341E+03  0.00000000000E+00 0. -1.
          3    1    5    5  503    0  0.29387180802E+03 -0.11725265152E+03 -0.20407080296E+03  0.37650194749E+03  0.00000000000E+00 0. -1.
         -4    1    5    5    0  503  0.55176927689E+01  0.38984476159E+01 -0.24143631651E+02  0.25071054557E+02  0.00000000000E+00 0.  1.
         -3    1    6    6    0  502 -0.32121393907E+03  0.10626873937E+03 -0.52162737457E+03  0.62174476879E+03  0.00000000000E+00 0.  1.
<mgrwt>
<rscale>  0 0.12665622E+04</rscale>
<asrwt>0</asrwt>
<pdfrwt beam="1">  1        1 0.21658185E+00 0.12665622E+04</pdfrwt>
<pdfrwt beam="2">  1       -1 0.43827259E-01 0.12665622E+04</pdfrwt>
<totfact> 0.38434863E+01</totfact>
</mgrwt>
</event>
<event>
12    1  0.1506149E-007  0.2354635E+04  0.7818608E-02  0.8456685E-01
         -1   -1    0    0    0  501 -0.00000000000E+00  0.00000000000E+00  0.57021958673E+03  0.57021958673E+03  0.00000000000E+00 0.  1.
          1   -1    0    0  501    0  0.00000000000E+00 -0.00000000000E+00 -0.24307771859E+04  0.24307771859E+04  0.00000000000E+00 0. -1.
         23    2    1    2    0    0 -0.72043304851E+03 -0.67147211758E+03 -0.10172828475E+04  0.14188684768E+04  0.91786603408E+02 0.  0.
        254    2    1    2    0    0  0.72043304851E+03  0.67147211758E+03 -0.84327475165E+03  0.15821282958E+04  0.90670781158E+03 0.  0.
        -24    2    4    4    0    0  0.51238047643E+03 -0.75774687314E+02 -0.16714940156E+03  0.55005232292E+03  0.79643453263E+02 0.  0.
         24    2    4    4    0    0  0.20805257208E+03  0.74724680490E+03 -0.67612535008E+03  0.10320759729E+04  0.79822707364E+02 0.  0.
         11    1    3    3    0    0 -0.50890896915E+02 -0.38766698475E+02 -0.38046505024E+02  0.74433035972E+02  0.00000000000E+00 0.  1.
        -11    1    3    3    0    0 -0.66954215159E+03 -0.63270541911E+03 -0.97923634248E+03  0.13444354408E+04  0.00000000000E+00 0. -1.
          4    1    6    6  502    0  0.88640649812E+02  0.36983071959E+03 -0.38090558026E+03  0.53825736133E+03  0.00000000000E+00 0. -1.
          3    1    5    5  503    0  0.51082469392E+03 -0.67086722374E+02 -0.16458802886E+03  0.54086201150E+03  0.00000000000E+00 0. -1.
         -4    1    5    5    0  503  0.15557825124E+01 -0.86879649408E+01 -0.25613726989E+01  0.91903114279E+01  0.00000000000E+00 0.  1.
         -3    1    6    6    0  502  0.11941192227E+03  0.37741608531E+03 -0.29521976982E+03  0.49381861156E+03  0.00000000000E+00 0.  1.
<mgrwt>
<rscale>  0 0.23546352E+04</rscale>
<asrwt>0</asrwt>
<pdfrwt beam="1">  1        1 0.37396572E+00 0.23546352E+04</pdfrwt>
<pdfrwt beam="2">  1       -1 0.87726091E-01 0.23546352E+04</pdfrwt>
<totfact> 0.17389684E+00</totfact>
</mgrwt>
</event>
<event>
12    1  0.1506149E-007  0.1386206E+04  0.7818608E-02  0.8963864E-01
         -1   -1    0    0    0  501 -0.00000000000E+00  0.00000000000E+00  0.22149775023E+03  0.22149775023E+03  0.00000000000E+00 0.  1.
          1   -1    0    0  501    0  0.00000000000E+00 -0.00000000000E+00 -0.21688336759E+04  0.21688336759E+04  0.00000000000E+00 0. -1.
         23    2    1    2    0    0  0.22947058073E+03 -0.90464507905E+02 -0.11533158393E+04  0.11830289038E+04  0.92624983221E+02 0.  0.
        254    2    1    2    0    0 -0.22947058073E+03  0.90464507905E+02 -0.79402008641E+03  0.12073025223E+04  0.87536901259E+03 0.  0.
        -24    2    4    4    0    0 -0.34382800153E+03 -0.25854706317E+03 -0.15183676069E+03  0.46318283254E+03  0.80122755512E+02 0.  0.
         24    2    4    4    0    0  0.11435742081E+03  0.34901157108E+03 -0.64218332572E+03  0.74411968979E+03  0.80174762010E+02 0.  0.
         11    1    3    3    0    0  0.22075046361E+03 -0.68139978789E+02 -0.11073150755E+04  0.11311589191E+04  0.00000000000E+00 0. -1.
        -11    1    3    3    0    0  0.87201171121E+01 -0.22324529116E+02 -0.46000763755E+02  0.51869984661E+02  0.00000000000E+00 0.  1.
          2    1    6    6  502    0  0.12318654124E+03  0.29110706857E+03 -0.56237958555E+03  0.64512715612E+03  0.00000000000E+00 0. -1.
          3    1    5    5  503    0 -0.27222998331E+03 -0.22390709578E+03 -0.15145807360E+03  0.38364449613E+03  0.00000000000E+00 0. -1.
         -4    1    5    5    0  503 -0.71598018229E+02 -0.34639967389E+02 -0.37868708623E+00  0.79538336410E+02  0.00000000000E+00 0.  1.
         -1    1    6    6    0  502 -0.88291204354E+01  0.57904502511E+02 -0.79803740165E+02  0.98992533673E+02  0.00000000000E+00 0.  1.
<mgrwt>
<rscale>  0 0.13862060E+04</rscale>
<asrwt>0</asrwt>
<pdfrwt beam="1">  1        1 0.33366672E+00 0.13862060E+04</pdfrwt>
<pdfrwt beam="2">  1       -1 0.34076577E-01 0.13862060E+04</pdfrwt>
<totfact> 0.18209768E+01</totfact>
</mgrwt>
</event>
<event>
12    1  0.1506149E-007  0.2270488E+04  0.7818608E-02  0.8489649E-01
          2   -1    0    0  501    0  0.00000000000E+00  0.00000000000E+00  0.13964100065E+04  0.13964100065E+04  0.00000000000E+00 0. -1.
         -2   -1    0    0    0  501 -0.00000000000E+00 -0.00000000000E+00 -0.92292281526E+03  0.92292281526E+03  0.00000000000E+00 0.  1.
         23    2    1    2    0    0  0.60947798242E+03 -0.14663075584E+03  0.93981967066E+03  0.11334663054E+04  0.92308518590E+02 0.  0.
        254    2    1    2    0    0 -0.60947798242E+03  0.14663075584E+03 -0.46633247943E+03  0.11858665163E+04  0.89210393087E+03 0.  0.
        -24    2    4    4    0    0 -0.36073202487E+03 -0.24662100946E+03  0.91945490261E+02  0.45474939200E+03  0.85985581765E+02 0.  0.
         24    2    4    4    0    0 -0.24874595756E+03  0.39325176530E+03 -0.55827796969E+03  0.73111712430E+03  0.79601857277E+02 0.  0.
         11    1    3    3    0    0  0.90901766117E+02  0.11100044825E+02  0.13884588648E+03  0.16632655312E+03  0.00000000000E+00 0.  1.
        -11    1    3    3    0    0  0.51857621630E+03 -0.15773080066E+03  0.80097378417E+03  0.96713975232E+03  0.00000000000E+00 0. -1.
          2    1    6    6  502    0 -0.64074820494E+02  0.10210177234E+03 -0.94208258669E+02  0.15298872683E+03  0.00000000000E+00 0. -1.
          3    1    5    5  503    0 -0.27085300195E+03 -0.16694648287E+03  0.29931180069E+02  0.31957526867E+03  0.00000000000E+00 0. -1.
         -4    1    5    5    0  503 -0.89879022921E+02 -0.79674526591E+02  0.62014310192E+02  0.13517412333E+03  0.00000000000E+00 0.  1.
         -1    1    6    6    0  502 -0.18467113706E+03  0.29114999296E+03 -0.46406971102E+03  0.57812839746E+03  0.00000000000E+00 0.  1.
<mgrwt>
<rscale>  0 0.22704877E+04</rscale>
<asrwt>0</asrwt>
<pdfrwt beam="1">  1        2 0.21483231E+00 0.22704877E+04</pdfrwt>
<pdfrwt beam="2">  1       -2 0.14198813E+00 0.22704877E+04</pdfrwt>
<totfact> 0.45752410E+00</totfact>
</mgrwt>
</event>
<event>
12    1  0.1506149E-007  0.2159342E+04  0.7818608E-02  0.8535544E-01
          2   -1    0    0  501    0  0.00000000000E+00  0.00000000000E+00  0.45341715906E+04  0.45341715906E+04  0.00000000000E+00 0. -1.
         -2   -1    0    0    0  501 -0.00000000000E+00 -0.00000000000E+00 -0.25708974935E+03  0.25708974935E+03  0.00000000000E+00 0.  1.
         23    2    1    2    0    0  0.88706378541E+03 -0.94419041672E+02  0.17368013684E+04  0.19543357060E+04  0.84569165858E+02 0.  0.
        254    2    1    2    0    0 -0.88706378541E+03  0.94419041672E+02  0.25402804729E+04  0.28369256340E+04  0.89404980666E+03 0.  0.
        -24    2    4    4    0    0  0.63361843964E+02  0.26942968260E+03  0.70025233929E+03  0.75701050819E+03  0.78131259373E+02 0.  0.
         24    2    4    4    0    0 -0.95042562937E+03 -0.17501064092E+03  0.18400281336E+04  0.20799151258E+04  0.80036220106E+02 0.  0.
         13    1    3    3    0    0  0.90792456626E+02 -0.25425751651E+02  0.23246785937E+03  0.25086060804E+03  0.00000000000E+00 0. -1.
        -13    1    3    3    0    0  0.79627132878E+03 -0.68993290021E+02  0.15043335090E+04  0.17034750980E+04  0.00000000000E+00 0.  1.
          2    1    6    6  502    0 -0.37123481490E+03 -0.43886435372E+02  0.64595876541E+03  0.74632702860E+03  0.00000000000E+00 0. -1.
          1    1    5    5  503    0  0.46157683693E+02  0.20261801578E+03  0.60275565956E+03  0.63757272308E+03  0.00000000000E+00 0. -1.
         -2    1    5    5    0  503  0.17204160271E+02  0.66811666814E+02  0.97496679727E+02  0.11943778511E+03  0.00000000000E+00 0.  1.
         -1    1    6    6    0  502 -0.57919081447E+03 -0.13112420555E+03  0.11940693682E+04  0.13335880972E+04  0.00000000000E+00 0.  1.
<mgrwt>
<rscale>  0 0.21593416E+04</rscale>
<asrwt>0</asrwt>
<pdfrwt beam="1">  1        2 0.69756480E+00 0.21593416E+04</pdfrwt>
<pdfrwt beam="2">  1       -2 0.39552273E-01 0.21593416E+04</pdfrwt>
<totfact> 0.63969805E-01</totfact>
</mgrwt>
</event>
<event>
12    1  0.1506149E-007  0.2786402E+04  0.7818608E-02  0.8307502E-01
         -2   -1    0    0    0  501 -0.00000000000E+00  0.00000000000E+00  0.11350832109E+04  0.11350832109E+04  0.00000000000E+00 0.  1.
          2   -1    0    0  501    0  0.00000000000E+00 -0.00000000000E+00 -0.17100147334E+04  0.17100147334E+04  0.00000000000E+00 0. -1.
         23    2    1    2    0    0  0.25929161868E+03  0.58245732383E+03 -0.13592850138E+04  0.15041610646E+04  0.91411606971E+02 0.  0.
        254    2    1    2    0    0 -0.25929161868E+03 -0.58245732383E+03  0.78435349135E+03  0.13409368796E+04  0.88114280234E+03 0.  0.
        -24    2    4    4    0    0 -0.35820063036E+03 -0.27401431040E+03  0.88155914976E+03  0.99399149736E+03  0.86492938483E+02 0.  0.
         24    2    4    4    0    0  0.98909011686E+02 -0.30844301343E+03 -0.97205658406E+02  0.34694538226E+03  0.77473047678E+02 0.  0.
         13    1    3    3    0    0  0.21847330914E+03  0.52426094521E+03 -0.12595915612E+04  0.13817203142E+04  0.00000000000E+00 0. -1.
        -13    1    3    3    0    0  0.40818309534E+02  0.58196378620E+02 -0.99693452596E+02  0.12244075044E+03  0.00000000000E+00 0.  1.
          2    1    6    6  502    0  0.10714425149E+03 -0.30311083353E+03 -0.10010504660E+03  0.33671514428E+03  0.00000000000E+00 0. -1.
          3    1    5    5  503    0 -0.16871191021E+03 -0.16125659885E+03  0.37755646333E+03  0.44386516232E+03  0.00000000000E+00 0. -1.
         -4    1    5    5    0  503 -0.18948872015E+03 -0.11275771155E+03  0.50400268643E+03  0.55012633504E+03  0.00000000000E+00 0.  1.
         -1    1    6    6    0  502 -0.82352398077E+01 -0.53321798964E+01  0.28993881936E+01  0.10230237975E+02  0.00000000000E+00 0.  1.
<mgrwt>
<rscale>  0 0.27864020E+04</rscale>
<asrwt>0</asrwt>
<pdfrwt beam="1">  1        2 0.26307919E+00 0.27864020E+04</pdfrwt>
<pdfrwt beam="2">  1       -2 0.17462819E+00 0.27864020E+04</pdfrwt>
<totfact> 0.16673793E+00</totfact>
</mgrwt>
</event>
<event>
12    1  0.1506149E-007  0.1545928E+04  0.7818608E-02  0.8854473E-01
          1   -1    0    0  501    0  0.00000000000E+00  0.00000000000E+00  0.87959018255E+03  0.87959018255E+03  0.00000000000E+00 0. -1.
         -1   -1    0    0    0  501 -0.00000000000E+00 -0.00000000000E+00 -0.67926326429E+03  0.67926326429E+03  0.00000000000E+00 0.  1.
         23    2    1    2    0    0  0.13096846776E+03 -0.30211497867E+03  0.44369445534E+03  0.55974705510E+03  0.89586807621E+02 0.  0.
        254    2    1    2    0    0 -0.13096846776E+03  0.30211497867E+03 -0.24336753708E+03  0.99910639174E+03  0.91135043975E+03 0.  0.
        -24    2    4    4    0    0 -0.27251041884E+03  0.11748020732E+03  0.28371543694E+03  0.41747902586E+03  0.75701785892E+02 0.  0.
         24    2    4    4    0    0  0.14154195108E+03  0.18463477136E+03 -0.52708297402E+03  0.58162736588E+03  0.79685685840E+02 0.  0.
         13    1    3    3    0    0  0.67133051081E+02 -0.22984034413E+03  0.35828971089E+03  0.43093496872E+03  0.00000000000E+00 0. -1.
        -13    1    3    3    0    0  0.63835416680E+02 -0.72274634547E+02  0.85404744456E+02  0.12881208638E+03  0.00000000000E+00 0.  1.
          2    1    6    6  502    0  0.79024641284E+02  0.16044703138E+03 -0.37939059778E+03  0.41943458309E+03  0.00000000000E+00 0. -1.
          3    1    5    5  503    0 -0.13962037518E+03  0.43864725273E+02  0.18671292834E+03  0.23723338909E+03  0.00000000000E+00 0. -1.
         -4    1    5    5    0  503 -0.13289004366E+03  0.73615482045E+02  0.97002508600E+02  0.18024563677E+03  0.00000000000E+00 0.  1.
         -1    1    6    6    0  502  0.62517309794E+02  0.24187739979E+02 -0.14769237624E+03  0.16219278279E+03  0.00000000000E+00 0.  1.
<mgrwt>
<rscale>  0 0.15459279E+04</rscale>
<asrwt>0</asrwt>
<pdfrwt beam="1">  1        1 0.13532157E+00 0.15459279E+04</pdfrwt>
<pdfrwt beam="2">  1       -1 0.10450204E+00 0.15459279E+04</pdfrwt>
<totfact> 0.15699256E+01</totfact>
</mgrwt>
</event>
<event>
12    1  0.1506149E-007  0.2422015E+04  0.7818608E-02  0.8431307E-01
          2   -1    0    0  501    0  0.00000000000E+00  0.00000000000E+00  0.25746618060E+04  0.25746618060E+04  0.00000000000E+00 0. -1.
         -2   -1    0    0    0  501 -0.00000000000E+00 -0.00000000000E+00 -0.56960474042E+03  0.56960474042E+03  0.00000000000E+00 0.  1.
         23    2    1    2    0    0  0.93577395108E+03  0.14774302908E+03  0.14502239878E+04  0.17345945526E+04  0.90375643638E+02 0.  0.
        254    2    1    2    0    0 -0.93577395108E+03 -0.14774302908E+03  0.55483307779E+03  0.14096719938E+04  0.88421405543E+03 0.  0.
        -24    2    4    4    0    0 -0.65420965550E+03  0.22995227878E+03  0.61077127876E+03  0.92750089518E+03  0.79674536346E+02 0.  0.
         24    2    4    4    0    0 -0.28156429558E+03 -0.37769530786E+03 -0.55938200970E+02  0.48217109865E+03  0.86184035182E+02 0.  0.
         13    1    3    3    0    0  0.87126535291E+03  0.13425328734E+03  0.13018279544E+04  0.15722224026E+04  0.00000000000E+00 0. -1.
        -13    1    3    3    0    0  0.64508598169E+02  0.13489741744E+02  0.14839603344E+03  0.16237215004E+03  0.00000000000E+00 0.  1.
          2    1    6    6  502    0 -0.21910820242E+02 -0.25874498902E+01 -0.79257788800E+01  0.23443483347E+02  0.00000000000E+00 0. -1.
          1    1    5    5  503    0 -0.29055146367E+02 -0.18176849563E+01  0.12444376842E+02  0.31660196209E+02  0.00000000000E+00 0. -1.
         -2    1    5    5    0  503 -0.62515450913E+03  0.23176996373E+03  0.59832690191E+03  0.89584069897E+03  0.00000000000E+00 0.  1.
         -1    1    6    6    0  502 -0.25965347533E+03 -0.37510785797E+03 -0.48012422090E+02  0.45872761530E+03  0.00000000000E+00 0.  1.
<mgrwt>
<rscale>  0 0.24220153E+04</rscale>
<asrwt>0</asrwt>
<pdfrwt beam="1">  1        2 0.39610181E+00 0.24220153E+04</pdfrwt>
<pdfrwt beam="2">  1       -2 0.87631500E-01 0.24220153E+04</pdfrwt>
<totfact> 0.31762316E+00</totfact>
</mgrwt>
</event>
<event>
12    1  0.1506149E-007  0.1133505E+04  0.7818608E-02  0.9173137E-01
         -1   -1    0    0    0  501 -0.00000000000E+00  0.00000000000E+00  0.20460976594E+03  0.20460976594E+03  0.00000000000E+00 0.  1.
          1   -1    0    0  501    0  0.00000000000E+00 -0.00000000000E+00 -0.15698585907E+04  0.15698585907E+04  0.00000000000E+00 0. -1.
         23    2    1    2    0    0  0.11295318505E+03  0.10659479075E+03 -0.35871153646E+02  0.17240502448E+03  0.65695367974E+02 0.  0.
        254    2    1    2    0    0 -0.11295318505E+03 -0.10659479075E+03 -0.13293776712E+04  0.16020633322E+04  0.88047774327E+03 0.  0.
        -24    2    4    4    0    0  0.11014885023E+03 -0.83643046435E+02  0.75853205239E+02  0.17678725006E+03  0.79819136906E+02 0.  0.
         24    2    4    4    0    0 -0.22310203528E+03 -0.22951744317E+02 -0.14052308764E+04  0.14252760821E+04  0.80229630592E+02 0.  0.
         11    1    3    3    0    0  0.67772411524E+02  0.29809392888E+02  0.53660309998E+01  0.74232701398E+02  0.00000000000E+00 0.  1.
        -11    1    3    3    0    0  0.45180773525E+02  0.76785397864E+02 -0.41237184646E+02  0.98172323080E+02  0.00000000000E+00 0. -1.
          2    1    6    6  502    0 -0.20604224053E+03 -0.61011177096E+01 -0.11030443549E+04  0.11221396871E+04  0.00000000000E+00 0. -1.
          1    1    5    5  503    0  0.11366498353E+03 -0.91440394490E+02  0.80945192562E+02  0.16683284576E+03  0.00000000000E+00 0. -1.
         -2    1    5    5    0  503 -0.35161333050E+01  0.77973480544E+01 -0.50919873235E+01  0.99544043018E+01  0.00000000000E+00 0.  1.
         -1    1    6    6    0  502 -0.17059794750E+02 -0.16850626608E+02 -0.30218652153E+03  0.30313639505E+03  0.00000000000E+00 0.  1.
<mgrwt>
<rscale>  0 0.11335050E+04</rscale>
<asrwt>0</asrwt>
<pdfrwt beam="1">  1        1 0.24151670E+00 0.11335050E+04</pdfrwt>
<pdfrwt beam="2">  1       -1 0.31478426E-01 0.11335050E+04</pdfrwt>
<totfact> 0.54551082E+01</totfact>
</mgrwt>
</event>
<event>
12    1  0.1506149E-007  0.2048299E+04  0.7818608E-02  0.8584366E-01
          2   -1    0    0  501    0  0.00000000000E+00  0.00000000000E+00  0.47603986302E+03  0.47603986302E+03  0.00000000000E+00 0. -1.
         -2   -1    0    0    0  501 -0.00000000000E+00 -0.00000000000E+00 -0.22033495931E+04  0.22033495931E+04  0.00000000000E+00 0.  1.
         23    2    1    2    0    0 -0.11812387088E+03  0.70486631197E+03 -0.12388961754E+04  0.14335215157E+04  0.96594181783E+02 0.  0.
        254    2    1    2    0    0  0.11812387088E+03 -0.70486631197E+03 -0.48841355469E+03  0.12458679404E+04  0.89601861474E+03 0.  0.
        -24    2    4    4    0    0 -0.79575403446E+02 -0.57527628031E+03 -0.70264077533E+03  0.91553154072E+03  0.84964106419E+02 0.  0.
         24    2    4    4    0    0  0.19769927433E+03 -0.12959003166E+03  0.21422722064E+03  0.33033639971E+03  0.85733631272E+02 0.  0.
         11    1    3    3    0    0 -0.64033885442E+02  0.54989922011E+03 -0.89350733024E+03  0.10511159974E+04  0.00000000000E+00 0.  1.
        -11    1    3    3    0    0 -0.54089985442E+02  0.15496709185E+03 -0.34538884513E+03  0.38240551830E+03  0.00000000000E+00 0. -1.
          4    1    6    6  502    0  0.26236020894E+02 -0.97604241484E+01  0.72348010732E+02  0.77574669376E+02  0.00000000000E+00 0. -1.
          3    1    5    5  503    0  0.56430241602E+01 -0.24202238400E+02 -0.58477891774E+02  0.63539404244E+02  0.00000000000E+00 0. -1.
         -4    1    5    5    0  503 -0.85218427606E+02 -0.55107404191E+03 -0.64416288356E+03  0.85199213648E+03  0.00000000000E+00 0.  1.
         -3    1    6    6    0  502  0.17146325344E+03 -0.11982960751E+03  0.14187920991E+03  0.25276173033E+03  0.00000000000E+00 0.  1.
<mgrwt>
<rscale>  0 0.20482990E+04</rscale>
<asrwt>0</asrwt>
<pdfrwt beam="1">  1        2 0.73236901E-01 0.20482990E+04</pdfrwt>
<pdfrwt beam="2">  1       -2 0.33897686E+00 0.20482990E+04</pdfrwt>
<totfact> 0.11029662E+00</totfact>
</mgrwt>
</event>
<event>
12    1  0.1963179E-007  0.2180795E+04  0.7818608E-02  0.8526464E-01
         -2   -1    0    0    0  501 -0.00000000000E+00  0.00000000000E+00  0.70515025906E+03  0.70515025906E+03  0.00000000000E+00 0.  1.
          2   -1    0    0  501    0  0.00000000000E+00 -0.00000000000E+00 -0.16861181170E+04  0.16861181170E+04  0.00000000000E+00 0. -1.
         23    2    1    2    0    0 -0.89950581611E+03  0.24255066586E+03 -0.58164945109E+03  0.11021061280E+04  0.91543949919E+02 0.  0.
        254    2    1    2    0    0  0.89950581611E+03 -0.24255066586E+03 -0.39931840681E+03  0.12891622480E+04  0.79658180551E+03 0.  0.
        -24    2    4    4    0    0  0.24660934065E+02 -0.99607141281E+02 -0.37786747415E+03  0.39941996616E+03  0.78884327201E+02 0.  0.
         24    2    4    4    0    0  0.87484488205E+03 -0.14294352458E+03 -0.21450932652E+02  0.88974228182E+03  0.73449075505E+02 0.  0.
         13    1    3    3    0    0 -0.23813371448E+03  0.75404270368E+02 -0.20316183000E+03  0.32197546355E+03  0.00000000000E+00 0.  1.
        -13    1    3    3    0    0 -0.66137210163E+03  0.16714639549E+03 -0.37848762109E+03  0.78013066448E+03  0.00000000000E+00 0. -1.
          4    1    6    6  502    0  0.58118125156E+03 -0.10169046047E+03  0.19783027397E+02  0.59034224403E+03  0.00000000000E+00 0. -1.
          1    1    5    5  503    0  0.27942539774E+02 -0.86061906307E+02 -0.37423326433E+03  0.38501684818E+03  0.00000000000E+00 0. -1.
         -2    1    5    5    0  503 -0.32816057089E+01 -0.13545234973E+02 -0.36342098201E+01  0.14403117979E+02  0.00000000000E+00 0.  1.
         -1    1    6    6    0  502  0.29366363049E+03 -0.41253064104E+02 -0.41233960049E+02  0.29940003779E+03  0.00000000000E+00 0.  1.
<mgrwt>
<rscale>  0 0.21807949E+04</rscale>
<asrwt>0</asrwt>
<pdfrwt beam="1">  1        2 0.25940278E+00 0.21807949E+04</pdfrwt>
<pdfrwt beam="2">  1       -2 0.10848466E+00 0.21807949E+04</pdfrwt>
<totfact> 0.62102429E+00</totfact>
</mgrwt>
</event>
<event>
12    1  0.1506149E-007  0.2128208E+04  0.7818608E-02  0.8548918E-01
         -2   -1    0    0    0  501 -0.00000000000E+00  0.00000000000E+00  0.72241088537E+03  0.72241088537E+03  0.00000000000E+00 0.  1.
          2   -1    0    0  501    0  0.00000000000E+00 -0.00000000000E+00 -0.15674148982E+04  0.15674148982E+04  0.00000000000E+00 0. -1.
         23    2    1    2    0    0 -0.20378153143E+02 -0.79855321957E+03  0.12076617769E+02  0.80363217266E+03  0.87042004956E+02 0.  0.
        254    2    1    2    0    0  0.20378153143E+02  0.79855321957E+03 -0.85708063058E+03  0.14861936109E+04  0.91437504784E+03 0.  0.
        -24    2    4    4    0    0 -0.24713483137E+03  0.81572137919E+03 -0.38716292992E+03  0.93951941666E+03  0.79527395420E+02 0.  0.
         24    2    4    4    0    0  0.26751298451E+03 -0.17168159620E+02 -0.46991770066E+03  0.54667419423E+03  0.78562628891E+02 0.  0.
         13    1    3    3    0    0  0.14446810722E+02 -0.22724681069E+02 -0.28176766948E-01  0.26928094319E+02  0.00000000000E+00 0.  1.
        -13    1    3    3    0    0 -0.34824963866E+02 -0.77582853850E+03  0.12104794536E+02  0.77670407834E+03  0.00000000000E+00 0. -1.
          2    1    6    6  502    0  0.16786675384E+02  0.12391849766E+02 -0.75880188464E+02  0.78696590856E+02  0.00000000000E+00 0. -1.
          1    1    5    5  503    0 -0.59567478198E+02  0.23105920594E+03 -0.71373262001E+02  0.24905979932E+03  0.00000000000E+00 0. -1.
         -2    1    5    5    0  503 -0.18756735317E+03  0.58466217325E+03 -0.31578966792E+03  0.69045961733E+03  0.00000000000E+00 0.  1.
         -1    1    6    6    0  502  0.25072630912E+03 -0.29560009386E+02 -0.39403751220E+03  0.46797760338E+03  0.00000000000E+00 0.  1.
<mgrwt>
<rscale>  0 0.21282082E+04</rscale>
<asrwt>0</asrwt>
<pdfrwt beam="1">  1        2 0.24114075E+00 0.21282082E+04</pdfrwt>
<pdfrwt beam="2">  1       -2 0.11114014E+00 0.21282082E+04</pdfrwt>
<totfact> 0.68534127E+00</totfact>
</mgrwt>
</event>
<event>
12    1  0.1506149E-007  0.2180084E+04  0.7818608E-02  0.8526764E-01
          2   -1    0    0  501    0  0.00000000000E+00  0.00000000000E+00  0.99408514003E+03  0.99408514003E+03  0.00000000000E+00 0. -1.
         -2   -1    0    0    0  501 -0.00000000000E+00 -0.00000000000E+00 -0.11952611850E+04  0.11952611850E+04  0.00000000000E+00 0.  1.
         23    2    1    2    0    0 -0.18233478796E+03 -0.86880151130E+03  0.56905353199E+02  0.89421410962E+03  0.91206434431E+02 0.  0.
        254    2    1    2    0    0  0.18233478796E+03  0.86880151130E+03 -0.25808139814E+03  0.12951322154E+04  0.90702778697E+03 0.  0.
        -24    2    4    4    0    0  0.19293697727E+03  0.47425111929E+03  0.30588478432E+03  0.60216783798E+03  0.83077087521E+02 0.  0.
         24    2    4    4    0    0 -0.10602189309E+02  0.39455039201E+03 -0.56396618246E+03  0.69296437741E+03  0.79745565036E+02 0.  0.
         13    1    3    3    0    0 -0.82790243403E+02 -0.41155620632E+03 -0.18568444891E+02  0.42021128317E+03  0.00000000000E+00 0.  1.
        -13    1    3    3    0    0 -0.99544544554E+02 -0.45724530498E+03  0.75473798091E+02  0.47400282645E+03  0.00000000000E+00 0. -1.
          4    1    6    6  502    0  0.21826771384E+02  0.31959543719E+03 -0.46480692640E+03  0.56450255115E+03  0.00000000000E+00 0. -1.
          1    1    5    5  503    0  0.19700437517E+03  0.46722370746E+03  0.28950285986E+03  0.58388408312E+03  0.00000000000E+00 0. -1.
         -2    1    5    5    0  503 -0.40673979071E+01  0.70274118295E+01  0.16381924461E+02  0.18283754860E+02  0.00000000000E+00 0.  1.
         -3    1    6    6    0  502 -0.32428960693E+02  0.74954954823E+02 -0.99159256060E+02  0.12846182626E+03  0.00000000000E+00 0.  1.
<mgrwt>
<rscale>  0 0.21800838E+04</rscale>
<asrwt>0</asrwt>
<pdfrwt beam="1">  1        2 0.15293618E+00 0.21800838E+04</pdfrwt>
<pdfrwt beam="2">  1       -2 0.18388633E+00 0.21800838E+04</pdfrwt>
<totfact> 0.39658860E+00</totfact>
</mgrwt>
</event>
<event>
12    1  0.1506149E-007  0.2101558E+04  0.7818608E-02  0.8560557E-01
          1   -1    0    0  501    0  0.00000000000E+00  0.00000000000E+00  0.13635558881E+04  0.13635558881E+04  0.00000000000E+00 0. -1.
         -1   -1    0    0    0  501 -0.00000000000E+00 -0.00000000000E+00 -0.80974801409E+03  0.80974801409E+03  0.00000000000E+00 0.  1.
         23    2    1    2    0    0 -0.42242817575E+03 -0.35663308981E+02 -0.54083059667E+03  0.69314087024E+03  0.90714367221E+02 0.  0.
        254    2    1    2    0    0  0.42242817575E+03  0.35663308981E+02  0.10946384707E+04  0.14801630320E+04  0.90162729796E+03 0.  0.
        -24    2    4    4    0    0 -0.10927517871E+03 -0.18618460305E+03 -0.11708880759E+02  0.23027637708E+03  0.79273834643E+02 0.  0.
         24    2    4    4    0    0  0.53170335446E+03  0.22184791203E+03  0.11063473515E+04  0.12498866549E+04  0.79292085202E+02 0.  0.
         13    1    3    3    0    0 -0.41107070515E+03 -0.28278548269E+02 -0.54042626347E+03  0.67958763023E+03  0.00000000000E+00 0.  1.
        -13    1    3    3    0    0 -0.11357470606E+02 -0.73847607116E+01 -0.40433320844E+00  0.13553240007E+02  0.00000000000E+00 0. -1.
          4    1    6    6  502    0  0.43026343846E+03  0.20068786598E+03  0.85409741324E+03  0.97718198783E+03  0.00000000000E+00 0. -1.
          3    1    5    5  503    0 -0.55804775995E+02 -0.72165008011E+02 -0.42489480085E+02  0.10063457320E+03  0.00000000000E+00 0. -1.
         -4    1    5    5    0  503 -0.53470402712E+02 -0.11401959504E+03  0.30780599326E+02  0.12964180388E+03  0.00000000000E+00 0.  1.
         -3    1    6    6    0  502  0.10143991600E+03  0.21160046050E+02  0.25224993824E+03  0.27270466708E+03  0.00000000000E+00 0.  1.
<mgrwt>
<rscale>  0 0.21015582E+04</rscale>
<asrwt>0</asrwt>
<pdfrwt beam="1">  1        1 0.20977783E+00 0.21015582E+04</pdfrwt>
<pdfrwt beam="2">  1       -1 0.12457662E+00 0.21015582E+04</pdfrwt>
<totfact> 0.42305027E+00</totfact>
</mgrwt>
</event>
<event>
12    1  0.1506149E-007  0.1759372E+04  0.7818608E-02  0.8728209E-01
         -1   -1    0    0    0  501 -0.00000000000E+00  0.00000000000E+00  0.69458627987E+03  0.69458627987E+03  0.00000000000E+00 0.  1.
          1   -1    0    0  501    0  0.00000000000E+00 -0.00000000000E+00 -0.11141123075E+04  0.11141123075E+04  0.00000000000E+00 0. -1.
         23    2    1    2    0    0 -0.69975023079E+02  0.61215418242E+03 -0.34135278142E+03  0.71034832702E+03  0.91890028819E+02 0.  0.
        254    2    1    2    0    0  0.69975023079E+02 -0.61215418242E+03 -0.78173246247E+02  0.10983502604E+04  0.90588795729E+03 0.  0.
        -24    2    4    4    0    0  0.20639110894E+03  0.18017432475E+03 -0.50471323761E+02  0.28982801305E+03  0.79955271724E+02 0.  0.
         24    2    4    4    0    0 -0.13641608587E+03 -0.79232850718E+03 -0.27701922486E+02  0.80852224734E+03  0.80913633952E+02 0.  0.
         13    1    3    3    0    0 -0.18205972353E+02  0.35787863610E+03 -0.15266164097E+03  0.38950500925E+03  0.00000000000E+00 0. -1.
        -13    1    3    3    0    0 -0.51769050726E+02  0.25427554632E+03 -0.18869114045E+03  0.32084331776E+03  0.00000000000E+00 0.  1.
          4    1    6    6  502    0 -0.76846316556E+02 -0.29351858739E+03  0.18973768040E+02  0.30400414699E+03  0.00000000000E+00 0. -1.
          3    1    5    5  503    0  0.86987507514E+02  0.26868389962E+02 -0.18307631493E+02  0.92864989170E+02  0.00000000000E+00 0. -1.
         -4    1    5    5    0  503  0.11940360143E+03  0.15330593479E+03 -0.32163692268E+02  0.19696302388E+03  0.00000000000E+00 0.  1.
         -3    1    6    6    0  502 -0.59569769310E+02 -0.49880991979E+03 -0.46675690526E+02  0.50451810035E+03  0.00000000000E+00 0.  1.
<mgrwt>
<rscale>  0 0.17593716E+04</rscale>
<asrwt>0</asrwt>
<pdfrwt beam="1">  1        1 0.17140189E+00 0.17593716E+04</pdfrwt>
<pdfrwt beam="2">  1       -1 0.10685943E+00 0.17593716E+04</pdfrwt>
<totfact> 0.95739702E+00</totfact>
</mgrwt>
</event>
<event>
12    1  0.1506149E-007  0.2726102E+04  0.7818608E-02  0.8326585E-01
         -2   -1    0    0    0  501 -0.00000000000E+00  0.00000000000E+00  0.88289086947E+03  0.88289086947E+03  0.00000000000E+00 0.  1.
          2   -1    0    0  501    0  0.00000000000E+00 -0.00000000000E+00 -0.21043456529E+04  0.21043456529E+04  0.00000000000E+00 0. -1.
         23    2    1    2    0    0 -0.55728354238E+03 -0.56993242274E+03  0.45182465352E+03  0.92165353451E+03  0.99558058708E+02 0.  0.
        254    2    1    2    0    0  0.55728354238E+03  0.56993242274E+03 -0.16732794369E+04  0.20655829878E+04  0.91180101584E+03 0.  0.
        -24    2    4    4    0    0  0.58924649183E+03  0.39627922730E+03 -0.17236485382E+04  0.18659429613E+04  0.80809636745E+02 0.  0.
         24    2    4    4    0    0 -0.31962949449E+02  0.17365319544E+03  0.50369101311E+02  0.19964002652E+03  0.78371113277E+02 0.  0.
         11    1    3    3    0    0 -0.18702426045E+03 -0.25748879319E+03  0.16191098462E+03  0.35706262693E+03  0.00000000000E+00 0. -1.
        -11    1    3    3    0    0 -0.37025928193E+03 -0.31244362956E+03  0.28991366890E+03  0.56459090758E+03  0.00000000000E+00 0.  1.
          4    1    6    6  502    0 -0.41886765128E+02  0.16521779117E+03  0.26560645189E+02  0.17250184777E+03  0.00000000000E+00 0. -1.
          1    1    5    5  503    0  0.33973261533E+03  0.24069922151E+03 -0.11089382768E+04  0.11845245743E+04  0.00000000000E+00 0. -1.
         -2    1    5    5    0  503  0.24951387650E+03  0.15558000579E+03 -0.61471026140E+03  0.68141838707E+03  0.00000000000E+00 0.  1.
         -1    1    6    6    0  502  0.99238156783E+01  0.84354042762E+01  0.23808456122E+02  0.27138178749E+02  0.00000000000E+00 0.  1.
<mgrwt>
<rscale>  0 0.27261017E+04</rscale>
<asrwt>0</asrwt>
<pdfrwt beam="1">  1        2 0.32374549E+00 0.27261017E+04</pdfrwt>
<pdfrwt beam="2">  1       -2 0.13582936E+00 0.27261017E+04</pdfrwt>
<totfact> 0.19866211E+00</totfact>
</mgrwt>
</event>
<event>
12    1  0.1506149E-007  0.1061208E+04  0.7818608E-02  0.9243848E-01
         -2   -1    0    0    0  501 -0.00000000000E+00  0.00000000000E+00  0.41603434156E+03  0.41603434156E+03  0.00000000000E+00 0.  1.
          2   -1    0    0  501    0  0.00000000000E+00 -0.00000000000E+00 -0.67672433071E+03  0.67672433071E+03  0.00000000000E+00 0. -1.
         23    2    1    2    0    0  0.55597278061E+02 -0.22954964721E+02 -0.12029616061E+03  0.16284911263E+03  0.91818731720E+02 0.  0.
        254    2    1    2    0    0 -0.55597278061E+02  0.22954964721E+02 -0.14039382854E+03  0.92990955964E+03  0.91728042293E+03 0.  0.
        -24    2    4    4    0    0 -0.20708868855E+01  0.39824904019E+03 -0.30532276924E+03  0.50828311127E+03  0.80765965608E+02 0.  0.
         24    2    4    4    0    0 -0.53526391176E+02 -0.37529407547E+03  0.16492894070E+03  0.42162644837E+03  0.82804521912E+02 0.  0.
         11    1    3    3    0    0  0.24034977677E+02  0.34291268251E+02 -0.30623508425E+02  0.51878420354E+02  0.00000000000E+00 0.  1.
        -11    1    3    3    0    0  0.31562300384E+02 -0.57246232971E+02 -0.89672652180E+02  0.11097069227E+03  0.00000000000E+00 0. -1.
          4    1    6    6  502    0  0.16507222645E+02 -0.22513807597E+02  0.17298177489E+02  0.32841846422E+02  0.00000000000E+00 0. -1.
          3    1    5    5  503    0 -0.10795296723E+02  0.44469557074E+02 -0.88241349007E+01  0.46604133877E+02  0.00000000000E+00 0. -1.
         -4    1    5    5    0  503  0.87244098372E+01  0.35377948312E+03 -0.29649863434E+03  0.46167897739E+03  0.00000000000E+00 0.  1.
         -3    1    6    6    0  502 -0.70033613821E+02 -0.35278026787E+03  0.14763076321E+03  0.38878460195E+03  0.00000000000E+00 0.  1.
<mgrwt>
<rscale>  0 0.10612079E+04</rscale>
<asrwt>0</asrwt>
<pdfrwt beam="1">  1        2 0.10411144E+00 0.10612079E+04</pdfrwt>
<pdfrwt beam="2">  1       -2 0.64005283E-01 0.10612079E+04</pdfrwt>
<totfact> 0.96076584E+01</totfact>
</mgrwt>
</event>
<event>
12    1  0.1506149E-007  0.2005259E+04  0.7818608E-02  0.8604166E-01
         -1   -1    0    0    0  501 -0.00000000000E+00  0.00000000000E+00  0.77315409124E+03  0.77315409124E+03  0.00000000000E+00 0.  1.
          1   -1    0    0  501    0  0.00000000000E+00 -0.00000000000E+00 -0.13002144715E+04  0.13002144715E+04  0.00000000000E+00 0. -1.
         23    2    1    2    0    0  0.29051889937E+03 -0.51618509101E+03  0.34652552342E+03  0.69063433583E+03  0.77766113307E+02 0.  0.
        254    2    1    2    0    0 -0.29051889937E+03  0.51618509101E+03 -0.87358590366E+03  0.13827342269E+04  0.89328233614E+03 0.  0.
        -24    2    4    4    0    0 -0.49002088169E+03  0.15070344396E+03 -0.14316821229E+03  0.53827188107E+03  0.80046788969E+02 0.  0.
         24    2    4    4    0    0  0.19950198232E+03  0.36548164705E+03 -0.73041769137E+03  0.84446234582E+03  0.78922584573E+02 0.  0.
         13    1    3    3    0    0  0.20948483295E+03 -0.42492268144E+03  0.25453381572E+03  0.53780167700E+03  0.00000000000E+00 0.  1.
        -13    1    3    3    0    0  0.81034066419E+02 -0.91262409572E+02  0.91991707696E+02  0.15283265883E+03  0.00000000000E+00 0. -1.
          2    1    6    6  502    0  0.16031293579E+03  0.29991601134E+03 -0.64976703561E+03  0.73338056410E+03  0.00000000000E+00 0. -1.
          3    1    5    5  503    0 -0.49257658377E+03  0.15100623957E+03 -0.13943653991E+03  0.53373881621E+03  0.00000000000E+00 0. -1.
         -4    1    5    5    0  503  0.25557020785E+01 -0.30279560611E+00 -0.37316723758E+01  0.45330648587E+01  0.00000000000E+00 0.  1.
         -1    1    6    6    0  502  0.39189046531E+02  0.65565635709E+02 -0.80650655761E+02  0.11108178171E+03  0.00000000000E+00 0.  1.
<mgrwt>
<rscale>  0 0.20052592E+04</rscale>
<asrwt>0</asrwt>
<pdfrwt beam="1">  1        1 0.20003300E+00 0.20052592E+04</pdfrwt>
<pdfrwt beam="2">  1       -1 0.11894678E+00 0.20052592E+04</pdfrwt>
<totfact> 0.53043057E+00</totfact>
</mgrwt>
</event>
<event>
12    1  0.1506149E-007  0.1471665E+04  0.7818608E-02  0.8903517E-01
          2   -1    0    0  501    0  0.00000000000E+00  0.00000000000E+00  0.28405471545E+04  0.28405471545E+04  0.00000000000E+00 0.  1.
         -2   -1    0    0    0  501 -0.00000000000E+00 -0.00000000000E+00 -0.19061444678E+03  0.19061444678E+03  0.00000000000E+00 0. -1.
         23    2    1    2    0    0  0.14135559700E+03  0.38803714183E+03  0.43771874450E+03  0.60882489484E+03  0.92281227999E+02 0.  0.
        254    2    1    2    0    0 -0.14135559700E+03 -0.38803714183E+03  0.22122139632E+04  0.24223367064E+04  0.89625346420E+03 0.  0.
        -24    2    4    4    0    0 -0.22433727342E+03 -0.97386399718E+02  0.20575603419E+04  0.20735039733E+04  0.77800023048E+02 0.  0.
         24    2    4    4    0    0  0.82981676418E+02 -0.29065074211E+03  0.15465362129E+03  0.34883273313E+03  0.80017002030E+02 0.  0.
         13    1    3    3    0    0  0.13979469165E+03  0.32775509928E+03  0.40769412476E+03  0.54146141162E+03  0.00000000000E+00 0.  1.
        -13    1    3    3    0    0  0.15609053481E+01  0.60282042550E+02  0.30024619747E+02  0.67363483213E+02  0.00000000000E+00 0. -1.
          4    1    6    6  502    0  0.85778770113E+02 -0.22017517800E+03  0.14602949931E+03  0.27777638683E+03  0.00000000000E+00 0. -1.
          3    1    5    5  503    0 -0.17525069237E+00 -0.94042218817E+01  0.24699879116E+02  0.26430174618E+02  0.00000000000E+00 0. -1.
         -4    1    5    5    0  503 -0.22416202273E+03 -0.87982177836E+02  0.20328604628E+04  0.20470737987E+04  0.00000000000E+00 0.  1.
         -3    1    6    6    0  502 -0.27970936945E+01 -0.70475564110E+02  0.86241219746E+01  0.71056346300E+02  0.00000000000E+00 0.  1.
<mgrwt>
<rscale>  0 0.14716648E+04</rscale>
<asrwt>0</asrwt>
<pdfrwt beam="1">  1        2 0.43700722E+00 0.14716648E+04</pdfrwt>
<pdfrwt beam="2">  1       -2 0.29325302E-01 0.14716648E+04</pdfrwt>
<totfact> 0.22770279E+01</totfact>
</mgrwt>
</event>
<event>
12    1  0.1506149E-007  0.1825418E+04  0.7818608E-02  0.8692898E-01
          2   -1    0    0  501    0  0.00000000000E+00  0.00000000000E+00  0.84952368460E+03  0.84952368460E+03  0.00000000000E+00 0. -1.
         -2   -1    0    0    0  501 -0.00000000000E+00 -0.00000000000E+00 -0.98059413146E+03  0.98059413146E+03  0.00000000000E+00 0.  1.
         23    2    1    2    0    0  0.22769176631E+03  0.58251591511E+03 -0.34374590653E+03  0.71965883455E+03  0.92624284566E+02 0.  0.
        254    2    1    2    0    0 -0.22769176631E+03 -0.58251591511E+03  0.21267545967E+03  0.11104589815E+04  0.89259171331E+03 0.  0.
        -24    2    4    4    0    0 -0.10602691090E+03  0.11373111300E+03 -0.21779663392E+03  0.27920468197E+03  0.79645519587E+02 0.  0.
         24    2    4    4    0    0 -0.12166485541E+03 -0.69624702811E+03  0.43047209359E+03  0.83125429954E+03  0.78199910187E+02 0.  0.
         13    1    3    3    0    0  0.72647120685E+02  0.18032967114E+03 -0.15707094178E+03  0.24993534202E+03  0.00000000000E+00 0. -1.
        -13    1    3    3    0    0  0.15504464563E+03  0.40218624397E+03 -0.18667496475E+03  0.46972349254E+03  0.00000000000E+00 0.  1.
          4    1    6    6  502    0 -0.11478191664E+03 -0.59039600732E+03  0.33451318482E+03  0.68821610317E+03  0.00000000000E+00 0. -1.
          1    1    5    5  503    0  0.65650475062E+01  0.28613683076E+02 -0.64264381213E+02  0.70652341791E+02  0.00000000000E+00 0. -1.
         -2    1    5    5    0  503 -0.11259195840E+03  0.85117429923E+02 -0.15353225271E+03  0.20855234018E+03  0.00000000000E+00 0.  1.
         -3    1    6    6    0  502 -0.68829387777E+01 -0.10585102079E+03  0.95958908772E+02  0.14303819637E+03  0.00000000000E+00 0.  1.
<mgrwt>
<rscale>  0 0.18254182E+04</rscale>
<asrwt>0</asrwt>
<pdfrwt beam="1">  1        2 0.13069595E+00 0.18254182E+04</pdfrwt>
<pdfrwt beam="2">  1       -2 0.15086063E+00 0.18254182E+04</pdfrwt>
<totfact> 0.88282874E+00</totfact>
</mgrwt>
</event>
<event>
12    1  0.1506149E-007  0.1186628E+04  0.7818608E-02  0.9124643E-01
          2   -1    0    0  501    0  0.00000000000E+00  0.00000000000E+00  0.47303471557E+03  0.47303471557E+03  0.00000000000E+00 0. -1.
         -2   -1    0    0    0  501 -0.00000000000E+00 -0.00000000000E+00 -0.74417640711E+03  0.74417640711E+03  0.00000000000E+00 0.  1.
         23    2    1    2    0    0 -0.47226310530E+02 -0.77201749599E+02  0.16871511741E+03  0.21351108774E+03  0.94507984831E+02 0.  0.
        254    2    1    2    0    0  0.47226310530E+02  0.77201749599E+02 -0.43985680894E+03  0.10037000349E+04  0.89763540105E+03 0.  0.
        -24    2    4    4    0    0  0.40386214533E+03  0.10749624031E+01 -0.47497526509E+03  0.62841282433E+03  0.78710783052E+02 0.  0.
         24    2    4    4    0    0 -0.35663583480E+03  0.76126787196E+02  0.35118456145E+02  0.37528721061E+03  0.81380452766E+02 0.  0.
         13    1    3    3    0    0 -0.68937657524E+01 -0.34928166404E+02  0.68069755098E+00  0.35608484435E+02  0.00000000000E+00 0.  1.
        -13    1    3    3    0    0 -0.40332544777E+02 -0.42273583194E+02  0.16803441986E+03  0.17790260330E+03  0.00000000000E+00 0. -1.
          2    1    6    6  502    0 -0.13354979325E+03 -0.46373931091E+00 -0.14249407035E+02  0.13430862940E+03  0.00000000000E+00 0. -1.
          1    1    5    5  503    0  0.25701288085E+03  0.36537675695E+02 -0.31883316699E+03  0.41115108055E+03  0.00000000000E+00 0. -1.
         -2    1    5    5    0  503  0.14684926448E+03 -0.35462713292E+02 -0.15614209810E+03  0.21726174379E+03  0.00000000000E+00 0.  1.
         -1    1    6    6    0  502 -0.22308604155E+03  0.76590526507E+02  0.49367863180E+02  0.24097858121E+03  0.00000000000E+00 0.  1.
<mgrwt>
<rscale>  0 0.11866276E+04</rscale>
<asrwt>0</asrwt>
<pdfrwt beam="1">  1        2 0.72774571E-01 0.11866276E+04</pdfrwt>
<pdfrwt beam="2">  1       -2 0.11448868E+00 0.11866276E+04</pdfrwt>
<totfact> 0.38652791E+01</totfact>
</mgrwt>
</event>
<event>
12    1  0.1506149E-007  0.1588661E+04  0.7818608E-02  0.8827544E-01
         -2   -1    0    0    0  501 -0.00000000000E+00  0.00000000000E+00  0.58673450273E+03  0.58673450273E+03  0.00000000000E+00 0.  1.
          2   -1    0    0  501    0  0.00000000000E+00 -0.00000000000E+00 -0.10753773627E+04  0.10753773627E+04  0.00000000000E+00 0. -1.
         23    2    1    2    0    0 -0.38577139022E+03 -0.98905242167E+02  0.16931680549E+03  0.44222349076E+03  0.91058347894E+02 0.  0.
        254    2    1    2    0    0  0.38577139022E+03  0.98905242167E+02 -0.65795966550E+03  0.12198883747E+04  0.94689751973E+03 0.  0.
        -24    2    4    4    0    0  0.27346111049E+03 -0.39154885658E+03 -0.16588402139E+03  0.51186873681E+03  0.80003806941E+02 0.  0.
         24    2    4    4    0    0  0.11231027973E+03  0.49045409875E+03 -0.49207564412E+03  0.70801963790E+03  0.77424454819E+02 0.  0.
         13    1    3    3    0    0 -0.19209013996E+03 -0.91851344829E+02  0.10928592434E+03  0.23932969869E+03  0.00000000000E+00 0.  1.
        -13    1    3    3    0    0 -0.19368125026E+03 -0.70538973381E+01  0.60030881152E+02  0.20289379207E+03  0.00000000000E+00 0. -1.
          4    1    6    6  502    0  0.11727550285E+03  0.48790337001E+03 -0.49150171412E+03  0.70240812711E+03  0.00000000000E+00 0. -1.
          1    1    5    5  503    0  0.10961939407E+03 -0.18565364768E+03 -0.11322059846E+03  0.24352123597E+03  0.00000000000E+00 0. -1.
         -2    1    5    5    0  503  0.16384171643E+03 -0.20589520891E+03 -0.52663422923E+02  0.26834750084E+03  0.00000000000E+00 0.  1.
         -3    1    6    6    0  502 -0.49652231204E+01  0.25507287378E+01 -0.57392999102E+00  0.56115107916E+01  0.00000000000E+00 0.  1.
<mgrwt>
<rscale>  0 0.15886611E+04</rscale>
<asrwt>0</asrwt>
<pdfrwt beam="1">  1        2 0.16544267E+00 0.15886611E+04</pdfrwt>
<pdfrwt beam="2">  1       -2 0.90266847E-01 0.15886611E+04</pdfrwt>
<totfact> 0.22737586E+01</totfact>
</mgrwt>
</event>
<event>
12    1  0.1506149E-007  0.1092304E+04  0.7818608E-02  0.9212726E-01
         -2   -1    0    0    0  501 -0.00000000000E+00  0.00000000000E+00  0.10219690023E+03  0.10219690023E+03  0.00000000000E+00 0. -1.
          2   -1    0    0  501    0  0.00000000000E+00 -0.00000000000E+00 -0.29186980908E+04  0.29186980908E+04  0.00000000000E+00 0.  1.
         23    2    1    2    0    0 -0.19994404814E+02 -0.13962698695E+03 -0.64252337880E+03  0.66423064566E+03  0.92035789896E+02 0.  0.
        254    2    1    2    0    0  0.19994404814E+02  0.13962698695E+03 -0.21739778118E+04  0.23566643454E+04  0.89877240667E+03 0.  0.
        -24    2    4    4    0    0  0.38561481458E+03  0.29962510477E+03 -0.13257481809E+04  0.14150729207E+04  0.79681510215E+02 0.  0.
         24    2    4    4    0    0 -0.36562040976E+03 -0.15999811782E+03 -0.84822963092E+03  0.94159142474E+03  0.88448983203E+02 0.  0.
         11    1    3    3    0    0  0.72079717257E+01 -0.12024508626E+03 -0.58860439419E+03  0.60080443448E+03  0.00000000000E+00 0.  1.
        -11    1    3    3    0    0 -0.27202376540E+02 -0.19381900688E+02 -0.53918984601E+02  0.63426211175E+02  0.00000000000E+00 0. -1.
          2    1    6    6  502    0 -0.51032172285E+01  0.54330651658E+01 -0.46596677087E+02  0.47189101906E+02  0.00000000000E+00 0. -1.
          1    1    5    5  503    0  0.23720972491E+02  0.42450820702E+02 -0.95510765386E+02  0.10717771699E+03  0.00000000000E+00 0. -1.
         -4    1    5    5    0  503  0.36189384208E+03  0.25717428406E+03 -0.12302374155E+04  0.13078952037E+04  0.00000000000E+00 0.  1.
         -1    1    6    6    0  502 -0.36051719253E+03 -0.16543118299E+03 -0.80163295383E+03  0.89440232283E+03  0.00000000000E+00 0.  1.
<mgrwt>
<rscale>  0 0.10923038E+04</rscale>
<asrwt>0</asrwt>
<pdfrwt beam="1">  1        2 0.44903056E+00 0.10923038E+04</pdfrwt>
<pdfrwt beam="2">  1       -2 0.15722597E-01 0.10923038E+04</pdfrwt>
<totfact> 0.64094200E+01</totfact>
</mgrwt>
</event>
<event>
12    1  0.1506149E-007  0.1345070E+04  0.7818608E-02  0.8994569E-01
         -1   -1    0    0    0  501 -0.00000000000E+00  0.00000000000E+00  0.67510955150E+03  0.67510955150E+03  0.00000000000E+00 0.  1.
          1   -1    0    0  501    0  0.00000000000E+00 -0.00000000000E+00 -0.66996981777E+03  0.66996981777E+03  0.00000000000E+00 0. -1.
         23    2    1    2    0    0  0.10487779744E+03  0.33421713750E+03  0.10536492454E+03  0.37730240352E+03  0.92492642875E+02 0.  0.
        254    2    1    2    0    0 -0.10487779744E+03 -0.33421713750E+03 -0.10022519080E+03  0.96777696575E+03  0.89657499362E+03 0.  0.
        -24    2    4    4    0    0  0.13750983154E+02 -0.62937496708E+03 -0.77869681043E+02  0.63929660418E+03  0.79589711471E+02 0.  0.
         24    2    4    4    0    0 -0.11862878060E+03  0.29515782958E+03 -0.22355509760E+02  0.32848036157E+03  0.78794969211E+02 0.  0.
         11    1    3    3    0    0  0.80398704441E+02  0.27297244738E+03  0.45404943433E+02  0.28816578144E+03  0.00000000000E+00 0. -1.
        -11    1    3    3    0    0  0.24479093001E+02  0.61244690115E+02  0.59959981106E+02  0.89136622079E+02  0.00000000000E+00 0.  1.
          4    1    6    6  502    0  0.51983176541E+01  0.56284999491E+02  0.10268037185E+02  0.57449597577E+02  0.00000000000E+00 0. -1.
          3    1    5    5  503    0  0.18462845284E+02 -0.30579345137E+02 -0.47030724455E+01  0.36029042388E+02  0.00000000000E+00 0. -1.
         -4    1    5    5    0  503 -0.47118621296E+01 -0.59879562194E+03 -0.73166608597E+02  0.60326756179E+03  0.00000000000E+00 0.  1.
         -3    1    6    6    0  502 -0.12382709825E+03  0.23887283009E+03 -0.32623546945E+02  0.27103076399E+03  0.00000000000E+00 0.  1.
<mgrwt>
<rscale>  0 0.13450695E+04</rscale>
<asrwt>0</asrwt>
<pdfrwt beam="1">  1        1 0.10307228E+00 0.13450695E+04</pdfrwt>
<pdfrwt beam="2">  1       -1 0.10386301E+00 0.13450695E+04</pdfrwt>
<totfact> 0.24903625E+01</totfact>
</mgrwt>
</event>
<event>
12    1  0.1506149E-007  0.2416082E+04  0.7818608E-02  0.8433507E-01
         -1   -1    0    0    0  501 -0.00000000000E+00  0.00000000000E+00  0.95604409908E+03  0.95604409908E+03  0.00000000000E+00 0.  1.
          1   -1    0    0  501    0  0.00000000000E+00 -0.00000000000E+00 -0.15264604544E+04  0.15264604544E+04  0.00000000000E+00 0. -1.
         23    2    1    2    0    0  0.84087274930E+03 -0.20201204047E+02 -0.86362204709E+03  0.12095477809E+04  0.98426241445E+02 0.  0.
        254    2    1    2    0    0 -0.84087274930E+03  0.20201204047E+02  0.29320569179E+03  0.12729567725E+04  0.90938127198E+03 0.  0.
        -24    2    4    4    0    0  0.74190476993E+02  0.24498645804E+03 -0.38188162178E+02  0.27091821415E+03  0.80098386550E+02 0.  0.
         24    2    4    4    0    0 -0.91506322629E+03 -0.22478525400E+03  0.33139385397E+03  0.10020385584E+04  0.79939148569E+02 0.  0.
         13    1    3    3    0    0  0.49723212951E+03 -0.51672295924E+02 -0.55003605852E+03  0.74326945481E+03  0.00000000000E+00 0.  1.
        -13    1    3    3    0    0  0.34364061979E+03  0.31471091876E+02 -0.31358598858E+03  0.46627832614E+03  0.00000000000E+00 0. -1.
          2    1    6    6  502    0 -0.42918412280E+02  0.47367043094E+01  0.23022320794E+02  0.48933155785E+02  0.00000000000E+00 0. -1.
          1    1    5    5  503    0 -0.45044399435E+01 -0.14178842563E+00 -0.11180977944E+02  0.12055054995E+02  0.00000000000E+00 0. -1.
         -2    1    5    5    0  503  0.78694916937E+02  0.24512824647E+03 -0.27007184235E+02  0.25886315916E+03  0.00000000000E+00 0.  1.
         -1    1    6    6    0  502 -0.87214481401E+03 -0.22952195830E+03  0.30837153317E+03  0.95310540258E+03  0.00000000000E+00 0.  1.
<mgrwt>
<rscale>  0 0.24160824E+04</rscale>
<asrwt>0</asrwt>
<pdfrwt beam="1">  1        1 0.23484007E+00 0.24160824E+04</pdfrwt>
<pdfrwt beam="2">  1       -1 0.14708371E+00 0.24160824E+04</pdfrwt>
<totfact> 0.20641951E+00</totfact>
</mgrwt>
</event>
<event>
12    1  0.1506149E-007  0.1482552E+04  0.7818608E-02  0.8896139E-01
          1   -1    0    0  501    0  0.00000000000E+00  0.00000000000E+00  0.12929569301E+04  0.12929569301E+04  0.00000000000E+00 0. -1.
         -1   -1    0    0    0  501 -0.00000000000E+00 -0.00000000000E+00 -0.42498737865E+03  0.42498737865E+03  0.00000000000E+00 0.  1.
         23    2    1    2    0    0 -0.16802266824E+03  0.38413430127E+03  0.50025880467E+03  0.65878674209E+03  0.89164575068E+02 0.  0.
        254    2    1    2    0    0  0.16802266824E+03 -0.38413430127E+03  0.36771074680E+03  0.10591575667E+04  0.90045143084E+03 0.  0.
        -24    2    4    4    0    0  0.48479530620E+03 -0.82573617322E+02  0.36073604326E+03  0.61531303782E+03  0.81453977292E+02 0.  0.
         24    2    4    4    0    0 -0.31677263796E+03 -0.30156068394E+03  0.69747035365E+01  0.44384452886E+03  0.75269974411E+02 0.  0.
         13    1    3    3    0    0 -0.71474348087E+02  0.70314628585E+02  0.11274512275E+03  0.15087807042E+03  0.00000000000E+00 0.  1.
        -13    1    3    3    0    0 -0.96548320151E+02  0.31381967268E+03  0.38751368192E+03  0.50790867167E+03  0.00000000000E+00 0. -1.
          2    1    6    6  502    0 -0.12143877973E+03 -0.15745815335E+03  0.25134423135E+02  0.20043000401E+03  0.00000000000E+00 0. -1.
          3    1    5    5  503    0  0.12176102404E+02 -0.15269091001E+02  0.55989841505E+01  0.20316280006E+02  0.00000000000E+00 0. -1.
         -4    1    5    5    0  503  0.47261920380E+03 -0.67304526321E+02  0.35513705911E+03  0.59499675782E+03  0.00000000000E+00 0.  1.
         -1    1    6    6    0  502 -0.19533385823E+03 -0.14410253059E+03 -0.18159719598E+02  0.24341452485E+03  0.00000000000E+00 0.  1.
<mgrwt>
<rscale>  0 0.14825524E+04</rscale>
<asrwt>0</asrwt>
<pdfrwt beam="1">  1        1 0.19891645E+00 0.14825524E+04</pdfrwt>
<pdfrwt beam="2">  1       -1 0.65382674E-01 0.14825524E+04</pdfrwt>
<totfact> 0.21021909E+01</totfact>
</mgrwt>
</event>
<event>
12    1  0.1506149E-007  0.1249535E+04  0.7818608E-02  0.9070570E-01
         -2   -1    0    0    0  501 -0.00000000000E+00  0.00000000000E+00  0.39341407003E+03  0.39341407003E+03  0.00000000000E+00 0.  1.
          2   -1    0    0  501    0  0.00000000000E+00 -0.00000000000E+00 -0.99217191669E+03  0.99217191669E+03  0.00000000000E+00 0. -1.
         23    2    1    2    0    0 -0.22414561412E+03 -0.16670170267E+03 -0.21090148092E+03  0.36233788619E+03  0.93694157307E+02 0.  0.
        254    2    1    2    0    0  0.22414561412E+03  0.16670170267E+03 -0.38785636574E+03  0.10232481005E+04  0.90475046327E+03 0.  0.
        -24    2    4    4    0    0 -0.73326643090E+02 -0.29717917168E+03  0.42442849913E+02  0.31940001115E+03  0.80763326749E+02 0.  0.
         24    2    4    4    0    0  0.29747225721E+03  0.46388087435E+03 -0.43029921566E+03  0.70384808938E+03  0.81052504821E+02 0.  0.
         13    1    3    3    0    0 -0.76315480918E+02 -0.66553346007E+02 -0.13391571749E+03  0.16788930842E+03  0.00000000000E+00 0. -1.
        -13    1    3    3    0    0 -0.14783013320E+03 -0.10014835666E+03 -0.76985763428E+02  0.19444857776E+03  0.00000000000E+00 0.  1.
          2    1    6    6  502    0  0.13114238729E+03  0.27912745595E+03 -0.23902349060E+03  0.39018289489E+03  0.00000000000E+00 0. -1.
          1    1    5    5  503    0 -0.38510999740E+02 -0.26854980769E+03  0.32453921619E+02  0.27323131837E+03  0.00000000000E+00 0. -1.
         -2    1    5    5    0  503 -0.34815643350E+02 -0.28629363988E+02  0.99889282943E+01  0.46168692777E+02  0.00000000000E+00 0.  1.
         -1    1    6    6    0  502  0.16632986992E+03  0.18475341840E+03 -0.19127572506E+03  0.31366519449E+03  0.00000000000E+00 0.  1.
<mgrwt>
<rscale>  0 0.12495349E+04</rscale>
<asrwt>0</asrwt>
<pdfrwt beam="1">  1        2 0.15264183E+00 0.12495349E+04</pdfrwt>
<pdfrwt beam="2">  1       -2 0.60525243E-01 0.12495349E+04</pdfrwt>
<totfact> 0.63733171E+01</totfact>
</mgrwt>
</event>
<event>
12    1  0.1506149E-007  0.1194816E+04  0.7818608E-02  0.9117406E-01
          2   -1    0    0  501    0  0.00000000000E+00  0.00000000000E+00  0.88850908895E+03  0.88850908895E+03  0.00000000000E+00 0. -1.
         -2   -1    0    0    0  501 -0.00000000000E+00 -0.00000000000E+00 -0.40168018603E+03  0.40168018603E+03  0.00000000000E+00 0.  1.
         23    2    1    2    0    0  0.10477365462E+03  0.22400333655E+03  0.18848857094E+03  0.32415999706E+03  0.91633775592E+02 0.  0.
        254    2    1    2    0    0 -0.10477365462E+03 -0.22400333655E+03  0.29834033199E+03  0.96602927792E+03  0.88490146266E+03 0.  0.
        -24    2    4    4    0    0 -0.17759238247E+03 -0.53293567258E+03  0.29316220675E+03  0.63841177451E+03  0.77884715726E+02 0.  0.
         24    2    4    4    0    0  0.72818727855E+02  0.30893233603E+03  0.51781252428E+01  0.32761750342E+03  0.81022590644E+02 0.  0.
         11    1    3    3    0    0  0.90984064838E+02  0.23098661591E+03  0.17677475018E+03  0.30476585945E+03  0.00000000000E+00 0. -1.
        -11    1    3    3    0    0  0.13789589777E+02 -0.69832793577E+01  0.11713820756E+02  0.19394137607E+02  0.00000000000E+00 0.  1.
          4    1    6    6  502    0  0.65214042755E+02  0.13631202868E+03  0.26851217426E+02  0.15347582354E+03  0.00000000000E+00 0. -1.
          3    1    5    5  503    0 -0.95440374548E+02 -0.35327503398E+03  0.22424817023E+03  0.42918452510E+03  0.00000000000E+00 0. -1.
         -4    1    5    5    0  503 -0.82152007922E+02 -0.17966063860E+03  0.68914036512E+02  0.20922724941E+03  0.00000000000E+00 0.  1.
         -3    1    6    6    0  502  0.76046850998E+01  0.17262030735E+03 -0.21673092183E+02  0.17414167987E+03  0.00000000000E+00 0.  1.
<mgrwt>
<rscale>  0 0.11948163E+04</rscale>
<asrwt>0</asrwt>
<pdfrwt beam="1">  1        2 0.13669371E+00 0.11948163E+04</pdfrwt>
<pdfrwt beam="2">  1       -2 0.61796952E-01 0.11948163E+04</pdfrwt>
<totfact> 0.71703214E+01</totfact>
</mgrwt>
</event>
<event>
12    1  0.1506149E-007  0.2788791E+04  0.7818608E-02  0.8306757E-01
         -1   -1    0    0    0  501 -0.00000000000E+00  0.00000000000E+00  0.15933404909E+04  0.15933404909E+04  0.00000000000E+00 0.  1.
          1   -1    0    0  501    0  0.00000000000E+00 -0.00000000000E+00 -0.12202908155E+04  0.12202908155E+04  0.00000000000E+00 0. -1.
         23    2    1    2    0    0 -0.22262231553E+03  0.93248736876E+03  0.97047915151E+03  0.13671683294E+04  0.90697680497E+02 0.  0.
        254    2    1    2    0    0  0.22262231553E+03 -0.93248736876E+03 -0.59742947618E+03  0.14464629770E+04  0.90345989204E+03 0.  0.
        -24    2    4    4    0    0  0.64975847493E+02 -0.14211096247E+03 -0.61194472307E+03  0.63651067443E+03  0.79070273567E+02 0.  0.
         24    2    4    4    0    0  0.15764646804E+03 -0.79037640628E+03  0.14515246887E+02  0.80995230256E+03  0.79150284470E+02 0.  0.
         13    1    3    3    0    0  0.66521696373E+01  0.65116293062E+02  0.56916662819E+02  0.86740356751E+02  0.00000000000E+00 0. -1.
        -13    1    3    3    0    0 -0.22927448517E+03  0.86737107569E+03  0.91356248869E+03  0.12804279727E+04  0.00000000000E+00 0.  1.
          2    1    6    6  502    0  0.14552477817E+03 -0.58053679571E+03  0.29535988148E+02  0.59922684088E+03  0.00000000000E+00 0. -1.
          3    1    5    5  503    0 -0.13743825978E+02 -0.25341591679E+02 -0.55724872743E+02  0.62740341596E+02  0.00000000000E+00 0. -1.
         -4    1    5    5    0  503  0.78719673471E+02 -0.11676937079E+03 -0.55621985032E+03  0.57377033283E+03  0.00000000000E+00 0.  1.
         -3    1    6    6    0  502  0.12121689862E+02 -0.20983961057E+03 -0.15020741261E+02  0.21072546168E+03  0.00000000000E+00 0.  1.
<mgrwt>
<rscale>  0 0.27887910E+04</rscale>
<asrwt>0</asrwt>
<pdfrwt beam="1">  1        1 0.18773705E+00 0.27887910E+04</pdfrwt>
<pdfrwt beam="2">  1       -1 0.24512931E+00 0.27887910E+04</pdfrwt>
<totfact> 0.67141247E-01</totfact>
</mgrwt>
</event>
<event>
12    1  0.1506149E-007  0.1598479E+04  0.7818608E-02  0.8821483E-01
          2   -1    0    0  501    0  0.00000000000E+00  0.00000000000E+00  0.19580900384E+04  0.19580900384E+04  0.00000000000E+00 0. -1.
         -2   -1    0    0    0  501 -0.00000000000E+00 -0.00000000000E+00 -0.32622803542E+03  0.32622803542E+03  0.00000000000E+00 0.  1.
         23    2    1    2    0    0 -0.51785934976E+03  0.30782745406E+02  0.76328041310E+03  0.92749133719E+03  0.92289262615E+02 0.  0.
        254    2    1    2    0    0  0.51785934976E+03 -0.30782745406E+02  0.86858158990E+03  0.13568267367E+04  0.90411223388E+03 0.  0.
        -24    2    4    4    0    0 -0.13282155124E+03 -0.29677372771E+03  0.27385247573E+03  0.43256405763E+03  0.80001722200E+02 0.  0.
         24    2    4    4    0    0  0.65068090099E+03  0.26599098230E+03  0.59472911417E+03  0.92426267903E+03  0.80137026602E+02 0.  0.
         13    1    3    3    0    0 -0.43152010607E+03 -0.51360313479E+00  0.66715674423E+03  0.79454892052E+03  0.00000000000E+00 0. -1.
        -13    1    3    3    0    0 -0.86339243683E+02  0.31296348541E+02  0.96123668866E+02  0.13294241666E+03  0.00000000000E+00 0.  1.
          4    1    6    6  502    0  0.18739049782E+03  0.10968482796E+03  0.21039778466E+03  0.30234613930E+03  0.00000000000E+00 0. -1.
          3    1    5    5  503    0 -0.28653790537E+02 -0.14080832543E+03  0.15050082155E+03  0.20808296785E+03  0.00000000000E+00 0. -1.
         -4    1    5    5    0  503 -0.10416776070E+03 -0.15596540228E+03  0.12335165418E+03  0.22448108977E+03  0.00000000000E+00 0.  1.
         -3    1    6    6    0  502  0.46329040317E+03  0.15630615434E+03  0.38433132951E+03  0.62191653974E+03  0.00000000000E+00 0.  1.
<mgrwt>
<rscale>  0 0.15984791E+04</rscale>
<asrwt>0</asrwt>
<pdfrwt beam="1">  1        2 0.30124461E+00 0.15984791E+04</pdfrwt>
<pdfrwt beam="2">  1       -2 0.50188930E-01 0.15984791E+04</pdfrwt>
<totfact> 0.25392289E+01</totfact>
</mgrwt>
</event>
<event>
12    1  0.1506149E-007  0.1073347E+04  0.7818608E-02  0.9231566E-01
         -2   -1    0    0    0  501 -0.00000000000E+00  0.00000000000E+00  0.52610060746E+03  0.52610060746E+03  0.00000000000E+00 0. -1.
          2   -1    0    0  501    0  0.00000000000E+00 -0.00000000000E+00 -0.54745924594E+03  0.54745924594E+03  0.00000000000E+00 0.  1.
         23    2    1    2    0    0  0.86348525328E+02 -0.97257612041E+02  0.41692700783E+02  0.16428801150E+03  0.91308041793E+02 0.  0.
        254    2    1    2    0    0 -0.86348525328E+02  0.97257612041E+02 -0.63051339255E+02  0.90927184190E+03  0.89771081099E+03 0.  0.
        -24    2    4    4    0    0  0.22464060281E+03 -0.87583645541E+02  0.29830774062E+03  0.39138729860E+03  0.77860220856E+02 0.  0.
         24    2    4    4    0    0 -0.31098912814E+03  0.18484125758E+03 -0.36135907988E+03  0.51788454331E+03  0.82118738778E+02 0.  0.
         13    1    3    3    0    0  0.31192808399E+02  0.14384945707E+02  0.10454169296E+02  0.35905537379E+02  0.00000000000E+00 0. -1.
        -13    1    3    3    0    0  0.55155716929E+02 -0.11164255775E+03  0.31238531487E+02  0.12838247412E+03  0.00000000000E+00 0.  1.
          4    1    6    6  502    0 -0.11708708709E+03  0.11652767654E+03 -0.16951348468E+03  0.23669158593E+03  0.00000000000E+00 0. -1.
          1    1    5    5  503    0  0.21715066333E+03 -0.98668577099E+02  0.29059194087E+03  0.37594357926E+03  0.00000000000E+00 0. -1.
         -2    1    5    5    0  503  0.74899394849E+01  0.11084931558E+02  0.77157997518E+01  0.15443719336E+02  0.00000000000E+00 0.  1.
         -3    1    6    6    0  502 -0.19390204106E+03  0.68313581040E+02 -0.19184559519E+03  0.28119295737E+03  0.00000000000E+00 0.  1.
<mgrwt>
<rscale>  0 0.10733474E+04</rscale>
<asrwt>0</asrwt>
<pdfrwt beam="1">  1        2 0.84224499E-01 0.10733474E+04</pdfrwt>
<pdfrwt beam="2">  1       -2 0.80938556E-01 0.10733474E+04</pdfrwt>
<totfact> 0.74162427E+01</totfact>
</mgrwt>
</event>
<event>
12    1  0.1506149E-007  0.2119346E+04  0.7818608E-02  0.8552769E-01
          2   -1    0    0  501    0  0.00000000000E+00  0.00000000000E+00  0.10181269109E+04  0.10181269109E+04  0.00000000000E+00 0. -1.
         -2   -1    0    0    0  501 -0.00000000000E+00 -0.00000000000E+00 -0.11029148636E+04  0.11029148636E+04  0.00000000000E+00 0.  1.
         23    2    1    2    0    0  0.44995809338E+03 -0.73732416966E+03  0.37614842068E+01  0.86862220866E+03  0.91548761009E+02 0.  0.
        254    2    1    2    0    0 -0.44995809338E+03  0.73732416966E+03 -0.88549436902E+02  0.12524195658E+04  0.90255445765E+03 0.  0.
        -24    2    4    4    0    0 -0.28099178406E+03  0.18873105638E+03  0.37419461625E+03  0.51089639417E+03  0.80110675909E+02 0.  0.
         24    2    4    4    0    0 -0.16896630932E+03  0.54859311329E+03 -0.46274405316E+03  0.74152317162E+03  0.78870385346E+02 0.  0.
         13    1    3    3    0    0  0.41521774168E+03 -0.70869008004E+03  0.17490259244E+02  0.82155542219E+03  0.00000000000E+00 0. -1.
        -13    1    3    3    0    0  0.34740351697E+02 -0.28634089618E+02 -0.13728775037E+02  0.47066786467E+02  0.00000000000E+00 0.  1.
          2    1    6    6  502    0 -0.14924050552E+03  0.53485399322E+03 -0.44081669460E+03  0.70898581142E+03  0.00000000000E+00 0. -1.
          1    1    5    5  503    0 -0.13825402586E+03  0.62285875894E+02  0.21144609820E+03  0.26019830600E+03  0.00000000000E+00 0. -1.
         -2    1    5    5    0  503 -0.14273775820E+03  0.12644518048E+03  0.16274851805E+03  0.25069808817E+03  0.00000000000E+00 0.  1.
         -1    1    6    6    0  502 -0.19725803798E+02  0.13739120068E+02 -0.21927358552E+02  0.32537360201E+02  0.00000000000E+00 0.  1.
<mgrwt>
<rscale>  0 0.21193464E+04</rscale>
<asrwt>0</asrwt>
<pdfrwt beam="1">  1        2 0.15663491E+00 0.21193464E+04</pdfrwt>
<pdfrwt beam="2">  1       -2 0.16967921E+00 0.21193464E+04</pdfrwt>
<totfact> 0.48337314E+00</totfact>
</mgrwt>
</event>
<event>
12    1  0.1506149E-007  0.1921256E+04  0.7818608E-02  0.8644348E-01
          1   -1    0    0  501    0  0.00000000000E+00  0.00000000000E+00  0.16621862106E+04  0.16621862106E+04  0.00000000000E+00 0. -1.
         -1   -1    0    0    0  501 -0.00000000000E+00 -0.00000000000E+00 -0.55517616139E+03  0.55517616139E+03  0.00000000000E+00 0.  1.
         23    2    1    2    0    0 -0.14007723612E+03 -0.57854159000E+03 -0.86060096770E+02  0.60837335208E+03  0.91541202892E+02 0.  0.
        254    2    1    2    0    0  0.14007723612E+03  0.57854159000E+03  0.11930701459E+04  0.16089890199E+04  0.90060939894E+03 0.  0.
        -24    2    4    4    0    0 -0.29632216927E+03  0.42023064641E+03  0.93926408211E+03  0.10738233497E+04  0.80491902151E+02 0.  0.
         24    2    4    4    0    0  0.43639940539E+03  0.15831094359E+03  0.25380606383E+03  0.53516567013E+03  0.80485902841E+02 0.  0.
         13    1    3    3    0    0 -0.57196919845E+02 -0.23109045176E+03 -0.79922231287E+02  0.25112118108E+03  0.00000000000E+00 0.  1.
        -13    1    3    3    0    0 -0.82880316275E+02 -0.34745113824E+03 -0.61378654831E+01  0.35725217100E+03  0.00000000000E+00 0. -1.
          4    1    6    6  502    0  0.22120158094E+03  0.59459188232E+02  0.16478955941E+03  0.28217216972E+03  0.00000000000E+00 0. -1.
          1    1    5    5  503    0 -0.65358683784E+01  0.80871201302E+01  0.33658287710E+01  0.10929221874E+02  0.00000000000E+00 0. -1.
         -2    1    5    5    0  503 -0.28978630090E+03  0.41214352628E+03  0.93589825334E+03  0.10628941279E+04  0.00000000000E+00 0.  1.
         -3    1    6    6    0  502  0.21519782446E+03  0.98851755361E+02  0.89016504421E+02  0.25299350041E+03  0.00000000000E+00 0.  1.
<mgrwt>
<rscale>  0 0.19212560E+04</rscale>
<asrwt>0</asrwt>
<pdfrwt beam="1">  1        1 0.25572095E+00 0.19212560E+04</pdfrwt>
<pdfrwt beam="2">  1       -1 0.85411718E-01 0.19212560E+04</pdfrwt>
<totfact> 0.63994742E+00</totfact>
</mgrwt>
</event>
<event>
12    1  0.1506149E-007  0.1960774E+04  0.7818608E-02  0.8625183E-01
          1   -1    0    0  501    0  0.00000000000E+00  0.00000000000E+00  0.31250971103E+04  0.31250971103E+04  0.00000000000E+00 0. -1.
         -1   -1    0    0    0  501 -0.00000000000E+00 -0.00000000000E+00 -0.30756134295E+03  0.30756134295E+03  0.00000000000E+00 0.  1.
         23    2    1    2    0    0 -0.42837553761E+03  0.48344399542E+03  0.37938470351E+03  0.75564971813E+03  0.99247394539E+02 0.  0.
        254    2    1    2    0    0  0.42837553761E+03 -0.48344399542E+03  0.24381510639E+04  0.26770087352E+04  0.89697907439E+03 0.  0.
        -24    2    4    4    0    0  0.26213561903E+03 -0.22513641435E+03  0.18223795593E+03  0.39908916229E+03  0.81608817213E+02 0.  0.
         24    2    4    4    0    0  0.16623991858E+03 -0.25830758108E+03  0.22559131079E+04  0.22779195729E+04  0.73587450525E+02 0.  0.
         13    1    3    3    0    0 -0.38121717772E+03  0.38476538146E+03  0.28990650726E+03  0.61434250896E+03  0.00000000000E+00 0.  1.
        -13    1    3    3    0    0 -0.47158359890E+02  0.98678613964E+02  0.89478196245E+02  0.14130720917E+03  0.00000000000E+00 0. -1.
          2    1    6    6  502    0  0.16940688764E+03 -0.22128148191E+03  0.19810426772E+04  0.20005484939E+04  0.00000000000E+00 0. -1.
          3    1    5    5  503    0  0.19871743260E+03 -0.19759515886E+03  0.11585721970E+03  0.30324142227E+03  0.00000000000E+00 0. -1.
         -4    1    5    5    0  503  0.63418186433E+02 -0.27541255485E+02  0.66380736239E+02  0.95847740024E+02  0.00000000000E+00 0.  1.
         -1    1    6    6    0  502 -0.31669690655E+01 -0.37026099164E+02  0.27487043077E+03  0.27737107892E+03  0.00000000000E+00 0.  1.
<mgrwt>
<rscale>  0 0.19607744E+04</rscale>
<asrwt>0</asrwt>
<pdfrwt beam="1">  1        1 0.48078415E+00 0.19607744E+04</pdfrwt>
<pdfrwt beam="2">  1       -1 0.47317132E-01 0.19607744E+04</pdfrwt>
<totfact> 0.20109326E+00</totfact>
</mgrwt>
</event>
<event>
12    1  0.1564487E-007  0.2091241E+04  0.7818608E-02  0.8565112E-01
         -2   -1    0    0    0  501 -0.00000000000E+00  0.00000000000E+00  0.55648488268E+03  0.55648488268E+03  0.00000000000E+00 0.  1.
          2   -1    0    0  501    0  0.00000000000E+00 -0.00000000000E+00 -0.19646926668E+04  0.19646926668E+04  0.00000000000E+00 0. -1.
         23    2    1    2    0    0  0.23752293045E+03 -0.22147304116E+02 -0.15511062925E+04  0.15720011986E+04  0.91375008264E+02 0.  0.
        254    2    1    2    0    0 -0.23752293045E+03  0.22147304116E+02  0.14289850841E+03  0.94917635088E+03  0.90752857575E+03 0.  0.
        -24    2    4    4    0    0 -0.37238090376E+03 -0.18403652716E+03 -0.24065378294E+03  0.48668410882E+03  0.80063710406E+02 0.  0.
         24    2    4    4    0    0  0.13485797331E+03  0.20618383127E+03  0.38355229135E+03  0.46249224205E+03  0.78027357477E+02 0.  0.
         11    1    3    3    0    0  0.99198577938E+02 -0.25120329651E+02 -0.93324652071E+03  0.93883995294E+03  0.00000000000E+00 0. -1.
        -11    1    3    3    0    0  0.13832435251E+03  0.29730255350E+01 -0.61785977177E+03  0.63316124562E+03  0.00000000000E+00 0.  1.
          2    1    6    6  502    0  0.11023264027E+03  0.20371509813E+03  0.32663035806E+03  0.40042286023E+03  0.00000000000E+00 0. -1.
          1    1    5    5  503    0 -0.31127290402E+03 -0.18371124208E+03 -0.19758325122E+03  0.41192205866E+03  0.00000000000E+00 0. -1.
         -2    1    5    5    0  503 -0.61107999737E+02 -0.32528507534E+00 -0.43070531720E+02  0.74762050165E+02  0.00000000000E+00 0.  1.
         -1    1    6    6    0  502  0.24625333037E+02  0.24687331444E+01  0.56921933290E+02  0.62069381824E+02  0.00000000000E+00 0.  1.
<mgrwt>
<rscale>  0 0.20912406E+04</rscale>
<asrwt>0</asrwt>
<pdfrwt beam="1">  1        2 0.30226041E+00 0.20912406E+04</pdfrwt>
<pdfrwt beam="2">  1       -2 0.85613060E-01 0.20912406E+04</pdfrwt>
<totfact> 0.76405050E+00</totfact>
</mgrwt>
</event>
<event>
12    1  0.1506149E-007  0.1403134E+04  0.7818608E-02  0.8951553E-01
         -2   -1    0    0    0  501 -0.00000000000E+00  0.00000000000E+00  0.58045998009E+03  0.58045998009E+03  0.00000000000E+00 0.  1.
          2   -1    0    0  501    0  0.00000000000E+00 -0.00000000000E+00 -0.84794133160E+03  0.84794133160E+03  0.00000000000E+00 0. -1.
         23    2    1    2    0    0  0.23575937127E+03  0.31313778249E+03  0.31252431176E+02  0.40435571159E+03  0.94281891559E+02 0.  0.
        254    2    1    2    0    0 -0.23575937127E+03 -0.31313778249E+03 -0.29873378268E+03  0.10240456001E+04  0.89765793386E+03 0.  0.
        -24    2    4    4    0    0 -0.12573619896E+03 -0.46751474767E+03  0.16437567008E+03  0.51743596874E+03  0.79630332266E+02 0.  0.
         24    2    4    4    0    0 -0.11002317231E+03  0.15437696518E+03 -0.46310945276E+03  0.50660963137E+03  0.79029156241E+02 0.  0.
         11    1    3    3    0    0  0.20446518025E+03  0.26754912751E+03 -0.75279893526E+01  0.33681629443E+03  0.00000000000E+00 0. -1.
        -11    1    3    3    0    0  0.31294191015E+02  0.45588654979E+02  0.38780420528E+02  0.67539417161E+02  0.00000000000E+00 0.  1.
          4    1    6    6  502    0 -0.92405325474E+02  0.15406194089E+03 -0.36368755433E+03  0.40563834013E+03  0.00000000000E+00 0. -1.
          1    1    5    5  503    0 -0.12098124857E+03 -0.41295024483E+03  0.11940152030E+03  0.44656588569E+03  0.00000000000E+00 0. -1.
         -2    1    5    5    0  503 -0.47549503854E+01 -0.54564502833E+02  0.44974149781E+02  0.70870083048E+02  0.00000000000E+00 0.  1.
         -3    1    6    6    0  502 -0.17617846837E+02  0.31502428904E+00 -0.99421898432E+02  0.10097129124E+03  0.00000000000E+00 0.  1.
<mgrwt>
<rscale>  0 0.14031336E+04</rscale>
<asrwt>0</asrwt>
<pdfrwt beam="1">  1        2 0.13045251E+00 0.14031336E+04</pdfrwt>
<pdfrwt beam="2">  1       -2 0.89301536E-01 0.14031336E+04</pdfrwt>
<totfact> 0.33352162E+01</totfact>
</mgrwt>
</event>
<event>
12    1  0.1506149E-007  0.1728307E+04  0.7818608E-02  0.8745383E-01
          1   -1    0    0  501    0  0.00000000000E+00  0.00000000000E+00  0.18116723348E+04  0.18116723348E+04  0.00000000000E+00 0. -1.
         -1   -1    0    0    0  501 -0.00000000000E+00 -0.00000000000E+00 -0.41219423462E+03  0.41219423462E+03  0.00000000000E+00 0.  1.
         23    2    1    2    0    0 -0.60314734878E+03  0.47114390635E+01  0.70901127231E+03  0.93529569850E+03  0.90951291265E+02 0.  0.
        254    2    1    2    0    0  0.60314734878E+03 -0.47114390635E+01  0.69046682787E+03  0.12885708709E+04  0.90546205164E+03 0.  0.
        -24    2    4    4    0    0  0.26656744512E+03  0.21723347470E+02  0.85885318256E+03  0.90301819893E+03  0.79265199060E+02 0.  0.
         24    2    4    4    0    0  0.33657990366E+03 -0.26434786534E+02 -0.16838635469E+03  0.38555267198E+03  0.79448530142E+02 0.  0.
         13    1    3    3    0    0 -0.13245824372E+03  0.30611511819E+02  0.12413497061E+03  0.18409709915E+03  0.00000000000E+00 0. -1.
        -13    1    3    3    0    0 -0.47068910506E+03 -0.25900072756E+02  0.58487630170E+03  0.75119859936E+03  0.00000000000E+00 0.  1.
          4    1    6    6  502    0  0.10559194368E+02  0.66399105678E+01 -0.24842645906E+02  0.27798238319E+02  0.00000000000E+00 0. -1.
          1    1    5    5  503    0  0.22359943931E+03  0.10590101770E+02  0.60021505093E+03  0.64059891264E+03  0.00000000000E+00 0. -1.
         -2    1    5    5    0  503  0.42968005815E+02  0.11133245700E+02  0.25863813163E+03  0.26241928629E+03  0.00000000000E+00 0.  1.
         -3    1    6    6    0  502  0.32602070929E+03 -0.33074697102E+02 -0.14354370878E+03  0.35775443366E+03  0.00000000000E+00 0.  1.
<mgrwt>
<rscale>  0 0.17283066E+04</rscale>
<asrwt>0</asrwt>
<pdfrwt beam="1">  1        1 0.27871882E+00 0.17283066E+04</pdfrwt>
<pdfrwt beam="2">  1       -1 0.63414499E-01 0.17283066E+04</pdfrwt>
<totfact> 0.95780959E+00</totfact>
</mgrwt>
</event>
<event>
12    1  0.1506149E-007  0.2727191E+04  0.7818608E-02  0.8326236E-01
          1   -1    0    0  501    0  0.00000000000E+00  0.00000000000E+00  0.12695677819E+04  0.12695677819E+04  0.00000000000E+00 0. -1.
         -1   -1    0    0    0  501 -0.00000000000E+00 -0.00000000000E+00 -0.14645869711E+04  0.14645869711E+04  0.00000000000E+00 0.  1.
         23    2    1    2    0    0 -0.33892398852E+02  0.11550351869E+04 -0.44876348774E+03  0.12428106133E+04  0.89076231151E+02 0.  0.
        254    2    1    2    0    0  0.33892398852E+02 -0.11550351869E+04  0.25374429851E+03  0.14913441398E+04  0.90800120958E+03 0.  0.
        -24    2    4    4    0    0  0.32035509786E+03 -0.91677292410E+02  0.17326199379E+03  0.38416520733E+03  0.80815056523E+02 0.  0.
         24    2    4    4    0    0 -0.28646269901E+03 -0.10633578945E+04  0.80482304716E+02  0.11071789324E+04  0.81098072986E+02 0.  0.
         13    1    3    3    0    0  0.64186134187E+01  0.69615998938E+03 -0.23304268167E+03  0.73415858021E+03  0.00000000000E+00 0.  1.
        -13    1    3    3    0    0 -0.40311012271E+02  0.45887519749E+03 -0.21572080607E+03  0.50865203307E+03  0.00000000000E+00 0. -1.
          2    1    6    6  502    0 -0.45705212977E+02 -0.19348420861E+03  0.45365927474E+02  0.20391952542E+03  0.00000000000E+00 0. -1.
          1    1    5    5  503    0  0.11862608424E+03  0.50558562938E+01  0.51107184165E+02  0.12926582618E+03  0.00000000000E+00 0. -1.
         -2    1    5    5    0  503  0.20172901361E+03 -0.96733148704E+02  0.12215480963E+03  0.25489938114E+03  0.00000000000E+00 0.  1.
         -1    1    6    6    0  502 -0.24075748603E+03 -0.86987368585E+03  0.35116377241E+02  0.90325940701E+03  0.00000000000E+00 0.  1.
<mgrwt>
<rscale>  0 0.27271908E+04</rscale>
<asrwt>0</asrwt>
<pdfrwt beam="1">  1        1 0.19531812E+00 0.27271908E+04</pdfrwt>
<pdfrwt beam="2">  1       -1 0.22532107E+00 0.27271908E+04</pdfrwt>
<totfact> 0.84024696E-01</totfact>
</mgrwt>
</event>
<event>
12    1  0.1506149E-007  0.1862673E+04  0.7818608E-02  0.8673663E-01
          2   -1    0    0  501    0  0.00000000000E+00  0.00000000000E+00  0.12819198793E+04  0.12819198793E+04  0.00000000000E+00 0. -1.
         -2   -1    0    0    0  501 -0.00000000000E+00 -0.00000000000E+00 -0.67663197643E+03  0.67663197643E+03  0.00000000000E+00 0.  1.
         23    2    1    2    0    0  0.51666076287E+03 -0.40690893574E+03  0.48491617615E+03  0.82200405747E+03  0.89631170623E+02 0.  0.
        254    2    1    2    0    0 -0.51666076287E+03  0.40690893574E+03  0.12037172668E+03  0.11365477982E+04  0.91909646892E+03 0.  0.
        -24    2    4    4    0    0 -0.22318184048E+03 -0.18762375779E+03 -0.23189421212E+03  0.38150222706E+03  0.82196199590E+02 0.  0.
         24    2    4    4    0    0 -0.29347892239E+03  0.59453269353E+03  0.35226593880E+03  0.75504557116E+03  0.80022005326E+02 0.  0.
         11    1    3    3    0    0  0.71738804031E+02 -0.99255838662E+02  0.79473354962E+02  0.14599380693E+03  0.00000000000E+00 0.  1.
        -11    1    3    3    0    0  0.44492195884E+03 -0.30765309707E+03  0.40544282119E+03  0.67601025055E+03  0.00000000000E+00 0. -1.
          2    1    6    6  502    0 -0.57902092557E+02  0.12008718251E+03  0.10871965746E+03  0.17202775254E+03  0.00000000000E+00 0. -1.
          3    1    5    5  503    0 -0.23328891209E+00 -0.24844758562E+01  0.60442624892E+01  0.65391247912E+01  0.00000000000E+00 0. -1.
         -4    1    5    5    0  503 -0.22294855157E+03 -0.18513928193E+03 -0.23793847461E+03  0.37496310227E+03  0.00000000000E+00 0.  1.
         -1    1    6    6    0  502 -0.23557682983E+03  0.47444551102E+03  0.24354628134E+03  0.58301781862E+03  0.00000000000E+00 0.  1.
<mgrwt>
<rscale>  0 0.18626733E+04</rscale>
<asrwt>0</asrwt>
<pdfrwt beam="1">  1        2 0.19721844E+00 0.18626733E+04</pdfrwt>
<pdfrwt beam="2">  1       -2 0.10409723E+00 0.18626733E+04</pdfrwt>
<totfact> 0.11943547E+01</totfact>
</mgrwt>
</event>
<event>
12    1  0.1506149E-007  0.2674365E+04  0.7818608E-02  0.8343371E-01
         -2   -1    0    0    0  501 -0.00000000000E+00  0.00000000000E+00  0.61891199659E+03  0.61891199659E+03  0.00000000000E+00 0.  1.
          2   -1    0    0  501    0  0.00000000000E+00 -0.00000000000E+00 -0.28890328417E+04  0.28890328417E+04  0.00000000000E+00 0. -1.
         23    2    1    2    0    0 -0.47872086647E+03 -0.10407204586E+04 -0.13932888267E+04  0.18063189017E+04  0.96236579040E+02 0.  0.
        254    2    1    2    0    0  0.47872086647E+03  0.10407204586E+04 -0.87683201849E+03  0.17016259366E+04  0.90245426405E+03 0.  0.
        -24    2    4    4    0    0  0.17348286828E+02 -0.15428174054E+03 -0.95739216884E+02  0.19913992774E+03  0.79918049589E+02 0.  0.
         24    2    4    4    0    0  0.46137257964E+03  0.11950021991E+04 -0.78109280160E+03  0.15024860089E+04  0.80394832463E+02 0.  0.
         13    1    3    3    0    0 -0.46101671845E+03 -0.99708924027E+03 -0.13619736709E+04  0.17497701700E+04  0.00000000000E+00 0. -1.
        -13    1    3    3    0    0 -0.17704148023E+02 -0.43631218323E+02 -0.31315155764E+02  0.56548731640E+02  0.00000000000E+00 0.  1.
          2    1    6    6  502    0  0.30352588423E+03  0.67598986123E+03 -0.44913731994E+03  0.86649557820E+03  0.00000000000E+00 0. -1.
          1    1    5    5  503    0  0.30627647133E+01 -0.14056620683E+03 -0.10670249136E+03  0.17650399625E+03  0.00000000000E+00 0. -1.
         -2    1    5    5    0  503  0.14285522115E+02 -0.13715533703E+02  0.10963274475E+02  0.22635931482E+02  0.00000000000E+00 0.  1.
         -1    1    6    6    0  502  0.15784669541E+03  0.51901233790E+03 -0.33195548167E+03  0.63599043071E+03  0.00000000000E+00 0.  1.
<mgrwt>
<rscale>  0 0.26743650E+04</rscale>
<asrwt>0</asrwt>
<pdfrwt beam="1">  1        2 0.44446658E+00 0.26743650E+04</pdfrwt>
<pdfrwt beam="2">  1       -2 0.95217232E-01 0.26743650E+04</pdfrwt>
<totfact> 0.16625672E+00</totfact>
</mgrwt>
</event>
<event>
12    1  0.1506149E-007  0.1186996E+04  0.7818608E-02  0.9124316E-01
          1   -1    0    0  501    0  0.00000000000E+00  0.00000000000E+00  0.59792080108E+03  0.59792080108E+03  0.00000000000E+00 0. -1.
         -1   -1    0    0    0  501 -0.00000000000E+00 -0.00000000000E+00 -0.58910775076E+03  0.58910775076E+03  0.00000000000E+00 0.  1.
         23    2    1    2    0    0 -0.17677010724E+03 -0.10769844259E+03 -0.11698081931E+03  0.25487512431E+03  0.91816074613E+02 0.  0.
        254    2    1    2    0    0  0.17677010724E+03  0.10769844259E+03  0.12579386963E+03  0.93215342753E+03  0.90013292878E+03 0.  0.
        -24    2    4    4    0    0  0.23483436219E+03  0.46402471036E+03 -0.38946833422E+02  0.52722399273E+03  0.77344509699E+02 0.  0.
         24    2    4    4    0    0 -0.58064254949E+02 -0.35632626778E+03  0.16474070305E+03  0.40492943481E+03  0.80551108755E+02 0.  0.
         13    1    3    3    0    0 -0.17017774337E+03 -0.10702103092E+03 -0.13059963143E+03  0.23972949156E+03  0.00000000000E+00 0.  1.
        -13    1    3    3    0    0 -0.65923638705E+01 -0.67741166569E+00  0.13618812113E+02  0.15145632748E+02  0.00000000000E+00 0. -1.
          4    1    6    6  502    0 -0.27625302450E+02 -0.32271985301E+03  0.15224813209E+03  0.35789768732E+03  0.00000000000E+00 0. -1.
          1    1    5    5  503    0  0.19081389293E+03  0.42530194331E+03 -0.44856358413E+02  0.46829881230E+03  0.00000000000E+00 0. -1.
         -2    1    5    5    0  503  0.44020469257E+02  0.38722767059E+02  0.59095249907E+01  0.58925180423E+02  0.00000000000E+00 0.  1.
         -3    1    6    6    0  502 -0.30438952499E+02 -0.33606414762E+02  0.12492570960E+02  0.47031747486E+02  0.00000000000E+00 0.  1.
<mgrwt>
<rscale>  0 0.11869958E+04</rscale>
<asrwt>0</asrwt>
<pdfrwt beam="1">  1        1 0.91987816E-01 0.11869958E+04</pdfrwt>
<pdfrwt beam="2">  1       -1 0.90631962E-01 0.11869958E+04</pdfrwt>
<totfact> 0.40579249E+01</totfact>
</mgrwt>
</event>
<event>
12    1  0.1506149E-007  0.1925160E+04  0.7818608E-02  0.8642433E-01
         -1   -1    0    0    0  501 -0.00000000000E+00  0.00000000000E+00  0.22409232402E+04  0.22409232402E+04  0.00000000000E+00 0.  1.
          1   -1    0    0  501    0  0.00000000000E+00 -0.00000000000E+00 -0.41347254882E+03  0.41347254882E+03  0.00000000000E+00 0. -1.
         23    2    1    2    0    0  0.61487291878E+03  0.42501470755E+03  0.63110604709E+03  0.98237892027E+03  0.89818107530E+02 0.  0.
        254    2    1    2    0    0 -0.61487291878E+03 -0.42501470755E+03  0.11963446443E+04  0.16720168688E+04  0.89760441934E+03 0.  0.
        -24    2    4    4    0    0  0.11628586322E+03  0.85772873463E+02 -0.15945417730E+02  0.16488566511E+03  0.77805130958E+02 0.  0.
         24    2    4    4    0    0 -0.73115878200E+03 -0.51078758101E+03  0.12122900620E+04  0.15071312037E+04  0.79373504028E+02 0.  0.
         13    1    3    3    0    0  0.11308981322E+03  0.10210573593E+03  0.90586507978E+02  0.17725913966E+03  0.00000000000E+00 0. -1.
        -13    1    3    3    0    0  0.50178310556E+03  0.32290897162E+03  0.54051953911E+03  0.80511978061E+03  0.00000000000E+00 0.  1.
          2    1    6    6  502    0 -0.38515957726E+03 -0.24099263973E+03  0.67107027774E+03  0.81040771839E+03  0.00000000000E+00 0. -1.
          3    1    5    5  503    0 -0.11264505637E+01 -0.77072379577E+01 -0.12545158993E+02  0.14766564325E+02  0.00000000000E+00 0. -1.
         -4    1    5    5    0  503  0.11741231379E+03  0.93480111421E+02 -0.34002587373E+01  0.15011910078E+03  0.00000000000E+00 0.  1.
         -1    1    6    6    0  502 -0.34599920474E+03 -0.26979494128E+03  0.54121978427E+03  0.69672348526E+03  0.00000000000E+00 0.  1.
<mgrwt>
<rscale>  0 0.19251600E+04</rscale>
<asrwt>0</asrwt>
<pdfrwt beam="1">  1        1 0.63611162E-01 0.19251600E+04</pdfrwt>
<pdfrwt beam="2">  1       -1 0.34475742E+00 0.19251600E+04</pdfrwt>
<totfact> 0.90349329E-01</totfact>
</mgrwt>
</event>
<event>
12    1  0.1506149E-007  0.3095164E+04  0.7818608E-02  0.8217066E-01
          2   -1    0    0  501    0  0.00000000000E+00  0.00000000000E+00  0.27639492314E+04  0.27639492314E+04  0.00000000000E+00 0. -1.
         -2   -1    0    0    0  501 -0.00000000000E+00 -0.00000000000E+00 -0.86651756625E+03  0.86651756625E+03  0.00000000000E+00 0.  1.
         23    2    1    2    0    0 -0.18446782164E+03  0.14026625080E+04  0.87843192726E+03  0.16678026163E+04  0.91828250039E+02 0.  0.
        254    2    1    2    0    0  0.18446782164E+03 -0.14026625080E+04  0.10189997379E+04  0.19626641814E+04  0.90122124609E+03 0.  0.
        -24    2    4    4    0    0  0.45839845384E+03 -0.77465411108E+03  0.87462698281E+03  0.12580042810E+04  0.85931819108E+02 0.  0.
         24    2    4    4    0    0 -0.27393063220E+03 -0.62800839694E+03  0.14437275511E+03  0.70465990043E+03  0.79180458304E+02 0.  0.
         13    1    3    3    0    0 -0.17057013152E+03  0.13126993799E+04  0.79375017180E+03  0.15434743817E+04  0.00000000000E+00 0.  1.
        -13    1    3    3    0    0 -0.13897690118E+02  0.89963128150E+02  0.84681755457E+02  0.12432823462E+03  0.00000000000E+00 0. -1.
          2    1    6    6  502    0 -0.25725484889E+02 -0.18901549171E+02  0.85201056516E+01  0.33040298639E+02  0.00000000000E+00 0. -1.
          1    1    5    5  503    0  0.21721192410E+03 -0.29246451409E+03  0.32743518058E+03  0.48982681577E+03  0.00000000000E+00 0. -1.
         -2    1    5    5    0  503  0.24118652975E+03 -0.48218959698E+03  0.54719180224E+03  0.76817746518E+03  0.00000000000E+00 0.  1.
         -1    1    6    6    0  502 -0.24820514731E+03 -0.60910684777E+03  0.13585264946E+03  0.67161960180E+03  0.00000000000E+00 0.  1.
<mgrwt>
<rscale>  0 0.30951643E+04</rscale>
<asrwt>0</asrwt>
<pdfrwt beam="1">  1        2 0.42522296E+00 0.30951643E+04</pdfrwt>
<pdfrwt beam="2">  1       -2 0.13331040E+00 0.30951643E+04</pdfrwt>
<totfact> 0.84093986E-01</totfact>
</mgrwt>
</event>
<event>
12    1  0.1506149E-007  0.2119550E+04  0.7818608E-02  0.8552680E-01
         -2   -1    0    0    0  501 -0.00000000000E+00  0.00000000000E+00  0.33703881624E+03  0.33703881624E+03  0.00000000000E+00 0.  1.
          2   -1    0    0  501    0  0.00000000000E+00 -0.00000000000E+00 -0.33323247688E+04  0.33323247688E+04  0.00000000000E+00 0. -1.
         23    2    1    2    0    0  0.22343239774E+03  0.35069776363E+03  0.83679719311E+02  0.43386465089E+03  0.91242983789E+02 0.  0.
        254    2    1    2    0    0 -0.22343239774E+03 -0.35069776363E+03 -0.30789656718E+04  0.32354989341E+04  0.90305746580E+03 0.  0.
        -24    2    4    4    0    0 -0.52584819244E+03 -0.38694699215E+03 -0.17531633219E+04  0.18724891342E+04  0.79935148007E+02 0.  0.
         24    2    4    4    0    0  0.30241579471E+03  0.36249228522E+02 -0.13258023499E+04  0.13630098000E+04  0.85290822189E+02 0.  0.
         11    1    3    3    0    0  0.10666485713E+03  0.20657799064E+03  0.54448946027E+01  0.23255430514E+03  0.00000000000E+00 0. -1.
        -11    1    3    3    0    0  0.11676754061E+03  0.14411977300E+03  0.78234824708E+02  0.20131034575E+03  0.00000000000E+00 0.  1.
          2    1    6    6  502    0  0.30556308408E+03  0.27292234501E+02 -0.12830607160E+04  0.13192264648E+04  0.00000000000E+00 0. -1.
          1    1    5    5  503    0 -0.31931418897E+03 -0.20439971797E+03 -0.11016866903E+04  0.11650984334E+04  0.00000000000E+00 0. -1.
         -2    1    5    5    0  503 -0.20653400347E+03 -0.18254727419E+03 -0.65147663166E+03  0.70739070074E+03  0.00000000000E+00 0.  1.
         -1    1    6    6    0  502 -0.31472893713E+01  0.89569940213E+01 -0.42741633873E+02  0.43783335168E+02  0.00000000000E+00 0.  1.
<mgrwt>
<rscale>  0 0.21195498E+04</rscale>
<asrwt>0</asrwt>
<pdfrwt beam="1">  1        2 0.51266533E+00 0.21195498E+04</pdfrwt>
<pdfrwt beam="2">  1       -2 0.51852127E-01 0.21195498E+04</pdfrwt>
<totfact> 0.34356557E+00</totfact>
</mgrwt>
</event>
<event>
12    1  0.1506149E-007  0.1792469E+04  0.7818608E-02  0.8710315E-01
          2   -1    0    0  501    0  0.00000000000E+00  0.00000000000E+00  0.36613420896E+03  0.36613420896E+03  0.00000000000E+00 0. -1.
         -2   -1    0    0    0  501 -0.00000000000E+00 -0.00000000000E+00 -0.21938306732E+04  0.21938306732E+04  0.00000000000E+00 0.  1.
         23    2    1    2    0    0 -0.20896795909E+03 -0.11186673319E+03  0.20288632382E+03  0.32546275401E+03  0.92635683894E+02 0.  0.
        254    2    1    2    0    0  0.20896795909E+03  0.11186673319E+03 -0.20305827881E+04  0.22345021282E+04  0.90197091287E+03 0.  0.
        -24    2    4    4    0    0  0.41819886274E+03 -0.22776036467E+03 -0.75781551637E+03  0.89825310967E+03  0.76218237051E+02 0.  0.
         24    2    4    4    0    0 -0.20923090365E+03  0.33962709786E+03 -0.12727672717E+04  0.13362490185E+04  0.80627383026E+02 0.  0.
         13    1    3    3    0    0 -0.51002193164E+02 -0.47869362522E+02  0.11268162317E+03  0.13262672346E+03  0.00000000000E+00 0.  1.
        -13    1    3    3    0    0 -0.15796576593E+03 -0.63997370668E+02  0.90204700652E+02  0.19283603055E+03  0.00000000000E+00 0. -1.
          2    1    6    6  502    0 -0.18163547455E+03  0.27978574603E+03 -0.11434053154E+04  0.11910697816E+04  0.00000000000E+00 0. -1.
          1    1    5    5  503    0  0.35699854612E+03 -0.18394280725E+03 -0.58313642281E+03  0.70804731896E+03  0.00000000000E+00 0. -1.
         -2    1    5    5    0  503  0.61200316620E+02 -0.43817557423E+02 -0.17467909356E+03  0.19020579071E+03  0.00000000000E+00 0.  1.
         -1    1    6    6    0  502 -0.27595429104E+02  0.59841351833E+02 -0.12936195627E+03  0.14517923690E+03  0.00000000000E+00 0.  1.
<mgrwt>
<rscale>  0 0.17924692E+04</rscale>
<asrwt>0</asrwt>
<pdfrwt beam="1">  1        2 0.56328340E-01 0.17924692E+04</pdfrwt>
<pdfrwt beam="2">  1       -2 0.33751241E+00 0.17924692E+04</pdfrwt>
<totfact> 0.15517560E+00</totfact>
</mgrwt>
</event>
<event>
12    1  0.1506149E-007  0.2053580E+04  0.7818608E-02  0.8581972E-01
         -1   -1    0    0    0  501 -0.00000000000E+00  0.00000000000E+00  0.50534127113E+03  0.50534127113E+03  0.00000000000E+00 0.  1.
          1   -1    0    0  501    0  0.00000000000E+00 -0.00000000000E+00 -0.20863084871E+04  0.20863084871E+04  0.00000000000E+00 0. -1.
         23    2    1    2    0    0  0.27509796623E+02  0.67637734293E+03 -0.12630243502E+04  0.14360543808E+04  0.93694058087E+02 0.  0.
        254    2    1    2    0    0 -0.27509796623E+02 -0.67637734293E+03 -0.31794286578E+03  0.11555953774E+04  0.88094830239E+03 0.  0.
        -24    2    4    4    0    0 -0.15053509819E+03  0.99424746009E+02  0.14087892438E+03  0.24252228467E+03  0.80150429317E+02 0.  0.
         24    2    4    4    0    0  0.12302530157E+03 -0.77580208894E+03 -0.45882179017E+03  0.91307309275E+03  0.78618900720E+02 0.  0.
         13    1    3    3    0    0  0.48005959973E+02  0.22192699761E+03 -0.46497455921E+03  0.51745290140E+03  0.00000000000E+00 0.  1.
        -13    1    3    3    0    0 -0.20496163350E+02  0.45445034532E+03 -0.79804979101E+03  0.91860147943E+03  0.00000000000E+00 0. -1.
          2    1    6    6  502    0  0.94857619292E+02 -0.36924930431E+03 -0.24035394139E+03  0.45068063394E+03  0.00000000000E+00 0. -1.
          3    1    5    5  503    0 -0.54658489331E+02 -0.38359139871E+01  0.54298768563E+02  0.77140268080E+02  0.00000000000E+00 0. -1.
         -4    1    5    5    0  503 -0.95876608862E+02  0.10326066000E+03  0.86580155822E+02  0.16538201659E+03  0.00000000000E+00 0.  1.
         -1    1    6    6    0  502  0.28167682278E+02 -0.40655278463E+03 -0.21846784878E+03  0.46239245881E+03  0.00000000000E+00 0.  1.
<mgrwt>
<rscale>  0 0.20535801E+04</rscale>
<asrwt>0</asrwt>
<pdfrwt beam="1">  1        1 0.32097055E+00 0.20535801E+04</pdfrwt>
<pdfrwt beam="2">  1       -1 0.77744808E-01 0.20535801E+04</pdfrwt>
<totfact> 0.39848641E+00</totfact>
</mgrwt>
</event>
<event>
12    1  0.1506149E-007  0.1718486E+04  0.7818608E-02  0.8750891E-01
         -1   -1    0    0    0  501 -0.00000000000E+00  0.00000000000E+00  0.41145306542E+03  0.41145306542E+03  0.00000000000E+00 0.  1.
          1   -1    0    0  501    0  0.00000000000E+00 -0.00000000000E+00 -0.17943697456E+04  0.17943697456E+04  0.00000000000E+00 0. -1.
         23    2    1    2    0    0  0.22663958633E+03  0.46055393682E+03 -0.94904249295E+03  0.10838777171E+04  0.10312042205E+03 0.  0.
        254    2    1    2    0    0 -0.22663958633E+03 -0.46055393682E+03 -0.43387418727E+03  0.11219450939E+04  0.89835324488E+03 0.  0.
        -24    2    4    4    0    0  0.10908555596E+03 -0.62995084743E+03 -0.32753036724E+03  0.72280327316E+03  0.80191654952E+02 0.  0.
         24    2    4    4    0    0 -0.33572514229E+03  0.16939691061E+03 -0.10634382002E+03  0.39914182076E+03  0.81231154934E+02 0.  0.
         11    1    3    3    0    0  0.10996497822E+03  0.25786682266E+03 -0.61744302595E+03  0.67810285721E+03  0.00000000000E+00 0. -1.
        -11    1    3    3    0    0  0.11667460811E+03  0.20268711416E+03 -0.33159946700E+03  0.40577485992E+03  0.00000000000E+00 0.  1.
          4    1    6    6  502    0 -0.80835354909E+02  0.10219309004E+02 -0.42609006679E+02  0.91947356296E+02  0.00000000000E+00 0. -1.
          1    1    5    5  503    0  0.78771542572E+02 -0.28249197935E+03 -0.11939091364E+03  0.31663996048E+03  0.00000000000E+00 0. -1.
         -2    1    5    5    0  503  0.30314013390E+02 -0.34745886809E+03 -0.20813945360E+03  0.40616331268E+03  0.00000000000E+00 0.  1.
         -3    1    6    6    0  502 -0.25488978738E+03  0.15917760161E+03 -0.63734813344E+02  0.30719446446E+03  0.00000000000E+00 0.  1.
<mgrwt>
<rscale>  0 0.17184865E+04</rscale>
<asrwt>0</asrwt>
<pdfrwt beam="1">  1        1 0.27605688E+00 0.17184865E+04</pdfrwt>
<pdfrwt beam="2">  1       -1 0.63300472E-01 0.17184865E+04</pdfrwt>
<totfact> 0.98848693E+00</totfact>
</mgrwt>
</event>
<event>
12    1  0.1506149E-007  0.2231979E+04  0.7818608E-02  0.8505234E-01
         -1   -1    0    0    0  501 -0.00000000000E+00  0.00000000000E+00  0.16385020380E+04  0.16385020380E+04  0.00000000000E+00 0.  1.
          1   -1    0    0  501    0  0.00000000000E+00 -0.00000000000E+00 -0.76010432758E+03  0.76010432758E+03  0.00000000000E+00 0. -1.
         23    2    1    2    0    0 -0.71814325127E+03 -0.49096461354E+03  0.74950551653E+03  0.11520622512E+04  0.93343078060E+02 0.  0.
        254    2    1    2    0    0  0.71814325127E+03  0.49096461354E+03  0.12889219394E+03  0.12465441144E+04  0.88344951779E+03 0.  0.
        -24    2    4    4    0    0 -0.11072733828E+03  0.36486793771E+03  0.10736616974E+03  0.40391862324E+03  0.78953178454E+02 0.  0.
         24    2    4    4    0    0  0.82887058954E+03  0.12609667582E+03  0.21526024208E+02  0.84262549119E+03  0.81409599067E+02 0.  0.
         11    1    3    3    0    0 -0.12313147033E+03 -0.59454504392E+02  0.83634144702E+02  0.16028370859E+03  0.00000000000E+00 0. -1.
        -11    1    3    3    0    0 -0.59501178094E+03 -0.43151010915E+03  0.66587137183E+03  0.99177854260E+03  0.00000000000E+00 0.  1.
          4    1    6    6  502    0  0.47218064222E+02 -0.45486499233E+01 -0.13613669000E+02  0.49351472001E+02  0.00000000000E+00 0. -1.
          1    1    5    5  503    0 -0.74066049290E+01  0.46935132705E+02 -0.11895483055E+02  0.48982313090E+02  0.00000000000E+00 0. -1.
         -2    1    5    5    0  503 -0.10332073335E+03  0.31793280501E+03  0.11926165279E+03  0.35493631015E+03  0.00000000000E+00 0.  1.
         -1    1    6    6    0  502  0.78165252532E+03  0.13064532575E+03  0.35139693208E+02  0.79327401919E+03  0.00000000000E+00 0.  1.
<mgrwt>
<rscale>  0 0.22319789E+04</rscale>
<asrwt>0</asrwt>
<pdfrwt beam="1">  1        1 0.11693913E+00 0.22319789E+04</pdfrwt>
<pdfrwt beam="2">  1       -1 0.25207724E+00 0.22319789E+04</pdfrwt>
<totfact> 0.14734671E+00</totfact>
</mgrwt>
</event>
<event>
12    1  0.1506149E-007  0.4349354E+04  0.7818608E-02  0.7937555E-01
         -2   -1    0    0    0  501 -0.00000000000E+00  0.00000000000E+00  0.19291838240E+04  0.19291838240E+04  0.00000000000E+00 0.  1.
          2   -1    0    0  501    0  0.00000000000E+00 -0.00000000000E+00 -0.24514096049E+04  0.24514096049E+04  0.00000000000E+00 0. -1.
         23    2    1    2    0    0 -0.33097526819E+03  0.20505760923E+04 -0.11873121265E+03  0.20825030757E+04  0.91186735881E+02 0.  0.
        254    2    1    2    0    0  0.33097526819E+03 -0.20505760923E+04 -0.40349456824E+03  0.22980903532E+04  0.89666296143E+03 0.  0.
        -24    2    4    4    0    0  0.48069671764E+03 -0.15408711742E+04  0.16744609456E+02  0.16162633757E+04  0.81692152950E+02 0.  0.
         24    2    4    4    0    0 -0.14972144945E+03 -0.50970491815E+03 -0.42023917770E+03  0.68182697755E+03  0.77919476550E+02 0.  0.
         11    1    3    3    0    0 -0.24171674059E+02  0.17974863004E+03  0.14927493436E+02  0.18197986122E+03  0.00000000000E+00 0.  1.
        -11    1    3    3    0    0 -0.30680359413E+03  0.18708274623E+04 -0.13365870608E+03  0.19005232145E+04  0.00000000000E+00 0. -1.
          2    1    6    6  502    0 -0.43397476168E+02 -0.92556814481E+02 -0.48937282376E+02  0.11333561863E+03  0.00000000000E+00 0. -1.
          1    1    5    5  503    0  0.16129899107E+03 -0.61190280335E+03 -0.21584773951E+02  0.63317320516E+03  0.00000000000E+00 0. -1.
         -2    1    5    5    0  503  0.31939772657E+03 -0.92896837083E+03  0.38329383407E+02  0.98309017052E+03  0.00000000000E+00 0.  1.
         -1    1    6    6    0  502 -0.10632397328E+03 -0.41714810367E+03 -0.37130189532E+03  0.56849135892E+03  0.00000000000E+00 0.  1.
<mgrwt>
<rscale>  0 0.43493539E+04</rscale>
<asrwt>0</asrwt>
<pdfrwt beam="1">  1        2 0.37713994E+00 0.43493539E+04</pdfrwt>
<pdfrwt beam="2">  1       -2 0.29679751E+00 0.43493539E+04</pdfrwt>
<totfact> 0.94714655E-02</totfact>
</mgrwt>
</event>
<event>
12    1  0.1506149E-007  0.1592007E+04  0.7818608E-02  0.8825474E-01
          2   -1    0    0  501    0  0.00000000000E+00  0.00000000000E+00  0.21031611967E+04  0.21031611967E+04  0.00000000000E+00 0. -1.
         -2   -1    0    0    0  501 -0.00000000000E+00 -0.00000000000E+00 -0.30127101397E+03  0.30127101397E+03  0.00000000000E+00 0.  1.
         23    2    1    2    0    0  0.15078706101E+03 -0.43281247468E+03  0.10314919015E+04  0.11323878558E+04  0.90902899101E+02 0.  0.
        254    2    1    2    0    0 -0.15078706101E+03  0.43281247468E+03  0.77039828124E+03  0.12720443549E+04  0.90250759169E+03 0.  0.
        -24    2    4    4    0    0  0.19471970874E+03 -0.12589629376E+03  0.49763091405E+03  0.55588220087E+03  0.87194339694E+02 0.  0.
         24    2    4    4    0    0 -0.34550676975E+03  0.55870876845E+03  0.27276736719E+03  0.71616215402E+03  0.83401309087E+02 0.  0.
         11    1    3    3    0    0  0.11636170931E+03 -0.22458675314E+03  0.62816616981E+03  0.67717944001E+03  0.00000000000E+00 0. -1.
        -11    1    3    3    0    0  0.34425351704E+02 -0.20822572154E+03  0.40332573173E+03  0.45520841581E+03  0.00000000000E+00 0.  1.
          2    1    6    6  502    0 -0.11742383775E+03  0.20521945552E+03  0.14115617896E+03  0.27536965965E+03  0.00000000000E+00 0. -1.
          3    1    5    5  503    0  0.73474311464E+02 -0.10437768002E+02  0.10074727023E+03  0.12512966836E+03  0.00000000000E+00 0. -1.
         -4    1    5    5    0  503  0.12124539727E+03 -0.11545852576E+03  0.39688364382E+03  0.43075253251E+03  0.00000000000E+00 0.  1.
         -1    1    6    6    0  502 -0.22808293200E+03  0.35348931293E+03  0.13161118823E+03  0.44079249437E+03  0.00000000000E+00 0.  1.
<mgrwt>
<rscale>  0 0.15920069E+04</rscale>
<asrwt>0</asrwt>
<pdfrwt beam="1">  1        2 0.32356325E+00 0.15920069E+04</pdfrwt>
<pdfrwt beam="2">  1       -2 0.46349388E-01 0.15920069E+04</pdfrwt>
<totfact> 0.24793505E+01</totfact>
</mgrwt>
</event>
<event>
12    1  0.1506149E-007  0.1689256E+04  0.7818608E-02  0.8767516E-01
          2   -1    0    0  501    0  0.00000000000E+00  0.00000000000E+00  0.10360077406E+04  0.10360077406E+04  0.00000000000E+00 0. -1.
         -2   -1    0    0    0  501 -0.00000000000E+00 -0.00000000000E+00 -0.68860166658E+03  0.68860166658E+03  0.00000000000E+00 0.  1.
         23    2    1    2    0    0 -0.47643522228E+03 -0.11832848313E+03  0.46443304083E+03  0.68210228263E+03  0.92592243716E+02 0.  0.
        254    2    1    2    0    0  0.47643522228E+03  0.11832848313E+03 -0.11702696677E+03  0.10425071246E+04  0.91221359501E+03 0.  0.
        -24    2    4    4    0    0  0.54119107315E+03  0.32311226891E+03 -0.34196554175E+03  0.72140303350E+03  0.78693004867E+02 0.  0.
         24    2    4    4    0    0 -0.64755850870E+02 -0.20478378578E+03  0.22493857499E+03  0.32110409109E+03  0.79879632326E+02 0.  0.
         13    1    3    3    0    0 -0.36630176296E+03 -0.62986583183E+02  0.38681903798E+03  0.53644501988E+03  0.00000000000E+00 0. -1.
        -13    1    3    3    0    0 -0.11013345933E+03 -0.55341899949E+02  0.77614002849E+02  0.14565726275E+03  0.00000000000E+00 0.  1.
          4    1    6    6  502    0 -0.65258426795E+02 -0.96964408073E+02  0.85360193150E+02  0.14473120353E+03  0.00000000000E+00 0. -1.
          3    1    5    5  503    0  0.39097054915E+03  0.23440040376E+03 -0.20609390436E+03  0.50027614075E+03  0.00000000000E+00 0. -1.
         -4    1    5    5    0  503  0.15022052400E+03  0.88711865143E+02 -0.13587163740E+03  0.22112689275E+03  0.00000000000E+00 0.  1.
         -3    1    6    6    0  502  0.50257592553E+00 -0.10781937770E+03  0.13957838184E+03  0.17637288756E+03  0.00000000000E+00 0.  1.
<mgrwt>
<rscale>  0 0.16892562E+04</rscale>
<asrwt>0</asrwt>
<pdfrwt beam="1">  1        2 0.15938581E+00 0.16892562E+04</pdfrwt>
<pdfrwt beam="2">  1       -2 0.10593872E+00 0.16892562E+04</pdfrwt>
<totfact> 0.16372625E+01</totfact>
</mgrwt>
</event>
<event>
12    1  0.1506149E-007  0.2485768E+04  0.7818608E-02  0.8408073E-01
         -2   -1    0    0    0  501 -0.00000000000E+00  0.00000000000E+00  0.17284964035E+04  0.17284964035E+04  0.00000000000E+00 0.  1.
          2   -1    0    0  501    0  0.00000000000E+00 -0.00000000000E+00 -0.89370191303E+03  0.89370191303E+03  0.00000000000E+00 0. -1.
         23    2    1    2    0    0  0.45256544463E+03 -0.73759972682E+03  0.10471559113E+04  0.13615706102E+04  0.92033610137E+02 0.  0.
        254    2    1    2    0    0 -0.45256544463E+03  0.73759972682E+03 -0.21236142082E+03  0.12606277063E+04  0.89174884479E+03 0.  0.
        -24    2    4    4    0    0 -0.78064826987E+02  0.22284746416E+03 -0.49863866363E+03  0.55770124273E+03  0.81455814881E+02 0.  0.
         24    2    4    4    0    0 -0.37450061764E+03  0.51475226266E+03  0.28627724281E+03  0.70292646358E+03  0.83248717212E+02 0.  0.
         11    1    3    3    0    0  0.17612488193E+03 -0.21018831099E+03  0.30774143050E+03  0.41219399335E+03  0.00000000000E+00 0. -1.
        -11    1    3    3    0    0  0.27644056270E+03 -0.52741141583E+03  0.73941448075E+03  0.94937661684E+03  0.00000000000E+00 0.  1.
          4    1    6    6  502    0 -0.29301004926E+03  0.44747298067E+03  0.22109757688E+03  0.57876687526E+03  0.00000000000E+00 0. -1.
          1    1    5    5  503    0 -0.36978159461E+02  0.19792769014E+03 -0.41416063469E+03  0.46051252549E+03  0.00000000000E+00 0. -1.
         -2    1    5    5    0  503 -0.41086667527E+02  0.24919774016E+02 -0.84478028945E+02  0.97188717246E+02  0.00000000000E+00 0.  1.
         -3    1    6    6    0  502 -0.81490568374E+02  0.67279281994E+02  0.65179665935E+02  0.12415958832E+03  0.00000000000E+00 0.  1.
<mgrwt>
<rscale>  0 0.24857679E+04</rscale>
<asrwt>0</asrwt>
<pdfrwt beam="1">  1        2 0.13749260E+00 0.24857679E+04</pdfrwt>
<pdfrwt beam="2">  1       -2 0.26592252E+00 0.24857679E+04</pdfrwt>
<totfact> 0.13571171E+00</totfact>
</mgrwt>
</event>
<event>
12    1  0.1506149E-007  0.1642307E+04  0.7818608E-02  0.8794971E-01
          2   -1    0    0  501    0  0.00000000000E+00  0.00000000000E+00  0.21441849422E+04  0.21441849422E+04  0.00000000000E+00 0. -1.
         -2   -1    0    0    0  501 -0.00000000000E+00 -0.00000000000E+00 -0.31447520276E+03  0.31447520276E+03  0.00000000000E+00 0.  1.
         23    2    1    2    0    0  0.33967193718E+03 -0.13938114275E+03  0.13155879866E+04  0.13689001634E+04  0.91168958270E+02 0.  0.
        254    2    1    2    0    0 -0.33967193718E+03  0.13938114275E+03  0.51412175283E+03  0.10897599816E+04  0.88794792237E+03 0.  0.
        -24    2    4    4    0    0 -0.77420818882E+02  0.37820939298E+03  0.59857531113E+03  0.71650810415E+03  0.77814729276E+02 0.  0.
         24    2    4    4    0    0 -0.26225111830E+03 -0.23882825023E+03 -0.84453558301E+02  0.37325187742E+03  0.79812143962E+02 0.  0.
         11    1    3    3    0    0  0.90617435559E+02 -0.46420045633E+02  0.52596285459E+03  0.53572685640E+03  0.00000000000E+00 0. -1.
        -11    1    3    3    0    0  0.24905450163E+03 -0.92961097114E+02  0.78962513202E+03  0.83317330699E+03  0.00000000000E+00 0.  1.
          4    1    6    6  502    0 -0.23289694194E+03 -0.23190712400E+03 -0.59286004416E+02  0.33397115152E+03  0.00000000000E+00 0. -1.
          3    1    5    5  503    0 -0.87571197941E+02  0.28004873067E+03  0.41764123037E+03  0.51041179802E+03  0.00000000000E+00 0. -1.
         -4    1    5    5    0  503  0.10150379059E+02  0.98160662313E+02  0.18093408076E+03  0.20609630613E+03  0.00000000000E+00 0.  1.
         -3    1    6    6    0  502 -0.29354176366E+02 -0.69211262300E+01 -0.25167553885E+02  0.39280725897E+02  0.00000000000E+00 0.  1.
<mgrwt>
<rscale>  0 0.16423069E+04</rscale>
<asrwt>0</asrwt>
<pdfrwt beam="1">  1        2 0.32987460E+00 0.16423069E+04</pdfrwt>
<pdfrwt beam="2">  1       -2 0.48380802E-01 0.16423069E+04</pdfrwt>
<totfact> 0.21479414E+01</totfact>
</mgrwt>
</event>
<event>
12    1  0.1506149E-007  0.1425455E+04  0.7818608E-02  0.8935596E-01
         -2   -1    0    0    0  501 -0.00000000000E+00  0.00000000000E+00  0.26255839429E+03  0.26255839429E+03  0.00000000000E+00 0.  1.
          2   -1    0    0  501    0  0.00000000000E+00 -0.00000000000E+00 -0.19347334641E+04  0.19347334641E+04  0.00000000000E+00 0. -1.
         23    2    1    2    0    0 -0.24653183528E+03  0.58182439116E+02 -0.10211368554E+04  0.10561665479E+04  0.92758597848E+02 0.  0.
        254    2    1    2    0    0  0.24653183528E+03 -0.58182439116E+02 -0.65103821443E+03  0.11411253105E+04  0.90230431426E+03 0.  0.
        -24    2    4    4    0    0 -0.14812271415E+03  0.27192996347E+03 -0.50881434189E+03  0.60134623562E+03  0.82698350035E+02 0.  0.
         24    2    4    4    0    0  0.39465454943E+03 -0.33011240258E+03 -0.14222387254E+03  0.53977907486E+03  0.80046286673E+02 0.  0.
         13    1    3    3    0    0 -0.23021947756E+03  0.72767895682E+02 -0.98280507733E+03  0.10120286530E+04  0.00000000000E+00 0. -1.
        -13    1    3    3    0    0 -0.16312357719E+02 -0.14585456566E+02 -0.38331778078E+02  0.44137894923E+02  0.00000000000E+00 0.  1.
          2    1    6    6  502    0  0.27522284554E+02 -0.62648167067E+01 -0.21709578575E+02  0.35609407147E+02  0.00000000000E+00 0. -1.
          1    1    5    5  503    0 -0.57870462477E+02  0.45809997299E+02 -0.84949343004E+02  0.11253415995E+03  0.00000000000E+00 0. -1.
         -2    1    5    5    0  503 -0.90252251669E+02  0.22611996617E+03 -0.42386499889E+03  0.48881207567E+03  0.00000000000E+00 0.  1.
         -1    1    6    6    0  502  0.36713226487E+03 -0.32384758588E+03 -0.12051429396E+03  0.50416966771E+03  0.00000000000E+00 0.  1.
<mgrwt>
<rscale>  0 0.14254550E+04</rscale>
<asrwt>0</asrwt>
<pdfrwt beam="1">  1        2 0.29765130E+00 0.14254550E+04</pdfrwt>
<pdfrwt beam="2">  1       -2 0.40393599E-01 0.14254550E+04</pdfrwt>
<totfact> 0.40954515E+01</totfact>
</mgrwt>
</event>
<event>
12    1  0.1506149E-007  0.1679505E+04  0.7818608E-02  0.8773141E-01
          1   -1    0    0  501    0  0.00000000000E+00  0.00000000000E+00  0.63028902354E+03  0.63028902354E+03  0.00000000000E+00 0. -1.
         -1   -1    0    0    0  501 -0.00000000000E+00 -0.00000000000E+00 -0.11188264263E+04  0.11188264263E+04  0.00000000000E+00 0.  1.
         23    2    1    2    0    0  0.42134285177E+03 -0.14172493957E+03  0.24208829599E+03  0.51390920597E+03  0.88770331162E+02 0.  0.
        254    2    1    2    0    0 -0.42134285177E+03  0.14172493957E+03 -0.73062569875E+03  0.12352062439E+04  0.89123778869E+03 0.  0.
        -24    2    4    4    0    0 -0.36575389143E+03  0.48775418534E+03 -0.33515524775E+03  0.69944712039E+03  0.72230047166E+02 0.  0.
         24    2    4    4    0    0 -0.55588960339E+02 -0.34602924577E+03 -0.39547045100E+03  0.53575912348E+03  0.88400165972E+02 0.  0.
         13    1    3    3    0    0  0.22975131561E+03 -0.96839418427E+02  0.89509520178E+02  0.26490657634E+03  0.00000000000E+00 0. -1.
        -13    1    3    3    0    0  0.19159153616E+03 -0.44885521147E+02  0.15257877581E+03  0.24900262964E+03  0.00000000000E+00 0.  1.
          4    1    6    6  502    0 -0.39710949240E+02 -0.16251000684E+03 -0.25107973061E+03  0.30170762824E+03  0.00000000000E+00 0. -1.
          1    1    5    5  503    0 -0.28959122603E+03  0.35624198743E+03 -0.22189503269E+03  0.50991061701E+03  0.00000000000E+00 0. -1.
         -2    1    5    5    0  503 -0.76162665398E+02  0.13151219791E+03 -0.11326021505E+03  0.18953650338E+03  0.00000000000E+00 0.  1.
         -3    1    6    6    0  502 -0.15878011099E+02 -0.18351923892E+03 -0.14439072038E+03  0.23405149524E+03  0.00000000000E+00 0.  1.
<mgrwt>
<rscale>  0 0.16795047E+04</rscale>
<asrwt>0</asrwt>
<pdfrwt beam="1">  1        1 0.96967543E-01 0.16795047E+04</pdfrwt>
<pdfrwt beam="2">  1       -1 0.17212714E+00 0.16795047E+04</pdfrwt>
<totfact> 0.72117623E+00</totfact>
</mgrwt>
</event>
<event>
12    1  0.1506149E-007  0.1941147E+04  0.7818608E-02  0.8634641E-01
         -1   -1    0    0    0  501 -0.00000000000E+00  0.00000000000E+00  0.54112605791E+03  0.54112605791E+03  0.00000000000E+00 0.  1.
          1   -1    0    0  501    0  0.00000000000E+00 -0.00000000000E+00 -0.17408388751E+04  0.17408388751E+04  0.00000000000E+00 0. -1.
         23    2    1    2    0    0 -0.67866365580E+03  0.15022497192E+03 -0.81841405289E+03  0.10804195688E+04  0.11980393470E+03 0.  0.
        254    2    1    2    0    0  0.67866365580E+03 -0.15022497192E+03 -0.38129876432E+03  0.12015453642E+04  0.90286799411E+03 0.  0.
        -24    2    4    4    0    0 -0.12392870761E+02 -0.18865147587E+03 -0.45612520853E+03  0.50077706269E+03  0.83573309513E+02 0.  0.
         24    2    4    4    0    0  0.69105652656E+03  0.38426503949E+02  0.74826444214E+02  0.70076830156E+03  0.80258934757E+02 0.  0.
         11    1    3    3    0    0 -0.55754603612E+03  0.16909042641E+03 -0.68419649421E+03  0.89865121008E+03  0.00000000000E+00 0. -1.
        -11    1    3    3    0    0 -0.12111761968E+03 -0.18865454484E+02 -0.13421755868E+03  0.18176835871E+03  0.00000000000E+00 0.  1.
          4    1    6    6  502    0  0.27089388535E+03  0.30663216395E+02  0.65729247246E+02  0.28043548973E+03  0.00000000000E+00 0. -1.
          1    1    5    5  503    0  0.34656005453E+02 -0.76077939946E+02 -0.21121977471E+03  0.22716224354E+03  0.00000000000E+00 0. -1.
         -2    1    5    5    0  503 -0.47048876214E+02 -0.11257353593E+03 -0.24490543382E+03  0.27361481915E+03  0.00000000000E+00 0.  1.
         -3    1    6    6    0  502  0.42016264121E+03  0.77632875544E+01  0.90971969682E+01  0.42033281182E+03  0.00000000000E+00 0.  1.
<mgrwt>
<rscale>  0 0.19411474E+04</rscale>
<asrwt>0</asrwt>
<pdfrwt beam="1">  1        1 0.26782136E+00 0.19411474E+04</pdfrwt>
<pdfrwt beam="2">  1       -1 0.83250164E-01 0.19411474E+04</pdfrwt>
<totfact> 0.59678573E+00</totfact>
</mgrwt>
</event>
<event>
12    1  0.1506149E-007  0.2855181E+04  0.7818608E-02  0.8286339E-01
          2   -1    0    0  501    0  0.00000000000E+00  0.00000000000E+00  0.14568005735E+04  0.14568005735E+04  0.00000000000E+00 0. -1.
         -2   -1    0    0    0  501 -0.00000000000E+00 -0.00000000000E+00 -0.13989665613E+04  0.13989665613E+04  0.00000000000E+00 0.  1.
         23    2    1    2    0    0 -0.46039561561E+01  0.25901261236E+02 -0.12573896108E+04  0.12633185041E+04  0.11938566743E+03 0.  0.
        254    2    1    2    0    0  0.46039561561E+01 -0.25901261236E+02  0.13152236230E+04  0.15924486307E+04  0.89743378091E+03 0.  0.
        -24    2    4    4    0    0  0.19591377774E+03  0.18411468510E+03  0.39961040285E+02  0.28345688088E+03  0.80439374693E+02 0.  0.
         24    2    4    4    0    0 -0.19130982158E+03 -0.21001594634E+03  0.12752625827E+04  0.13089917498E+04  0.80365419225E+02 0.  0.
         11    1    3    3    0    0 -0.13800975856E+02 -0.31574506818E+02 -0.13196928555E+03  0.13639394687E+03  0.00000000000E+00 0. -1.
        -11    1    3    3    0    0  0.91970197003E+01  0.57475768054E+02 -0.11254203253E+04  0.11269245572E+04  0.00000000000E+00 0.  1.
          2    1    6    6  502    0 -0.16900086039E+03 -0.18240953487E+03  0.12036244198E+04  0.12290428280E+04  0.00000000000E+00 0. -1.
          3    1    5    5  503    0  0.61472470413E+02  0.62616866877E+02 -0.24534924278E+02  0.91113660587E+02  0.00000000000E+00 0. -1.
         -4    1    5    5    0  503  0.13444130733E+03  0.12149781823E+03  0.64495964563E+02  0.19234322030E+03  0.00000000000E+00 0.  1.
         -1    1    6    6    0  502 -0.22308961195E+02 -0.27606411472E+02  0.71638162941E+02  0.79948921779E+02  0.00000000000E+00 0.  1.
<mgrwt>
<rscale>  0 0.28551815E+04</rscale>
<asrwt>0</asrwt>
<pdfrwt beam="1">  1        2 0.22412316E+00 0.28551815E+04</pdfrwt>
<pdfrwt beam="2">  1       -2 0.21522563E+00 0.28551815E+04</pdfrwt>
<totfact> 0.12332256E+00</totfact>
</mgrwt>
</event>
<event>
12    1  0.1506149E-007  0.1902344E+04  0.7818608E-02  0.8653690E-01
         -1   -1    0    0    0  501 -0.00000000000E+00  0.00000000000E+00  0.29887739227E+03  0.29887739227E+03  0.00000000000E+00 0.  1.
          1   -1    0    0  501    0  0.00000000000E+00 -0.00000000000E+00 -0.30270894917E+04  0.30270894917E+04  0.00000000000E+00 0. -1.
         23    2    1    2    0    0 -0.58535888364E+03 -0.37629777692E+03 -0.17159884165E+04  0.18540035199E+04  0.92020469730E+02 0.  0.
        254    2    1    2    0    0  0.58535888364E+03  0.37629777692E+03 -0.10122236829E+04  0.14719633640E+04  0.81106986206E+03 0.  0.
        -24    2    4    4    0    0  0.58059842552E+02 -0.17312989330E+03  0.47392705104E+01  0.19898489524E+03  0.78915287335E+02 0.  0.
         24    2    4    4    0    0  0.52729904109E+03  0.54942767022E+03 -0.10169629534E+04  0.12729784688E+04  0.79658582523E+02 0.  0.
         11    1    3    3    0    0 -0.43799903628E+03 -0.25098230123E+03 -0.11515970973E+04  0.12573826569E+04  0.00000000000E+00 0. -1.
        -11    1    3    3    0    0 -0.14735984736E+03 -0.12531547569E+03 -0.56439131919E+03  0.59662086306E+03  0.00000000000E+00 0.  1.
          4    1    6    6  502    0  0.72940574478E+02  0.72265656155E+02 -0.95793262086E+02  0.14042436229E+03  0.00000000000E+00 0. -1.
          3    1    5    5  503    0  0.50221251402E+02 -0.44504894055E+02 -0.14613547631E+02  0.68676163708E+02  0.00000000000E+00 0. -1.
         -4    1    5    5    0  503  0.78385911502E+01 -0.12862499925E+03  0.19352818142E+02  0.13030873153E+03  0.00000000000E+00 0.  1.
         -3    1    6    6    0  502  0.45435846661E+03  0.47716201407E+03 -0.92116969133E+03  0.11325541065E+04  0.00000000000E+00 0.  1.
<mgrwt>
<rscale>  0 0.19023445E+04</rscale>
<asrwt>0</asrwt>
<pdfrwt beam="1">  1        1 0.46570609E+00 0.19023445E+04</pdfrwt>
<pdfrwt beam="2">  1       -1 0.45981136E-01 0.19023445E+04</pdfrwt>
<totfact> 0.25190695E+00</totfact>
</mgrwt>
</event>
<event>
12    1  0.1506149E-007  0.1240415E+04  0.7818608E-02  0.9078199E-01
          1   -1    0    0  501    0  0.00000000000E+00  0.00000000000E+00  0.28582871730E+04  0.28582871730E+04  0.00000000000E+00 0. -1.
         -1   -1    0    0    0  501 -0.00000000000E+00 -0.00000000000E+00 -0.13457619682E+03  0.13457619682E+03  0.00000000000E+00 0.  1.
         23    2    1    2    0    0 -0.15081173645E+02  0.10977434488E+03  0.12573760398E+04  0.12677620854E+04  0.11810313692E+03 0.  0.
        254    2    1    2    0    0  0.15081173645E+02 -0.10977434488E+03  0.14663349363E+04  0.17251012844E+04  0.90197474880E+03 0.  0.
        -24    2    4    4    0    0  0.82438698097E+02  0.29250300175E+03  0.15736526670E+03  0.35174169607E+03  0.81266528286E+02 0.  0.
         24    2    4    4    0    0 -0.67357524452E+02 -0.40227734663E+03  0.13089696696E+04  0.13733595883E+04  0.79692303547E+02 0.  0.
         13    1    3    3    0    0 -0.15909699501E+02  0.10499987863E+03  0.53861493822E+03  0.54898464890E+03  0.00000000000E+00 0.  1.
        -13    1    3    3    0    0  0.82852585615E+00  0.47744662466E+01  0.71876110160E+03  0.71877743646E+03  0.00000000000E+00 0. -1.
          2    1    6    6  502    0 -0.25684746350E+02 -0.33771315678E+03  0.10755748084E+04  0.11276395927E+04  0.00000000000E+00 0. -1.
          3    1    5    5  503    0  0.43711719099E+02  0.25541322781E+03  0.14411464774E+03  0.29650575546E+03  0.00000000000E+00 0. -1.
         -4    1    5    5    0  503  0.38726978998E+02  0.37089773936E+02  0.13250618961E+02  0.55235940616E+02  0.00000000000E+00 0.  1.
         -1    1    6    6    0  502 -0.41672778102E+02 -0.64564189848E+02  0.23339486117E+03  0.24571999566E+03  0.00000000000E+00 0.  1.
<mgrwt>
<rscale>  0 0.12404151E+04</rscale>
<asrwt>0</asrwt>
<pdfrwt beam="1">  1        1 0.43973644E+00 0.12404151E+04</pdfrwt>
<pdfrwt beam="2">  1       -1 0.20704032E-01 0.12404151E+04</pdfrwt>
<totfact> 0.14560818E+01</totfact>
</mgrwt>
</event>
<event>
12    1  0.1506149E-007  0.1578785E+04  0.7818608E-02  0.8833688E-01
         -1   -1    0    0    0  501 -0.00000000000E+00  0.00000000000E+00  0.43914467687E+03  0.43914467687E+03  0.00000000000E+00 0.  1.
          1   -1    0    0  501    0  0.00000000000E+00 -0.00000000000E+00 -0.14189862002E+04  0.14189862002E+04  0.00000000000E+00 0. -1.
         23    2    1    2    0    0  0.19869516003E+03 -0.39979926954E+03 -0.60167337000E+03  0.75541739045E+03  0.96567940247E+02 0.  0.
        254    2    1    2    0    0 -0.19869516003E+03  0.39979926954E+03 -0.37816815333E+03  0.11027134866E+04  0.93469067549E+03 0.  0.
        -24    2    4    4    0    0 -0.54995873022E+03  0.21737942222E+03 -0.84116256598E+02  0.60274744342E+03  0.80749723098E+02 0.  0.
         24    2    4    4    0    0  0.35126357018E+03  0.18241984732E+03 -0.29405189674E+03  0.49996604320E+03  0.82682706455E+02 0.  0.
         13    1    3    3    0    0  0.17031777841E+03 -0.28019532279E+03 -0.48839420266E+03  0.58825713914E+03  0.00000000000E+00 0. -1.
        -13    1    3    3    0    0  0.28377381627E+02 -0.11960394675E+03 -0.11327916734E+03  0.16716025131E+03  0.00000000000E+00 0.  1.
          2    1    6    6  502    0  0.97149542510E+02  0.51450503140E+02 -0.38390055816E+02  0.11644305161E+03  0.00000000000E+00 0. -1.
          1    1    5    5  503    0 -0.13523279907E+03  0.20461870491E+02 -0.33878978004E+02  0.14090558271E+03  0.00000000000E+00 0. -1.
         -2    1    5    5    0  503 -0.41472593115E+03  0.19691755173E+03 -0.50237278594E+02  0.46184186072E+03  0.00000000000E+00 0.  1.
         -1    1    6    6    0  502  0.25411402767E+03  0.13096934418E+03 -0.25566184092E+03  0.38352299159E+03  0.00000000000E+00 0.  1.
<mgrwt>
<rscale>  0 0.15787846E+04</rscale>
<asrwt>0</asrwt>
<pdfrwt beam="1">  1        1 0.21830557E+00 0.15787846E+04</pdfrwt>
<pdfrwt beam="2">  1       -1 0.67560721E-01 0.15787846E+04</pdfrwt>
<totfact> 0.15888590E+01</totfact>
</mgrwt>
</event>
<event>
12    1  0.1506149E-007  0.1622624E+04  0.7818608E-02  0.8806769E-01
         -2   -1    0    0    0  501 -0.00000000000E+00  0.00000000000E+00  0.64509553967E+03  0.64509553967E+03  0.00000000000E+00 0. -1.
          2   -1    0    0  501    0  0.00000000000E+00 -0.00000000000E+00 -0.10203555494E+04  0.10203555494E+04  0.00000000000E+00 0.  1.
         23    2    1    2    0    0  0.51038016150E+03 -0.17558012653E+03 -0.26703526524E+03  0.60919167866E+03  0.92143249235E+02 0.  0.
        254    2    1    2    0    0 -0.51038016150E+03  0.17558012653E+03 -0.10822474452E+03  0.10562594104E+04  0.90147382475E+03 0.  0.
        -24    2    4    4    0    0 -0.52168517525E+03  0.30545026657E+03 -0.39894532558E+03  0.72836298321E+03  0.76811295245E+02 0.  0.
         24    2    4    4    0    0  0.11305013747E+02 -0.12987014005E+03  0.29072058107E+03  0.32789642722E+03  0.77482605265E+02 0.  0.
         11    1    3    3    0    0  0.45337477852E+03 -0.12439522117E+03 -0.24079881941E+03  0.52821106792E+03  0.00000000000E+00 0.  1.
        -11    1    3    3    0    0  0.57005382985E+02 -0.51184905358E+02 -0.26236445834E+02  0.80980610740E+02  0.00000000000E+00 0. -1.
          4    1    6    6  502    0  0.13547253004E+02 -0.92647603599E+02  0.11517103865E+03  0.14843003288E+03  0.00000000000E+00 0. -1.
          1    1    5    5  503    0 -0.18711203445E+03  0.12723932103E+03 -0.10927091580E+03  0.25127851339E+03  0.00000000000E+00 0. -1.
         -2    1    5    5    0  503 -0.33457314080E+03  0.17821094554E+03 -0.28967440979E+03  0.47708446982E+03  0.00000000000E+00 0.  1.
         -3    1    6    6    0  502 -0.22422392573E+01 -0.37222536447E+02  0.17554954242E+03  0.17946639434E+03  0.00000000000E+00 0.  1.
<mgrwt>
<rscale>  0 0.16226236E+04</rscale>
<asrwt>0</asrwt>
<pdfrwt beam="1">  1        2 0.15697778E+00 0.16226236E+04</pdfrwt>
<pdfrwt beam="2">  1       -2 0.99245468E-01 0.16226236E+04</pdfrwt>
<totfact> 0.19681180E+01</totfact>
</mgrwt>
</event>
<event>
12    1  0.1506149E-007  0.1968557E+04  0.7818608E-02  0.8621464E-01
         -1   -1    0    0    0  501 -0.00000000000E+00  0.00000000000E+00  0.46626511244E+03  0.46626511244E+03  0.00000000000E+00 0.  1.
          1   -1    0    0  501    0  0.00000000000E+00 -0.00000000000E+00 -0.20777975397E+04  0.20777975397E+04  0.00000000000E+00 0. -1.
         23    2    1    2    0    0 -0.31663293570E+02 -0.10062179416E+03  0.35333292619E+03  0.37960076383E+03  0.90140299267E+02 0.  0.
        254    2    1    2    0    0  0.31663293570E+02  0.10062179416E+03 -0.19648653534E+04  0.21644618883E+04  0.90170510652E+03 0.  0.
        -24    2    4    4    0    0  0.25319331811E+03  0.25514883891E+03 -0.29691196273E+03  0.47278857706E+03  0.78514576033E+02 0.  0.
         24    2    4    4    0    0 -0.22153002454E+03 -0.15452704476E+03 -0.16679533907E+04  0.16916733112E+04  0.82072645061E+02 0.  0.
         13    1    3    3    0    0 -0.23862813087E+02 -0.73171793102E+01  0.16315621513E+02  0.29819028603E+02  0.00000000000E+00 0. -1.
        -13    1    3    3    0    0 -0.78004804834E+01 -0.93304614847E+02  0.33701730467E+03  0.34978173522E+03  0.00000000000E+00 0.  1.
          4    1    6    6  502    0 -0.75993471095E+02 -0.85425783260E+02 -0.88180080323E+03  0.88918233713E+03  0.00000000000E+00 0. -1.
          1    1    5    5  503    0  0.15392008338E+03  0.16108997904E+03 -0.13363934017E+03  0.25980925052E+03  0.00000000000E+00 0. -1.
         -2    1    5    5    0  503  0.99273234733E+02  0.94058859871E+02 -0.16327262257E+03  0.21297932654E+03  0.00000000000E+00 0.  1.
         -3    1    6    6    0  502 -0.14553655344E+03 -0.69101261495E+02 -0.78615258745E+03  0.80249097408E+03  0.00000000000E+00 0.  1.
<mgrwt>
<rscale>  0 0.19685573E+04</rscale>
<asrwt>0</asrwt>
<pdfrwt beam="1">  1        1 0.31966116E+00 0.19685573E+04</pdfrwt>
<pdfrwt beam="2">  1       -1 0.71733094E-01 0.19685573E+04</pdfrwt>
<totfact> 0.48145286E+00</totfact>
</mgrwt>
</event>
<event>
12    1  0.1506149E-007  0.1305198E+04  0.7818608E-02  0.9025453E-01
         -1   -1    0    0    0  501 -0.00000000000E+00  0.00000000000E+00  0.58091055847E+03  0.58091055847E+03  0.00000000000E+00 0.  1.
          1   -1    0    0  501    0  0.00000000000E+00 -0.00000000000E+00 -0.73313408933E+03  0.73313408933E+03  0.00000000000E+00 0. -1.
         23    2    1    2    0    0 -0.53025767086E+02 -0.29901721611E+03 -0.15682955674E+03  0.35396437789E+03  0.92044790422E+02 0.  0.
        254    2    1    2    0    0  0.53025767086E+02  0.29901721611E+03  0.46060258812E+01  0.96008026992E+03  0.91077433083E+03 0.  0.
        -24    2    4    4    0    0 -0.64849711045E+02 -0.23020945634E+03  0.25563032905E+03  0.35755958334E+03  0.72801866051E+02 0.  0.
         24    2    4    4    0    0  0.11787547813E+03  0.52922667245E+03 -0.25102430317E+03  0.60252068658E+03  0.77733376362E+02 0.  0.
         13    1    3    3    0    0  0.25741772231E+01 -0.48761383524E+02 -0.65769748944E+02  0.81914338108E+02  0.00000000000E+00 0. -1.
        -13    1    3    3    0    0 -0.55599944309E+02 -0.25025583259E+03 -0.91059807797E+02  0.27205003978E+03  0.00000000000E+00 0.  1.
          2    1    6    6  502    0  0.10302519035E+03  0.29138427038E+03 -0.13070710513E+03  0.33556419685E+03  0.00000000000E+00 0. -1.
          3    1    5    5  503    0 -0.58024058774E+02 -0.17939240023E+03  0.23735467203E+03  0.30312648349E+03  0.00000000000E+00 0. -1.
         -4    1    5    5    0  503 -0.68256522711E+01 -0.50817056103E+02  0.18275657015E+02  0.54433099849E+02  0.00000000000E+00 0.  1.
         -1    1    6    6    0  502  0.14850287778E+02  0.23784240206E+03 -0.12031719803E+03  0.26695648973E+03  0.00000000000E+00 0.  1.
<mgrwt>
<rscale>  0 0.13051978E+04</rscale>
<asrwt>0</asrwt>
<pdfrwt beam="1">  1        1 0.11278986E+00 0.13051978E+04</pdfrwt>
<pdfrwt beam="2">  1       -1 0.89370856E-01 0.13051978E+04</pdfrwt>
<totfact> 0.30589335E+01</totfact>
</mgrwt>
</event>
<event>
12    1  0.1506149E-007  0.1937933E+04  0.7818608E-02  0.8636202E-01
          2   -1    0    0  501    0  0.00000000000E+00  0.00000000000E+00  0.10491712377E+04  0.10491712377E+04  0.00000000000E+00 0.  1.
         -2   -1    0    0    0  501 -0.00000000000E+00 -0.00000000000E+00 -0.89489349865E+03  0.89489349865E+03  0.00000000000E+00 0. -1.
         23    2    1    2    0    0  0.51919508001E+03 -0.11231431722E+03 -0.48440145898E+03  0.72466471767E+03  0.91192886854E+02 0.  0.
        254    2    1    2    0    0 -0.51919508001E+03  0.11231431722E+03  0.63867919799E+03  0.12194000187E+04  0.89266301066E+03 0.  0.
        -24    2    4    4    0    0  0.14507094164E+03  0.17470161757E+03  0.46904158026E+03  0.52645897132E+03  0.74785099993E+02 0.  0.
         24    2    4    4    0    0 -0.66426602165E+03 -0.62387300355E+02  0.16963761773E+03  0.69294104734E+03  0.79049674083E+02 0.  0.
         11    1    3    3    0    0  0.38666563339E+03 -0.77898981037E+02 -0.30296433043E+03  0.49735897379E+03  0.00000000000E+00 0. -1.
        -11    1    3    3    0    0  0.13252944662E+03 -0.34415336178E+02 -0.18143712855E+03  0.22730574388E+03  0.00000000000E+00 0.  1.
          4    1    6    6  502    0 -0.23073609136E+03 -0.18137010422E+02  0.20536042581E+02  0.23235710458E+03  0.00000000000E+00 0. -1.
          1    1    5    5  503    0  0.13127933708E+03  0.17324067498E+03  0.46269373201E+03  0.51120649981E+03  0.00000000000E+00 0. -1.
         -2    1    5    5    0  503  0.13791604562E+02  0.14609425925E+01  0.63478482496E+01  0.15252471506E+02  0.00000000000E+00 0.  1.
         -3    1    6    6    0  502 -0.43352993029E+03 -0.44250289933E+02  0.14910157515E+03  0.46058394276E+03  0.00000000000E+00 0.  1.
<mgrwt>
<rscale>  0 0.19379335E+04</rscale>
<asrwt>0</asrwt>
<pdfrwt beam="1">  1        2 0.16141096E+00 0.19379335E+04</pdfrwt>
<pdfrwt beam="2">  1       -2 0.13767592E+00 0.19379335E+04</pdfrwt>
<totfact> 0.82085177E+00</totfact>
</mgrwt>
</event>
<event>
12    1  0.1506149E-007  0.1333948E+04  0.7818608E-02  0.9003069E-01
          2   -1    0    0  501    0  0.00000000000E+00  0.00000000000E+00  0.15805116455E+04  0.15805116455E+04  0.00000000000E+00 0. -1.
         -2   -1    0    0    0  501 -0.00000000000E+00 -0.00000000000E+00 -0.28146216435E+03  0.28146216435E+03  0.00000000000E+00 0.  1.
         23    2    1    2    0    0 -0.17702716028E+03  0.69641236752E+02 -0.60954841584E+02  0.22230005040E+03  0.97536159258E+02 0.  0.
        254    2    1    2    0    0  0.17702716028E+03 -0.69641236752E+02  0.13600043227E+04  0.16396737594E+04  0.89595187495E+03 0.  0.
        -24    2    4    4    0    0  0.47047842319E+03  0.10531770232E+03  0.10960641130E+04  0.12005655777E+04  0.86944817711E+02 0.  0.
         24    2    4    4    0    0 -0.29345126291E+03 -0.17495893907E+03  0.26394020970E+03  0.43910818177E+03  0.80170361928E+02 0.  0.
         11    1    3    3    0    0 -0.10597850335E+03  0.26604170027E+02  0.14318703596E+02  0.11020095421E+03  0.00000000000E+00 0. -1.
        -11    1    3    3    0    0 -0.71048656927E+02  0.43037066725E+02 -0.75273545179E+02  0.11209909619E+03  0.00000000000E+00 0.  1.
          4    1    6    6  502    0 -0.62006344304E+02 -0.77168336270E+02  0.87125918872E+02  0.13187366908E+03  0.00000000000E+00 0. -1.
          3    1    5    5  503    0  0.35782654043E+03  0.11724745551E+03  0.83384635614E+03  0.91492433814E+03  0.00000000000E+00 0. -1.
         -2    1    5    5    0  503  0.11265188276E+03 -0.11929753199E+02  0.26221775688E+03  0.28564123953E+03  0.00000000000E+00 0.  1.
         -3    1    6    6    0  502 -0.23144491861E+03 -0.97790602797E+02  0.17681429083E+03  0.30723451269E+03  0.00000000000E+00 0.  1.
<mgrwt>
<rscale>  0 0.13339479E+04</rscale>
<asrwt>0</asrwt>
<pdfrwt beam="1">  1        2 0.24315563E+00 0.13339479E+04</pdfrwt>
<pdfrwt beam="2">  1       -2 0.43301873E-01 0.13339479E+04</pdfrwt>
<totfact> 0.56534375E+01</totfact>
</mgrwt>
</event>
<event>
12    1  0.1506149E-007  0.1214733E+04  0.7818608E-02  0.9100058E-01
         -2   -1    0    0    0  501 -0.00000000000E+00  0.00000000000E+00  0.41697087276E+03  0.41697087276E+03  0.00000000000E+00 0.  1.
          2   -1    0    0  501    0  0.00000000000E+00 -0.00000000000E+00 -0.88469930384E+03  0.88469930384E+03  0.00000000000E+00 0. -1.
         23    2    1    2    0    0  0.27428185231E+03  0.13553684544E+01 -0.16121095774E+03  0.32953351960E+03  0.85854505510E+02 0.  0.
        254    2    1    2    0    0 -0.27428185231E+03 -0.13553684544E+01 -0.30651747334E+03  0.97213665700E+03  0.88083162233E+03 0.  0.
        -24    2    4    4    0    0  0.41437530602E+02 -0.11429542835E+03  0.26627218176E+03  0.30366931558E+03  0.80831086616E+02 0.  0.
         24    2    4    4    0    0 -0.31571938291E+03  0.11294005990E+03 -0.57278965510E+03  0.66846734142E+03  0.79538743283E+02 0.  0.
         13    1    3    3    0    0  0.36915906078E+02 -0.25041849490E+02 -0.67687233095E+01  0.45118665347E+02  0.00000000000E+00 0. -1.
        -13    1    3    3    0    0  0.23736594623E+03  0.26397217944E+02 -0.15444223443E+03  0.28441485425E+03  0.00000000000E+00 0.  1.
          4    1    6    6  502    0 -0.21308354778E+02  0.16352817446E+02 -0.15987083379E+02  0.31257758344E+02  0.00000000000E+00 0. -1.
          1    1    5    5  503    0  0.35978531207E+02 -0.73167620381E+01  0.92684736566E+02  0.99691775523E+02  0.00000000000E+00 0. -1.
         -2    1    5    5    0  503  0.54589993953E+01 -0.10697866631E+03  0.17358744519E+03  0.20397754006E+03  0.00000000000E+00 0.  1.
         -3    1    6    6    0  502 -0.29441102813E+03  0.96587242450E+02 -0.55680257172E+03  0.63720958308E+03  0.00000000000E+00 0.  1.
<mgrwt>
<rscale>  0 0.12147326E+04</rscale>
<asrwt>0</asrwt>
<pdfrwt beam="1">  1        2 0.13610758E+00 0.12147326E+04</pdfrwt>
<pdfrwt beam="2">  1       -2 0.64149365E-01 0.12147326E+04</pdfrwt>
<totfact> 0.66512449E+01</totfact>
</mgrwt>
</event>
<event>
12    1  0.1506149E-007  0.1506004E+04  0.7818608E-02  0.8880470E-01
         -2   -1    0    0    0  501 -0.00000000000E+00  0.00000000000E+00  0.13228091330E+04  0.13228091330E+04  0.00000000000E+00 0.  1.
          2   -1    0    0  501    0  0.00000000000E+00 -0.00000000000E+00 -0.42864219649E+03  0.42864219649E+03  0.00000000000E+00 0. -1.
         23    2    1    2    0    0  0.12578418565E+03 -0.11880502526E+03 -0.23296891714E+03  0.30452939954E+03  0.92343616137E+02 0.  0.
        254    2    1    2    0    0 -0.12578418565E+03  0.11880502526E+03  0.11271358537E+04  0.14469219300E+04  0.89062424369E+03 0.  0.
        -24    2    4    4    0    0  0.47830207100E+02  0.12881903775E+03  0.12232001608E+04  0.12335488230E+04  0.80882582209E+02 0.  0.
         24    2    4    4    0    0 -0.17361439275E+03 -0.10014012493E+02 -0.96064307106E+02  0.21337310702E+03  0.77829903516E+02 0.  0.
         11    1    3    3    0    0  0.10529186668E+03 -0.44875091512E+02 -0.17168536112E+03  0.20633956055E+03  0.00000000000E+00 0. -1.
        -11    1    3    3    0    0  0.20492318976E+02 -0.73929933748E+02 -0.61283556020E+02  0.98189838983E+02  0.00000000000E+00 0.  1.
          4    1    6    6  502    0 -0.11787153517E+03  0.23219266373E+02 -0.85891949966E+02  0.14768297195E+03  0.00000000000E+00 0. -1.
          1    1    5    5  503    0  0.57417440154E+02  0.11223396442E+03  0.79617615043E+03  0.80609533414E+03  0.00000000000E+00 0. -1.
         -2    1    5    5    0  503 -0.95872330545E+01  0.16585073332E+02  0.42702401037E+03  0.42745348885E+03  0.00000000000E+00 0.  1.
         -3    1    6    6    0  502 -0.55742857584E+02 -0.33233278866E+02 -0.10172357140E+02  0.65690135071E+02  0.00000000000E+00 0.  1.
<mgrwt>
<rscale>  0 0.15060037E+04</rscale>
<asrwt>0</asrwt>
<pdfrwt beam="1">  1        2 0.65944954E-01 0.15060037E+04</pdfrwt>
<pdfrwt beam="2">  1       -2 0.20350910E+00 0.15060037E+04</pdfrwt>
<totfact> 0.89481784E+00</totfact>
</mgrwt>
</event>
<event>
12    1  0.1506149E-007  0.1672768E+04  0.7818608E-02  0.8777050E-01
          2   -1    0    0  501    0  0.00000000000E+00  0.00000000000E+00  0.13996184901E+04  0.13996184901E+04  0.00000000000E+00 0. -1.
         -2   -1    0    0    0  501 -0.00000000000E+00 -0.00000000000E+00 -0.49980663674E+03  0.49980663674E+03  0.00000000000E+00 0.  1.
         23    2    1    2    0    0 -0.13885518300E+03  0.41804716499E+03  0.76899582346E+03  0.89089064415E+03  0.91034989594E+02 0.  0.
        254    2    1    2    0    0  0.13885518300E+03 -0.41804716499E+03  0.13081602988E+03  0.10085344827E+04  0.89776654818E+03 0.  0.
        -24    2    4    4    0    0  0.83984707470E+02 -0.27594215769E+03  0.51033850812E+03  0.59191148212E+03  0.81953061661E+02 0.  0.
         24    2    4    4    0    0  0.54870475534E+02 -0.14210500730E+03 -0.37952247824E+03  0.41662300054E+03  0.79578960170E+02 0.  0.
         11    1    3    3    0    0 -0.76419037749E+01  0.12020848841E+03  0.26287917893E+03  0.28916075476E+03  0.00000000000E+00 0.  1.
        -11    1    3    3    0    0 -0.13121327923E+03  0.29783867658E+03  0.50611664453E+03  0.60172988939E+03  0.00000000000E+00 0. -1.
          4    1    6    6  502    0  0.20092352652E+02 -0.12014055047E+03 -0.21572033658E+03  0.24773517739E+03  0.00000000000E+00 0. -1.
          1    1    5    5  503    0  0.60667145176E+02 -0.85193521253E+02  0.22201105541E+03  0.24541260622E+03  0.00000000000E+00 0. -1.
         -2    1    5    5    0  503  0.23317562294E+02 -0.19074863644E+03  0.28832745272E+03  0.34649887591E+03  0.00000000000E+00 0.  1.
         -3    1    6    6    0  502  0.34778122882E+02 -0.21964456835E+02 -0.16380214166E+03  0.16888782315E+03  0.00000000000E+00 0.  1.
<mgrwt>
<rscale>  0 0.16727685E+04</rscale>
<asrwt>0</asrwt>
<pdfrwt beam="1">  1        2 0.21532592E+00 0.16727685E+04</pdfrwt>
<pdfrwt beam="2">  1       -2 0.76893329E-01 0.16727685E+04</pdfrwt>
<totfact> 0.20855528E+01</totfact>
</mgrwt>
</event>
<event>
12    1  0.1506149E-007  0.2267827E+04  0.7818608E-02  0.8490716E-01
         -2   -1    0    0    0  501 -0.00000000000E+00  0.00000000000E+00  0.63855036878E+03  0.63855036878E+03  0.00000000000E+00 0.  1.
          2   -1    0    0  501    0  0.00000000000E+00 -0.00000000000E+00 -0.20135603390E+04  0.20135603390E+04  0.00000000000E+00 0. -1.
         23    2    1    2    0    0  0.94700471373E+03  0.13926710974E+02 -0.31451665523E+03  0.10019149469E+04  0.88887306644E+02 0.  0.
        254    2    1    2    0    0 -0.94700471373E+03 -0.13926710974E+02 -0.10604933150E+04  0.16501957609E+04  0.83754886247E+03 0.  0.
        -24    2    4    4    0    0 -0.92691542049E+02 -0.16110655778E+03 -0.66318213892E+03  0.69328337481E+03  0.79273220410E+02 0.  0.
         24    2    4    4    0    0 -0.85431317168E+03  0.14717984680E+03 -0.39731117608E+03  0.95691238610E+03  0.79449615561E+02 0.  0.
         13    1    3    3    0    0  0.11980623717E+03 -0.65961318880E+01 -0.10759900973E+02  0.12046916157E+03  0.00000000000E+00 0. -1.
        -13    1    3    3    0    0  0.82719847656E+03  0.20522842862E+02 -0.30375675425E+03  0.88144578531E+03  0.00000000000E+00 0.  1.
          2    1    6    6  502    0 -0.45618663391E+03  0.77652655243E+02 -0.25552728490E+03  0.52861174140E+03  0.00000000000E+00 0. -1.
          1    1    5    5  503    0  0.45064547014E+01 -0.26962671336E+02 -0.39925703896E+02  0.48387556367E+02  0.00000000000E+00 0. -1.
         -2    1    5    5    0  503 -0.97197996750E+02 -0.13414388644E+03 -0.62325643503E+03  0.64489581844E+03  0.00000000000E+00 0.  1.
         -1    1    6    6    0  502 -0.39812653777E+03  0.69527191561E+02 -0.14178389119E+03  0.42830064470E+03  0.00000000000E+00 0.  1.
<mgrwt>
<rscale>  0 0.22678269E+04</rscale>
<asrwt>0</asrwt>
<pdfrwt beam="1">  1        2 0.30977851E+00 0.22678269E+04</pdfrwt>
<pdfrwt beam="2">  1       -2 0.98238519E-01 0.22678269E+04</pdfrwt>
<totfact> 0.51411806E+00</totfact>
</mgrwt>
</event>
<event>
12    1  0.1506149E-007  0.2018124E+04  0.7818608E-02  0.8598194E-01
         -2   -1    0    0    0  501 -0.00000000000E+00  0.00000000000E+00  0.29845961916E+03  0.29845961916E+03  0.00000000000E+00 0.  1.
          2   -1    0    0  501    0  0.00000000000E+00 -0.00000000000E+00 -0.34115361993E+04  0.34115361993E+04  0.00000000000E+00 0. -1.
         23    2    1    2    0    0  0.15635674273E+03 -0.46005190111E+03 -0.24357711222E+04  0.24854017456E+04  0.90253501680E+02 0.  0.
        254    2    1    2    0    0 -0.15635674273E+03  0.46005190111E+03 -0.67730545791E+03  0.12245940728E+04  0.89710243406E+03 0.  0.
        -24    2    4    4    0    0 -0.30892935259E+03 -0.52076609823E+02 -0.59532505463E+03  0.67809012678E+03  0.85117455237E+02 0.  0.
         24    2    4    4    0    0  0.15257260987E+03  0.51212851094E+03 -0.81980403284E+02  0.54650394605E+03  0.79948505523E+02 0.  0.
         11    1    3    3    0    0  0.14628546504E+03 -0.45333137945E+03 -0.22837981995E+04  0.23329472761E+04  0.00000000000E+00 0. -1.
        -11    1    3    3    0    0  0.10071277688E+02 -0.67205216594E+01 -0.15197292266E+03  0.15245446949E+03  0.00000000000E+00 0.  1.
          4    1    6    6  502    0  0.62326106157E+02  0.13452376123E+03 -0.51974675635E+02  0.15710681956E+03  0.00000000000E+00 0. -1.
          3    1    5    5  503    0  0.40755408509E+01  0.32097553468E+01 -0.33360887666E+01  0.61678238360E+01  0.00000000000E+00 0. -1.
         -4    1    5    5    0  503 -0.31300489344E+03 -0.55286365169E+02 -0.59198896586E+03  0.67192230294E+03  0.00000000000E+00 0.  1.
         -3    1    6    6    0  502  0.90246503709E+02  0.37760474970E+03 -0.30005727649E+02  0.38939712649E+03  0.00000000000E+00 0.  1.
<mgrwt>
<rscale>  0 0.20181237E+04</rscale>
<asrwt>0</asrwt>
<pdfrwt beam="1">  1        2 0.52485173E+00 0.20181237E+04</pdfrwt>
<pdfrwt beam="2">  1       -2 0.45916864E-01 0.20181237E+04</pdfrwt>
<totfact> 0.39248274E+00</totfact>
</mgrwt>
</event>
<event>
12    1  0.1506149E-007  0.1865438E+04  0.7818608E-02  0.8672254E-01
          2   -1    0    0  501    0  0.00000000000E+00  0.00000000000E+00  0.57761905499E+03  0.57761905499E+03  0.00000000000E+00 0. -1.
         -2   -1    0    0    0  501 -0.00000000000E+00 -0.00000000000E+00 -0.15061217527E+04  0.15061217527E+04  0.00000000000E+00 0.  1.
         23    2    1    2    0    0  0.15666873553E+03 -0.35298418487E+03 -0.10306210210E+04  0.11043318407E+04  0.90698390592E+02 0.  0.
        254    2    1    2    0    0 -0.15666873553E+03  0.35298418487E+03  0.10211832325E+03  0.97940896700E+03  0.89424316897E+03 0.  0.
        -24    2    4    4    0    0 -0.49849631485E+03  0.21856252199E+03  0.20941711609E+03  0.58870913434E+03  0.80341548405E+02 0.  0.
         24    2    4    4    0    0  0.34182757932E+03  0.13442166288E+03 -0.10729879285E+03  0.39069983267E+03  0.78854618523E+02 0.  0.
         13    1    3    3    0    0  0.15925721209E+03 -0.35583827789E+03 -0.99731810844E+03  0.10708067748E+04  0.00000000000E+00 0.  1.
        -13    1    3    3    0    0 -0.25884765543E+01  0.28540930266E+01 -0.33302912561E+02  0.33525065890E+02  0.00000000000E+00 0. -1.
          4    1    6    6  502    0  0.33090379421E+03  0.12465419217E+03 -0.84438696012E+02  0.36354625845E+03  0.00000000000E+00 0. -1.
          1    1    5    5  503    0 -0.49006893197E+03  0.22445500676E+03  0.20981032938E+03  0.57841851842E+03  0.00000000000E+00 0. -1.
         -2    1    5    5    0  503 -0.84273828850E+01 -0.58924847790E+01 -0.39321328724E+00  0.10290615912E+02  0.00000000000E+00 0.  1.
         -3    1    6    6    0  502  0.10923785107E+02  0.97674707135E+01 -0.22860096837E+02  0.27153574214E+02  0.00000000000E+00 0.  1.
<mgrwt>
<rscale>  0 0.18654379E+04</rscale>
<asrwt>0</asrwt>
<pdfrwt beam="1">  1        2 0.88864471E-01 0.18654379E+04</pdfrwt>
<pdfrwt beam="2">  1       -2 0.23171104E+00 0.18654379E+04</pdfrwt>
<totfact> 0.40657550E+00</totfact>
</mgrwt>
</event>
<event>
12    1  0.1506149E-007  0.1804485E+04  0.7818608E-02  0.8703918E-01
         -2   -1    0    0    0  501 -0.00000000000E+00  0.00000000000E+00  0.50926309045E+03  0.50926309045E+03  0.00000000000E+00 0.  1.
          2   -1    0    0  501    0  0.00000000000E+00 -0.00000000000E+00 -0.15984687103E+04  0.15984687103E+04  0.00000000000E+00 0. -1.
         23    2    1    2    0    0 -0.42324272684E+03  0.31042317543E+03  0.80088710057E+02  0.53918701123E+03  0.93869472902E+02 0.  0.
        254    2    1    2    0    0  0.42324272684E+03 -0.31042317543E+03 -0.11692943299E+04  0.15685447896E+04  0.90420493980E+03 0.  0.
        -24    2    4    4    0    0  0.23547870668E+03  0.26126753205E+03 -0.74506642504E+03  0.82790311219E+03  0.81170443179E+02 0.  0.
         24    2    4    4    0    0  0.18776402016E+03 -0.57169070747E+03 -0.42422790491E+03  0.74064167737E+03  0.80592721065E+02 0.  0.
         13    1    3    3    0    0 -0.31870762329E+03  0.18171465629E+03  0.66182306341E+02  0.37279332495E+03  0.00000000000E+00 0.  1.
        -13    1    3    3    0    0 -0.10453510355E+03  0.12870851913E+03  0.13906403716E+02  0.16639368629E+03  0.00000000000E+00 0. -1.
          4    1    6    6  502    0  0.58441767411E+02 -0.26289916126E+03 -0.15271800393E+03  0.30960329116E+03  0.00000000000E+00 0. -1.
          3    1    5    5  503    0  0.21395125120E+03  0.18960141917E+03 -0.57726308734E+03  0.64417117915E+03  0.00000000000E+00 0. -1.
         -4    1    5    5    0  503  0.21527455477E+02  0.71666112877E+02 -0.16780333770E+03  0.18373193303E+03  0.00000000000E+00 0.  1.
         -3    1    6    6    0  502  0.12932225274E+03 -0.30879154621E+03 -0.27150990098E+03  0.43103838622E+03  0.00000000000E+00 0.  1.
<mgrwt>
<rscale>  0 0.18044845E+04</rscale>
<asrwt>0</asrwt>
<pdfrwt beam="1">  1        2 0.24591826E+00 0.18044845E+04</pdfrwt>
<pdfrwt beam="2">  1       -2 0.78348167E-01 0.18044845E+04</pdfrwt>
<totfact> 0.15275120E+01</totfact>
</mgrwt>
</event>
<event>
12    1  0.1506149E-007  0.2261322E+04  0.7818608E-02  0.8493329E-01
         -1   -1    0    0    0  501 -0.00000000000E+00  0.00000000000E+00  0.12979616935E+04  0.12979616935E+04  0.00000000000E+00 0. -1.
          1   -1    0    0  501    0  0.00000000000E+00 -0.00000000000E+00 -0.98492480392E+03  0.98492480392E+03  0.00000000000E+00 0.  1.
         23    2    1    2    0    0  0.79363951728E+03 -0.13069425848E+03  0.63232928880E+03  0.10273350508E+04  0.92910195751E+02 0.  0.
        254    2    1    2    0    0 -0.79363951728E+03  0.13069425848E+03 -0.31929239918E+03  0.12555514467E+04  0.90967968349E+03 0.  0.
        -24    2    4    4    0    0 -0.13413426177E+03 -0.35727757374E+03 -0.11050862746E+03  0.40527422093E+03  0.79973573944E+02 0.  0.
         24    2    4    4    0    0 -0.65950525551E+03  0.48797183222E+03 -0.20878377172E+03  0.85027722577E+03  0.79479596440E+02 0.  0.
         11    1    3    3    0    0  0.37399518088E+03 -0.24011692870E+02  0.32873785225E+03  0.49851532797E+03  0.00000000000E+00 0.  1.
        -11    1    3    3    0    0  0.41964433639E+03 -0.10668256561E+03  0.30359143655E+03  0.52881972280E+03  0.00000000000E+00 0. -1.
          2    1    6    6  502    0 -0.24259933662E+03  0.13285228571E+03 -0.70887654162E+02  0.28553323355E+03  0.00000000000E+00 0. -1.
          1    1    5    5  503    0 -0.25560437811E+01 -0.10408210232E+03 -0.38315189749E+02  0.11093994389E+03  0.00000000000E+00 0. -1.
         -2    1    5    5    0  503 -0.13157821798E+03 -0.25319547141E+03 -0.72193437712E+02  0.29433427704E+03  0.00000000000E+00 0.  1.
         -1    1    6    6    0  502 -0.41690591889E+03  0.35511954651E+03 -0.13789611756E+03  0.56474399223E+03  0.00000000000E+00 0.  1.
<mgrwt>
<rscale>  0 0.22613223E+04</rscale>
<asrwt>0</asrwt>
<pdfrwt beam="1">  1        1 0.15152689E+00 0.22613223E+04</pdfrwt>
<pdfrwt beam="2">  1       -1 0.19968641E+00 0.22613223E+04</pdfrwt>
<totfact> 0.21328963E+00</totfact>
</mgrwt>
</event>
<event>
12    1  0.1506149E-007  0.1573000E+04  0.7818608E-02  0.8837309E-01
         -1   -1    0    0    0  501 -0.00000000000E+00  0.00000000000E+00  0.23779661753E+03  0.23779661753E+03  0.00000000000E+00 0.  1.
          1   -1    0    0  501    0  0.00000000000E+00 -0.00000000000E+00 -0.26013065161E+04  0.26013065161E+04  0.00000000000E+00 0. -1.
         23    2    1    2    0    0  0.83085938630E+02 -0.31190529765E+03 -0.59406147011E+02  0.34062234234E+03  0.91138915385E+02 0.  0.
        254    2    1    2    0    0 -0.83085938630E+02  0.31190529765E+03 -0.23041037515E+04  0.24984807912E+04  0.91067226737E+03 0.  0.
        -24    2    4    4    0    0 -0.13511045946E+03 -0.27899334484E+03 -0.46532548453E+03  0.56478119956E+03  0.79736278433E+02 0.  0.
         24    2    4    4    0    0  0.52024520831E+02  0.59089864250E+03 -0.18387782670E+04  0.19336995917E+04  0.78872297256E+02 0.  0.
         11    1    3    3    0    0 -0.13868196297E+02 -0.76990191265E+02 -0.33734148694E+02  0.85192776735E+02  0.00000000000E+00 0. -1.
        -11    1    3    3    0    0  0.96954134928E+02 -0.23491510639E+03 -0.25671998317E+02  0.25542956561E+03  0.00000000000E+00 0.  1.
          4    1    6    6  502    0  0.35414726176E+02  0.39499493637E+03 -0.13440386861E+04  0.14013262262E+04  0.00000000000E+00 0. -1.
          1    1    5    5  503    0 -0.12236149695E+03 -0.24439590910E+03 -0.35227171745E+03  0.44586663839E+03  0.00000000000E+00 0. -1.
         -2    1    5    5    0  503 -0.12748962510E+02 -0.34597435747E+02 -0.11305376708E+03  0.11891456116E+03  0.00000000000E+00 0.  1.
         -3    1    6    6    0  502  0.16609794654E+02  0.19590370612E+03 -0.49473958093E+03  0.53237336549E+03  0.00000000000E+00 0.  1.
<mgrwt>
<rscale>  0 0.15729995E+04</rscale>
<asrwt>0</asrwt>
<pdfrwt beam="1">  1        1 0.40020098E+00 0.15729995E+04</pdfrwt>
<pdfrwt beam="2">  1       -1 0.36584097E-01 0.15729995E+04</pdfrwt>
<totfact> 0.79549946E+00</totfact>
</mgrwt>
</event>
<event>
12    1  0.1506149E-007  0.2170811E+04  0.7818608E-02  0.8530676E-01
          1   -1    0    0  501    0  0.00000000000E+00  0.00000000000E+00  0.51584757517E+03  0.51584757517E+03  0.00000000000E+00 0. -1.
         -1   -1    0    0    0  501 -0.00000000000E+00 -0.00000000000E+00 -0.22838234658E+04  0.22838234658E+04  0.00000000000E+00 0.  1.
         23    2    1    2    0    0  0.43819475511E+03 -0.75290976706E+03 -0.49254534679E+03  0.10050291590E+04  0.92708850960E+02 0.  0.
        254    2    1    2    0    0 -0.43819475511E+03  0.75290976706E+03 -0.12754305438E+04  0.17946418820E+04  0.91385373645E+03 0.  0.
        -24    2    4    4    0    0 -0.30601227284E+03  0.95556600850E+03 -0.10518731842E+04  0.14559497328E+04  0.81255899268E+02 0.  0.
         24    2    4    4    0    0 -0.13218248228E+03 -0.20265624144E+03 -0.22355735963E+03  0.33869214913E+03  0.78693824558E+02 0.  0.
         11    1    3    3    0    0  0.39818796088E+03 -0.71686716296E+03 -0.44393834397E+03  0.93248776655E+03  0.00000000000E+00 0. -1.
        -11    1    3    3    0    0  0.40006794231E+02 -0.36042604103E+02 -0.48607002817E+02  0.72541392446E+02  0.00000000000E+00 0.  1.
          2    1    6    6  502    0 -0.21369385660E+01 -0.12414927431E+02 -0.46241514295E+02  0.47926762606E+02  0.00000000000E+00 0. -1.
          3    1    5    5  503    0 -0.13848765152E+02  0.32123918754E+02 -0.18286986204E+02  0.39473387450E+02  0.00000000000E+00 0. -1.
         -4    1    5    5    0  503 -0.29216350768E+03  0.92344208975E+03 -0.10335861980E+04  0.14164763454E+04  0.00000000000E+00 0.  1.
         -1    1    6    6    0  502 -0.13004554371E+03 -0.19024131401E+03 -0.17731584533E+03  0.29076538652E+03  0.00000000000E+00 0.  1.
<mgrwt>
<rscale>  0 0.21708107E+04</rscale>
<asrwt>0</asrwt>
<pdfrwt beam="1">  1        1 0.79361166E-01 0.21708107E+04</pdfrwt>
<pdfrwt beam="2">  1       -1 0.35135745E+00 0.21708107E+04</pdfrwt>
<totfact> 0.59100605E-01</totfact>
</mgrwt>
</event>
<event>
12    1  0.1506149E-007  0.1915404E+04  0.7818608E-02  0.8647227E-01
          1   -1    0    0  501    0  0.00000000000E+00  0.00000000000E+00  0.80244806716E+03  0.80244806716E+03  0.00000000000E+00 0. -1.
         -1   -1    0    0    0  501 -0.00000000000E+00 -0.00000000000E+00 -0.11429938978E+04  0.11429938978E+04  0.00000000000E+00 0.  1.
         23    2    1    2    0    0 -0.69578944892E+03 -0.14113057865E+03 -0.36106659584E+03  0.80154285495E+03  0.89783429611E+02 0.  0.
        254    2    1    2    0    0  0.69578944892E+03  0.14113057865E+03  0.20520765243E+02  0.11438991100E+04  0.89668460147E+03 0.  0.
        -24    2    4    4    0    0  0.31371568920E+03  0.35171642983E+02 -0.42953908930E+03  0.53897890927E+03  0.79623220699E+02 0.  0.
         24    2    4    4    0    0  0.38207375972E+03  0.10595893567E+03  0.45005985454E+03  0.60492020070E+03  0.78529756326E+02 0.  0.
         13    1    3    3    0    0 -0.36903607693E+03 -0.97451905956E+02 -0.23716356710E+03  0.44936739714E+03  0.00000000000E+00 0.  1.
        -13    1    3    3    0    0 -0.32675337199E+03 -0.43678672694E+02 -0.12390302874E+03  0.35217545781E+03  0.00000000000E+00 0. -1.
          4    1    6    6  502    0  0.15284950693E+03  0.41555340584E+01  0.15634536337E+03  0.21868724901E+03  0.00000000000E+00 0. -1.
          3    1    5    5  503    0  0.84524658342E+02  0.18254806118E+02 -0.18026484076E+03  0.19993266024E+03  0.00000000000E+00 0. -1.
         -4    1    5    5    0  503  0.22919103086E+03  0.16916836865E+02 -0.24927424854E+03  0.33904624903E+03  0.00000000000E+00 0.  1.
         -3    1    6    6    0  502  0.22922425279E+03  0.10180340161E+03  0.29371449117E+03  0.38623295169E+03  0.00000000000E+00 0.  1.
<mgrwt>
<rscale>  0 0.19154041E+04</rscale>
<asrwt>0</asrwt>
<pdfrwt beam="1">  1        1 0.12345355E+00 0.19154041E+04</pdfrwt>
<pdfrwt beam="2">  1       -1 0.17584522E+00 0.19154041E+04</pdfrwt>
<totfact> 0.45843054E+00</totfact>
</mgrwt>
</event>
<event>
12    1  0.1506149E-007  0.1345408E+04  0.7818608E-02  0.8994311E-01
         -1   -1    0    0    0  501 -0.00000000000E+00  0.00000000000E+00  0.28591524044E+03  0.28591524044E+03  0.00000000000E+00 0.  1.
          1   -1    0    0  501    0  0.00000000000E+00 -0.00000000000E+00 -0.15827452832E+04  0.15827452832E+04  0.00000000000E+00 0. -1.
         23    2    1    2    0    0 -0.24851413834E+03 -0.82879295320E+02 -0.75447127536E+03  0.80371451531E+03  0.90010345190E+02 0.  0.
        254    2    1    2    0    0  0.24851413834E+03  0.82879295320E+02 -0.54235876744E+03  0.10649460084E+04  0.87825321723E+03 0.  0.
        -24    2    4    4    0    0  0.55391256621E+03 -0.69819397339E+02 -0.30097069886E+03  0.63903663067E+03  0.78042132975E+02 0.  0.
         24    2    4    4    0    0 -0.30539842788E+03  0.15269869266E+03 -0.24138806858E+03  0.42590937769E+03  0.80904312999E+02 0.  0.
         11    1    3    3    0    0 -0.12738207835E+03 -0.61077822630E+02 -0.28105588627E+03  0.31456176740E+03  0.00000000000E+00 0.  1.
        -11    1    3    3    0    0 -0.12113205999E+03 -0.21801472690E+02 -0.47341538908E+03  0.48915274791E+03  0.00000000000E+00 0. -1.
          4    1    6    6  502    0 -0.67094327205E+02  0.73600858029E+02 -0.61839649454E+02  0.11723001872E+03  0.00000000000E+00 0. -1.
          1    1    5    5  503    0  0.14816745303E+03 -0.33614393154E+02 -0.47181725972E+02  0.15909002744E+03  0.00000000000E+00 0. -1.
         -2    1    5    5    0  503  0.40574511318E+03 -0.36205004185E+02 -0.25378897288E+03  0.47994660324E+03  0.00000000000E+00 0.  1.
         -3    1    6    6    0  502 -0.23830410067E+03  0.79097834630E+02 -0.17954841913E+03  0.30867935897E+03  0.00000000000E+00 0.  1.
<mgrwt>
<rscale>  0 0.13454085E+04</rscale>
<asrwt>0</asrwt>
<pdfrwt beam="1">  1        1 0.24349928E+00 0.13454085E+04</pdfrwt>
<pdfrwt beam="2">  1       -1 0.43986960E-01 0.13454085E+04</pdfrwt>
<totfact> 0.28693551E+01</totfact>
</mgrwt>
</event>
<event>
12    1  0.1506149E-007  0.1755672E+04  0.7818608E-02  0.8730234E-01
          2   -1    0    0  501    0  0.00000000000E+00  0.00000000000E+00  0.75897274176E+03  0.75897274176E+03  0.00000000000E+00 0. -1.
         -2   -1    0    0    0  501 -0.00000000000E+00 -0.00000000000E+00 -0.10153147744E+04  0.10153147744E+04  0.00000000000E+00 0.  1.
         23    2    1    2    0    0 -0.30761444874E+03 -0.56335217432E+03 -0.13903369872E+03  0.66335322666E+03  0.93353160392E+02 0.  0.
        254    2    1    2    0    0  0.30761444874E+03  0.56335217432E+03 -0.11730833393E+03  0.11109342895E+04  0.89912258843E+03 0.  0.
        -24    2    4    4    0    0 -0.30901658221E+03  0.13014797991E+03 -0.69805181432E+02  0.35156241843E+03  0.79332376361E+02 0.  0.
         24    2    4    4    0    0  0.61663103095E+03  0.43320419441E+03 -0.47503152498E+02  0.75937187109E+03  0.80556729808E+02 0.  0.
         11    1    3    3    0    0 -0.30728104378E+03 -0.56579341546E+03 -0.13385413253E+03  0.65761748581E+03  0.00000000000E+00 0.  1.
        -11    1    3    3    0    0 -0.33340496345E+00  0.24412411434E+01 -0.51795661902E+01  0.57357408508E+01  0.00000000000E+00 0. -1.
          2    1    6    6  502    0  0.43260595163E+03  0.34196082871E+03 -0.52288859057E+02  0.55391266689E+03  0.00000000000E+00 0. -1.
          3    1    5    5  503    0 -0.20209582946E+03  0.43832521880E+02 -0.34112831102E+02  0.20958935924E+03  0.00000000000E+00 0. -1.
         -2    1    5    5    0  503 -0.10692075275E+03  0.86315458027E+02 -0.35692350330E+02  0.14197305919E+03  0.00000000000E+00 0.  1.
         -1    1    6    6    0  502  0.18402507933E+03  0.91243365702E+02  0.47857065596E+01  0.20545920421E+03  0.00000000000E+00 0.  1.
<mgrwt>
<rscale>  0 0.17556722E+04</rscale>
<asrwt>0</asrwt>
<pdfrwt beam="1">  1        2 0.11676504E+00 0.17556722E+04</pdfrwt>
<pdfrwt beam="2">  1       -2 0.15620227E+00 0.17556722E+04</pdfrwt>
<totfact> 0.94003194E+00</totfact>
</mgrwt>
</event>
<event>
12    1  0.1506149E-007  0.2021363E+04  0.7818608E-02  0.8596698E-01
         -2   -1    0    0    0  501 -0.00000000000E+00  0.00000000000E+00  0.44029623226E+03  0.44029623226E+03  0.00000000000E+00 0.  1.
          2   -1    0    0  501    0  0.00000000000E+00 -0.00000000000E+00 -0.23199762386E+04  0.23199762386E+04  0.00000000000E+00 0. -1.
         23    2    1    2    0    0  0.57745339220E+03 -0.51841097176E+03 -0.10599593254E+04  0.13156335739E+04  0.71941458971E+02 0.  0.
        254    2    1    2    0    0 -0.57745339220E+03  0.51841097176E+03 -0.81972068090E+03  0.14446388969E+04  0.90157483989E+03 0.  0.
        -24    2    4    4    0    0  0.18623877909E+03  0.30267116460E+03 -0.12005705629E+03  0.38371324076E+03  0.80792559366E+02 0.  0.
         24    2    4    4    0    0 -0.76369217129E+03  0.21573980715E+03 -0.69966362461E+03  0.10609256561E+04  0.79149626465E+02 0.  0.
         11    1    3    3    0    0  0.16955305195E+03 -0.16051733701E+03 -0.37535603244E+03  0.44204773950E+03  0.00000000000E+00 0. -1.
        -11    1    3    3    0    0  0.40790034025E+03 -0.35789363475E+03 -0.68460329297E+03  0.87358583443E+03  0.00000000000E+00 0.  1.
          4    1    6    6  502    0 -0.50134388556E+03  0.15796771304E+03 -0.50733937416E+03  0.73054276433E+03  0.00000000000E+00 0. -1.
          3    1    5    5  503    0  0.17006307686E+03  0.26693023388E+03 -0.13167297139E+03  0.34279873288E+03  0.00000000000E+00 0. -1.
         -4    1    5    5    0  503  0.16175702231E+02  0.35740930721E+02  0.11615915093E+02  0.40914507878E+02  0.00000000000E+00 0.  1.
         -3    1    6    6    0  502 -0.26234828573E+03  0.57772094111E+02 -0.19232425045E+03  0.33038289180E+03  0.00000000000E+00 0.  1.
<mgrwt>
<rscale>  0 0.20213627E+04</rscale>
<asrwt>0</asrwt>
<pdfrwt beam="1">  1        2 0.35691942E+00 0.20213627E+04</pdfrwt>
<pdfrwt beam="2">  1       -2 0.67737883E-01 0.20213627E+04</pdfrwt>
<totfact> 0.81808202E+00</totfact>
</mgrwt>
</event>
<event>
12    1  0.1506149E-007  0.1258501E+04  0.7818608E-02  0.9063137E-01
          2   -1    0    0  501    0  0.00000000000E+00  0.00000000000E+00  0.84838147189E+03  0.84838147189E+03  0.00000000000E+00 0.  1.
         -2   -1    0    0    0  501 -0.00000000000E+00 -0.00000000000E+00 -0.46671947230E+03  0.46671947230E+03  0.00000000000E+00 0. -1.
         23    2    1    2    0    0 -0.15492714753E+03 -0.23082382871E+03  0.18810503601E+03  0.34867903824E+03  0.94400774327E+02 0.  0.
        254    2    1    2    0    0  0.15492714753E+03  0.23082382871E+03  0.19355696358E+03  0.96642190595E+03  0.90511045801E+03 0.  0.
        -24    2    4    4    0    0  0.15747590351E+03  0.50643170650E+03 -0.11124083583E+03  0.54807910879E+03  0.82124615037E+02 0.  0.
         24    2    4    4    0    0 -0.25487559805E+01 -0.27560787779E+03  0.30479779942E+03  0.41834279716E+03  0.78376010058E+02 0.  0.
         11    1    3    3    0    0 -0.75513003730E+02 -0.12794455747E+03  0.15470951420E+03  0.21449255769E+03  0.00000000000E+00 0. -1.
        -11    1    3    3    0    0 -0.79414143801E+02 -0.10287927124E+03  0.33395521810E+02  0.13418648056E+03  0.00000000000E+00 0.  1.
          4    1    6    6  502    0 -0.88405103787E+01  0.14837064741E+01  0.13950695696E+02  0.16582458173E+02  0.00000000000E+00 0. -1.
          3    1    5    5  503    0  0.45008247000E+02  0.23575535351E+03 -0.18856860503E+02  0.24075279893E+03  0.00000000000E+00 0. -1.
         -4    1    5    5    0  503  0.11246765651E+03  0.27067635299E+03 -0.92383975332E+02  0.30732630985E+03  0.00000000000E+00 0.  1.
         -3    1    6    6    0  502  0.62917543982E+01 -0.27709158426E+03  0.29084710372E+03  0.40176033899E+03  0.00000000000E+00 0.  1.
<mgrwt>
<rscale>  0 0.12585009E+04</rscale>
<asrwt>0</asrwt>
<pdfrwt beam="1">  1        2 0.13052023E+00 0.12585009E+04</pdfrwt>
<pdfrwt beam="2">  1       -2 0.71802996E-01 0.12585009E+04</pdfrwt>
<totfact> 0.55012822E+01</totfact>
</mgrwt>
</event>
<event>
12    1  0.1506149E-007  0.1261212E+04  0.7818608E-02  0.9060903E-01
          2   -1    0    0  501    0  0.00000000000E+00  0.00000000000E+00  0.26938123356E+04  0.26938123356E+04  0.00000000000E+00 0. -1.
         -2   -1    0    0    0  501 -0.00000000000E+00 -0.00000000000E+00 -0.14762132016E+03  0.14762132016E+03  0.00000000000E+00 0.  1.
         23    2    1    2    0    0 -0.88959786565E+02 -0.16478203921E+03  0.11627080083E+04  0.11809086493E+04  0.87111201819E+02 0.  0.
        254    2    1    2    0    0  0.88959786565E+02  0.16478203921E+03  0.13834830071E+04  0.16605250064E+04  0.89902786487E+03 0.  0.
        -24    2    4    4    0    0 -0.18842568707E+01 -0.16153464443E+03 -0.48227899866E+02  0.18669923112E+03  0.80210228782E+02 0.  0.
         24    2    4    4    0    0  0.90844043436E+02  0.32631668364E+03  0.14317109070E+04  0.14738257753E+04  0.87356032549E+02 0.  0.
         13    1    3    3    0    0 -0.48289404776E+02 -0.44035505506E+02  0.62048152378E+03  0.62391370694E+03  0.00000000000E+00 0.  1.
        -13    1    3    3    0    0 -0.40670381789E+02 -0.12074653370E+03  0.54222648448E+03  0.55699494238E+03  0.00000000000E+00 0. -1.
          4    1    6    6  502    0  0.25557795252E+02  0.83883153604E+02  0.55454092495E+03  0.56143140436E+03  0.00000000000E+00 0. -1.
          3    1    5    5  503    0  0.38487765771E+02 -0.68083743369E+02 -0.15166071848E+02  0.79666266139E+02  0.00000000000E+00 0. -1.
         -4    1    5    5    0  503 -0.40372022642E+02 -0.93450901059E+02 -0.33061828018E+02  0.10703296498E+03  0.00000000000E+00 0.  1.
         -3    1    6    6    0  502  0.65286248183E+02  0.24243353003E+03  0.87716998206E+03  0.91239437093E+03  0.00000000000E+00 0.  1.
<mgrwt>
<rscale>  0 0.12612123E+04</rscale>
<asrwt>0</asrwt>
<pdfrwt beam="1">  1        2 0.41443263E+00 0.12612123E+04</pdfrwt>
<pdfrwt beam="2">  1       -2 0.22710974E-01 0.12612123E+04</pdfrwt>
<totfact> 0.45246052E+01</totfact>
</mgrwt>
</event>
<event>
12    1  0.1506149E-007  0.1773171E+04  0.7818608E-02  0.8720698E-01
          2   -1    0    0  501    0  0.00000000000E+00  0.00000000000E+00  0.18339228815E+04  0.18339228815E+04  0.00000000000E+00 0.  1.
         -2   -1    0    0    0  501 -0.00000000000E+00 -0.00000000000E+00 -0.42860810661E+03  0.42860810661E+03  0.00000000000E+00 0. -1.
         23    2    1    2    0    0  0.56948026995E+03 -0.12393099345E+03  0.91440214478E+03  0.10881254346E+04  0.90658755690E+02 0.  0.
        254    2    1    2    0    0 -0.56948026995E+03  0.12393099345E+03  0.49091263006E+03  0.11744055535E+04  0.89362549467E+03 0.  0.
        -24    2    4    4    0    0  0.12489398854E+03 -0.42765619047E+02 -0.14709456554E+03  0.21354682653E+03  0.80858081623E+02 0.  0.
         24    2    4    4    0    0 -0.69437425848E+03  0.16669661250E+03  0.63800719560E+03  0.96085872697E+03  0.79075534072E+02 0.  0.
         13    1    3    3    0    0  0.19706546329E+03 -0.71761327448E+02  0.26814787961E+03  0.34042292855E+03  0.00000000000E+00 0. -1.
        -13    1    3    3    0    0  0.37241480666E+03 -0.52169666003E+02  0.64625426517E+03  0.74770250603E+03  0.00000000000E+00 0.  1.
          4    1    6    6  502    0 -0.10342248488E+03  0.22232770048E+02  0.59570775590E+02  0.12140504004E+03  0.00000000000E+00 0. -1.
          3    1    5    5  503    0  0.87670219918E+02 -0.52085575804E+02 -0.59861988960E+02  0.11824733565E+03  0.00000000000E+00 0. -1.
         -4    1    5    5    0  503  0.37223768621E+02  0.93199567565E+01 -0.87232576577E+02  0.95299490872E+02  0.00000000000E+00 0.  1.
         -3    1    6    6    0  502 -0.59095177360E+03  0.14446384245E+03  0.57843642001E+03  0.83945368692E+03  0.00000000000E+00 0.  1.
<mgrwt>
<rscale>  0 0.17731714E+04</rscale>
<asrwt>0</asrwt>
<pdfrwt beam="1">  1        2 0.28214198E+00 0.17731714E+04</pdfrwt>
<pdfrwt beam="2">  1       -2 0.65939710E-01 0.17731714E+04</pdfrwt>
<totfact> 0.16544457E+01</totfact>
</mgrwt>
</event>
<event>
12    1  0.1506149E-007  0.2383024E+04  0.7818608E-02  0.8445887E-01
         -1   -1    0    0    0  501 -0.00000000000E+00  0.00000000000E+00  0.43798351068E+03  0.43798351068E+03  0.00000000000E+00 0.  1.
          1   -1    0    0  501    0  0.00000000000E+00 -0.00000000000E+00 -0.32414481861E+04  0.32414481861E+04  0.00000000000E+00 0. -1.
         23    2    1    2    0    0  0.86862843519E+03 -0.51283019587E+02 -0.38736434633E+03  0.95717746275E+03  0.94827484775E+02 0.  0.
        254    2    1    2    0    0 -0.86862843519E+03  0.51283019587E+02 -0.24161003291E+04  0.27222542341E+04  0.90331722444E+03 0.  0.
        -24    2    4    4    0    0  0.59840911925E+01  0.21959006321E+03 -0.11416416696E+04  0.11653820093E+04  0.80708863663E+02 0.  0.
         24    2    4    4    0    0 -0.87461252638E+03 -0.16830704362E+03 -0.12744586595E+04  0.15568722248E+04  0.79573344193E+02 0.  0.
         13    1    3    3    0    0  0.83137524985E+02  0.19900915104E+02 -0.24008703323E+02  0.88793650211E+02  0.00000000000E+00 0. -1.
        -13    1    3    3    0    0  0.78549091020E+03 -0.71183934691E+02 -0.36335564301E+03  0.86838381254E+03  0.00000000000E+00 0.  1.
          2    1    6    6  502    0 -0.81751490841E+02  0.28305226886E+01 -0.94102346849E+02  0.12468588451E+03  0.00000000000E+00 0. -1.
          1    1    5    5  503    0  0.48796669246E+01  0.39754749445E+02 -0.41042937549E+03  0.41237910169E+03  0.00000000000E+00 0. -1.
         -2    1    5    5    0  503  0.11044242679E+01  0.17983531377E+03 -0.73121229411E+03  0.75300290763E+03  0.00000000000E+00 0.  1.
         -1    1    6    6    0  502 -0.79286103554E+03 -0.17113756631E+03 -0.11803563127E+04  0.14321863402E+04  0.00000000000E+00 0.  1.
<mgrwt>
<rscale>  0 0.23830240E+04</rscale>
<asrwt>0</asrwt>
<pdfrwt beam="1">  1        1 0.49868433E+00 0.23830240E+04</pdfrwt>
<pdfrwt beam="2">  1       -1 0.67382079E-01 0.23830240E+04</pdfrwt>
<totfact> 0.79259292E-01</totfact>
</mgrwt>
</event>
<event>
12    1  0.2086652E-007  0.2199908E+04  0.7818608E-02  0.8518467E-01
         -2   -1    0    0    0  501 -0.00000000000E+00  0.00000000000E+00  0.15660355126E+04  0.15660355126E+04  0.00000000000E+00 0.  1.
          2   -1    0    0  501    0  0.00000000000E+00 -0.00000000000E+00 -0.77258691462E+03  0.77258691462E+03  0.00000000000E+00 0. -1.
         23    2    1    2    0    0 -0.40911427284E+03  0.37468313432E+03 -0.43861757935E+03  0.71306838996E+03  0.91209694985E+02 0.  0.
        254    2    1    2    0    0  0.40911427284E+03 -0.37468313432E+03  0.12320661773E+04  0.16255540372E+04  0.90370178893E+03 0.  0.
        -24    2    4    4    0    0  0.91235731035E+02  0.28134378000E+02  0.10763292801E+04  0.10834010777E+04  0.78470848542E+02 0.  0.
         24    2    4    4    0    0  0.31787854180E+03 -0.40281751232E+03  0.15573689715E+03  0.54215295950E+03  0.79794328078E+02 0.  0.
         11    1    3    3    0    0 -0.13105384815E+03  0.14128460490E+03 -0.10223157562E+03  0.21814615685E+03  0.00000000000E+00 0.  1.
        -11    1    3    3    0    0 -0.27806042469E+03  0.23339852941E+03 -0.33638600374E+03  0.49492223310E+03  0.00000000000E+00 0. -1.
          2    1    6    6  502    0  0.50856553610E+02 -0.76958655369E+02  0.60251047774E+02  0.11017809419E+03  0.00000000000E+00 0. -1.
          3    1    5    5  503    0  0.21484851415E+02  0.24199892690E+02  0.11301622114E+03  0.11755807028E+03  0.00000000000E+00 0. -1.
         -4    1    5    5    0  503  0.69750879620E+02  0.39344853092E+01  0.96331305900E+03  0.96584300745E+03  0.00000000000E+00 0.  1.
         -1    1    6    6    0  502  0.26702198819E+03 -0.32585885695E+03  0.95485849377E+02  0.43197486531E+03  0.00000000000E+00 0.  1.
<mgrwt>
<rscale>  0 0.21999078E+04</rscale>
<asrwt>0</asrwt>
<pdfrwt beam="1">  1        2 0.11885953E+00 0.21999078E+04</pdfrwt>
<pdfrwt beam="2">  1       -2 0.24092854E+00 0.21999078E+04</pdfrwt>
<totfact> 0.24096909E+00</totfact>
</mgrwt>
</event>
<event>
12    1  0.1506149E-007  0.1810269E+04  0.7818608E-02  0.8700857E-01
          2   -1    0    0  501    0  0.00000000000E+00  0.00000000000E+00  0.80884689479E+03  0.80884689479E+03  0.00000000000E+00 0. -1.
         -2   -1    0    0    0  501 -0.00000000000E+00 -0.00000000000E+00 -0.10128847896E+04  0.10128847896E+04  0.00000000000E+00 0.  1.
         23    2    1    2    0    0 -0.32285120427E+03  0.45565243464E+03 -0.46947856147E+03  0.73514076667E+03  0.90386867645E+02 0.  0.
        254    2    1    2    0    0  0.32285120427E+03 -0.45565243464E+03  0.26544066664E+03  0.10865909177E+04  0.89351498796E+03 0.  0.
        -24    2    4    4    0    0  0.48517346165E+03 -0.53724378167E+03 -0.32269119097E+02  0.72898508777E+03  0.79710685073E+02 0.  0.
         24    2    4    4    0    0 -0.16232225737E+03  0.81591347031E+02  0.29770978574E+03  0.35760582997E+03  0.79026261160E+02 0.  0.
         11    1    3    3    0    0 -0.29296561247E+03  0.40172990313E+03 -0.37690607541E+03  0.62391822768E+03  0.00000000000E+00 0. -1.
        -11    1    3    3    0    0 -0.29885591804E+02  0.53922531515E+02 -0.92572486067E+02  0.11122253899E+03  0.00000000000E+00 0.  1.
          4    1    6    6  502    0 -0.12926650139E+03  0.24263931967E+02  0.20882644908E+03  0.24679354249E+03  0.00000000000E+00 0. -1.
          1    1    5    5  503    0  0.33421629280E+03 -0.31488049089E+03 -0.98698619890E+01  0.45929039625E+03  0.00000000000E+00 0. -1.
         -2    1    5    5    0  503  0.15095716885E+03 -0.22236329078E+03 -0.22399257108E+02  0.26969469152E+03  0.00000000000E+00 0.  1.
         -3    1    6    6    0  502 -0.33055755977E+02  0.57327415064E+02  0.88883336655E+02  0.11081228748E+03  0.00000000000E+00 0.  1.
<mgrwt>
<rscale>  0 0.18102693E+04</rscale>
<asrwt>0</asrwt>
<pdfrwt beam="1">  1        2 0.12443798E+00 0.18102693E+04</pdfrwt>
<pdfrwt beam="2">  1       -2 0.15582843E+00 0.18102693E+04</pdfrwt>
<totfact> 0.86609542E+00</totfact>
</mgrwt>
</event>
<event>
12    1  0.1506149E-007  0.1054394E+04  0.7818608E-02  0.9250819E-01
         -2   -1    0    0    0  501 -0.00000000000E+00  0.00000000000E+00  0.46257251201E+03  0.46257251201E+03  0.00000000000E+00 0. -1.
          2   -1    0    0  501    0  0.00000000000E+00 -0.00000000000E+00 -0.60084968682E+03  0.60084968682E+03  0.00000000000E+00 0.  1.
         23    2    1    2    0    0 -0.10626686156E+03  0.39513297299E+02  0.13885941722E+02  0.14666917959E+03  0.92005882058E+02 0.  0.
        254    2    1    2    0    0  0.10626686156E+03 -0.39513297299E+02 -0.15216311653E+03  0.91675301923E+03  0.89689940223E+03 0.  0.
        -24    2    4    4    0    0 -0.16655554780E+03  0.14018446489E+03 -0.42455833645E+03  0.48394213599E+03  0.80980091618E+02 0.  0.
         24    2    4    4    0    0  0.27282240936E+03 -0.17969776219E+03  0.27239521992E+03  0.43281088324E+03  0.80017198349E+02 0.  0.
         11    1    3    3    0    0 -0.59480127201E+02  0.50514124629E+02  0.44356959683E+02  0.89761362463E+02  0.00000000000E+00 0. -1.
        -11    1    3    3    0    0 -0.46786734363E+02 -0.11000827331E+02 -0.30471017960E+02  0.56907817125E+02  0.00000000000E+00 0.  1.
          4    1    6    6  502    0  0.26770543550E+03 -0.18669504316E+03  0.25811915485E+03  0.41610904513E+03  0.00000000000E+00 0. -1.
          1    1    5    5  503    0 -0.92652109533E+02  0.72205524307E+02 -0.14326924655E+03  0.18526772020E+03  0.00000000000E+00 0. -1.
         -2    1    5    5    0  503 -0.73903438267E+02  0.67978940584E+02 -0.28128908990E+03  0.29867441579E+03  0.00000000000E+00 0.  1.
         -3    1    6    6    0  502  0.51169738622E+01  0.69972809718E+01  0.14276065069E+02  0.16701838113E+02  0.00000000000E+00 0.  1.
<mgrwt>
<rscale>  0 0.10543938E+04</rscale>
<asrwt>0</asrwt>
<pdfrwt beam="1">  1        2 0.92438414E-01 0.10543938E+04</pdfrwt>
<pdfrwt beam="2">  1       -2 0.71165001E-01 0.10543938E+04</pdfrwt>
<totfact> 0.88429312E+01</totfact>
</mgrwt>
</event>
<event>
12    1  0.1506149E-007  0.1236280E+04  0.7818608E-02  0.9081680E-01
         -2   -1    0    0    0  501 -0.00000000000E+00  0.00000000000E+00  0.25694886673E+03  0.25694886673E+03  0.00000000000E+00 0.  1.
          2   -1    0    0  501    0  0.00000000000E+00 -0.00000000000E+00 -0.14870554275E+04  0.14870554275E+04  0.00000000000E+00 0. -1.
         23    2    1    2    0    0 -0.18250772290E+03 -0.14449264454E+03 -0.53059738420E+03  0.58609879903E+03  0.88266782326E+02 0.  0.
        254    2    1    2    0    0  0.18250772290E+03  0.14449264454E+03 -0.69950917661E+03  0.11579054952E+04  0.89288568949E+03 0.  0.
        -24    2    4    4    0    0  0.22517372210E+03  0.12360381690E+03  0.14673066767E+03  0.30647562637E+03  0.80101885399E+02 0.  0.
         24    2    4    4    0    0 -0.42665999199E+02  0.20888827639E+02 -0.84623984428E+03  0.85142986887E+03  0.80958118510E+02 0.  0.
         13    1    3    3    0    0 -0.17206526492E+03 -0.10163112016E+03 -0.47350891146E+03  0.51395138799E+03  0.00000000000E+00 0. -1.
        -13    1    3    3    0    0 -0.10442457980E+02 -0.42861524386E+02 -0.57088472731E+02  0.72147411042E+02  0.00000000000E+00 0.  1.
          2    1    6    6  502    0  0.16599041931E+02  0.22767097534E+02 -0.14668060834E+03  0.14936221004E+03  0.00000000000E+00 0. -1.
          1    1    5    5  503    0  0.45058258291E+02  0.33181953853E+02  0.72764124367E+02  0.91792736622E+02  0.00000000000E+00 0. -1.
         -2    1    5    5    0  503  0.18011546381E+03  0.90421863048E+02  0.73966543301E+02  0.21468288975E+03  0.00000000000E+00 0.  1.
         -1    1    6    6    0  502 -0.59265041130E+02 -0.18782698951E+01 -0.69955923593E+03  0.70206765883E+03  0.00000000000E+00 0.  1.
<mgrwt>
<rscale>  0 0.12362802E+04</rscale>
<asrwt>0</asrwt>
<pdfrwt beam="1">  1        2 0.22877776E+00 0.12362802E+04</pdfrwt>
<pdfrwt beam="2">  1       -2 0.39530595E-01 0.12362802E+04</pdfrwt>
<totfact> 0.76879258E+01</totfact>
</mgrwt>
</event>
<event>
12    1  0.1506149E-007  0.2755530E+04  0.7818608E-02  0.8317209E-01
          1   -1    0    0  501    0  0.00000000000E+00  0.00000000000E+00  0.26896665771E+04  0.26896665771E+04  0.00000000000E+00 0. -1.
         -1   -1    0    0    0  501 -0.00000000000E+00 -0.00000000000E+00 -0.70575152346E+03  0.70575152346E+03  0.00000000000E+00 0.  1.
         23    2    1    2    0    0 -0.90226992722E+03  0.74475580157E+03  0.13487836237E+04  0.17878056595E+04  0.90992236416E+02 0.  0.
        254    2    1    2    0    0  0.90226992722E+03 -0.74475580157E+03  0.63513142989E+03  0.16076124410E+04  0.90126222695E+03 0.  0.
        -24    2    4    4    0    0  0.43850492572E+03 -0.22387765670E+03  0.74579511776E+03  0.89704824257E+03  0.77957788343E+02 0.  0.
         24    2    4    4    0    0  0.46376500150E+03 -0.52087814487E+03 -0.11066368788E+03  0.71056419844E+03  0.79139180442E+02 0.  0.
         11    1    3    3    0    0 -0.72967816275E+03  0.58190716765E+03  0.10230196527E+04  0.13847799041E+04  0.00000000000E+00 0. -1.
        -11    1    3    3    0    0 -0.17259176447E+03  0.16284863392E+03  0.32576397103E+03  0.40302575545E+03  0.00000000000E+00 0.  1.
          2    1    6    6  502    0  0.19291904347E+03 -0.15974371248E+03 -0.41074035501E+02  0.25381664130E+03  0.00000000000E+00 0. -1.
          1    1    5    5  503    0  0.31469608628E+03 -0.18122312389E+03  0.59759975043E+03  0.69928599948E+03  0.00000000000E+00 0. -1.
         -2    1    5    5    0  503  0.12380883944E+03 -0.42654532813E+02  0.14819536734E+03  0.19776224309E+03  0.00000000000E+00 0.  1.
         -1    1    6    6    0  502  0.27084595803E+03 -0.36113443239E+03 -0.69589652376E+02  0.45674755714E+03  0.00000000000E+00 0.  1.
<mgrwt>
<rscale>  0 0.27555299E+04</rscale>
<asrwt>0</asrwt>
<pdfrwt beam="1">  1        1 0.41379485E+00 0.27555299E+04</pdfrwt>
<pdfrwt beam="2">  1       -1 0.10857716E+00 0.27555299E+04</pdfrwt>
<totfact> 0.68222273E-01</totfact>
</mgrwt>
</event>
<event>
12    1  0.1506149E-007  0.1824123E+04  0.7818608E-02  0.8693576E-01
          2   -1    0    0  501    0  0.00000000000E+00  0.00000000000E+00  0.75689211282E+03  0.75689211282E+03  0.00000000000E+00 0. -1.
         -2   -1    0    0    0  501 -0.00000000000E+00 -0.00000000000E+00 -0.10990414687E+04  0.10990414687E+04  0.00000000000E+00 0.  1.
         23    2    1    2    0    0 -0.64283138915E+03  0.26084470571E+02  0.99267794136E+02  0.65746236758E+03  0.92141604836E+02 0.  0.
        254    2    1    2    0    0  0.64283138915E+03 -0.26084470571E+02 -0.44141715000E+03  0.11984712139E+04  0.90970959971E+03 0.  0.
        -24    2    4    4    0    0  0.59944531912E+03  0.34408800733E+03 -0.13529827888E+03  0.70888109414E+03  0.80470702437E+02 0.  0.
         24    2    4    4    0    0  0.43386070029E+02 -0.37017247790E+03 -0.30611887112E+03  0.48959011979E+03  0.84140998747E+02 0.  0.
         13    1    3    3    0    0 -0.21648233130E+03  0.32757590832E+02  0.70810489843E+02  0.23011254854E+03  0.00000000000E+00 0. -1.
        -13    1    3    3    0    0 -0.42634905785E+03 -0.66731202612E+01  0.28457304292E+02  0.42734981904E+03  0.00000000000E+00 0.  1.
          4    1    6    6  502    0  0.11197182915E+02 -0.13346399241E+02 -0.38945392369E+02  0.42664351216E+02  0.00000000000E+00 0. -1.
          1    1    5    5  503    0  0.30586245888E+00 -0.30464547117E+01  0.86636436851E+00  0.31819845023E+01  0.00000000000E+00 0. -1.
         -2    1    5    5    0  503  0.59913945667E+03  0.34713446204E+03 -0.13616464325E+03  0.70569910964E+03  0.00000000000E+00 0.  1.
         -3    1    6    6    0  502  0.32188887114E+02 -0.35682607866E+03 -0.26717347875E+03  0.44692576857E+03  0.00000000000E+00 0.  1.
<mgrwt>
<rscale>  0 0.18241226E+04</rscale>
<asrwt>0</asrwt>
<pdfrwt beam="1">  1        2 0.11644494E+00 0.18241226E+04</pdfrwt>
<pdfrwt beam="2">  1       -2 0.16908330E+00 0.18241226E+04</pdfrwt>
<totfact> 0.75503193E+00</totfact>
</mgrwt>
</event>
<event>
12    1  0.1506149E-007  0.2150219E+04  0.7818608E-02  0.8539439E-01
         -2   -1    0    0    0  501 -0.00000000000E+00  0.00000000000E+00  0.57690443358E+03  0.57690443358E+03  0.00000000000E+00 0.  1.
          2   -1    0    0  501    0  0.00000000000E+00 -0.00000000000E+00 -0.20035559157E+04  0.20035559157E+04  0.00000000000E+00 0. -1.
         23    2    1    2    0    0 -0.14464748756E+03 -0.39805508332E+02 -0.16354861110E+04  0.16450785635E+04  0.94664072018E+02 0.  0.
        254    2    1    2    0    0  0.14464748756E+03  0.39805508332E+02  0.20883462890E+03  0.93538178581E+03  0.89934409924E+03 0.  0.
        -24    2    4    4    0    0  0.33336938564E+03 -0.51903844099E+01  0.48232670095E+03  0.59224775122E+03  0.83404226516E+02 0.  0.
         24    2    4    4    0    0 -0.18872189808E+03  0.44995892742E+02 -0.27349207205E+03  0.34313403458E+03  0.72818040601E+02 0.  0.
         13    1    3    3    0    0 -0.10463954157E+03 -0.55109529305E+02 -0.82183646013E+03  0.83030215047E+03  0.00000000000E+00 0. -1.
        -13    1    3    3    0    0 -0.40007945995E+02  0.15304020973E+02 -0.81364965090E+03  0.81477641301E+03  0.00000000000E+00 0.  1.
          2    1    6    6  502    0 -0.13352315385E+03  0.17641668500E+02 -0.23389498098E+03  0.26990095074E+03  0.00000000000E+00 0. -1.
          3    1    5    5  503    0  0.88986100130E+02  0.17634461791E+02  0.18997483377E+03  0.21052300996E+03  0.00000000000E+00 0. -1.
         -4    1    5    5    0  503  0.24438328551E+03 -0.22824846201E+02  0.29235186719E+03  0.38172474126E+03  0.00000000000E+00 0.  1.
         -1    1    6    6    0  502 -0.55198744229E+02  0.27354224242E+02 -0.39597091073E+02  0.73233083847E+02  0.00000000000E+00 0.  1.
<mgrwt>
<rscale>  0 0.21502189E+04</rscale>
<asrwt>0</asrwt>
<pdfrwt beam="1">  1        2 0.30823937E+00 0.21502189E+04</pdfrwt>
<pdfrwt beam="2">  1       -2 0.88754528E-01 0.21502189E+04</pdfrwt>
<totfact> 0.66607994E+00</totfact>
</mgrwt>
</event>
<event>
12    1  0.1506149E-007  0.1483777E+04  0.7818608E-02  0.8895313E-01
         -2   -1    0    0    0  501 -0.00000000000E+00  0.00000000000E+00  0.35651162560E+03  0.35651162560E+03  0.00000000000E+00 0.  1.
          2   -1    0    0  501    0  0.00000000000E+00 -0.00000000000E+00 -0.15438453867E+04  0.15438453867E+04  0.00000000000E+00 0. -1.
         23    2    1    2    0    0 -0.33320938840E+02  0.34138853897E+03 -0.79753122813E+03  0.87289315129E+03  0.90719205335E+02 0.  0.
        254    2    1    2    0    0  0.33320938840E+02 -0.34138853897E+03 -0.38980253300E+03  0.10274638610E+04  0.88661127418E+03 0.  0.
        -24    2    4    4    0    0 -0.25507698390E+03  0.18874035000E+03 -0.53125991786E+02  0.33170618366E+03  0.80743011078E+02 0.  0.
         24    2    4    4    0    0  0.28839792274E+03 -0.53012888897E+03 -0.33667654121E+03  0.69575767738E+03  0.80731973019E+02 0.  0.
         13    1    3    3    0    0 -0.29628135457E+02  0.33075127053E+03 -0.79468755208E+03  0.86127959154E+03  0.00000000000E+00 0. -1.
        -13    1    3    3    0    0 -0.36928033835E+01  0.10637268434E+02 -0.28436760518E+01  0.11613559749E+02  0.00000000000E+00 0.  1.
          4    1    6    6  502    0  0.21216366104E+02 -0.44289063514E+02 -0.55398226303E+02  0.74031201632E+02  0.00000000000E+00 0. -1.
          1    1    5    5  503    0 -0.27205974047E+02  0.49435353048E+01 -0.25558857248E+02  0.37654465193E+02  0.00000000000E+00 0. -1.
         -2    1    5    5    0  503 -0.22787100985E+03  0.18379681470E+03 -0.27567134538E+02  0.29405171846E+03  0.00000000000E+00 0.  1.
         -3    1    6    6    0  502  0.26718155664E+03 -0.48583982546E+03 -0.28127831491E+03  0.62172647575E+03  0.00000000000E+00 0.  1.
<mgrwt>
<rscale>  0 0.14837774E+04</rscale>
<asrwt>0</asrwt>
<pdfrwt beam="1">  1        2 0.23751468E+00 0.14837774E+04</pdfrwt>
<pdfrwt beam="2">  1       -2 0.54847942E-01 0.14837774E+04</pdfrwt>
<totfact> 0.36266194E+01</totfact>
</mgrwt>
</event>
<event>
12    1  0.1506149E-007  0.2223697E+04  0.7818608E-02  0.8508629E-01
         -2   -1    0    0    0  501 -0.00000000000E+00  0.00000000000E+00  0.11359304295E+04  0.11359304295E+04  0.00000000000E+00 0. -1.
          2   -1    0    0  501    0  0.00000000000E+00 -0.00000000000E+00 -0.10882769991E+04  0.10882769991E+04  0.00000000000E+00 0.  1.
         23    2    1    2    0    0 -0.42428232969E+03  0.80566584524E+03 -0.16022731773E+03  0.92890523671E+03  0.89884347724E+02 0.  0.
        254    2    1    2    0    0  0.42428232969E+03 -0.80566584524E+03  0.20788074815E+03  0.12953021919E+04  0.89748560629E+03 0.  0.
        -24    2    4    4    0    0  0.50853254587E+03 -0.85407412269E+03  0.39371218139E+03  0.10718124366E+04  0.75661483949E+02 0.  0.
         24    2    4    4    0    0 -0.84250216182E+02  0.48408277447E+02 -0.18583143324E+03  0.22348975536E+03  0.77284467515E+02 0.  0.
         11    1    3    3    0    0 -0.41437448632E+03  0.73748424008E+03 -0.14356105188E+03  0.85802039305E+03  0.00000000000E+00 0.  1.
        -11    1    3    3    0    0 -0.99078433652E+01  0.68181605166E+02 -0.16666265845E+02  0.70884843658E+02  0.00000000000E+00 0. -1.
          4    1    6    6  502    0 -0.55994181662E+01 -0.14485845824E+01 -0.88852795531E+02  0.89040839814E+02  0.00000000000E+00 0. -1.
          3    1    5    5  503    0  0.22228243665E+03 -0.44699302837E+03  0.20066015797E+03  0.53803043413E+03  0.00000000000E+00 0. -1.
         -4    1    5    5    0  503  0.28625010922E+03 -0.40708109432E+03  0.19305202342E+03  0.53378200244E+03  0.00000000000E+00 0.  1.
         -3    1    6    6    0  502 -0.78650798016E+02  0.49856862029E+02 -0.96978637713E+02  0.13444891555E+03  0.00000000000E+00 0.  1.
<mgrwt>
<rscale>  0 0.22236969E+04</rscale>
<asrwt>0</asrwt>
<pdfrwt beam="1">  1        2 0.16742723E+00 0.22236969E+04</pdfrwt>
<pdfrwt beam="2">  1       -2 0.17475853E+00 0.22236969E+04</pdfrwt>
<totfact> 0.39859929E+00</totfact>
</mgrwt>
</event>
<event>
12    1  0.1506149E-007  0.1819510E+04  0.7818608E-02  0.8695993E-01
          2   -1    0    0  501    0  0.00000000000E+00  0.00000000000E+00  0.37628357390E+04  0.37628357390E+04  0.00000000000E+00 0. -1.
         -2   -1    0    0    0  501 -0.00000000000E+00 -0.00000000000E+00 -0.21995478724E+03  0.21995478724E+03  0.00000000000E+00 0.  1.
         23    2    1    2    0    0 -0.27881440409E+03  0.14693593849E+03  0.26649863901E+04  0.26851500621E+04  0.92470292642E+02 0.  0.
        254    2    1    2    0    0  0.27881440409E+03 -0.14693593849E+03  0.87789456171E+03  0.12976404641E+04  0.90213317792E+03 0.  0.
        -24    2    4    4    0    0 -0.26522495935E+03 -0.27528718851E+03  0.34022644031E+03  0.51822454255E+03  0.81702696376E+02 0.  0.
         24    2    4    4    0    0  0.54403936344E+03  0.12835125002E+03  0.53766812140E+03  0.77941592158E+03  0.77131690531E+02 0.  0.
         13    1    3    3    0    0 -0.26653435053E+03  0.12623916120E+03  0.25806555238E+04  0.25974525632E+04  0.00000000000E+00 0. -1.
        -13    1    3    3    0    0 -0.12280053569E+02  0.20696777289E+02  0.84330866269E+02  0.87697498890E+02  0.00000000000E+00 0.  1.
          2    1    6    6  502    0  0.34373181418E+03  0.10443761161E+03  0.38381663909E+03  0.52571283724E+03  0.00000000000E+00 0. -1.
          3    1    5    5  503    0 -0.22587760885E+03 -0.25708514459E+03  0.27092139883E+03  0.43647665469E+03  0.00000000000E+00 0. -1.
         -4    1    5    5    0  503 -0.39347350500E+02 -0.18202043918E+02  0.69305041480E+02  0.81747887854E+02  0.00000000000E+00 0.  1.
         -1    1    6    6    0  502  0.20030754926E+03  0.23913638419E+02  0.15385148231E+03  0.25370308434E+03  0.00000000000E+00 0.  1.
<mgrwt>
<rscale>  0 0.18195095E+04</rscale>
<asrwt>0</asrwt>
<pdfrwt beam="1">  1        2 0.57889776E+00 0.18195095E+04</pdfrwt>
<pdfrwt beam="2">  1       -2 0.33839201E-01 0.18195095E+04</pdfrwt>
<totfact> 0.40800179E+00</totfact>
</mgrwt>
</event>
<event>
12    1  0.1506149E-007  0.1762845E+04  0.7818608E-02  0.8726311E-01
         -2   -1    0    0    0  501 -0.00000000000E+00  0.00000000000E+00  0.34682420578E+03  0.34682420578E+03  0.00000000000E+00 0.  1.
          2   -1    0    0  501    0  0.00000000000E+00 -0.00000000000E+00 -0.22400570305E+04  0.22400570305E+04  0.00000000000E+00 0. -1.
         23    2    1    2    0    0  0.16558035433E+02 -0.55419211710E+02 -0.16343275144E+04  0.16380371924E+04  0.93776125742E+02 0.  0.
        254    2    1    2    0    0 -0.16558035433E+02  0.55419211710E+02 -0.25890531031E+03  0.94884404388E+03  0.91100362367E+03 0.  0.
        -24    2    4    4    0    0  0.26464752557E+02 -0.28999751464E+03 -0.45161808402E+03  0.54345695382E+03  0.81164186761E+02 0.  0.
         24    2    4    4    0    0 -0.43022787990E+02  0.34541672635E+03  0.19271277370E+03  0.40538709007E+03  0.77696875837E+02 0.  0.
         13    1    3    3    0    0  0.33949108499E+02  0.11761064682E+02 -0.35079446908E+03  0.35262958490E+03  0.00000000000E+00 0.  1.
        -13    1    3    3    0    0 -0.17391073066E+02 -0.67180276391E+02 -0.12835330453E+04  0.12854076075E+04  0.00000000000E+00 0. -1.
          2    1    6    6  502    0 -0.38806603770E+02  0.74534937432E+02  0.62968342839E+02  0.10500676928E+03  0.00000000000E+00 0. -1.
          3    1    5    5  503    0 -0.10495720205E+00 -0.13974470130E+02 -0.72011728322E+02  0.73355203274E+02  0.00000000000E+00 0. -1.
         -4    1    5    5    0  503  0.26569709759E+02 -0.27602304451E+03 -0.37960635570E+03  0.47010175054E+03  0.00000000000E+00 0.  1.
         -1    1    6    6    0  502 -0.42161842200E+01  0.27088178892E+03  0.12974443087E+03  0.30038032079E+03  0.00000000000E+00 0.  1.
<mgrwt>
<rscale>  0 0.17628454E+04</rscale>
<asrwt>0</asrwt>
<pdfrwt beam="1">  1        2 0.34462416E+00 0.17628454E+04</pdfrwt>
<pdfrwt beam="2">  1       -2 0.53357570E-01 0.17628454E+04</pdfrwt>
<totfact> 0.15375083E+01</totfact>
</mgrwt>
</event>
<event>
12    1  0.1506149E-007  0.1947849E+04  0.7818608E-02  0.8631399E-01
         -1   -1    0    0    0  501 -0.00000000000E+00  0.00000000000E+00  0.84479391432E+03  0.84479391432E+03  0.00000000000E+00 0.  1.
          1   -1    0    0  501    0  0.00000000000E+00 -0.00000000000E+00 -0.11227928588E+04  0.11227928588E+04  0.00000000000E+00 0. -1.
         23    2    1    2    0    0  0.23608644686E+03 -0.11087523656E+02  0.60262192841E+03  0.65373633776E+03  0.91423558953E+02 0.  0.
        254    2    1    2    0    0 -0.23608644686E+03  0.11087523656E+02 -0.88062087289E+03  0.13138504354E+04  0.94596516911E+03 0.  0.
        -24    2    4    4    0    0 -0.70877058140E+02  0.38328234372E+03 -0.79447470071E+03  0.88939401829E+03  0.88897454000E+02 0.  0.
         24    2    4    4    0    0 -0.16520938872E+03 -0.37219482006E+03 -0.86146172183E+02  0.42445641708E+03  0.83180291016E+02 0.  0.
         13    1    3    3    0    0  0.36222111638E+02  0.26119758694E+02  0.64133823974E+02  0.78150051460E+02  0.00000000000E+00 0. -1.
        -13    1    3    3    0    0  0.19986433522E+03 -0.37207282350E+02  0.53848810444E+03  0.57558628630E+03  0.00000000000E+00 0.  1.
          4    1    6    6  502    0 -0.81437301459E+01 -0.10345582528E+03 -0.11932352119E+02  0.10445960536E+03  0.00000000000E+00 0. -1.
          3    1    5    5  503    0 -0.60707504563E+01 -0.38767389861E+01 -0.12697770043E+02  0.14598509524E+02  0.00000000000E+00 0. -1.
         -4    1    5    5    0  503 -0.64806307684E+02  0.38715908270E+03 -0.78177693067E+03  0.87479550877E+03  0.00000000000E+00 0.  1.
         -3    1    6    6    0  502 -0.15706565858E+03 -0.26873899478E+03 -0.74213820064E+02  0.31999681172E+03  0.00000000000E+00 0.  1.
<mgrwt>
<rscale>  0 0.19478486E+04</rscale>
<asrwt>0</asrwt>
<pdfrwt beam="1">  1        1 0.17273736E+00 0.19478486E+04</pdfrwt>
<pdfrwt beam="2">  1       -1 0.12996829E+00 0.19478486E+04</pdfrwt>
<totfact> 0.57639994E+00</totfact>
</mgrwt>
</event>
<event>
12    1  0.2823280E-007  0.2574843E+04  0.7818608E-02  0.8376797E-01
          1   -1    0    0  501    0  0.00000000000E+00  0.00000000000E+00  0.28510687532E+04  0.28510687532E+04  0.00000000000E+00 0. -1.
         -1   -1    0    0    0  501 -0.00000000000E+00 -0.00000000000E+00 -0.58134486389E+03  0.58134486389E+03  0.00000000000E+00 0.  1.
         23    2    1    2    0    0 -0.97831550091E+03 -0.46775871996E+03  0.58423883307E+03  0.12349460505E+04  0.88641379155E+02 0.  0.
        254    2    1    2    0    0  0.97831550091E+03  0.46775871996E+03  0.16854850562E+04  0.21974675666E+04  0.90116834834E+03 0.  0.
        -24    2    4    4    0    0  0.48783240276E+03  0.51592453216E+03  0.15053568011E+04  0.16664071055E+04  0.81577977191E+02 0.  0.
         24    2    4    4    0    0  0.49048309815E+03 -0.48165812204E+02  0.18012825507E+03  0.53106046111E+03  0.81764356814E+02 0.  0.
         11    1    3    3    0    0 -0.11035196629E+03 -0.45947032593E+02  0.34954667902E+02  0.12454121839E+03  0.00000000000E+00 0.  1.
        -11    1    3    3    0    0 -0.86796353462E+03 -0.42181168736E+03  0.54928416516E+03  0.11104048321E+04  0.00000000000E+00 0. -1.
          4    1    6    6  502    0  0.49805073165E+02  0.87595177813E+01 -0.25520830130E+01  0.50633858162E+02  0.00000000000E+00 0. -1.
          1    1    5    5  503    0  0.20253843228E+01 -0.30769172599E+01  0.57079106227E+01  0.67933677330E+01  0.00000000000E+00 0. -1.
         -2    1    5    5    0  503  0.48580701844E+03  0.51900144942E+03  0.14996488905E+04  0.16596137377E+04  0.00000000000E+00 0.  1.
         -3    1    6    6    0  502  0.44067802499E+03 -0.56925329986E+02  0.18268033809E+03  0.48042660295E+03  0.00000000000E+00 0.  1.
<mgrwt>
<rscale>  0 0.25748430E+04</rscale>
<asrwt>0</asrwt>
<pdfrwt beam="1">  1        1 0.43862596E+00 0.25748430E+04</pdfrwt>
<pdfrwt beam="2">  1       -1 0.89437673E-01 0.25748430E+04</pdfrwt>
<totfact> 0.82799550E-01</totfact>
</mgrwt>
</event>
<event>
12    1  0.1506149E-007  0.1691414E+04  0.7818608E-02  0.8766277E-01
          2   -1    0    0  501    0  0.00000000000E+00  0.00000000000E+00  0.18994303419E+04  0.18994303419E+04  0.00000000000E+00 0. -1.
         -2   -1    0    0    0  501 -0.00000000000E+00 -0.00000000000E+00 -0.37654461294E+03  0.37654461294E+03  0.00000000000E+00 0.  1.
         23    2    1    2    0    0  0.11854064665E+03 -0.59028095735E+03  0.44849691381E+03  0.75589287359E+03  0.87983300242E+02 0.  0.
        254    2    1    2    0    0 -0.11854064665E+03  0.59028095735E+03  0.10743888152E+04  0.15200820813E+04  0.89098524912E+03 0.  0.
        -24    2    4    4    0    0 -0.23322028455E+03  0.76521985607E+03  0.10012413459E+04  0.12840374767E+04  0.79466217181E+02 0.  0.
         24    2    4    4    0    0  0.11467963790E+03 -0.17493889872E+03  0.73147469291E+02  0.23604460456E+03  0.81310918339E+02 0.  0.
         13    1    3    3    0    0  0.56513985414E+02 -0.20380224484E+03  0.10991344609E+03  0.23834880151E+03  0.00000000000E+00 0. -1.
        -13    1    3    3    0    0  0.62026661235E+02 -0.38647871251E+03  0.33858346772E+03  0.51754407208E+03  0.00000000000E+00 0.  1.
          2    1    6    6  502    0  0.12136293366E+03 -0.12604697817E+03  0.54094697101E+02  0.18314758701E+03  0.00000000000E+00 0. -1.
          1    1    5    5  503    0 -0.16366170444E+03  0.63924687950E+03  0.81262780103E+03  0.10467978169E+04  0.00000000000E+00 0. -1.
         -2    1    5    5    0  503 -0.69558580109E+02  0.12597297657E+03  0.18861354487E+03  0.23723965984E+03  0.00000000000E+00 0.  1.
         -1    1    6    6    0  502 -0.66832957582E+01 -0.48891920551E+02  0.19052772191E+02  0.52897017548E+02  0.00000000000E+00 0.  1.
<mgrwt>
<rscale>  0 0.16914139E+04</rscale>
<asrwt>0</asrwt>
<pdfrwt beam="1">  1        2 0.29222005E+00 0.16914139E+04</pdfrwt>
<pdfrwt beam="2">  1       -2 0.57929941E-01 0.16914139E+04</pdfrwt>
<totfact> 0.20180490E+01</totfact>
</mgrwt>
</event>
<event>
12    1  0.1506149E-007  0.1053273E+04  0.7818608E-02  0.9251971E-01
         -2   -1    0    0    0  501 -0.00000000000E+00  0.00000000000E+00  0.14767688741E+03  0.14767688741E+03  0.00000000000E+00 0.  1.
          2   -1    0    0  501    0  0.00000000000E+00 -0.00000000000E+00 -0.18780593416E+04  0.18780593416E+04  0.00000000000E+00 0. -1.
         23    2    1    2    0    0  0.73204246267E+02 -0.99894065855E+02 -0.45800481396E+03  0.48287029517E+03  0.89764281755E+02 0.  0.
        254    2    1    2    0    0 -0.73204246267E+02  0.99894065855E+02 -0.12723776403E+04  0.15428659339E+04  0.86380133387E+03 0.  0.
        -24    2    4    4    0    0 -0.30370530091E+03 -0.15353854062E+03 -0.10937818494E+04  0.11482937770E+04  0.80055424588E+02 0.  0.
         24    2    4    4    0    0  0.23050105465E+03  0.25343260647E+03 -0.17859579088E+03  0.39457215686E+03  0.80199178520E+02 0.  0.
         13    1    3    3    0    0  0.86324452166E+02 -0.99181050981E+02 -0.44632500223E+03  0.46529001658E+03  0.00000000000E+00 0. -1.
        -13    1    3    3    0    0 -0.13120205899E+02 -0.71301487408E+00 -0.11679811729E+02  0.17580278584E+02  0.00000000000E+00 0.  1.
          2    1    6    6  502    0 -0.22476598496E+01 -0.23705382892E+01  0.25654358531E+01  0.41536595547E+01  0.00000000000E+00 0. -1.
          1    1    5    5  503    0 -0.92937037094E+02 -0.48271736117E+02 -0.46946070898E+03  0.48099980316E+03  0.00000000000E+00 0. -1.
         -2    1    5    5    0  503 -0.21076826382E+03 -0.10526680450E+03 -0.62432114043E+03  0.66729397386E+03  0.00000000000E+00 0.  1.
         -1    1    6    6    0  502  0.23274871450E+03  0.25580314476E+03 -0.18116122673E+03  0.39041849731E+03  0.00000000000E+00 0.  1.
<mgrwt>
<rscale>  0 0.10532729E+04</rscale>
<asrwt>0</asrwt>
<pdfrwt beam="1">  1        2 0.28893222E+00 0.10532729E+04</pdfrwt>
<pdfrwt beam="2">  1       -2 0.22719520E-01 0.10532729E+04</pdfrwt>
<totfact> 0.13272956E+02</totfact>
</mgrwt>
</event>
<event>
12    1  0.1506149E-007  0.2223309E+04  0.7818608E-02  0.8508788E-01
          2   -1    0    0  501    0  0.00000000000E+00  0.00000000000E+00  0.70555899252E+03  0.70555899252E+03  0.00000000000E+00 0. -1.
         -2   -1    0    0    0  501 -0.00000000000E+00 -0.00000000000E+00 -0.17514853925E+04  0.17514853925E+04  0.00000000000E+00 0.  1.
         23    2    1    2    0    0 -0.85978314319E+03 -0.25170381460E+03 -0.27085845053E+03  0.94049191069E+03  0.92622190876E+02 0.  0.
        254    2    1    2    0    0  0.85978314319E+03  0.25170381460E+03 -0.77506794946E+03  0.15165524743E+04  0.94689979278E+03 0.  0.
        -24    2    4    4    0    0 -0.14521536974E+03  0.24078938938E+03 -0.21554299639E+03  0.36340626396E+03  0.80859728826E+02 0.  0.
         24    2    4    4    0    0  0.10049985129E+04  0.10914425226E+02 -0.55952495307E+03  0.11531462104E+04  0.80850935415E+02 0.  0.
         11    1    3    3    0    0 -0.34207866705E+03 -0.56996258270E+02 -0.12300487660E+03  0.36796275297E+03  0.00000000000E+00 0.  1.
        -11    1    3    3    0    0 -0.51770447614E+03 -0.19470755633E+03 -0.14785357393E+03  0.57252915772E+03  0.00000000000E+00 0. -1.
          4    1    6    6  502    0  0.88799567200E+03 -0.16028959307E+02 -0.48761153580E+03  0.10131921096E+04  0.00000000000E+00 0. -1.
          1    1    5    5  503    0 -0.74357176887E+02  0.76187392147E+02 -0.11965803941E+03  0.16016102795E+03  0.00000000000E+00 0. -1.
         -2    1    5    5    0  503 -0.70858192853E+02  0.16460199723E+03 -0.95884956973E+02  0.20324523601E+03  0.00000000000E+00 0.  1.
         -3    1    6    6    0  502  0.11700284093E+03  0.26943384533E+02 -0.71913417272E+02  0.13995410083E+03  0.00000000000E+00 0.  1.
<mgrwt>
<rscale>  0 0.22233095E+04</rscale>
<asrwt>0</asrwt>
<pdfrwt beam="1">  1        2 0.10854754E+00 0.22233095E+04</pdfrwt>
<pdfrwt beam="2">  1       -2 0.26945929E+00 0.22233095E+04</pdfrwt>
<totfact> 0.18072841E+00</totfact>
</mgrwt>
</event>
<event>
12    1  0.1506149E-007  0.1237512E+04  0.7818608E-02  0.9080641E-01
          2   -1    0    0  501    0  0.00000000000E+00  0.00000000000E+00  0.30799970529E+04  0.30799970529E+04  0.00000000000E+00 0. -1.
         -2   -1    0    0    0  501 -0.00000000000E+00 -0.00000000000E+00 -0.12430507471E+03  0.12430507471E+03  0.00000000000E+00 0.  1.
         23    2    1    2    0    0 -0.19453087375E+03  0.14140562469E+02  0.17594428900E+03  0.27837348211E+03  0.92158485016E+02 0.  0.
        254    2    1    2    0    0  0.19453087375E+03 -0.14140562469E+02  0.27797476892E+04  0.29259286455E+04  0.89219897255E+03 0.  0.
        -24    2    4    4    0    0 -0.21209100596E+03 -0.39456110710E+01  0.17050363716E+03  0.28391200702E+03  0.80847849612E+02 0.  0.
         24    2    4    4    0    0  0.40662187972E+03 -0.10194951398E+02  0.26092440520E+04  0.26420166385E+04  0.81560436613E+02 0.  0.
         13    1    3    3    0    0 -0.16309000338E+02 -0.17482570154E+02  0.56928297668E+02  0.61745079372E+02  0.00000000000E+00 0. -1.
        -13    1    3    3    0    0 -0.17822187342E+03  0.31623132622E+02  0.11901599133E+03  0.21662840274E+03  0.00000000000E+00 0.  1.
          2    1    6    6  502    0  0.16554457563E+03 -0.44142259670E+02  0.10553841552E+04  0.10692002903E+04  0.00000000000E+00 0. -1.
          1    1    5    5  503    0 -0.20378923270E+03  0.15581446819E+02  0.16294141779E+03  0.26138618648E+03  0.00000000000E+00 0. -1.
         -2    1    5    5    0  503 -0.83017732611E+01 -0.19527057890E+02  0.75622193662E+01  0.22525820537E+02  0.00000000000E+00 0.  1.
         -1    1    6    6    0  502  0.24107730408E+03  0.33947308272E+02  0.15538598968E+04  0.15728163482E+04  0.00000000000E+00 0.  1.
<mgrwt>
<rscale>  0 0.12375124E+04</rscale>
<asrwt>0</asrwt>
<pdfrwt beam="1">  1        2 0.47384564E+00 0.12375124E+04</pdfrwt>
<pdfrwt beam="2">  1       -2 0.19123860E-01 0.12375124E+04</pdfrwt>
<totfact> 0.35794582E+01</totfact>
</mgrwt>
</event>
<event>
12    1  0.1506149E-007  0.2070785E+04  0.7818608E-02  0.8574223E-01
         -1   -1    0    0    0  501 -0.00000000000E+00  0.00000000000E+00  0.55601498409E+03  0.55601498409E+03  0.00000000000E+00 0.  1.
          1   -1    0    0  501    0  0.00000000000E+00 -0.00000000000E+00 -0.19280735042E+04  0.19280735042E+04  0.00000000000E+00 0. -1.
         23    2    1    2    0    0  0.72262530434E+03 -0.55358990411E+02 -0.10845055214E+04  0.13076757304E+04  0.92798931664E+02 0.  0.
        254    2    1    2    0    0 -0.72262530434E+03  0.55358990411E+02 -0.28755299875E+03  0.11764127579E+04  0.88091333375E+03 0.  0.
        -24    2    4    4    0    0 -0.63922557184E+03  0.31219425047E+03  0.71080689362E+02  0.72011365093E+03  0.86235863400E+02 0.  0.
         24    2    4    4    0    0 -0.83399732494E+02 -0.25683526006E+03 -0.35863368812E+03  0.45629910697E+03  0.81675495560E+02 0.  0.
         11    1    3    3    0    0  0.67399711186E+03 -0.40336180227E+02 -0.10405809022E+04  0.12404465842E+04  0.00000000000E+00 0. -1.
        -11    1    3    3    0    0  0.48628192477E+02 -0.15022810184E+02 -0.43924619145E+02  0.67229146182E+02  0.00000000000E+00 0.  1.
          2    1    6    6  502    0 -0.47777469003E+02 -0.22836369582E+03 -0.32287947660E+03  0.39835137822E+03  0.00000000000E+00 0. -1.
          1    1    5    5  503    0 -0.55127004770E+03  0.25699528002E+03  0.31704537164E+02  0.60905699004E+03  0.00000000000E+00 0. -1.
         -2    1    5    5    0  503 -0.87955524138E+02  0.55198970457E+02  0.39376152198E+02  0.11105666089E+03  0.00000000000E+00 0.  1.
         -1    1    6    6    0  502 -0.35622263492E+02 -0.28471564242E+02 -0.35754211511E+02  0.57947728751E+02  0.00000000000E+00 0.  1.
<mgrwt>
<rscale>  0 0.20707851E+04</rscale>
<asrwt>0</asrwt>
<pdfrwt beam="1">  1        1 0.29662669E+00 0.20707851E+04</pdfrwt>
<pdfrwt beam="2">  1       -1 0.85540767E-01 0.20707851E+04</pdfrwt>
<totfact> 0.41510716E+00</totfact>
</mgrwt>
</event>
<event>
12    1  0.1506149E-007  0.1647591E+04  0.7818608E-02  0.8791833E-01
         -1   -1    0    0    0  501 -0.00000000000E+00  0.00000000000E+00  0.10867160713E+04  0.10867160713E+04  0.00000000000E+00 0.  1.
          1   -1    0    0  501    0  0.00000000000E+00 -0.00000000000E+00 -0.62448589512E+03  0.62448589512E+03  0.00000000000E+00 0. -1.
         23    2    1    2    0    0 -0.32202192356E+03  0.37936849174E+03 -0.12707137083E+03  0.52155533545E+03  0.90852973914E+02 0.  0.
        254    2    1    2    0    0  0.32202192356E+03 -0.37936849174E+03  0.58930154706E+03  0.11896466310E+04  0.90573959919E+03 0.  0.
        -24    2    4    4    0    0  0.39470259286E+03 -0.17595664598E+03 -0.11035879715E+03  0.45306174326E+03  0.79592719644E+02 0.  0.
         24    2    4    4    0    0 -0.72680669301E+02 -0.20341184575E+03  0.69966034421E+03  0.73658488775E+03  0.79836338366E+02 0.  0.
         13    1    3    3    0    0 -0.13842137379E+03  0.23230537391E+03 -0.74939962024E+02  0.28061051545E+03  0.00000000000E+00 0. -1.
        -13    1    3    3    0    0 -0.18360054977E+03  0.14706311782E+03 -0.52131408810E+02  0.24094482000E+03  0.00000000000E+00 0.  1.
          4    1    6    6  502    0 -0.77612882538E+02 -0.18754941875E+03  0.55458586736E+03  0.59056246773E+03  0.00000000000E+00 0. -1.
          3    1    5    5  503    0  0.21328218005E+03 -0.62884659428E+02 -0.28613805900E+02  0.22419303871E+03  0.00000000000E+00 0. -1.
         -4    1    5    5    0  503  0.18142041282E+03 -0.11307198656E+03 -0.81744991247E+02  0.22886870455E+03  0.00000000000E+00 0.  1.
         -3    1    6    6    0  502  0.49322132371E+01 -0.15862427004E+02  0.14507447685E+03  0.14602242003E+03  0.00000000000E+00 0.  1.
<mgrwt>
<rscale>  0 0.16475908E+04</rscale>
<asrwt>0</asrwt>
<pdfrwt beam="1">  1        1 0.96074753E-01 0.16475908E+04</pdfrwt>
<pdfrwt beam="2">  1       -1 0.16718709E+00 0.16475908E+04</pdfrwt>
<totfact> 0.79707040E+00</totfact>
</mgrwt>
</event>
<event>
12    1  0.1506149E-007  0.2033994E+04  0.7818608E-02  0.8590890E-01
          1   -1    0    0  501    0  0.00000000000E+00  0.00000000000E+00  0.19852355792E+04  0.19852355792E+04  0.00000000000E+00 0. -1.
         -1   -1    0    0    0  501 -0.00000000000E+00 -0.00000000000E+00 -0.52098732806E+03  0.52098732806E+03  0.00000000000E+00 0.  1.
         23    2    1    2    0    0  0.71169553786E+03  0.33589710669E+03  0.80564987203E+03  0.11301575542E+04  0.94058365610E+02 0.  0.
        254    2    1    2    0    0 -0.71169553786E+03 -0.33589710669E+03  0.65859837914E+03  0.13760653531E+04  0.91676966902E+03 0.  0.
        -24    2    4    4    0    0 -0.20931427902E+03 -0.56833571248E+03  0.17115957595E+03  0.63417672362E+03  0.77888168904E+02 0.  0.
         24    2    4    4    0    0 -0.50238125885E+03  0.23243860579E+03  0.48743880319E+03  0.74188862946E+03  0.79921942907E+02 0.  0.
         11    1    3    3    0    0  0.57414622964E+03  0.26603811808E+03  0.69740825771E+03  0.94169976702E+03  0.00000000000E+00 0.  1.
        -11    1    3    3    0    0  0.13754930823E+03  0.69858988611E+02  0.10824161432E+03  0.18845778719E+03  0.00000000000E+00 0. -1.
          2    1    6    6  502    0 -0.48974446169E+03  0.21568213963E+03  0.48201191261E+03  0.72021101561E+03  0.00000000000E+00 0. -1.
          3    1    5    5  503    0 -0.17820368024E+03 -0.44687247704E+03  0.16514057143E+03  0.50864817970E+03  0.00000000000E+00 0. -1.
         -4    1    5    5    0  503 -0.31110598779E+02 -0.12146323545E+03  0.60190045146E+01  0.12552854391E+03  0.00000000000E+00 0.  1.
         -1    1    6    6    0  502 -0.12636797162E+02  0.16756466162E+02  0.54268905804E+01  0.21677613847E+02  0.00000000000E+00 0.  1.
<mgrwt>
<rscale>  0 0.20339937E+04</rscale>
<asrwt>0</asrwt>
<pdfrwt beam="1">  1        1 0.30542085E+00 0.20339937E+04</pdfrwt>
<pdfrwt beam="2">  1       -1 0.80151898E-01 0.20339937E+04</pdfrwt>
<totfact> 0.43817579E+00</totfact>
</mgrwt>
</event>
<event>
12    1  0.1506149E-007  0.1130975E+04  0.7818608E-02  0.9175517E-01
         -2   -1    0    0    0  501 -0.00000000000E+00  0.00000000000E+00  0.49091371958E+03  0.49091371958E+03  0.00000000000E+00 0.  1.
          2   -1    0    0  501    0  0.00000000000E+00 -0.00000000000E+00 -0.65138937432E+03  0.65138937432E+03  0.00000000000E+00 0. -1.
         23    2    1    2    0    0 -0.16355995574E+02 -0.11052713015E+03 -0.18048067754E+03  0.22942700648E+03  0.87061537123E+02 0.  0.
        254    2    1    2    0    0  0.16355995574E+02  0.11052713015E+03  0.20005022800E+02  0.91287608742E+03  0.90579180000E+03 0.  0.
        -24    2    4    4    0    0  0.33001324430E+03  0.65497028812E+02  0.31829204436E+03  0.47035454671E+03  0.82005926025E+02 0.  0.
         24    2    4    4    0    0 -0.31365724873E+03  0.45030101335E+02 -0.29828702156E+03  0.44252154071E+03  0.80259498234E+02 0.  0.
         13    1    3    3    0    0 -0.39384153075E+02 -0.75382698357E+02 -0.66543545936E+02  0.10798938018E+03  0.00000000000E+00 0.  1.
        -13    1    3    3    0    0  0.23028157501E+02 -0.35144431790E+02 -0.11393713160E+03  0.12143762630E+03  0.00000000000E+00 0. -1.
          4    1    6    6  502    0 -0.23301064251E+03 -0.27909689191E+01 -0.20788919464E+03  0.31228138958E+03  0.00000000000E+00 0. -1.
          3    1    5    5  503    0  0.23057773596E+03  0.16786974617E+02  0.24878793257E+03  0.33962233470E+03  0.00000000000E+00 0. -1.
         -4    1    5    5    0  503  0.99435508337E+02  0.48710054195E+02  0.69504111799E+02  0.13073221200E+03  0.00000000000E+00 0.  1.
         -3    1    6    6    0  502 -0.80646606220E+02  0.47821070254E+02 -0.90397826928E+02  0.13024015114E+03  0.00000000000E+00 0.  1.
<mgrwt>
<rscale>  0 0.11309748E+04</rscale>
<asrwt>0</asrwt>
<pdfrwt beam="1">  1        2 0.10021375E+00 0.11309748E+04</pdfrwt>
<pdfrwt beam="2">  1       -2 0.75525188E-01 0.11309748E+04</pdfrwt>
<totfact> 0.69914670E+01</totfact>
</mgrwt>
</event>
<event>
12    1  0.1506149E-007  0.2218523E+04  0.7818608E-02  0.8510758E-01
         -2   -1    0    0    0  501 -0.00000000000E+00  0.00000000000E+00  0.67624041700E+03  0.67624041700E+03  0.00000000000E+00 0.  1.
          2   -1    0    0  501    0  0.00000000000E+00 -0.00000000000E+00 -0.18195609975E+04  0.18195609975E+04  0.00000000000E+00 0. -1.
         23    2    1    2    0    0 -0.60897167409E+03 -0.10264953358E+02 -0.12398794171E+04  0.13843983920E+04  0.91137641582E+02 0.  0.
        254    2    1    2    0    0  0.60897167409E+03  0.10264953358E+02  0.96558836662E+02  0.11114030224E+04  0.92463030463E+03 0.  0.
        -24    2    4    4    0    0  0.38599247058E+03  0.44678986089E+03 -0.38209431405E+02  0.59692840801E+03  0.79070832170E+02 0.  0.
         24    2    4    4    0    0  0.22297920351E+03 -0.43652490754E+03  0.13476826807E+03  0.51447461444E+03  0.79043802553E+02 0.  0.
         13    1    3    3    0    0 -0.73771635356E+02  0.44674364933E+01 -0.22686313702E+03  0.23859818757E+03  0.00000000000E+00 0.  1.
        -13    1    3    3    0    0 -0.53520003873E+03 -0.14732389851E+02 -0.10130162801E+04  0.11458002045E+04  0.00000000000E+00 0. -1.
          4    1    6    6  502    0  0.64507876694E+02 -0.18003996497E+03  0.21688500276E+02  0.19247349476E+03  0.00000000000E+00 0. -1.
          3    1    5    5  503    0  0.24203266637E+02  0.19794586870E+02  0.15129345753E+02  0.34735009547E+02  0.00000000000E+00 0. -1.
         -4    1    5    5    0  503  0.36178920394E+03  0.42699527402E+03 -0.53338777158E+02  0.56219339846E+03  0.00000000000E+00 0.  1.
         -1    1    6    6    0  502  0.15847132682E+03 -0.25648494257E+03  0.11307976779E+03  0.32200111968E+03  0.00000000000E+00 0.  1.
<mgrwt>
<rscale>  0 0.22185227E+04</rscale>
<asrwt>0</asrwt>
<pdfrwt beam="1">  1        2 0.27993246E+00 0.22185227E+04</pdfrwt>
<pdfrwt beam="2">  1       -2 0.10403699E+00 0.22185227E+04</pdfrwt>
<totfact> 0.57722177E+00</totfact>
</mgrwt>
</event>
<event>
12    1  0.1506149E-007  0.2434536E+04  0.7818608E-02  0.8426686E-01
         -1   -1    0    0    0  501 -0.00000000000E+00  0.00000000000E+00  0.75134821850E+03  0.75134821850E+03  0.00000000000E+00 0. -1.
          1   -1    0    0  501    0  0.00000000000E+00 -0.00000000000E+00 -0.19721106797E+04  0.19721106797E+04  0.00000000000E+00 0.  1.
         23    2    1    2    0    0 -0.56927597957E+03 -0.31236941292E+03  0.39246675437E+03  0.76455799854E+03  0.94175308856E+02 0.  0.
        254    2    1    2    0    0  0.56927597957E+03  0.31236941292E+03 -0.16132292155E+04  0.19589008996E+04  0.90173967509E+03 0.  0.
        -24    2    4    4    0    0  0.47757662325E+03  0.61313639842E+03 -0.12260522958E+04  0.14538757398E+04  0.80837866878E+02 0.  0.
         24    2    4    4    0    0  0.91699356321E+02 -0.30076698551E+03 -0.38717691978E+03  0.50502515982E+03  0.79214224188E+02 0.  0.
         11    1    3    3    0    0 -0.13295627440E+02 -0.26888594196E+02  0.90528814009E+01  0.31332489025E+02  0.00000000000E+00 0.  1.
        -11    1    3    3    0    0 -0.55598035213E+03 -0.28548081872E+03  0.38341387297E+03  0.73322550951E+03  0.00000000000E+00 0. -1.
          4    1    6    6  502    0  0.77947029120E+02 -0.16290690612E+03 -0.26261899868E+03  0.31872109732E+03  0.00000000000E+00 0. -1.
          1    1    5    5  503    0  0.30997491914E+03  0.40555072843E+03 -0.73224103400E+03  0.89259888847E+03  0.00000000000E+00 0. -1.
         -2    1    5    5    0  503  0.16760170411E+03  0.20758567000E+03 -0.49381126177E+03  0.56127685135E+03  0.00000000000E+00 0.  1.
         -1    1    6    6    0  502  0.13752327201E+02 -0.13786007939E+03 -0.12455792110E+03  0.18630406249E+03  0.00000000000E+00 0.  1.
<mgrwt>
<rscale>  0 0.24345364E+04</rscale>
<asrwt>0</asrwt>
<pdfrwt beam="1">  1        1 0.30340164E+00 0.24345364E+04</pdfrwt>
<pdfrwt beam="2">  1       -1 0.11559203E+00 0.24345364E+04</pdfrwt>
<totfact> 0.18852073E+00</totfact>
</mgrwt>
</event>
<event>
12    1  0.1506149E-007  0.1356807E+04  0.7818608E-02  0.8985691E-01
          2   -1    0    0  501    0  0.00000000000E+00  0.00000000000E+00  0.43546184354E+03  0.43546184354E+03  0.00000000000E+00 0.  1.
         -2   -1    0    0    0  501 -0.00000000000E+00 -0.00000000000E+00 -0.10568811360E+04  0.10568811360E+04  0.00000000000E+00 0. -1.
         23    2    1    2    0    0 -0.17624468361E+03 -0.91958832198E+02 -0.52550074178E+03  0.56748752273E+03  0.79827586176E+02 0.  0.
        254    2    1    2    0    0  0.17624468361E+03  0.91958832198E+02 -0.95918550631E+02  0.92485545676E+03  0.89813063205E+03 0.  0.
        -24    2    4    4    0    0 -0.93034830452E+02  0.14427153058E+03 -0.43931090496E+03  0.47824775400E+03  0.79101762164E+02 0.  0.
         24    2    4    4    0    0  0.26927951406E+03 -0.52312698387E+02  0.34339235433E+03  0.44660770276E+03  0.79322481346E+02 0.  0.
         13    1    3    3    0    0 -0.92599811210E+02 -0.84109501117E+02 -0.25145917267E+03  0.28085734588E+03  0.00000000000E+00 0.  1.
        -13    1    3    3    0    0 -0.83644872400E+02 -0.78493310805E+01 -0.27404156911E+03  0.28663017685E+03  0.00000000000E+00 0. -1.
          4    1    6    6  502    0  0.53732502263E+02  0.16942950552E+02  0.95563508553E+02  0.11093524931E+03  0.00000000000E+00 0. -1.
          3    1    5    5  503    0  0.98860941441E+01  0.66859830809E+01 -0.68898534613E+02  0.69924568636E+02  0.00000000000E+00 0. -1.
         -4    1    5    5    0  503 -0.10292092460E+03  0.13758554750E+03 -0.37041237035E+03  0.40832318537E+03  0.00000000000E+00 0.  1.
         -3    1    6    6    0  502  0.21554701180E+03 -0.69255648939E+02  0.24782884577E+03  0.33567245345E+03  0.00000000000E+00 0.  1.
<mgrwt>
<rscale>  0 0.13568071E+04</rscale>
<asrwt>0</asrwt>
<pdfrwt beam="1">  1        2 0.66994131E-01 0.13568071E+04</pdfrwt>
<pdfrwt beam="2">  1       -2 0.16259710E+00 0.13568071E+04</pdfrwt>
<totfact> 0.16974199E+01</totfact>
</mgrwt>
</event>
<event>
12    1  0.1506149E-007  0.1418093E+04  0.7818608E-02  0.8940825E-01
          1   -1    0    0  501    0  0.00000000000E+00  0.00000000000E+00  0.18048921968E+04  0.18048921968E+04  0.00000000000E+00 0. -1.
         -1   -1    0    0    0  501 -0.00000000000E+00 -0.00000000000E+00 -0.27854660188E+03  0.27854660188E+03  0.00000000000E+00 0.  1.
         23    2    1    2    0    0  0.40706732461E+02 -0.37175149756E+03  0.79167837675E+03  0.88048202666E+03  0.92939405223E+02 0.  0.
        254    2    1    2    0    0 -0.40706732461E+02  0.37175149756E+03  0.73466721813E+03  0.12029567720E+04  0.87607811287E+03 0.  0.
        -24    2    4    4    0    0  0.39414297211E+03  0.52643642669E+02  0.34635402253E+03  0.53349265663E+03  0.80828647004E+02 0.  0.
         24    2    4    4    0    0 -0.43484970457E+03  0.31910785489E+03  0.38831319559E+03  0.66946411534E+03  0.80442372205E+02 0.  0.
         13    1    3    3    0    0 -0.24280509682E+01 -0.27886133506E+03  0.63185357913E+03  0.69065800877E+03  0.00000000000E+00 0. -1.
        -13    1    3    3    0    0  0.43134783430E+02 -0.92890162497E+02  0.15982479763E+03  0.18982401789E+03  0.00000000000E+00 0.  1.
          4    1    6    6  502    0 -0.32924470613E+03  0.22719193516E+03  0.24485681845E+03  0.46901291396E+03  0.00000000000E+00 0. -1.
          3    1    5    5  503    0  0.35710807077E+03  0.23684828721E+02  0.31678743447E+03  0.47795546232E+03  0.00000000000E+00 0. -1.
         -4    1    5    5    0  503  0.37034901336E+02  0.28958813948E+02  0.29566588068E+02  0.55537194313E+02  0.00000000000E+00 0.  1.
         -3    1    6    6    0  502 -0.10560499844E+03  0.91915919724E+02  0.14345637714E+03  0.20045120139E+03  0.00000000000E+00 0.  1.
<mgrwt>
<rscale>  0 0.14180925E+04</rscale>
<asrwt>0</asrwt>
<pdfrwt beam="1">  1        1 0.27767572E+00 0.14180925E+04</pdfrwt>
<pdfrwt beam="2">  1       -1 0.42853324E-01 0.14180925E+04</pdfrwt>
<totfact> 0.21123047E+01</totfact>
</mgrwt>
</event>
<event>
12    1  0.1506149E-007  0.1436717E+04  0.7818608E-02  0.8927661E-01
         -2   -1    0    0    0  501 -0.00000000000E+00  0.00000000000E+00  0.19716933658E+03  0.19716933658E+03  0.00000000000E+00 0.  1.
          2   -1    0    0  501    0  0.00000000000E+00 -0.00000000000E+00 -0.26172376965E+04  0.26172376965E+04  0.00000000000E+00 0. -1.
         23    2    1    2    0    0  0.27693318044E+03  0.12122515114E+03 -0.14316479367E+03  0.34621672709E+03  0.89343943677E+02 0.  0.
        254    2    1    2    0    0 -0.27693318044E+03 -0.12122515114E+03 -0.22769035663E+04  0.24681903060E+04  0.90348548016E+03 0.  0.
        -24    2    4    4    0    0 -0.92582858727E+01  0.37481449785E+03 -0.90657312649E+03  0.98430537133E+03  0.80066264348E+02 0.  0.
         24    2    4    4    0    0 -0.26767489456E+03 -0.49603964900E+03 -0.13703304398E+04  0.14838849347E+04  0.80023762907E+02 0.  0.
         11    1    3    3    0    0  0.18816537266E+02 -0.12811267799E+02 -0.20248415078E+02  0.30466193895E+02  0.00000000000E+00 0. -1.
        -11    1    3    3    0    0  0.25811664317E+03  0.13403641894E+03 -0.12291637859E+03  0.31575053319E+03  0.00000000000E+00 0.  1.
          2    1    6    6  502    0 -0.16031562389E+03 -0.37199061270E+03 -0.95800711652E+03  0.10401229497E+04  0.00000000000E+00 0. -1.
          3    1    5    5  503    0 -0.53174638282E+01  0.12518189533E+03 -0.40652667694E+03  0.42539713375E+03  0.00000000000E+00 0. -1.
         -4    1    5    5    0  503 -0.39408220445E+01  0.24963260252E+03 -0.50004644955E+03  0.55890823758E+03  0.00000000000E+00 0.  1.
         -1    1    6    6    0  502 -0.10735927068E+03 -0.12404903630E+03 -0.41232332324E+03  0.44376198496E+03  0.00000000000E+00 0.  1.
<mgrwt>
<rscale>  0 0.14367171E+04</rscale>
<asrwt>0</asrwt>
<pdfrwt beam="1">  1        2 0.40265194E+00 0.14367171E+04</pdfrwt>
<pdfrwt beam="2">  1       -2 0.30333745E-01 0.14367171E+04</pdfrwt>
<totfact> 0.29113433E+01</totfact>
</mgrwt>
</event>
<event>
12    1  0.1506149E-007  0.2230678E+04  0.7818608E-02  0.8505767E-01
          2   -1    0    0  501    0  0.00000000000E+00  0.00000000000E+00  0.25549751723E+04  0.25549751723E+04  0.00000000000E+00 0. -1.
         -2   -1    0    0    0  501 -0.00000000000E+00 -0.00000000000E+00 -0.48688584766E+03  0.48688584766E+03  0.00000000000E+00 0.  1.
         23    2    1    2    0    0  0.12281174366E+03  0.87907671012E+03  0.11900181177E+04  0.14872225629E+04  0.88483017825E+02 0.  0.
        254    2    1    2    0    0 -0.12281174366E+03 -0.87907671012E+03  0.87807120698E+03  0.15546384571E+04  0.92630076170E+03 0.  0.
        -24    2    4    4    0    0 -0.43401840875E+03 -0.56155403370E+03  0.84037658931E+03  0.11028841652E+04  0.80035979889E+02 0.  0.
         24    2    4    4    0    0  0.31120666509E+03 -0.31752267642E+03  0.37694617663E+02  0.45175429191E+03  0.70645719046E+02 0.  0.
         13    1    3    3    0    0 -0.91736000735E+01  0.53766416034E+02  0.52891202755E+02  0.75976718542E+02  0.00000000000E+00 0.  1.
        -13    1    3    3    0    0  0.13198534373E+03  0.82531029409E+03  0.11371269149E+04  0.14112458443E+04  0.00000000000E+00 0. -1.
          2    1    6    6  502    0  0.50048259351E+02 -0.75848937171E+02  0.30513143212E+02  0.95858966418E+02  0.00000000000E+00 0. -1.
          3    1    5    5  503    0 -0.10759877010E+03 -0.87977789889E+02  0.15764606222E+03  0.21016628601E+03  0.00000000000E+00 0. -1.
         -2    1    5    5    0  503 -0.32641963865E+03 -0.47357624381E+03  0.68273052710E+03  0.89271787919E+03  0.00000000000E+00 0.  1.
         -3    1    6    6    0  502  0.26115840574E+03 -0.24167373925E+03  0.71814744507E+01  0.35589532549E+03  0.00000000000E+00 0.  1.
<mgrwt>
<rscale>  0 0.22306782E+04</rscale>
<asrwt>0</asrwt>
<pdfrwt beam="1">  1        2 0.39307309E+00 0.22306782E+04</pdfrwt>
<pdfrwt beam="2">  1       -2 0.74905517E-01 0.22306782E+04</pdfrwt>
<totfact> 0.47218010E+00</totfact>
</mgrwt>
</event>
<event>
12    1  0.1506149E-007  0.1734098E+04  0.7818608E-02  0.8742152E-01
          1   -1    0    0  501    0  0.00000000000E+00  0.00000000000E+00  0.15639946119E+04  0.15639946119E+04  0.00000000000E+00 0. -1.
         -1   -1    0    0    0  501 -0.00000000000E+00 -0.00000000000E+00 -0.48067574250E+03  0.48067574250E+03  0.00000000000E+00 0.  1.
         23    2    1    2    0    0 -0.62544619727E+03  0.49852177880E+02  0.41209933378E+03  0.75636156565E+03  0.92675626662E+02 0.  0.
        254    2    1    2    0    0  0.62544619727E+03 -0.49852177880E+02  0.67121953565E+03  0.12883087888E+04  0.90307014395E+03 0.  0.
        -24    2    4    4    0    0  0.24529072431E+03 -0.32129104380E+03 -0.61085253534E+02  0.41593386122E+03  0.76642641206E+02 0.  0.
         24    2    4    4    0    0  0.38015547296E+03  0.27143886592E+03  0.73230478918E+03  0.87237492756E+03  0.81058426003E+02 0.  0.
         11    1    3    3    0    0 -0.10491507453E+03 -0.19402147668E+02  0.45801866376E+02  0.11610954810E+03  0.00000000000E+00 0. -1.
        -11    1    3    3    0    0 -0.52053112274E+03  0.69254325549E+02  0.36629746740E+03  0.64025201755E+03  0.00000000000E+00 0.  1.
          4    1    6    6  502    0  0.24030657950E+03  0.14735312935E+03  0.50205931896E+03  0.57578099712E+03  0.00000000000E+00 0. -1.
          1    1    5    5  503    0  0.18581597766E+03 -0.22264283705E+03 -0.75982841769E+02  0.29978459381E+03  0.00000000000E+00 0. -1.
         -2    1    5    5    0  503  0.59474746649E+02 -0.98648206754E+02  0.14897588236E+02  0.11614926741E+03  0.00000000000E+00 0.  1.
         -3    1    6    6    0  502  0.13984889346E+03  0.12408573657E+03  0.23024547022E+03  0.29659393045E+03  0.00000000000E+00 0.  1.
<mgrwt>
<rscale>  0 0.17340983E+04</rscale>
<asrwt>0</asrwt>
<pdfrwt beam="1">  1        1 0.24061455E+00 0.17340983E+04</pdfrwt>
<pdfrwt beam="2">  1       -1 0.73950115E-01 0.17340983E+04</pdfrwt>
<totfact> 0.10322110E+01</totfact>
</mgrwt>
</event>
<event>
12    1  0.1506149E-007  0.2106016E+04  0.7818608E-02  0.8558598E-01
         -2   -1    0    0    0  501 -0.00000000000E+00  0.00000000000E+00  0.10026662549E+04  0.10026662549E+04  0.00000000000E+00 0.  1.
          2   -1    0    0  501    0  0.00000000000E+00 -0.00000000000E+00 -0.11058770513E+04  0.11058770513E+04  0.00000000000E+00 0. -1.
         23    2    1    2    0    0  0.17181222462E+03  0.49397281744E+03 -0.72299447625E+03  0.89695087412E+03  0.90946539211E+02 0.  0.
        254    2    1    2    0    0 -0.17181222462E+03 -0.49397281744E+03  0.61978367989E+03  0.12115924321E+04  0.90016433324E+03 0.  0.
        -24    2    4    4    0    0 -0.30982115504E+02  0.25747663876E+03  0.13931413777E+03  0.30509441386E+03  0.80125285622E+02 0.  0.
         24    2    4    4    0    0 -0.14083010911E+03 -0.75144945620E+03  0.48046954212E+03  0.90649801827E+03  0.79864080543E+02 0.  0.
         11    1    3    3    0    0  0.73545108026E+02  0.10299702974E+03 -0.19877990769E+03  0.23564957618E+03  0.00000000000E+00 0. -1.
        -11    1    3    3    0    0  0.98267116590E+02  0.39097578770E+03 -0.52421456855E+03  0.66130129794E+03  0.00000000000E+00 0.  1.
          4    1    6    6  502    0 -0.19837869885E+02 -0.55796741108E+02  0.61886194720E+02  0.85654646673E+02  0.00000000000E+00 0. -1.
          3    1    5    5  503    0 -0.44365933885E+02  0.67300357004E+02  0.36428458593E+02  0.88457372433E+02  0.00000000000E+00 0. -1.
         -4    1    5    5    0  503  0.13383818381E+02  0.19017628176E+03  0.10288567918E+03  0.21663704142E+03  0.00000000000E+00 0.  1.
         -3    1    6    6    0  502 -0.12099223923E+03 -0.69565271510E+03  0.41858334740E+03  0.82084337160E+03  0.00000000000E+00 0.  1.
<mgrwt>
<rscale>  0 0.21060158E+04</rscale>
<asrwt>0</asrwt>
<pdfrwt beam="1">  1        2 0.17013493E+00 0.21060158E+04</pdfrwt>
<pdfrwt beam="2">  1       -2 0.15425635E+00 0.21060158E+04</pdfrwt>
<totfact> 0.55339012E+00</totfact>
</mgrwt>
</event>
<event>
12    1  0.1506149E-007  0.1328089E+04  0.7818608E-02  0.9007582E-01
         -2   -1    0    0    0  501 -0.00000000000E+00  0.00000000000E+00  0.12986302550E+04  0.12986302550E+04  0.00000000000E+00 0.  1.
          2   -1    0    0  501    0  0.00000000000E+00 -0.00000000000E+00 -0.33955419446E+03  0.33955419446E+03  0.00000000000E+00 0. -1.
         23    2    1    2    0    0 -0.14052850981E+03 -0.13076493001E+03  0.62551076309E+03  0.66038481941E+03  0.89424079384E+02 0.  0.
        254    2    1    2    0    0  0.14052850981E+03  0.13076493001E+03  0.33356529746E+03  0.97779963006E+03  0.89887628731E+03 0.  0.
        -24    2    4    4    0    0 -0.83821625624E+02  0.44145020759E+03  0.36554176390E+03  0.58481710230E+03  0.80535155564E+02 0.  0.
         24    2    4    4    0    0  0.22435013543E+03 -0.31068527758E+03 -0.31976466433E+02  0.39298252777E+03  0.80959543930E+02 0.  0.
         11    1    3    3    0    0 -0.13431917257E+03 -0.93331222308E+02  0.57102406960E+03  0.59398724333E+03  0.00000000000E+00 0.  1.
        -11    1    3    3    0    0 -0.62093372389E+01 -0.37433707706E+02  0.54486693491E+02  0.66397576079E+02  0.00000000000E+00 0. -1.
          2    1    6    6  502    0  0.15077268288E+03 -0.14737620903E+03 -0.35632184740E+02  0.21382656870E+03  0.00000000000E+00 0. -1.
          1    1    5    5  503    0 -0.83945661064E+02  0.43950360921E+03  0.36957220661E+03  0.58033948032E+03  0.00000000000E+00 0. -1.
         -2    1    5    5    0  503  0.12403543965E+00  0.19465983822E+01 -0.40304427172E+01  0.44776219747E+01  0.00000000000E+00 0.  1.
         -1    1    6    6    0  502  0.73577452546E+02 -0.16330906855E+03  0.36557183075E+01  0.17915595907E+03  0.00000000000E+00 0.  1.
<mgrwt>
<rscale>  0 0.13280894E+04</rscale>
<asrwt>0</asrwt>
<pdfrwt beam="1">  1        2 0.52239107E-01 0.13280894E+04</pdfrwt>
<pdfrwt beam="2">  1       -2 0.19978927E+00 0.13280894E+04</pdfrwt>
<totfact> 0.12467274E+01</totfact>
</mgrwt>
</event>
<event>
12    1  0.1506149E-007  0.1913870E+04  0.7818608E-02  0.8647983E-01
          2   -1    0    0  501    0  0.00000000000E+00  0.00000000000E+00  0.13763683681E+04  0.13763683681E+04  0.00000000000E+00 0. -1.
         -2   -1    0    0    0  501 -0.00000000000E+00 -0.00000000000E+00 -0.66531913976E+03  0.66531913976E+03  0.00000000000E+00 0.  1.
         23    2    1    2    0    0 -0.64254007259E+03 -0.34114140910E+03  0.10727345264E+03  0.74053058185E+03  0.87422783792E+02 0.  0.
        254    2    1    2    0    0  0.64254007259E+03  0.34114140910E+03  0.60377577573E+03  0.13011569260E+04  0.89399605867E+03 0.  0.
        -24    2    4    4    0    0  0.20273274319E+03  0.12527010133E+03  0.74391710082E+03  0.78505327222E+03  0.78120572804E+02 0.  0.
         24    2    4    4    0    0  0.43980732940E+03  0.21587130777E+03 -0.14014132508E+03  0.51610365381E+03  0.81807591151E+02 0.  0.
         11    1    3    3    0    0 -0.23799465180E+03 -0.90393584919E+02  0.10251884631E+02  0.25478923764E+03  0.00000000000E+00 0. -1.
        -11    1    3    3    0    0 -0.40454542079E+03 -0.25074782418E+03  0.97021568005E+02  0.48574134421E+03  0.00000000000E+00 0.  1.
          4    1    6    6  502    0  0.36464436299E+03  0.14862613581E+03 -0.92126010298E+02  0.40440380992E+03  0.00000000000E+00 0. -1.
          1    1    5    5  503    0  0.10216144927E+03  0.29444971362E+02  0.40616335397E+03  0.41984835139E+03  0.00000000000E+00 0. -1.
         -2    1    5    5    0  503  0.10057129392E+03  0.95825129969E+02  0.33775374684E+03  0.36520492083E+03  0.00000000000E+00 0.  1.
         -3    1    6    6    0  502  0.75162966413E+02  0.67245171954E+02 -0.48015314786E+02  0.11169984389E+03  0.00000000000E+00 0.  1.
<mgrwt>
<rscale>  0 0.19138696E+04</rscale>
<asrwt>0</asrwt>
<pdfrwt beam="1">  1        2 0.21174898E+00 0.19138696E+04</pdfrwt>
<pdfrwt beam="2">  1       -2 0.10235679E+00 0.19138696E+04</pdfrwt>
<totfact> 0.10915614E+01</totfact>
</mgrwt>
</event>
<event>
12    1  0.1506149E-007  0.1204452E+04  0.7818608E-02  0.9108969E-01
          2   -1    0    0  501    0  0.00000000000E+00  0.00000000000E+00  0.90176038982E+03  0.90176038982E+03  0.00000000000E+00 0. -1.
         -2   -1    0    0    0  501 -0.00000000000E+00 -0.00000000000E+00 -0.40218665654E+03  0.40218665654E+03  0.00000000000E+00 0.  1.
         23    2    1    2    0    0 -0.22564155532E+03 -0.89288024396E+01 -0.22696168578E+02  0.24414744936E+03  0.89994588515E+02 0.  0.
        254    2    1    2    0    0  0.22564155532E+03  0.89288024396E+01  0.52226990186E+03  0.10597995970E+04  0.89410038609E+03 0.  0.
        -24    2    4    4    0    0  0.29561192671E+03 -0.17449481074E+03  0.69985195881E+03  0.78361227622E+03  0.80128553028E+02 0.  0.
         24    2    4    4    0    0 -0.69970371390E+02  0.18342361318E+03 -0.17758205694E+03  0.27618732077E+03  0.78765312564E+02 0.  0.
         13    1    3    3    0    0 -0.20997096669E+03 -0.78052332354E+01  0.73469223718E+01  0.21024439538E+03  0.00000000000E+00 0. -1.
        -13    1    3    3    0    0 -0.15670588629E+02 -0.11235692042E+01 -0.30043090950E+02  0.33903053986E+02  0.00000000000E+00 0.  1.
          2    1    6    6  502    0  0.12632545661E+02  0.57187621976E+01 -0.40857105293E+01  0.14456088042E+02  0.00000000000E+00 0. -1.
          3    1    5    5  503    0  0.15810796693E+03 -0.12361424501E+03  0.46900020007E+03  0.51013703889E+03  0.00000000000E+00 0. -1.
         -4    1    5    5    0  503  0.13750395978E+03 -0.50880565729E+02  0.23085175873E+03  0.27347523733E+03  0.00000000000E+00 0.  1.
         -1    1    6    6    0  502 -0.82602917051E+02  0.17770485098E+03 -0.17349634641E+03  0.26173123273E+03  0.00000000000E+00 0.  1.
<mgrwt>
<rscale>  0 0.12044517E+04</rscale>
<asrwt>0</asrwt>
<pdfrwt beam="1">  1        2 0.13873237E+00 0.12044517E+04</pdfrwt>
<pdfrwt beam="2">  1       -2 0.61874870E-01 0.12044517E+04</pdfrwt>
<totfact> 0.69998747E+01</totfact>
</mgrwt>
</event>
<event>
12    1  0.1506149E-007  0.2055632E+04  0.7818608E-02  0.8581044E-01
         -2   -1    0    0    0  501 -0.00000000000E+00  0.00000000000E+00  0.89669308158E+03  0.89669308158E+03  0.00000000000E+00 0. -1.
          2   -1    0    0  501    0  0.00000000000E+00 -0.00000000000E+00 -0.11781129132E+04  0.11781129132E+04  0.00000000000E+00 0.  1.
         23    2    1    2    0    0  0.16902770508E+03 -0.19657719924E+03 -0.90816605843E+03  0.94878060106E+03  0.90587410316E+02 0.  0.
        254    2    1    2    0    0 -0.16902770508E+03  0.19657719924E+03  0.62674622684E+03  0.11260253937E+04  0.89883780185E+03 0.  0.
        -24    2    4    4    0    0 -0.49557459248E+03  0.71768637839E+02  0.57062851890E+03  0.76325402103E+03  0.78707559598E+02 0.  0.
         24    2    4    4    0    0  0.32654688740E+03  0.12480856140E+03  0.56117707941E+02  0.36277137267E+03  0.79017877818E+02 0.  0.
         11    1    3    3    0    0  0.31353900351E+02  0.12072780980E+01 -0.14965257115E+03  0.15290656179E+03  0.00000000000E+00 0. -1.
        -11    1    3    3    0    0  0.13767380473E+03 -0.19778447734E+03 -0.75851348728E+03  0.79587403926E+03  0.00000000000E+00 0.  1.
          4    1    6    6  502    0  0.40401817614E+01  0.29345613964E+01  0.14701374497E+02  0.15526272294E+02  0.00000000000E+00 0. -1.
          1    1    5    5  503    0 -0.16277057207E+03  0.57679065517E+02  0.17135818945E+03  0.24327918699E+03  0.00000000000E+00 0. -1.
         -2    1    5    5    0  503 -0.33280402042E+03  0.14089572322E+02  0.39927032945E+03  0.51997483404E+03  0.00000000000E+00 0.  1.
         -3    1    6    6    0  502  0.32250670564E+03  0.12187400001E+03  0.41416333444E+02  0.34724510038E+03  0.00000000000E+00 0.  1.
<mgrwt>
<rscale>  0 0.20556320E+04</rscale>
<asrwt>0</asrwt>
<pdfrwt beam="1">  1        2 0.18124814E+00 0.20556320E+04</pdfrwt>
<pdfrwt beam="2">  1       -2 0.13795278E+00 0.20556320E+04</pdfrwt>
<totfact> 0.67385401E+00</totfact>
</mgrwt>
</event>
<event>
12    1  0.1506149E-007  0.1387006E+04  0.7818608E-02  0.8963278E-01
         -1   -1    0    0    0  501 -0.00000000000E+00  0.00000000000E+00  0.55893498186E+03  0.55893498186E+03  0.00000000000E+00 0.  1.
          1   -1    0    0  501    0  0.00000000000E+00 -0.00000000000E+00 -0.86046942858E+03  0.86046942858E+03  0.00000000000E+00 0. -1.
         23    2    1    2    0    0  0.11107719247E+03  0.38456434807E+03 -0.10128108003E+03  0.42286616066E+03  0.91269119452E+02 0.  0.
        254    2    1    2    0    0 -0.11107719247E+03 -0.38456434807E+03 -0.20025336670E+03  0.99653824978E+03  0.89037025552E+03 0.  0.
        -24    2    4    4    0    0  0.79396250716E+01  0.90554351571E+01  0.31948679659E+03  0.32916363058E+03  0.78306091407E+02 0.  0.
         24    2    4    4    0    0 -0.11901681754E+03 -0.39361978323E+03 -0.51974016329E+03  0.66737461920E+03  0.78469792960E+02 0.  0.
         11    1    3    3    0    0  0.22133343530E+02  0.99371036559E+01 -0.14161390940E+02  0.28092275063E+02  0.00000000000E+00 0.  1.
        -11    1    3    3    0    0  0.88943848937E+02  0.37462724441E+03 -0.87119689087E+02  0.39477388559E+03  0.00000000000E+00 0. -1.
          4    1    6    6  502    0 -0.12156727758E+03 -0.39565777088E+03 -0.50847052395E+03  0.65564163105E+03  0.00000000000E+00 0. -1.
          3    1    5    5  503    0  0.36144213022E+02  0.23851775412E+02  0.23318865937E+03  0.23717559356E+03  0.00000000000E+00 0. -1.
         -4    1    5    5    0  503 -0.28204587951E+02 -0.14796340255E+02  0.86298137224E+02  0.91988037020E+02  0.00000000000E+00 0.  1.
         -3    1    6    6    0  502  0.25504600423E+01  0.20379876525E+01 -0.11269639336E+02  0.11732988147E+02  0.00000000000E+00 0.  1.
<mgrwt>
<rscale>  0 0.13870061E+04</rscale>
<asrwt>0</asrwt>
<pdfrwt beam="1">  1        1 0.13237991E+00 0.13870061E+04</pdfrwt>
<pdfrwt beam="2">  1       -1 0.85989997E-01 0.13870061E+04</pdfrwt>
<totfact> 0.25581969E+01</totfact>
</mgrwt>
</event>
<event>
12    1  0.1506149E-007  0.1276207E+04  0.7818608E-02  0.9048649E-01
          2   -1    0    0  501    0  0.00000000000E+00  0.00000000000E+00  0.23607714945E+03  0.23607714945E+03  0.00000000000E+00 0. -1.
         -2   -1    0    0    0  501 -0.00000000000E+00 -0.00000000000E+00 -0.17247587132E+04  0.17247587132E+04  0.00000000000E+00 0.  1.
         23    2    1    2    0    0  0.10508848825E+02 -0.24043729375E+03 -0.76027792779E+02  0.26800224675E+03  0.90135735771E+02 0.  0.
        254    2    1    2    0    0 -0.10508848825E+02  0.24043729375E+03 -0.14126537710E+04  0.16928336159E+04  0.90120721609E+03 0.  0.
        -24    2    4    4    0    0 -0.37242028218E+03  0.33794212001E+03 -0.55280484085E+03  0.75157606427E+03  0.79822586164E+02 0.  0.
         24    2    4    4    0    0  0.36191143336E+03 -0.97504826266E+02 -0.85984893011E+03  0.94125755161E+03  0.78348702032E+02 0.  0.
         11    1    3    3    0    0 -0.18188371385E+02 -0.48385625501E+01 -0.12782788605E+00  0.18821394240E+02  0.00000000000E+00 0.  1.
        -11    1    3    3    0    0  0.28697220209E+02 -0.23559873120E+03 -0.75899964893E+02  0.24918085251E+03  0.00000000000E+00 0. -1.
          4    1    6    6  502    0  0.14226605585E+03 -0.45151941889E+01 -0.27531901780E+03  0.30993641153E+03  0.00000000000E+00 0. -1.
          3    1    5    5  503    0 -0.15695498184E+02  0.15491066868E+02 -0.55925888923E+02  0.60116776925E+02  0.00000000000E+00 0. -1.
         -4    1    5    5    0  503 -0.35672478400E+03  0.32245105314E+03 -0.49687895193E+03  0.69145928735E+03  0.00000000000E+00 0.  1.
         -3    1    6    6    0  502  0.21964537751E+03 -0.92989632077E+02 -0.58452991230E+03  0.63132114008E+03  0.00000000000E+00 0.  1.
<mgrwt>
<rscale>  0 0.12762071E+04</rscale>
<asrwt>0</asrwt>
<pdfrwt beam="1">  1        2 0.36319560E-01 0.12762071E+04</pdfrwt>
<pdfrwt beam="2">  1       -2 0.26534751E+00 0.12762071E+04</pdfrwt>
<totfact> 0.73157525E+00</totfact>
</mgrwt>
</event>
<event>
12    1  0.1636931E-007  0.1522734E+04  0.7818608E-02  0.8869474E-01
          1   -1    0    0  501    0  0.00000000000E+00  0.00000000000E+00  0.11384118375E+04  0.11384118375E+04  0.00000000000E+00 0. -1.
         -1   -1    0    0    0  501 -0.00000000000E+00 -0.00000000000E+00 -0.50920028839E+03  0.50920028839E+03  0.00000000000E+00 0.  1.
         23    2    1    2    0    0 -0.28155007097E+03  0.19882623253E+03 -0.15995001826E+03  0.39161258009E+03  0.94731680759E+02 0.  0.
        254    2    1    2    0    0  0.28155007097E+03 -0.19882623253E+03  0.78916156737E+03  0.12559995458E+04  0.91430660418E+03 0.  0.
        -24    2    4    4    0    0 -0.14347517295E+03  0.24385220717E+03  0.61184863524E+02  0.30062436512E+03  0.81131973858E+02 0.  0.
         24    2    4    4    0    0  0.42502524392E+03 -0.44267843971E+03  0.72797670384E+03  0.95537518069E+03  0.78619307963E+02 0.  0.
         11    1    3    3    0    0 -0.62433905980E+02  0.94531933578E+01 -0.54467082579E+02  0.83390758273E+02  0.00000000000E+00 0. -1.
        -11    1    3    3    0    0 -0.21911616499E+03  0.18937303918E+03 -0.10548293568E+03  0.30822182182E+03  0.00000000000E+00 0.  1.
          4    1    6    6  502    0  0.34909867481E+03 -0.39223004271E+03  0.58793569771E+03  0.78827829844E+03  0.00000000000E+00 0. -1.
          3    1    5    5  503    0 -0.12901089344E+03  0.24166482042E+03  0.71014910158E+02  0.28299967053E+03  0.00000000000E+00 0. -1.
         -4    1    5    5    0  503 -0.14464279511E+02  0.21873867546E+01 -0.98300466344E+01  0.17624694591E+02  0.00000000000E+00 0.  1.
         -3    1    6    6    0  502  0.75926569111E+02 -0.50448396999E+02  0.14004100613E+03  0.16709688224E+03  0.00000000000E+00 0.  1.
<mgrwt>
<rscale>  0 0.15227339E+04</rscale>
<asrwt>0</asrwt>
<pdfrwt beam="1">  1        1 0.17514028E+00 0.15227339E+04</pdfrwt>
<pdfrwt beam="2">  1       -1 0.78338506E-01 0.15227339E+04</pdfrwt>
<totfact> 0.18689777E+01</totfact>
</mgrwt>
</event>
<event>
12    1  0.1788235E-007  0.1769306E+04  0.7818608E-02  0.8722794E-01
         -2   -1    0    0    0  501 -0.00000000000E+00  0.00000000000E+00  0.53563200329E+03  0.53563200329E+03  0.00000000000E+00 0.  1.
          2   -1    0    0  501    0  0.00000000000E+00 -0.00000000000E+00 -0.14610987010E+04  0.14610987010E+04  0.00000000000E+00 0. -1.
         23    2    1    2    0    0  0.64535801558E+03 -0.19533590593E+02 -0.26249205550E+03  0.70286541313E+03  0.90824998461E+02 0.  0.
        254    2    1    2    0    0 -0.64535801558E+03  0.19533590593E+02 -0.66297464220E+03  0.12938652911E+04  0.90425852829E+03 0.  0.
        -24    2    4    4    0    0 -0.78058547212E+03 -0.42844073120E+02 -0.21448283467E+03  0.81449113566E+03  0.79016642683E+02 0.  0.
         24    2    4    4    0    0  0.13522745654E+03  0.62377663714E+02 -0.44849180753E+03  0.47937415548E+03  0.80481312011E+02 0.  0.
         13    1    3    3    0    0  0.63582306457E+03 -0.19755994902E+02 -0.26966937594E+03  0.69092896964E+03  0.00000000000E+00 0. -1.
        -13    1    3    3    0    0  0.95349510116E+01  0.22240430899E+00  0.71773204428E+01  0.11936443491E+02  0.00000000000E+00 0.  1.
          2    1    6    6  502    0  0.95002875722E+01 -0.10202419662E+02 -0.91668112480E+01  0.16684581486E+02  0.00000000000E+00 0. -1.
          1    1    5    5  503    0 -0.12613483214E+03  0.21554047680E+02 -0.28730158459E+02  0.13114875087E+03  0.00000000000E+00 0. -1.
         -2    1    5    5    0  503 -0.65445063998E+03 -0.64398120800E+02 -0.18575267621E+03  0.68334238479E+03  0.00000000000E+00 0.  1.
         -1    1    6    6    0  502  0.12572716897E+03  0.72580083376E+02 -0.43932499628E+03  0.46268957399E+03  0.00000000000E+00 0.  1.
<mgrwt>
<rscale>  0 0.17693063E+04</rscale>
<asrwt>0</asrwt>
<pdfrwt beam="1">  1        2 0.22478441E+00 0.17693063E+04</pdfrwt>
<pdfrwt beam="2">  1       -2 0.82404926E-01 0.17693063E+04</pdfrwt>
<totfact> 0.16340098E+01</totfact>
</mgrwt>
</event>
<event>
12    1  0.1506149E-007  0.1989256E+04  0.7818608E-02  0.8611660E-01
          2   -1    0    0  501    0  0.00000000000E+00  0.00000000000E+00  0.32132361881E+04  0.32132361881E+04  0.00000000000E+00 0.  1.
         -2   -1    0    0    0  501 -0.00000000000E+00 -0.00000000000E+00 -0.30787805057E+03  0.30787805057E+03  0.00000000000E+00 0. -1.
         23    2    1    2    0    0 -0.99878203551E+02  0.53299469426E+03  0.21705061601E+04  0.22390417368E+04  0.90287919307E+02 0.  0.
        254    2    1    2    0    0  0.99878203551E+02 -0.53299469426E+03  0.73485197744E+03  0.12820725019E+04  0.89980190695E+03 0.  0.
        -24    2    4    4    0    0 -0.30658702921E+03 -0.29261144203E+03  0.33556364256E+02  0.43302562279E+03  0.82268450335E+02 0.  0.
         24    2    4    4    0    0  0.40646523276E+03 -0.24038325223E+03  0.70129561319E+03  0.84904687912E+03  0.77890772709E+02 0.  0.
         13    1    3    3    0    0 -0.82974034561E+02  0.50717911824E+03  0.21018928955E+04  0.21638089316E+04  0.00000000000E+00 0.  1.
        -13    1    3    3    0    0 -0.16904168990E+02  0.25815576013E+02  0.68613264617E+02  0.75232805182E+02  0.00000000000E+00 0. -1.
          2    1    6    6  502    0  0.85458408554E+02 -0.44196527439E+02  0.92983267047E+02  0.13379970322E+03  0.00000000000E+00 0. -1.
          3    1    5    5  503    0 -0.28152758073E+03 -0.24761346646E+03  0.51578915181E+02  0.37845817731E+03  0.00000000000E+00 0. -1.
         -4    1    5    5    0  503 -0.25059448481E+02 -0.44997975574E+02 -0.18022550926E+02  0.54567445476E+02  0.00000000000E+00 0.  1.
         -1    1    6    6    0  502  0.32100682421E+03 -0.19618672479E+03  0.60831234614E+03  0.71524717590E+03  0.00000000000E+00 0.  1.
<mgrwt>
<rscale>  0 0.19892560E+04</rscale>
<asrwt>0</asrwt>
<pdfrwt beam="1">  1        2 0.49434401E+00 0.19892560E+04</pdfrwt>
<pdfrwt beam="2">  1       -2 0.47365856E-01 0.19892560E+04</pdfrwt>
<totfact> 0.50116756E+00</totfact>
</mgrwt>
</event>
<event>
12    1  0.1506149E-007  0.2483466E+04  0.7818608E-02  0.8408900E-01
         -1   -1    0    0    0  501 -0.00000000000E+00  0.00000000000E+00  0.14949956545E+04  0.14949956545E+04  0.00000000000E+00 0.  1.
          1   -1    0    0  501    0  0.00000000000E+00 -0.00000000000E+00 -0.10313745059E+04  0.10313745059E+04  0.00000000000E+00 0. -1.
         23    2    1    2    0    0 -0.90076174371E+03 -0.56299593727E+03  0.39810820202E+02  0.10671538318E+04  0.94319960977E+02 0.  0.
        254    2    1    2    0    0  0.90076174371E+03  0.56299593727E+03  0.42381032838E+03  0.14592163286E+04  0.90628966389E+03 0.  0.
        -24    2    4    4    0    0 -0.10093540765E+03  0.33988325512E+03  0.15704376898E+03  0.39589209382E+03  0.79744723602E+02 0.  0.
         24    2    4    4    0    0  0.10016971514E+04  0.22311268215E+03  0.26676655940E+03  0.10633242348E+04  0.79483199890E+02 0.  0.
         13    1    3    3    0    0 -0.11729600701E+03 -0.53847377871E+02  0.31018860471E+02  0.13274058562E+03  0.00000000000E+00 0.  1.
        -13    1    3    3    0    0 -0.78346573670E+03 -0.50914855940E+03  0.87919597306E+01  0.93441324620E+03  0.00000000000E+00 0. -1.
          4    1    6    6  502    0  0.67462534986E+03  0.11189452260E+03  0.17958040362E+03  0.70702819479E+03  0.00000000000E+00 0. -1.
          3    1    5    5  503    0 -0.96176103312E+02  0.34336715856E+03  0.15038514096E+03  0.38699682046E+03  0.00000000000E+00 0. -1.
         -4    1    5    5    0  503 -0.47593043389E+01 -0.34839034393E+01  0.66586280190E+01  0.88952733550E+01  0.00000000000E+00 0.  1.
         -3    1    6    6    0  502  0.32707180150E+03  0.11121815955E+03  0.87186155782E+02  0.35629603999E+03  0.00000000000E+00 0.  1.
<mgrwt>
<rscale>  0 0.24834656E+04</rscale>
<asrwt>0</asrwt>
<pdfrwt beam="1">  1        1 0.15867300E+00 0.24834656E+04</pdfrwt>
<pdfrwt beam="2">  1       -1 0.22999933E+00 0.24834656E+04</pdfrwt>
<totfact> 0.12011985E+00</totfact>
</mgrwt>
</event>
<event>
12    1  0.1506149E-007  0.1528312E+04  0.7818608E-02  0.8865841E-01
          2   -1    0    0  501    0  0.00000000000E+00  0.00000000000E+00  0.15410627733E+04  0.15410627733E+04  0.00000000000E+00 0. -1.
         -2   -1    0    0    0  501 -0.00000000000E+00 -0.00000000000E+00 -0.37891666145E+03  0.37891666145E+03  0.00000000000E+00 0.  1.
         23    2    1    2    0    0  0.29260737587E+03 -0.39684287077E+03  0.31200472388E+03  0.59030204225E+03  0.89477443321E+02 0.  0.
        254    2    1    2    0    0 -0.29260737587E+03  0.39684287077E+03  0.85014138799E+03  0.13296773925E+04  0.89565520605E+03 0.  0.
        -24    2    4    4    0    0 -0.34938792636E+03  0.49514361194E+03  0.96975392845E+03  0.11463807255E+04  0.80789643798E+02 0.  0.
         24    2    4    4    0    0  0.56780550490E+02 -0.98300741165E+02 -0.11961254046E+03  0.18329666702E+03  0.80021507591E+02 0.  0.
         13    1    3    3    0    0  0.20846493713E+01 -0.42559859229E+02  0.20757010497E+02  0.47397688397E+02  0.00000000000E+00 0. -1.
        -13    1    3    3    0    0  0.29052272650E+03 -0.35428301154E+03  0.29124771338E+03  0.54290435385E+03  0.00000000000E+00 0.  1.
          2    1    6    6  502    0  0.18005202430E+02 -0.92456695980E+02 -0.10596101779E+03  0.14177505153E+03  0.00000000000E+00 0. -1.
          1    1    5    5  503    0  0.97915159701E+00  0.17810870988E+02  0.43797618365E+02  0.47290773282E+02  0.00000000000E+00 0. -1.
         -2    1    5    5    0  503 -0.35036707796E+03  0.47733274095E+03  0.92595631008E+03  0.10990899522E+04  0.00000000000E+00 0.  1.
         -1    1    6    6    0  502  0.38775348059E+02 -0.58440451844E+01 -0.13651522669E+02  0.41521615485E+02  0.00000000000E+00 0.  1.
<mgrwt>
<rscale>  0 0.15283120E+04</rscale>
<asrwt>0</asrwt>
<pdfrwt beam="1">  1        2 0.23708658E+00 0.15283120E+04</pdfrwt>
<pdfrwt beam="2">  1       -2 0.58294872E-01 0.15283120E+04</pdfrwt>
<totfact> 0.31932357E+01</totfact>
</mgrwt>
</event>
<event>
12    1  0.1506149E-007  0.2624296E+04  0.7818608E-02  0.8359995E-01
         -2   -1    0    0    0  501 -0.00000000000E+00  0.00000000000E+00  0.67161172317E+03  0.67161172317E+03  0.00000000000E+00 0.  1.
          2   -1    0    0  501    0  0.00000000000E+00 -0.00000000000E+00 -0.25635836250E+04  0.25635836250E+04  0.00000000000E+00 0. -1.
         23    2    1    2    0    0  0.23709868422E+03 -0.10008343135E+04 -0.18472109247E+03  0.10490792926E+04  0.92522272610E+02 0.  0.
        254    2    1    2    0    0 -0.23709868422E+03  0.10008343135E+04 -0.17072508094E+04  0.21861160556E+04  0.89806067355E+03 0.  0.
        -24    2    4    4    0    0 -0.55122974426E+03  0.82653257174E+03 -0.12854045004E+04  0.16264778093E+04  0.78453881299E+02 0.  0.
         24    2    4    4    0    0  0.31413106004E+03  0.17430174177E+03 -0.42184630896E+03  0.55963824628E+03  0.78620851260E+02 0.  0.
         11    1    3    3    0    0  0.24778563536E+02 -0.10695726201E+03  0.89053735898E+01  0.11015052785E+03  0.00000000000E+00 0. -1.
        -11    1    3    3    0    0  0.21232012068E+03 -0.89387705150E+03 -0.19362646606E+03  0.93892876471E+03  0.00000000000E+00 0.  1.
          2    1    6    6  502    0  0.77115634655E+02  0.13762121369E+02 -0.62545900678E+02  0.10024074413E+03  0.00000000000E+00 0. -1.
          1    1    5    5  503    0 -0.37268792686E+02  0.30225777083E+02 -0.48675363410E+02  0.68350943751E+02  0.00000000000E+00 0. -1.
         -2    1    5    5    0  503 -0.51396095157E+03  0.79630679466E+03 -0.12367291370E+04  0.15581268656E+04  0.00000000000E+00 0.  1.
         -1    1    6    6    0  502  0.23701542538E+03  0.16053962040E+03 -0.35930040829E+03  0.45939750215E+03  0.00000000000E+00 0.  1.
<mgrwt>
<rscale>  0 0.26242963E+04</rscale>
<asrwt>0</asrwt>
<pdfrwt beam="1">  1        2 0.39439748E+00 0.26242963E+04</pdfrwt>
<pdfrwt beam="2">  1       -2 0.10332488E+00 0.26242963E+04</pdfrwt>
<totfact> 0.21553982E+00</totfact>
</mgrwt>
</event>
<event>
12    1  0.1506149E-007  0.1989118E+04  0.7818608E-02  0.8611725E-01
          1   -1    0    0  501    0  0.00000000000E+00  0.00000000000E+00  0.13748360653E+04  0.13748360653E+04  0.00000000000E+00 0. -1.
         -1   -1    0    0    0  501 -0.00000000000E+00 -0.00000000000E+00 -0.71946615676E+03  0.71946615676E+03  0.00000000000E+00 0.  1.
         23    2    1    2    0    0 -0.37212749202E+03 -0.10256347195E+02 -0.46969540953E+03  0.60628970972E+03  0.91593511805E+02 0.  0.
        254    2    1    2    0    0  0.37212749202E+03  0.10256347195E+02  0.11250653180E+04  0.14880125123E+04  0.89990288587E+03 0.  0.
        -24    2    4    4    0    0  0.63125481960E+03 -0.15122730923E+03  0.69581460278E+03  0.95496436554E+03  0.80290919061E+02 0.  0.
         24    2    4    4    0    0 -0.25912732758E+03  0.16148365643E+03  0.42925071527E+03  0.53304814679E+03  0.81610091553E+02 0.  0.
         13    1    3    3    0    0 -0.11536572705E+03  0.39015023314E+02 -0.14168649461E+03  0.18683277490E+03  0.00000000000E+00 0. -1.
        -13    1    3    3    0    0 -0.25676176497E+03 -0.49271370509E+02 -0.32800891491E+03  0.41945693482E+03  0.00000000000E+00 0.  1.
          4    1    6    6  502    0 -0.19944995006E+03  0.82070022488E+02  0.31338213666E+03  0.38042625402E+03  0.00000000000E+00 0. -1.
          1    1    5    5  503    0  0.56727868082E+03 -0.11452647473E+03  0.59475170063E+03  0.82984998676E+03  0.00000000000E+00 0. -1.
         -2    1    5    5    0  503  0.63976138783E+02 -0.36700834500E+02  0.10106290215E+03  0.12511437878E+03  0.00000000000E+00 0.  1.
         -1    1    6    6    0  502 -0.59677377520E+02  0.79413633942E+02  0.11586857861E+03  0.15262189277E+03  0.00000000000E+00 0.  1.
<mgrwt>
<rscale>  0 0.19891184E+04</rscale>
<asrwt>0</asrwt>
<pdfrwt beam="1">  1        1 0.21151324E+00 0.19891184E+04</pdfrwt>
<pdfrwt beam="2">  1       -1 0.11068710E+00 0.19891184E+04</pdfrwt>
<totfact> 0.55881795E+00</totfact>
</mgrwt>
</event>
<event>
12    1  0.1506149E-007  0.1829827E+04  0.7818608E-02  0.8690596E-01
         -1   -1    0    0    0  501 -0.00000000000E+00  0.00000000000E+00  0.63931019486E+03  0.63931019486E+03  0.00000000000E+00 0.  1.
          1   -1    0    0  501    0  0.00000000000E+00 -0.00000000000E+00 -0.13093286315E+04  0.13093286315E+04  0.00000000000E+00 0. -1.
         23    2    1    2    0    0 -0.47163156940E+03 -0.33221613452E+03 -0.64764521845E+03  0.87646229589E+03  0.12624551417E+03 0.  0.
        254    2    1    2    0    0  0.47163156940E+03  0.33221613452E+03 -0.22373218210E+02  0.10721765305E+04  0.90347000744E+03 0.  0.
        -24    2    4    4    0    0  0.70082817847E+03  0.41009101514E+03 -0.16219228385E+02  0.81690251830E+03  0.87931135600E+02 0.  0.
         24    2    4    4    0    0 -0.22919660907E+03 -0.77874880612E+02 -0.61539898251E+01  0.25527401219E+03  0.80816873669E+02 0.  0.
         11    1    3    3    0    0 -0.13482693205E+03 -0.38728431348E+02 -0.11588821966E+03  0.18195678733E+03  0.00000000000E+00 0.  1.
        -11    1    3    3    0    0 -0.33680463735E+03 -0.29348770318E+03 -0.53175699879E+03  0.69450550856E+03  0.00000000000E+00 0. -1.
          4    1    6    6  502    0 -0.17175186462E+02  0.76228736266E+01  0.17198856954E+02  0.25473435435E+02  0.00000000000E+00 0. -1.
          1    1    5    5  503    0  0.58000495748E+02  0.41455335014E+02 -0.25792391636E+02  0.75814574948E+02  0.00000000000E+00 0. -1.
         -2    1    5    5    0  503  0.64282768272E+03  0.36863568012E+03  0.95731632510E+01  0.74108794335E+03  0.00000000000E+00 0.  1.
         -3    1    6    6    0  502 -0.21202142260E+03 -0.85497754238E+02 -0.23352846780E+02  0.22980057675E+03  0.00000000000E+00 0.  1.
<mgrwt>
<rscale>  0 0.18298275E+04</rscale>
<asrwt>0</asrwt>
<pdfrwt beam="1">  1        1 0.20143517E+00 0.18298275E+04</pdfrwt>
<pdfrwt beam="2">  1       -1 0.98355414E-01 0.18298275E+04</pdfrwt>
<totfact> 0.82997131E+00</totfact>
</mgrwt>
</event>
<event>
12    1  0.1506149E-007  0.1882361E+04  0.7818608E-02  0.8663686E-01
         -2   -1    0    0    0  501 -0.00000000000E+00  0.00000000000E+00  0.24035438840E+04  0.24035438840E+04  0.00000000000E+00 0.  1.
          2   -1    0    0  501    0  0.00000000000E+00 -0.00000000000E+00 -0.36854795287E+03  0.36854795287E+03  0.00000000000E+00 0. -1.
         23    2    1    2    0    0  0.66845630000E+03 -0.81930681106E+02  0.11221601781E+04  0.13115741831E+04  0.86237527121E+02 0.  0.
        254    2    1    2    0    0 -0.66845630000E+03  0.81930681106E+02  0.91283575307E+03  0.14605176537E+04  0.91994360876E+03 0.  0.
        -24    2    4    4    0    0 -0.39010892324E+02  0.33640155883E+03  0.63212450349E+03  0.72145644857E+03  0.78931367442E+02 0.  0.
         24    2    4    4    0    0 -0.62944540768E+03 -0.25447087772E+03  0.28071124958E+03  0.73906120518E+03  0.80347436228E+02 0.  0.
         11    1    3    3    0    0  0.38891158122E+03 -0.11421052010E+02  0.68836376663E+03  0.79071318039E+03  0.00000000000E+00 0.  1.
        -11    1    3    3    0    0  0.27954471878E+03 -0.70509629096E+02  0.43379641146E+03  0.52086100275E+03  0.00000000000E+00 0. -1.
          4    1    6    6  502    0 -0.22633362281E+02 -0.16167932896E+02  0.29124560440E+02  0.40272958212E+02  0.00000000000E+00 0. -1.
          3    1    5    5  503    0 -0.23413479827E+02  0.19580216755E+02  0.54303578344E+02  0.62293294557E+02  0.00000000000E+00 0. -1.
         -4    1    5    5    0  503 -0.15597412497E+02  0.31682134207E+03  0.57782092514E+03  0.65916315401E+03  0.00000000000E+00 0.  1.
         -3    1    6    6    0  502 -0.60681204540E+03 -0.23830294483E+03  0.25158668914E+03  0.69878824697E+03  0.00000000000E+00 0.  1.
<mgrwt>
<rscale>  0 0.18823615E+04</rscale>
<asrwt>0</asrwt>
<pdfrwt beam="1">  1        2 0.56699687E-01 0.18823615E+04</pdfrwt>
<pdfrwt beam="2">  1       -2 0.36977597E+00 0.18823615E+04</pdfrwt>
<totfact> 0.95611612E-01</totfact>
</mgrwt>
</event>
<event>
12    1  0.1506149E-007  0.3348603E+04  0.7818608E-02  0.8150637E-01
         -2   -1    0    0    0  501 -0.00000000000E+00  0.00000000000E+00  0.12905504057E+04  0.12905504057E+04  0.00000000000E+00 0.  1.
          2   -1    0    0  501    0  0.00000000000E+00 -0.00000000000E+00 -0.21721628423E+04  0.21721628423E+04  0.00000000000E+00 0. -1.
         23    2    1    2    0    0  0.84645392326E+03  0.80107593882E+03 -0.14688841705E+04  0.18771369861E+04  0.88406189294E+02 0.  0.
        254    2    1    2    0    0 -0.84645392326E+03 -0.80107593882E+03  0.58727173384E+03  0.15855762620E+04  0.90053155927E+03 0.  0.
        -24    2    4    4    0    0 -0.16553356953E+03 -0.50037090681E+03 -0.12998207962E+03  0.54887836216E+03  0.81238589332E+02 0.  0.
         24    2    4    4    0    0 -0.68092035373E+03 -0.30070503201E+03  0.71725381346E+03  0.10366978998E+04  0.78825491944E+02 0.  0.
         11    1    3    3    0    0  0.67164793215E+03  0.60585385152E+03 -0.11854396512E+04  0.14911193784E+04  0.00000000000E+00 0. -1.
        -11    1    3    3    0    0  0.17480599112E+03  0.19522208730E+03 -0.28344451931E+03  0.38601760766E+03  0.00000000000E+00 0.  1.
          4    1    6    6  502    0 -0.51302436420E+03 -0.18839417669E+03  0.52187783084E+03  0.75567376188E+03  0.00000000000E+00 0. -1.
          3    1    5    5  503    0 -0.14104955886E+03 -0.35478539322E+03 -0.12286136694E+03  0.40107676171E+03  0.00000000000E+00 0. -1.
         -4    1    5    5    0  503 -0.24484010674E+02 -0.14558551359E+03 -0.71207126846E+01  0.14780160045E+03  0.00000000000E+00 0.  1.
         -3    1    6    6    0  502 -0.16789598953E+03 -0.11231085532E+03  0.19537598262E+03  0.28102413795E+03  0.00000000000E+00 0.  1.
<mgrwt>
<rscale>  0 0.33486031E+04</rscale>
<asrwt>0</asrwt>
<pdfrwt beam="1">  1        2 0.33417889E+00 0.33486031E+04</pdfrwt>
<pdfrwt beam="2">  1       -2 0.19854622E+00 0.33486031E+04</pdfrwt>
<totfact> 0.60553221E-01</totfact>
</mgrwt>
</event>
<event>
12    1  0.1506149E-007  0.2107066E+04  0.7818608E-02  0.8558137E-01
          3   -1    0    0  501    0  0.00000000000E+00  0.00000000000E+00  0.50272565188E+03  0.50272565188E+03  0.00000000000E+00 0. -1.
         -3   -1    0    0    0  501 -0.00000000000E+00 -0.00000000000E+00 -0.22078283947E+04  0.22078283947E+04  0.00000000000E+00 0.  1.
         23    2    1    2    0    0  0.70576278038E+02 -0.83431431836E+03 -0.44874262535E+03  0.95430630139E+03  0.90935032990E+02 0.  0.
        254    2    1    2    0    0 -0.70576278038E+02  0.83431431836E+03 -0.12563601175E+04  0.17562477452E+04  0.89716442469E+03 0.  0.
        -24    2    4    4    0    0 -0.32323908309E+03  0.72968757059E+03 -0.12318757767E+04  0.14699577837E+04  0.79564445840E+02 0.  0.
         24    2    4    4    0    0  0.25266280505E+03  0.10462674777E+03 -0.24484340807E+02  0.28628996156E+03  0.81099998397E+02 0.  0.
         11    1    3    3    0    0  0.55852213040E+02 -0.31228587240E+03 -0.20724147984E+03  0.37893398735E+03  0.00000000000E+00 0.  1.
        -11    1    3    3    0    0  0.14724064997E+02 -0.52202844596E+03 -0.24150114550E+03  0.57537231404E+03  0.00000000000E+00 0. -1.
          4    1    6    6  502    0  0.11067421218E+03  0.71451803430E+02 -0.44635166800E+02  0.13909147915E+03  0.00000000000E+00 0. -1.
          3    1    5    5  503    0 -0.15603577396E+02  0.82870558937E+01 -0.30870158878E+02  0.35568435896E+02  0.00000000000E+00 0. -1.
         -4    1    5    5    0  503 -0.30763550570E+03  0.72140051469E+03 -0.12010056178E+04  0.14343893478E+04  0.00000000000E+00 0.  1.
         -3    1    6    6    0  502  0.14198859287E+03  0.33174944338E+02  0.20150825993E+02  0.14719848242E+03  0.00000000000E+00 0.  1.
<mgrwt>
<rscale>  0 0.21070662E+04</rscale>
<asrwt>0</asrwt>
<pdfrwt beam="1">  1        3 0.77342407E-01 0.21070662E+04</pdfrwt>
<pdfrwt beam="2">  1       -3 0.33966591E+00 0.21070662E+04</pdfrwt>
<totfact> 0.86285532E-02</totfact>
</mgrwt>
</event>
<event>
12    1  0.1506149E-007  0.2126973E+04  0.7818608E-02  0.8549454E-01
          2   -1    0    0  501    0  0.00000000000E+00  0.00000000000E+00  0.22026654627E+04  0.22026654627E+04  0.00000000000E+00 0. -1.
         -2   -1    0    0    0  501 -0.00000000000E+00 -0.00000000000E+00 -0.51347020384E+03  0.51347020384E+03  0.00000000000E+00 0.  1.
         23    2    1    2    0    0  0.81222131244E+02 -0.91292406971E+02  0.17992051756E+04  0.18056522439E+04  0.91156042349E+02 0.  0.
        254    2    1    2    0    0 -0.81222131244E+02  0.91292406971E+02 -0.11000991667E+03  0.91048342265E+03  0.89551468050E+03 0.  0.
        -24    2    4    4    0    0  0.50594308177E+02  0.23084892867E+03  0.33654403962E+03  0.41826278031E+03  0.76360008535E+02 0.  0.
         24    2    4    4    0    0 -0.13181643942E+03 -0.13955652170E+03 -0.44655395629E+03  0.49222064234E+03  0.77583042063E+02 0.  0.
         13    1    3    3    0    0  0.84457430971E+02 -0.99369887594E+02  0.17773578597E+04  0.17821359077E+04  0.00000000000E+00 0. -1.
        -13    1    3    3    0    0 -0.32352997262E+01  0.80774806233E+01  0.21847315884E+02  0.23516336212E+02  0.00000000000E+00 0.  1.
          4    1    6    6  502    0 -0.47905138080E+01 -0.42081712346E+02 -0.14145626734E+03  0.14766074328E+03  0.00000000000E+00 0. -1.
          1    1    5    5  503    0 -0.16219957855E+02  0.78025084367E+02  0.13371946353E+03  0.15566597492E+03  0.00000000000E+00 0. -1.
         -2    1    5    5    0  503  0.66814266031E+02  0.15282384431E+03  0.20282457609E+03  0.26259680539E+03  0.00000000000E+00 0.  1.
         -3    1    6    6    0  502 -0.12702592561E+03 -0.97474809356E+02 -0.30509768895E+03  0.34455989906E+03  0.00000000000E+00 0.  1.
<mgrwt>
<rscale>  0 0.21269726E+04</rscale>
<asrwt>0</asrwt>
<pdfrwt beam="1">  1        2 0.33887160E+00 0.21269726E+04</pdfrwt>
<pdfrwt beam="2">  1       -2 0.78995417E-01 0.21269726E+04</pdfrwt>
<totfact> 0.67288278E+00</totfact>
</mgrwt>
</event>
<event>
12    1  0.1506149E-007  0.2427786E+04  0.7818608E-02  0.8429174E-01
          2   -1    0    0  501    0  0.00000000000E+00  0.00000000000E+00  0.40530156792E+03  0.40530156792E+03  0.00000000000E+00 0. -1.
         -2   -1    0    0    0  501 -0.00000000000E+00 -0.00000000000E+00 -0.36356539072E+04  0.36356539072E+04  0.00000000000E+00 0.  1.
         23    2    1    2    0    0  0.23343539710E+02  0.40746797319E+03 -0.29893510067E+04  0.30182355954E+04  0.83376241419E+02 0.  0.
        254    2    1    2    0    0 -0.23343539710E+02 -0.40746797319E+03 -0.24100133253E+03  0.10227198797E+04  0.90625561522E+03 0.  0.
        -24    2    4    4    0    0 -0.39491584426E+03 -0.41757432540E+03 -0.17333267887E+02  0.58161774842E+03  0.87475264025E+02 0.  0.
         24    2    4    4    0    0  0.37157230455E+03  0.10106352213E+02 -0.22366806464E+03  0.44110213133E+03  0.79847174383E+02 0.  0.
         13    1    3    3    0    0  0.44744866394E+02  0.17080240772E+03 -0.11178649726E+04  0.11317233153E+04  0.00000000000E+00 0.  1.
        -13    1    3    3    0    0 -0.21401326684E+02  0.23666556547E+03 -0.18714860342E+04  0.18865122800E+04  0.00000000000E+00 0. -1.
          2    1    6    6  502    0  0.28906624698E+03  0.39887732187E+01 -0.20983824376E+03  0.35722163148E+03  0.00000000000E+00 0. -1.
          3    1    5    5  503    0 -0.25972233908E+03 -0.25098410514E+03 -0.49925798165E+02  0.36461116243E+03  0.00000000000E+00 0. -1.
         -2    1    5    5    0  503 -0.13519350518E+03 -0.16659022026E+03  0.32592530278E+02  0.21700658598E+03  0.00000000000E+00 0.  1.
         -1    1    6    6    0  502  0.82506057566E+02  0.61175789945E+01 -0.13829820881E+02  0.83880499840E+02  0.00000000000E+00 0.  1.
<mgrwt>
<rscale>  0 0.24277860E+04</rscale>
<asrwt>0</asrwt>
<pdfrwt beam="1">  1        2 0.62354086E-01 0.24277860E+04</pdfrwt>
<pdfrwt beam="2">  1       -2 0.55933138E+00 0.24277860E+04</pdfrwt>
<totfact> 0.53168353E-02</totfact>
</mgrwt>
</event>
<event>
12    1  0.1757319E-007  0.2290517E+04  0.7818608E-02  0.8481670E-01
          2   -1    0    0  501    0  0.00000000000E+00  0.00000000000E+00  0.24097416634E+04  0.24097416634E+04  0.00000000000E+00 0. -1.
         -2   -1    0    0    0  501 -0.00000000000E+00 -0.00000000000E+00 -0.54429778813E+03  0.54429778813E+03  0.00000000000E+00 0.  1.
         23    2    1    2    0    0  0.75998821217E+03  0.86101060306E+02  0.35586107467E+02  0.77132105861E+03  0.93136078919E+02 0.  0.
        254    2    1    2    0    0 -0.75998821217E+03 -0.86101060306E+02  0.18298577678E+04  0.21827183929E+04  0.91152874731E+03 0.  0.
        -24    2    4    4    0    0 -0.90902328658E+03 -0.25218661135E+03  0.13683055073E+04  0.16638552575E+04  0.78948933552E+02 0.  0.
         24    2    4    4    0    0  0.14903507441E+03  0.16608555104E+03  0.46155226053E+03  0.51886313544E+03  0.79953739440E+02 0.  0.
         11    1    3    3    0    0  0.19122925311E+03 -0.18010909353E+02  0.16758456930E+02  0.19280525402E+03  0.00000000000E+00 0. -1.
        -11    1    3    3    0    0  0.56875895906E+03  0.10411196966E+03  0.18827650537E+02  0.57851580459E+03  0.00000000000E+00 0.  1.
          2    1    6    6  502    0  0.13583691259E-01 -0.67162773160E+01  0.47074611937E+01  0.82017532511E+01  0.00000000000E+00 0. -1.
          1    1    5    5  503    0 -0.14077942284E+03 -0.38578891400E+02  0.26534452836E+03  0.30284467222E+03  0.00000000000E+00 0. -1.
         -2    1    5    5    0  503 -0.76824386374E+03 -0.21360771995E+03  0.11029609789E+04  0.13610105853E+04  0.00000000000E+00 0.  1.
         -1    1    6    6    0  502  0.14902149072E+03  0.17280182836E+03  0.45684479934E+03  0.51066138219E+03  0.00000000000E+00 0.  1.
<mgrwt>
<rscale>  0 0.22905170E+04</rscale>
<asrwt>0</asrwt>
<pdfrwt beam="1">  1        2 0.37072948E+00 0.22905170E+04</pdfrwt>
<pdfrwt beam="2">  1       -2 0.83738123E-01 0.22905170E+04</pdfrwt>
<totfact> 0.44387596E+00</totfact>
</mgrwt>
</event>
<event>
12    1  0.1506149E-007  0.1158059E+04  0.7818608E-02  0.9150381E-01
          1   -1    0    0  501    0  0.00000000000E+00  0.00000000000E+00  0.27526242229E+04  0.27526242229E+04  0.00000000000E+00 0. -1.
         -1   -1    0    0    0  501 -0.00000000000E+00 -0.00000000000E+00 -0.12180193470E+03  0.12180193470E+03  0.00000000000E+00 0.  1.
         23    2    1    2    0    0 -0.67383354952E+02  0.11470904041E+03  0.96163644841E+03  0.97484685386E+03  0.88786536717E+02 0.  0.
        254    2    1    2    0    0  0.67383354952E+02 -0.11470904041E+03  0.16691858398E+04  0.18995793037E+04  0.89695121549E+03 0.  0.
        -24    2    4    4    0    0  0.43969103651E+03 -0.14694720659E+03  0.58860069574E+03  0.75348777473E+03  0.79820790032E+02 0.  0.
         24    2    4    4    0    0 -0.37230768156E+03  0.32238166181E+02  0.10805851440E+04  0.11460915290E+04  0.78798669014E+02 0.  0.
         11    1    3    3    0    0  0.12214575416E+02  0.64597263518E+02  0.37553332289E+03  0.38124438214E+03  0.00000000000E+00 0.  1.
        -11    1    3    3    0    0 -0.79597930368E+02  0.50111776894E+02  0.58610312552E+03  0.59360247173E+03  0.00000000000E+00 0. -1.
          4    1    6    6  502    0 -0.26353454471E+03  0.37697687689E+02  0.85690917014E+03  0.89730981148E+03  0.00000000000E+00 0. -1.
          1    1    5    5  503    0  0.40967018403E+03 -0.13853804090E+03  0.50847066155E+03  0.66750645099E+03  0.00000000000E+00 0. -1.
         -4    1    5    5    0  503  0.30020852480E+02 -0.84091656910E+01  0.80130034195E+02  0.85981323736E+02  0.00000000000E+00 0.  1.
         -3    1    6    6    0  502 -0.10877313685E+03 -0.54595215077E+01  0.22367597391E+03  0.24878171753E+03  0.00000000000E+00 0.  1.
<mgrwt>
<rscale>  0 0.11580586E+04</rscale>
<asrwt>0</asrwt>
<pdfrwt beam="1">  1        1 0.42348060E+00 0.11580586E+04</pdfrwt>
<pdfrwt beam="2">  1       -1 0.18738761E-01 0.11580586E+04</pdfrwt>
<totfact> 0.20610797E+01</totfact>
</mgrwt>
</event>
<event>
12    1  0.1506149E-007  0.1557101E+04  0.7818608E-02  0.8847345E-01
          1   -1    0    0  501    0  0.00000000000E+00  0.00000000000E+00  0.11510198906E+04  0.11510198906E+04  0.00000000000E+00 0. -1.
         -1   -1    0    0    0  501 -0.00000000000E+00 -0.00000000000E+00 -0.52661205673E+03  0.52661205673E+03  0.00000000000E+00 0.  1.
         23    2    1    2    0    0  0.24172221139E+03 -0.10568404183E+02 -0.27120943478E+03  0.37970523122E+03  0.10990990157E+03 0.  0.
        254    2    1    2    0    0 -0.24172221139E+03  0.10568404183E+02  0.89561726861E+03  0.12979267161E+04  0.90771259207E+03 0.  0.
        -24    2    4    4    0    0  0.94447656835E+02  0.27972505045E+03  0.79041281992E+03  0.84744111905E+03  0.78978228855E+02 0.  0.
         24    2    4    4    0    0 -0.33616986822E+03 -0.26915664627E+03  0.10520444868E+03  0.45048559701E+03  0.80086306925E+02 0.  0.
         13    1    3    3    0    0  0.55157156292E+02 -0.21533647132E+02 -0.12437685632E+02  0.60503767428E+02  0.00000000000E+00 0. -1.
        -13    1    3    3    0    0  0.18656505509E+03  0.10965242949E+02 -0.25877174914E+03  0.31920146380E+03  0.00000000000E+00 0.  1.
          2    1    6    6  502    0 -0.89886737867E+01  0.31946993611E+01  0.10858220348E+02  0.14453487800E+02  0.00000000000E+00 0. -1.
          1    1    5    5  503    0  0.44676591971E+02  0.38162132122E+02  0.13955362536E+03  0.15141849474E+03  0.00000000000E+00 0. -1.
         -2    1    5    5    0  503  0.49771064864E+02  0.24156291833E+03  0.65085919457E+03  0.69602262432E+03  0.00000000000E+00 0.  1.
         -1    1    6    6    0  502 -0.32718119444E+03 -0.27235134563E+03  0.94346228336E+02  0.43603210921E+03  0.00000000000E+00 0.  1.
<mgrwt>
<rscale>  0 0.15571011E+04</rscale>
<asrwt>0</asrwt>
<pdfrwt beam="1">  1        1 0.17707998E+00 0.15571011E+04</pdfrwt>
<pdfrwt beam="2">  1       -1 0.81017240E-01 0.15571011E+04</pdfrwt>
<totfact> 0.16978962E+01</totfact>
</mgrwt>
</event>
<event>
12    1  0.1506149E-007  0.1168681E+04  0.7818608E-02  0.9140721E-01
         -2   -1    0    0    0  501 -0.00000000000E+00  0.00000000000E+00  0.99343027024E+02  0.99343027024E+02  0.00000000000E+00 0.  1.
          2   -1    0    0  501    0  0.00000000000E+00 -0.00000000000E+00 -0.34371183008E+04  0.34371183008E+04  0.00000000000E+00 0. -1.
         23    2    1    2    0    0  0.46085451187E+02  0.14903108125E+03 -0.11930372354E+04  0.12069940969E+04  0.95722373943E+02 0.  0.
        254    2    1    2    0    0 -0.46085451187E+02 -0.14903108125E+03 -0.21447380383E+04  0.23294672309E+04  0.89564624420E+03 0.  0.
        -24    2    4    4    0    0 -0.26009067607E+03  0.30016823687E+03 -0.94860095555E+03  0.10315459755E+04  0.80592781247E+02 0.  0.
         24    2    4    4    0    0  0.21400522489E+03 -0.44919931813E+03 -0.11961370828E+04  0.12979212554E+04  0.79230050133E+02 0.  0.
         13    1    3    3    0    0 -0.56118686582E+01  0.33969533015E+01 -0.34053192283E+03  0.34059510101E+03  0.00000000000E+00 0. -1.
        -13    1    3    3    0    0  0.51697319845E+02  0.14563412795E+03 -0.85250531259E+03  0.86639899590E+03  0.00000000000E+00 0.  1.
          4    1    6    6  502    0  0.73889890461E+02 -0.13868499836E+03 -0.47611160377E+03  0.50137361710E+03  0.00000000000E+00 0. -1.
          1    1    5    5  503    0 -0.15253240954E+03  0.11755672390E+03 -0.42016175543E+03  0.46219218948E+03  0.00000000000E+00 0. -1.
         -2    1    5    5    0  503 -0.10755826653E+03  0.18261151297E+03 -0.52843920012E+03  0.56935378597E+03  0.00000000000E+00 0.  1.
         -3    1    6    6    0  502  0.14011533443E+03 -0.31051431977E+03 -0.72002547901E+03  0.79654763834E+03  0.00000000000E+00 0.  1.
<mgrwt>
<rscale>  0 0.11686809E+04</rscale>
<asrwt>0</asrwt>
<pdfrwt beam="1">  1        2 0.52878747E+00 0.11686809E+04</pdfrwt>
<pdfrwt beam="2">  1       -2 0.15283542E-01 0.11686809E+04</pdfrwt>
<totfact> 0.31031047E+01</totfact>
</mgrwt>
</event>
<event>
12    1  0.1506149E-007  0.1291430E+04  0.7818608E-02  0.9036389E-01
         -1   -1    0    0    0  501 -0.00000000000E+00  0.00000000000E+00  0.10744409261E+04  0.10744409261E+04  0.00000000000E+00 0.  1.
          1   -1    0    0  501    0  0.00000000000E+00 -0.00000000000E+00 -0.38806008487E+03  0.38806008487E+03  0.00000000000E+00 0. -1.
         23    2    1    2    0    0 -0.10491576347E+03  0.10874143176E+03 -0.14533919693E+03  0.22918171434E+03  0.92567594851E+02 0.  0.
        254    2    1    2    0    0  0.10491576347E+03 -0.10874143176E+03  0.83172003816E+03  0.12333192966E+04  0.89804579458E+03 0.  0.
        -24    2    4    4    0    0  0.43805324268E+03  0.84274301008E+02  0.67160549945E+03  0.81002730106E+03  0.78086364632E+02 0.  0.
         24    2    4    4    0    0 -0.33313747922E+03 -0.19301573277E+03  0.16011453871E+03  0.42329199557E+03  0.72827157344E+02 0.  0.
         13    1    3    3    0    0 -0.49867140859E+02  0.59703345631E+02 -0.13350522245E+03  0.15451493662E+03  0.00000000000E+00 0. -1.
        -13    1    3    3    0    0 -0.55048622607E+02  0.49038086133E+02 -0.11833974476E+02  0.74666777716E+02  0.00000000000E+00 0.  1.
          2    1    6    6  502    0 -0.52506714277E+02 -0.24382499606E+01  0.19121974758E+02  0.55933442820E+02  0.00000000000E+00 0. -1.
          3    1    5    5  503    0  0.48043829194E+02  0.66070406656E+01  0.36506714164E+02  0.60700928239E+02  0.00000000000E+00 0. -1.
         -4    1    5    5    0  503  0.39000941349E+03  0.77667260342E+02  0.63509878528E+03  0.74932637282E+03  0.00000000000E+00 0.  1.
         -1    1    6    6    0  502 -0.28063076494E+03 -0.19057748281E+03  0.14099256395E+03  0.36735855275E+03  0.00000000000E+00 0.  1.
<mgrwt>
<rscale>  0 0.12914297E+04</rscale>
<asrwt>0</asrwt>
<pdfrwt beam="1">  1        1 0.59701552E-01 0.12914297E+04</pdfrwt>
<pdfrwt beam="2">  1       -1 0.16529860E+00 0.12914297E+04</pdfrwt>
<totfact> 0.16373913E+01</totfact>
</mgrwt>
</event>
<event>
12    1  0.1506149E-007  0.2072891E+04  0.7818608E-02  0.8573280E-01
         -1   -1    0    0    0  501 -0.00000000000E+00  0.00000000000E+00  0.12599390794E+04  0.12599390794E+04  0.00000000000E+00 0.  1.
          1   -1    0    0  501    0  0.00000000000E+00 -0.00000000000E+00 -0.85259651302E+03  0.85259651302E+03  0.00000000000E+00 0. -1.
         23    2    1    2    0    0 -0.51858080850E+03 -0.45476339916E+03  0.66494657945E+03  0.96230850094E+03  0.90265681746E+02 0.  0.
        254    2    1    2    0    0  0.51858080850E+03  0.45476339916E+03 -0.25760401307E+03  0.11502270915E+04  0.88370058859E+03 0.  0.
        -24    2    4    4    0    0 -0.24193610715E+03  0.71448793953E+02 -0.82626709367E+02  0.27705319887E+03  0.79330270405E+02 0.  0.
         24    2    4    4    0    0  0.76051691566E+03  0.38331460520E+03 -0.17497730370E+03  0.87317389261E+03  0.80619627657E+02 0.  0.
         13    1    3    3    0    0 -0.51195951000E+03 -0.43673860214E+03  0.65979028408E+03  0.94242578776E+03  0.00000000000E+00 0.  1.
        -13    1    3    3    0    0 -0.66212985096E+01 -0.18024797022E+02  0.51562953762E+01  0.19882713186E+02  0.00000000000E+00 0. -1.
          2    1    6    6  502    0  0.59469349797E+03  0.27280048786E+03 -0.10923955293E+03  0.66333531689E+03  0.00000000000E+00 0. -1.
          3    1    5    5  503    0 -0.18944680999E+03  0.62907498917E+02 -0.29327365381E+02  0.20176110030E+03  0.00000000000E+00 0. -1.
         -4    1    5    5    0  503 -0.52489297164E+02  0.85412950367E+01 -0.53299343986E+02  0.75292098569E+02  0.00000000000E+00 0.  1.
         -1    1    6    6    0  502  0.16582341769E+03  0.11051411734E+03 -0.65737750770E+02  0.20983857572E+03  0.00000000000E+00 0.  1.
<mgrwt>
<rscale>  0 0.20728914E+04</rscale>
<asrwt>0</asrwt>
<pdfrwt beam="1">  1        1 0.13116869E+00 0.20728914E+04</pdfrwt>
<pdfrwt beam="2">  1       -1 0.19383678E+00 0.20728914E+04</pdfrwt>
<totfact> 0.30508189E+00</totfact>
</mgrwt>
</event>
<event>
12    1  0.1506149E-007  0.1495624E+04  0.7818608E-02  0.8887368E-01
         -1   -1    0    0    0  501 -0.00000000000E+00  0.00000000000E+00  0.32457943633E+03  0.32457943633E+03  0.00000000000E+00 0.  1.
          1   -1    0    0  501    0  0.00000000000E+00 -0.00000000000E+00 -0.17229161709E+04  0.17229161709E+04  0.00000000000E+00 0. -1.
         23    2    1    2    0    0  0.41119536343E+03  0.27748222416E+03 -0.52957198640E+03  0.73122123189E+03  0.90332660507E+02 0.  0.
        254    2    1    2    0    0 -0.41119536343E+03 -0.27748222416E+03 -0.86876474821E+03  0.13162743754E+04  0.85542272118E+03 0.  0.
        -24    2    4    4    0    0 -0.25868792558E+03 -0.54702890189E+03 -0.33805004215E+03  0.69720485945E+03  0.75211187269E+02 0.  0.
         24    2    4    4    0    0 -0.15250743785E+03  0.26954667773E+03 -0.53071470606E+03  0.61906951593E+03  0.75332836467E+02 0.  0.
         11    1    3    3    0    0  0.19843423436E+03  0.17733971956E+03 -0.32030250342E+03  0.41643632790E+03  0.00000000000E+00 0.  1.
        -11    1    3    3    0    0  0.21276112907E+03  0.10014250460E+03 -0.20926948298E+03  0.31478490399E+03  0.00000000000E+00 0. -1.
          2    1    6    6  502    0 -0.13476923817E+02  0.90179137710E+02 -0.16984572390E+03  0.19277311607E+03  0.00000000000E+00 0. -1.
          3    1    5    5  503    0 -0.17483462886E+03 -0.28311581390E+03 -0.17806199385E+03  0.37739605878E+03  0.00000000000E+00 0. -1.
         -4    1    5    5    0  503 -0.83853296724E+02 -0.26391308799E+03 -0.15998804831E+03  0.31980880067E+03  0.00000000000E+00 0.  1.
         -1    1    6    6    0  502 -0.13903051403E+03  0.17936754002E+03 -0.36086898216E+03  0.42629639986E+03  0.00000000000E+00 0.  1.
<mgrwt>
<rscale>  0 0.14956245E+04</rscale>
<asrwt>0</asrwt>
<pdfrwt beam="1">  1        1 0.26506402E+00 0.14956245E+04</pdfrwt>
<pdfrwt beam="2">  1       -1 0.49935299E-01 0.14956245E+04</pdfrwt>
<totfact> 0.17903212E+01</totfact>
</mgrwt>
</event>
<event>
12    1  0.1506149E-007  0.1429388E+04  0.7818608E-02  0.8932816E-01
         -2   -1    0    0    0  501 -0.00000000000E+00  0.00000000000E+00  0.18520082770E+03  0.18520082770E+03  0.00000000000E+00 0.  1.
          2   -1    0    0  501    0  0.00000000000E+00 -0.00000000000E+00 -0.27580202661E+04  0.27580202661E+04  0.00000000000E+00 0. -1.
         23    2    1    2    0    0  0.41195815597E+01  0.63495564945E+02 -0.16948314931E+04  0.16984405045E+04  0.90541147973E+02 0.  0.
        254    2    1    2    0    0 -0.41195815597E+01 -0.63495564945E+02 -0.87798794525E+03  0.12447805893E+04  0.88009500950E+03 0.  0.
        -24    2    4    4    0    0 -0.42701702523E+03 -0.10417989659E+03 -0.39744229857E+03  0.59853789053E+03  0.84203533271E+02 0.  0.
         24    2    4    4    0    0  0.42289744367E+03  0.40684331646E+02 -0.48054564668E+03  0.64624269876E+03  0.78791144485E+02 0.  0.
         13    1    3    3    0    0 -0.48994412126E+01  0.85184726509E+02 -0.14411968665E+04  0.14437204889E+04  0.00000000000E+00 0. -1.
        -13    1    3    3    0    0  0.90190227722E+01 -0.21689161565E+02 -0.25363462661E+03  0.25472001554E+03  0.00000000000E+00 0.  1.
          4    1    6    6  502    0  0.34586065071E+03  0.41751036460E+02 -0.43285968584E+03  0.55563499384E+03  0.00000000000E+00 0. -1.
          1    1    5    5  503    0 -0.34319049112E+03 -0.11404735935E+03 -0.30229325157E+03  0.47134671243E+03  0.00000000000E+00 0. -1.
         -2    1    5    5    0  503 -0.83826534112E+02  0.98674627577E+01 -0.95149046999E+02  0.12719117810E+03  0.00000000000E+00 0.  1.
         -1    1    6    6    0  502  0.77036792963E+02 -0.10667048141E+01 -0.47685960839E+02  0.90607704917E+02  0.00000000000E+00 0.  1.
<mgrwt>
<rscale>  0 0.14293882E+04</rscale>
<asrwt>0</asrwt>
<pdfrwt beam="1">  1        2 0.42431080E+00 0.14293882E+04</pdfrwt>
<pdfrwt beam="2">  1       -2 0.28492436E-01 0.14293882E+04</pdfrwt>
<totfact> 0.27028110E+01</totfact>
</mgrwt>
</event>
<event>
12    1  0.1506149E-007  0.2921464E+04  0.7818608E-02  0.8266520E-01
          1   -1    0    0  501    0  0.00000000000E+00  0.00000000000E+00  0.29041219206E+04  0.29041219206E+04  0.00000000000E+00 0. -1.
         -1   -1    0    0    0  501 -0.00000000000E+00 -0.00000000000E+00 -0.73472719875E+03  0.73472719875E+03  0.00000000000E+00 0.  1.
         23    2    1    2    0    0  0.80374301313E+03 -0.97227728174E+03  0.15942681072E+04  0.20350181011E+04  0.91005112660E+02 0.  0.
        254    2    1    2    0    0 -0.80374301313E+03  0.97227728174E+03  0.57512661467E+03  0.16038310182E+04  0.80633576655E+03 0.  0.
        -24    2    4    4    0    0 -0.21802888741E+03  0.11045777828E+03 -0.18097850576E+03  0.31406248107E+03  0.78386899019E+02 0.  0.
         24    2    4    4    0    0 -0.58571412572E+03  0.86181950346E+03  0.75610512043E+03  0.12897685372E+04  0.77550194857E+02 0.  0.
         13    1    3    3    0    0  0.52275726824E+03 -0.60877228648E+03  0.10789924855E+04  0.13446574441E+04  0.00000000000E+00 0.  1.
        -13    1    3    3    0    0  0.28098574489E+03 -0.36350499526E+03  0.51527562168E+03  0.69036065698E+03  0.00000000000E+00 0. -1.
          2    1    6    6  502    0 -0.16174394726E+03  0.30268025960E+03  0.24609226140E+03  0.42230065729E+03  0.00000000000E+00 0. -1.
          3    1    5    5  503    0 -0.19942663464E+03  0.81228871794E+02 -0.12722427503E+03  0.25011023245E+03  0.00000000000E+00 0. -1.
         -4    1    5    5    0  503 -0.18602252775E+02  0.29228906483E+02 -0.53754230730E+02  0.63952248622E+02  0.00000000000E+00 0.  1.
         -1    1    6    6    0  502 -0.42397017846E+03  0.55913924386E+03  0.51001285902E+03  0.86746787987E+03  0.00000000000E+00 0.  1.
<mgrwt>
<rscale>  0 0.29214636E+04</rscale>
<asrwt>0</asrwt>
<pdfrwt beam="1">  1        1 0.44678798E+00 0.29214636E+04</pdfrwt>
<pdfrwt beam="2">  1       -1 0.11303496E+00 0.29214636E+04</pdfrwt>
<totfact> 0.42975694E-01</totfact>
</mgrwt>
</event>
<event>
12    1  0.1506149E-007  0.2012208E+04  0.7818608E-02  0.8600934E-01
          2   -1    0    0  501    0  0.00000000000E+00  0.00000000000E+00  0.61439958322E+03  0.61439958322E+03  0.00000000000E+00 0. -1.
         -2   -1    0    0    0  501 -0.00000000000E+00 -0.00000000000E+00 -0.16475354434E+04  0.16475354434E+04  0.00000000000E+00 0.  1.
         23    2    1    2    0    0  0.63503831431E+03 -0.47292499737E+03 -0.25713162436E+03  0.83748912655E+03  0.91321690053E+02 0.  0.
        254    2    1    2    0    0 -0.63503831431E+03  0.47292499737E+03 -0.77600423585E+03  0.14244459001E+04  0.89438908451E+03 0.  0.
        -24    2    4    4    0    0 -0.52842078543E+01 -0.18469323851E+03  0.33724225529E+02  0.20376821699E+03  0.79023083096E+02 0.  0.
         24    2    4    4    0    0 -0.62975410645E+03  0.65761823588E+03 -0.80972846138E+03  0.12206776831E+04  0.73087934187E+02 0.  0.
         11    1    3    3    0    0  0.22344747734E+03 -0.12503276348E+03 -0.11123364008E+03  0.27916821051E+03  0.00000000000E+00 0. -1.
        -11    1    3    3    0    0  0.41159083696E+03 -0.34789223389E+03 -0.14589798428E+03  0.55832091604E+03  0.00000000000E+00 0.  1.
          2    1    6    6  502    0 -0.26049500018E+02  0.48678429307E+02 -0.61513122625E+02  0.82656095879E+02  0.00000000000E+00 0. -1.
          3    1    5    5  503    0 -0.34033119560E+02 -0.53690421915E+02  0.28177465959E+02  0.69533331722E+02  0.00000000000E+00 0. -1.
         -4    1    5    5    0  503  0.28748911706E+02 -0.13100281660E+03  0.55467595699E+01  0.13423488527E+03  0.00000000000E+00 0.  1.
         -1    1    6    6    0  502 -0.60370460644E+03  0.60893980658E+03 -0.74821533876E+03  0.11380215872E+04  0.00000000000E+00 0.  1.
<mgrwt>
<rscale>  0 0.20122078E+04</rscale>
<asrwt>0</asrwt>
<pdfrwt beam="1">  1        2 0.94523015E-01 0.20122078E+04</pdfrwt>
<pdfrwt beam="2">  1       -2 0.25346699E+00 0.20122078E+04</pdfrwt>
<totfact> 0.27360180E+00</totfact>
</mgrwt>
</event>
<event>
12    1  0.1506149E-007  0.2388337E+04  0.7818608E-02  0.8443883E-01
         -2   -1    0    0    0  501 -0.00000000000E+00  0.00000000000E+00  0.11797743505E+04  0.11797743505E+04  0.00000000000E+00 0.  1.
          2   -1    0    0  501    0  0.00000000000E+00 -0.00000000000E+00 -0.12087383724E+04  0.12087383724E+04  0.00000000000E+00 0. -1.
         23    2    1    2    0    0 -0.68796916580E+03 -0.45600656360E+03  0.59410697542E+03  0.10209380339E+04  0.90043388268E+02 0.  0.
        254    2    1    2    0    0  0.68796916580E+03  0.45600656360E+03 -0.62307099724E+03  0.13675746890E+04  0.89487401525E+03 0.  0.
        -24    2    4    4    0    0  0.63372628820E+03  0.62425591527E+03 -0.72333549329E+03  0.11493432891E+04  0.80444417485E+02 0.  0.
         24    2    4    4    0    0  0.54242877607E+02 -0.16824935166E+03  0.10026449605E+03  0.21823139985E+03  0.79510003171E+02 0.  0.
         11    1    3    3    0    0 -0.46141769272E+02 -0.66565261301E+01  0.38108791378E+02  0.60213388810E+02  0.00000000000E+00 0. -1.
        -11    1    3    3    0    0 -0.64182739653E+03 -0.44935003747E+03  0.55599818404E+03  0.96072464514E+03  0.00000000000E+00 0.  1.
          4    1    6    6  502    0  0.56620954209E+02 -0.56322758340E+02  0.57412828799E+02  0.98358621754E+02  0.00000000000E+00 0. -1.
          3    1    5    5  503    0  0.56845869416E+03  0.56966577708E+03 -0.62268712466E+03  0.10175478562E+04  0.00000000000E+00 0. -1.
         -4    1    5    5    0  503  0.65267594042E+02  0.54590138189E+02 -0.10064836863E+03  0.13179543288E+03  0.00000000000E+00 0.  1.
         -3    1    6    6    0  502 -0.23780766015E+01 -0.11192659332E+03  0.42851667247E+02  0.11987277809E+03  0.00000000000E+00 0.  1.
<mgrwt>
<rscale>  0 0.23883371E+04</rscale>
<asrwt>0</asrwt>
<pdfrwt beam="1">  1        2 0.18595975E+00 0.23883371E+04</pdfrwt>
<pdfrwt beam="2">  1       -2 0.18150375E+00 0.23883371E+04</pdfrwt>
<totfact> 0.29823065E+00</totfact>
</mgrwt>
</event>
<event>
12    1  0.1506149E-007  0.3188990E+04  0.7818608E-02  0.8191731E-01
          2   -1    0    0  501    0  0.00000000000E+00  0.00000000000E+00  0.25417489682E+04  0.25417489682E+04  0.00000000000E+00 0. -1.
         -2   -1    0    0    0  501 -0.00000000000E+00 -0.00000000000E+00 -0.10002620487E+04  0.10002620487E+04  0.00000000000E+00 0.  1.
         23    2    1    2    0    0  0.81401910445E+03  0.74143225214E+03 -0.36465329437E+03  0.11635267980E+04  0.92052689408E+02 0.  0.
        254    2    1    2    0    0 -0.81401910445E+03 -0.74143225214E+03  0.19061402138E+04  0.23784842188E+04  0.90081506286E+03 0.  0.
        -24    2    4    4    0    0 -0.32026930211E+03 -0.79158687632E+03  0.15193684048E+04  0.17446966047E+04  0.79395746223E+02 0.  0.
         24    2    4    4    0    0 -0.49374980234E+03  0.50154624176E+02  0.38677180909E+03  0.63378761412E+03  0.76091746332E+02 0.  0.
         11    1    3    3    0    0  0.25063069834E+03  0.23848285784E+03 -0.15933340371E+03  0.38088968741E+03  0.00000000000E+00 0.  1.
        -11    1    3    3    0    0  0.56338840611E+03  0.50294939430E+03 -0.20531989066E+03  0.78263711059E+03  0.00000000000E+00 0. -1.
          4    1    6    6  502    0  0.16633352899E+01  0.24340320101E+01  0.74463741303E+01  0.80087254792E+01  0.00000000000E+00 0. -1.
          3    1    5    5  503    0 -0.22838461161E+03 -0.61937214944E+03  0.11171117945E+04  0.12975824258E+04  0.00000000000E+00 0. -1.
         -4    1    5    5    0  503 -0.91884690498E+02 -0.17221472688E+03  0.40225661023E+03  0.44711417891E+03  0.00000000000E+00 0.  1.
         -3    1    6    6    0  502 -0.49541313763E+03  0.47720592166E+02  0.37932543496E+03  0.62577888864E+03  0.00000000000E+00 0.  1.
<mgrwt>
<rscale>  0 0.31889905E+04</rscale>
<asrwt>0</asrwt>
<pdfrwt beam="1">  1        2 0.39103830E+00 0.31889905E+04</pdfrwt>
<pdfrwt beam="2">  1       -2 0.15388647E+00 0.31889905E+04</pdfrwt>
<totfact> 0.77632319E-01</totfact>
</mgrwt>
</event>
<event>
12    1  0.1506149E-007  0.1449061E+04  0.7818608E-02  0.8919051E-01
          3   -1    0    0  501    0  0.00000000000E+00  0.00000000000E+00  0.45517096259E+03  0.45517096259E+03  0.00000000000E+00 0. -1.
         -3   -1    0    0    0  501 -0.00000000000E+00 -0.00000000000E+00 -0.11532913347E+04  0.11532913347E+04  0.00000000000E+00 0.  1.
         23    2    1    2    0    0  0.67895666183E+01 -0.33586648517E+03 -0.54627106690E+03  0.64774407243E+03  0.91147741393E+02 0.  0.
        254    2    1    2    0    0 -0.67895666183E+01  0.33586648517E+03 -0.15184930523E+03  0.96071822490E+03  0.88716903805E+03 0.  0.
        -24    2    4    4    0    0  0.14626824255E+03  0.60551160392E+03 -0.10458547656E+03  0.63680543199E+03  0.80897064496E+02 0.  0.
         24    2    4    4    0    0 -0.15305780917E+03 -0.26964511875E+03 -0.47263828675E+02  0.32391279291E+03  0.80934818806E+02 0.  0.
         11    1    3    3    0    0 -0.26443805648E+02 -0.61669691252E+02 -0.68556131615E+02  0.95928978199E+02  0.00000000000E+00 0. -1.
        -11    1    3    3    0    0  0.33233372266E+02 -0.27419679392E+03 -0.47771493529E+03  0.55181509423E+03  0.00000000000E+00 0.  1.
          2    1    6    6  502    0 -0.14307349480E+03 -0.26649583080E+03 -0.59012726682E+02  0.30817617471E+03  0.00000000000E+00 0. -1.
          3    1    5    5  503    0  0.53493117029E+02  0.33403810690E+03 -0.25700699905E+02  0.33926906197E+03  0.00000000000E+00 0. -1.
         -4    1    5    5    0  503  0.92775125521E+02  0.27147349701E+03 -0.78884776654E+02  0.29753637002E+03  0.00000000000E+00 0.  1.
         -1    1    6    6    0  502 -0.99843143690E+01 -0.31492879521E+01  0.11748898007E+02  0.15736618201E+02  0.00000000000E+00 0.  1.
<mgrwt>
<rscale>  0 0.14490614E+04</rscale>
<asrwt>0</asrwt>
<pdfrwt beam="1">  1        3 0.70026303E-01 0.14490614E+04</pdfrwt>
<pdfrwt beam="2">  1       -3 0.17742943E+00 0.14490614E+04</pdfrwt>
<totfact> 0.10193294E+00</totfact>
</mgrwt>
</event>
<event>
12    1  0.1506149E-007  0.2343095E+04  0.7818608E-02  0.8461121E-01
         -1   -1    0    0    0  501 -0.00000000000E+00  0.00000000000E+00  0.72834875319E+03  0.72834875319E+03  0.00000000000E+00 0. -1.
          1   -1    0    0  501    0  0.00000000000E+00 -0.00000000000E+00 -0.18844317335E+04  0.18844317335E+04  0.00000000000E+00 0.  1.
         23    2    1    2    0    0 -0.83509555905E+03  0.52666613453E+03 -0.33287401852E+03  0.10458461459E+04  0.90704127055E+02 0.  0.
        254    2    1    2    0    0  0.83509555905E+03 -0.52666613453E+03 -0.82320896181E+03  0.15669343408E+04  0.89601809337E+03 0.  0.
        -24    2    4    4    0    0  0.52492381715E+03 -0.61860405744E+03 -0.91107987190E+03  0.12224922327E+04  0.78770123758E+02 0.  0.
         24    2    4    4    0    0  0.31017174190E+03  0.91937922911E+02  0.87870910091E+02  0.34444210810E+03  0.79120021813E+02 0.  0.
         13    1    3    3    0    0 -0.82224670907E+03  0.51985384667E+03 -0.31441724632E+03  0.10223482172E+04  0.00000000000E+00 0. -1.
        -13    1    3    3    0    0 -0.12848849977E+02  0.68122878607E+01 -0.18456772199E+02  0.23497928667E+02  0.00000000000E+00 0.  1.
          2    1    6    6  502    0  0.25818588838E+03  0.51505194108E+02  0.90873576375E+02  0.27851525069E+03  0.00000000000E+00 0. -1.
          1    1    5    5  503    0  0.48658277611E+03 -0.58722755326E+03 -0.82744023847E+03  0.11252805630E+04  0.00000000000E+00 0. -1.
         -2    1    5    5    0  503  0.38341041041E+02 -0.31376504179E+02 -0.83639633430E+02  0.97211669685E+02  0.00000000000E+00 0.  1.
         -1    1    6    6    0  502  0.51985853513E+02  0.40432728802E+02 -0.30026662839E+01  0.65926857416E+02  0.00000000000E+00 0.  1.
<mgrwt>
<rscale>  0 0.23430950E+04</rscale>
<asrwt>0</asrwt>
<pdfrwt beam="1">  1        1 0.28991256E+00 0.23430950E+04</pdfrwt>
<pdfrwt beam="2">  1       -1 0.11205366E+00 0.23430950E+04</pdfrwt>
<totfact> 0.23476966E+00</totfact>
</mgrwt>
</event>
<event>
12    1  0.1506149E-007  0.1672188E+04  0.7818608E-02  0.8777388E-01
         -1   -1    0    0    0  501 -0.00000000000E+00  0.00000000000E+00  0.77779247699E+03  0.77779247699E+03  0.00000000000E+00 0.  1.
          1   -1    0    0  501    0  0.00000000000E+00 -0.00000000000E+00 -0.89876527677E+03  0.89876527677E+03  0.00000000000E+00 0. -1.
         23    2    1    2    0    0  0.28051331459E+02  0.13747975267E+03 -0.52780355680E+03  0.55369942817E+03  0.91208018275E+02 0.  0.
        254    2    1    2    0    0 -0.28051331459E+02 -0.13747975267E+03  0.40683075702E+03  0.11228583256E+04  0.10371171558E+04 0.  0.
        -24    2    4    4    0    0 -0.26115120021E+03  0.37770068399E+02  0.66785315041E+03  0.72260998342E+03  0.80689715504E+02 0.  0.
         24    2    4    4    0    0  0.23309986875E+03 -0.17524982106E+03 -0.26102239339E+03  0.40024834216E+03  0.83773486028E+02 0.  0.
         11    1    3    3    0    0 -0.96611295902E+01 -0.81150259466E+00 -0.37488677688E+01  0.10394708797E+02  0.00000000000E+00 0.  1.
        -11    1    3    3    0    0  0.37712461049E+02  0.13829125526E+03 -0.52405468903E+03  0.54330471938E+03  0.00000000000E+00 0. -1.
          2    1    6    6  502    0  0.18210915417E+03 -0.13229725459E+03 -0.14916978834E+03  0.27003320788E+03  0.00000000000E+00 0. -1.
          3    1    5    5  503    0 -0.18095772483E+03  0.61604828833E+02  0.49334720112E+03  0.52908630106E+03  0.00000000000E+00 0. -1.
         -4    1    5    5    0  503 -0.80193475380E+02 -0.23834760434E+02  0.17450594929E+03  0.19352368236E+03  0.00000000000E+00 0.  1.
         -1    1    6    6    0  502  0.50990714573E+02 -0.42952566476E+02 -0.11185260505E+03  0.13021513428E+03  0.00000000000E+00 0.  1.
<mgrwt>
<rscale>  0 0.16721876E+04</rscale>
<asrwt>0</asrwt>
<pdfrwt beam="1">  1        1 0.13827158E+00 0.16721876E+04</pdfrwt>
<pdfrwt beam="2">  1       -1 0.11966038E+00 0.16721876E+04</pdfrwt>
<totfact> 0.10847725E+01</totfact>
</mgrwt>
</event>
<event>
12    1  0.1812012E-007  0.1867882E+04  0.7818608E-02  0.8671011E-01
          1   -1    0    0  501    0  0.00000000000E+00  0.00000000000E+00  0.16902687425E+04  0.16902687425E+04  0.00000000000E+00 0. -1.
         -1   -1    0    0    0  501 -0.00000000000E+00 -0.00000000000E+00 -0.51603992034E+03  0.51603992034E+03  0.00000000000E+00 0.  1.
         23    2    1    2    0    0  0.19970063587E+02  0.61186284292E+03 -0.18012547228E+02  0.61929269739E+03  0.91782630108E+02 0.  0.
        254    2    1    2    0    0 -0.19970063587E+02 -0.61186284292E+03  0.11922413694E+04  0.15870159655E+04  0.84994426271E+03 0.  0.
        -24    2    4    4    0    0 -0.31130808532E+03  0.36647063067E+02  0.29261095735E+03  0.43759711236E+03  0.87260123580E+02 0.  0.
         24    2    4    4    0    0  0.29133802174E+03 -0.64850990599E+03  0.89963041205E+03  0.11494188531E+04  0.79911704338E+02 0.  0.
         13    1    3    3    0    0 -0.26535900578E+02  0.73221343970E+02 -0.10575031523E+02  0.78596122830E+02  0.00000000000E+00 0. -1.
        -13    1    3    3    0    0  0.46505964165E+02  0.53864149895E+03 -0.74375157044E+01  0.54069657456E+03  0.00000000000E+00 0.  1.
          2    1    6    6  502    0  0.17676427219E+03 -0.39872250644E+03  0.48817691871E+03  0.65463115495E+03  0.00000000000E+00 0. -1.
          3    1    5    5  503    0 -0.15834747660E+03  0.19938608614E+02  0.20742960544E+03  0.26172220515E+03  0.00000000000E+00 0. -1.
         -4    1    5    5    0  503 -0.15296060873E+03  0.16708454453E+02  0.85181351911E+02  0.17587490721E+03  0.00000000000E+00 0.  1.
         -1    1    6    6    0  502  0.11457374954E+03 -0.24978739955E+03  0.41145349334E+03  0.49478769815E+03  0.00000000000E+00 0.  1.
<mgrwt>
<rscale>  0 0.18678824E+04</rscale>
<asrwt>0</asrwt>
<pdfrwt beam="1">  1        1 0.26004134E+00 0.18678824E+04</pdfrwt>
<pdfrwt beam="2">  1       -1 0.79390758E-01 0.18678824E+04</pdfrwt>
<totfact> 0.71980470E+00</totfact>
</mgrwt>
</event>
<event>
12    1  0.1506149E-007  0.3073893E+04  0.7818608E-02  0.8222940E-01
         -2   -1    0    0    0  501 -0.00000000000E+00  0.00000000000E+00  0.96641855833E+03  0.96641855833E+03  0.00000000000E+00 0.  1.
          2   -1    0    0  501    0  0.00000000000E+00 -0.00000000000E+00 -0.24442869018E+04  0.24442869018E+04  0.00000000000E+00 0. -1.
         23    2    1    2    0    0  0.13541011806E+04 -0.30101158914E+03 -0.89798986899E+03  0.16548986582E+04  0.90032104165E+02 0.  0.
        254    2    1    2    0    0 -0.13541011806E+04  0.30101158914E+03 -0.57987847449E+03  0.17558068020E+04  0.90686299763E+03 0.  0.
        -24    2    4    4    0    0 -0.10921107261E+04 -0.44716965078E+02 -0.69863999538E+03  0.12996034254E+04  0.78522451113E+02 0.  0.
         24    2    4    4    0    0 -0.26199045459E+03  0.34572855422E+03  0.11876152089E+03  0.45620337654E+03  0.76485230137E+02 0.  0.
         11    1    3    3    0    0  0.51893829579E+03 -0.81630071759E+02 -0.37399949993E+03  0.64485351003E+03  0.00000000000E+00 0.  1.
        -11    1    3    3    0    0  0.83516288485E+03 -0.21938151738E+03 -0.52399036906E+03  0.10100451481E+04  0.00000000000E+00 0. -1.
          4    1    6    6  502    0 -0.18232253065E+03  0.18827983688E+03  0.91783949316E+02  0.27769604878E+03  0.00000000000E+00 0. -1.
          1    1    5    5  503    0 -0.73471579959E+03  0.84414394392E+00 -0.49247869787E+03  0.88450171656E+03  0.00000000000E+00 0. -1.
         -2    1    5    5    0  503 -0.35739492646E+03 -0.45561109022E+02 -0.20616129751E+03  0.41510170887E+03  0.00000000000E+00 0.  1.
         -3    1    6    6    0  502 -0.79667923939E+02  0.15744871734E+03  0.26977571570E+02  0.17850732776E+03  0.00000000000E+00 0.  1.
<mgrwt>
<rscale>  0 0.30738928E+04</rscale>
<asrwt>0</asrwt>
<pdfrwt beam="1">  1        2 0.37604414E+00 0.30738928E+04</pdfrwt>
<pdfrwt beam="2">  1       -2 0.14867978E+00 0.30738928E+04</pdfrwt>
<totfact> 0.97825158E-01</totfact>
</mgrwt>
</event>
<event>
12    1  0.1506149E-007  0.2293833E+04  0.7818608E-02  0.8480357E-01
         -1   -1    0    0    0  501 -0.00000000000E+00  0.00000000000E+00  0.35877370075E+04  0.35877370075E+04  0.00000000000E+00 0.  1.
          1   -1    0    0  501    0  0.00000000000E+00 -0.00000000000E+00 -0.36664268058E+03  0.36664268058E+03  0.00000000000E+00 0. -1.
         23    2    1    2    0    0 -0.37703427351E+03  0.48058490947E+03  0.26474416960E+04  0.27185592852E+04  0.92197369035E+02 0.  0.
        254    2    1    2    0    0  0.37703427351E+03 -0.48058490947E+03  0.57365263092E+03  0.12358204029E+04  0.90832704936E+03 0.  0.
        -24    2    4    4    0    0  0.63646741851E+03 -0.51471019739E+03  0.44577584861E+03  0.93551081184E+03  0.80293273354E+02 0.  0.
         24    2    4    4    0    0 -0.25943314501E+03  0.34125287921E+02  0.12787678231E+03  0.30030959103E+03  0.73234465984E+02 0.  0.
         13    1    3    3    0    0 -0.63994630502E+02  0.34784034243E+02  0.29148311099E+03  0.30044574512E+03  0.00000000000E+00 0. -1.
        -13    1    3    3    0    0 -0.31303964300E+03  0.44580087523E+03  0.23559585850E+04  0.24181135400E+04  0.00000000000E+00 0.  1.
          2    1    6    6  502    0 -0.60483648840E+02  0.63258450890E+01 -0.24355087907E+01  0.60862301929E+02  0.00000000000E+00 0. -1.
          1    1    5    5  503    0  0.39872895168E+01 -0.91092116379E+00 -0.31464931877E+01  0.51602979020E+01  0.00000000000E+00 0. -1.
         -2    1    5    5    0  503  0.63248012899E+03 -0.51379927623E+03  0.44892234180E+03  0.93035051394E+03  0.00000000000E+00 0.  1.
         -1    1    6    6    0  502 -0.19894949617E+03  0.27799442832E+02  0.13031229110E+03  0.23944728910E+03  0.00000000000E+00 0.  1.
<mgrwt>
<rscale>  0 0.22938330E+04</rscale>
<asrwt>0</asrwt>
<pdfrwt beam="1">  1        1 0.56406569E-01 0.22938330E+04</pdfrwt>
<pdfrwt beam="2">  1       -1 0.55195951E+00 0.22938330E+04</pdfrwt>
<totfact> 0.44107666E-02</totfact>
</mgrwt>
</event>
<event>
12    1  0.1506149E-007  0.1581690E+04  0.7818608E-02  0.8831876E-01
         -3   -1    0    0    0  501 -0.00000000000E+00  0.00000000000E+00  0.51773524296E+03  0.51773524296E+03  0.00000000000E+00 0.  1.
          3   -1    0    0  501    0  0.00000000000E+00 -0.00000000000E+00 -0.12080229251E+04  0.12080229251E+04  0.00000000000E+00 0. -1.
         23    2    1    2    0    0  0.19437571381E+03  0.26696792433E+03  0.21676653912E+03  0.40685321823E+03  0.97406457509E+02 0.  0.
        254    2    1    2    0    0 -0.19437571381E+03 -0.26696792433E+03 -0.90705422123E+03  0.13189049498E+04  0.89872638530E+03 0.  0.
        -24    2    4    4    0    0 -0.42069512674E+03 -0.51520933224E+02 -0.88697005024E+02  0.43908297748E+03  0.72717990796E+02 0.  0.
         24    2    4    4    0    0  0.22631941293E+03 -0.21544699110E+03 -0.81835721621E+03  0.87982197233E+03  0.82099251068E+02 0.  0.
         11    1    3    3    0    0  0.20186395512E+03  0.23155949032E+03  0.20259559547E+03  0.36798618077E+03  0.00000000000E+00 0.  1.
        -11    1    3    3    0    0 -0.74882413133E+01  0.35408434010E+02  0.14170943646E+02  0.38867037459E+02  0.00000000000E+00 0. -1.
          4    1    6    6  502    0  0.15778713246E+03 -0.13639627439E+03 -0.43454903114E+03  0.48200994108E+03  0.00000000000E+00 0. -1.
          3    1    5    5  503    0 -0.20775848594E+03 -0.42455881147E+02 -0.77116120024E+02  0.22563906198E+03  0.00000000000E+00 0. -1.
         -4    1    5    5    0  503 -0.21293664080E+03 -0.90650520771E+01 -0.11580885000E+02  0.21344391550E+03  0.00000000000E+00 0.  1.
         -3    1    6    6    0  502  0.68532280477E+02 -0.79050716716E+02 -0.38380818506E+03  0.39781203124E+03  0.00000000000E+00 0.  1.
<mgrwt>
<rscale>  0 0.15816903E+04</rscale>
<asrwt>0</asrwt>
<pdfrwt beam="1">  1        3 0.18584968E+00 0.15816903E+04</pdfrwt>
<pdfrwt beam="2">  1       -3 0.79651576E-01 0.15816903E+04</pdfrwt>
<totfact> 0.67072074E-01</totfact>
</mgrwt>
</event>
<event>
12    1  0.1506149E-007  0.2798506E+04  0.7818608E-02  0.8303732E-01
          2   -1    0    0  501    0  0.00000000000E+00  0.00000000000E+00  0.14706170838E+04  0.14706170838E+04  0.00000000000E+00 0. -1.
         -2   -1    0    0    0  501 -0.00000000000E+00 -0.00000000000E+00 -0.13313519197E+04  0.13313519197E+04  0.00000000000E+00 0.  1.
         23    2    1    2    0    0 -0.43673079657E+03 -0.35635184037E+03  0.11848172275E+04  0.13152378635E+04  0.91314578100E+02 0.  0.
        254    2    1    2    0    0  0.43673079657E+03  0.35635184037E+03 -0.10455520634E+04  0.14867311400E+04  0.89413083077E+03 0.  0.
        -24    2    4    4    0    0  0.10696710943E+03  0.51004942465E+03 -0.97384661218E+03  0.11074742896E+04  0.80806559129E+02 0.  0.
         24    2    4    4    0    0  0.32976368714E+03 -0.15369758428E+03 -0.71705451260E+02  0.37925685041E+03  0.79542756273E+02 0.  0.
         13    1    3    3    0    0 -0.36464047942E+02 -0.53420496051E+01  0.54086570093E+02  0.65448616110E+02  0.00000000000E+00 0.  1.
        -13    1    3    3    0    0 -0.40026674863E+03 -0.35100979077E+03  0.11307306575E+04  0.12497892474E+04  0.00000000000E+00 0. -1.
          2    1    6    6  502    0  0.50707007054E+02 -0.11134784149E+02 -0.37477813518E+02  0.64029450165E+02  0.00000000000E+00 0. -1.
          1    1    5    5  503    0  0.63953407130E+02  0.16101123230E+03 -0.37307904198E+03  0.41134246897E+03  0.00000000000E+00 0. -1.
         -2    1    5    5    0  503  0.43013702298E+02  0.34903819234E+03 -0.60076757020E+03  0.69613182064E+03  0.00000000000E+00 0.  1.
         -1    1    6    6    0  502  0.27905668009E+03 -0.14256280013E+03 -0.34227637742E+02  0.31522740025E+03  0.00000000000E+00 0.  1.
<mgrwt>
<rscale>  0 0.27985059E+04</rscale>
<asrwt>0</asrwt>
<pdfrwt beam="1">  1        2 0.22624878E+00 0.27985059E+04</pdfrwt>
<pdfrwt beam="2">  1       -2 0.20482337E+00 0.27985059E+04</pdfrwt>
<totfact> 0.14198534E+00</totfact>
</mgrwt>
</event>
<event>
12    1  0.1506149E-007  0.1277015E+04  0.7818608E-02  0.9047994E-01
          2   -1    0    0  501    0  0.00000000000E+00  0.00000000000E+00  0.12682336867E+04  0.12682336867E+04  0.00000000000E+00 0. -1.
         -2   -1    0    0    0  501 -0.00000000000E+00 -0.00000000000E+00 -0.32146407160E+03  0.32146407160E+03  0.00000000000E+00 0.  1.
         23    2    1    2    0    0  0.48469507963E+02 -0.22570906981E+02 -0.12557128390E+03  0.16481011516E+03  0.92387703056E+02 0.  0.
        254    2    1    2    0    0 -0.48469507963E+02  0.22570906981E+02  0.10723408990E+04  0.14248876432E+04  0.93676627441E+03 0.  0.
        -24    2    4    4    0    0 -0.28588326066E+03  0.13875768607E+02 -0.26346724537E+02  0.29798794171E+03  0.78618622667E+02 0.  0.
         24    2    4    4    0    0  0.23741375270E+03  0.86951383741E+01  0.10986876236E+04  0.11268997014E+04  0.79671497830E+02 0.  0.
         11    1    3    3    0    0  0.39355785694E+02  0.23496694311E+02 -0.21487625357E+02  0.50623023958E+02  0.00000000000E+00 0. -1.
        -11    1    3    3    0    0  0.91137222693E+01 -0.46067601292E+02 -0.10408365854E+03  0.11418709121E+03  0.00000000000E+00 0.  1.
          4    1    6    6  502    0  0.41295824202E+02 -0.70823698478E+01  0.90980139001E+02  0.10016431876E+03  0.00000000000E+00 0. -1.
          3    1    5    5  503    0 -0.46469592883E+02 -0.27278021837E+02 -0.58037837058E+01  0.54195917220E+02  0.00000000000E+00 0. -1.
         -4    1    5    5    0  503 -0.23941366778E+03  0.41153790443E+02 -0.20542940831E+02  0.24379202449E+03  0.00000000000E+00 0.  1.
         -3    1    6    6    0  502  0.19611792850E+03  0.15777508222E+02  0.10077074846E+04  0.10267353827E+04  0.00000000000E+00 0.  1.
<mgrwt>
<rscale>  0 0.12770146E+04</rscale>
<asrwt>0</asrwt>
<pdfrwt beam="1">  1        2 0.19511287E+00 0.12770146E+04</pdfrwt>
<pdfrwt beam="2">  1       -2 0.49456012E-01 0.12770146E+04</pdfrwt>
<totfact> 0.65533050E+01</totfact>
</mgrwt>
</event>
<event>
12    1  0.1506149E-007  0.1720153E+04  0.7818608E-02  0.8749953E-01
          2   -1    0    0  501    0  0.00000000000E+00  0.00000000000E+00  0.27196870433E+04  0.27196870433E+04  0.00000000000E+00 0. -1.
         -2   -1    0    0    0  501 -0.00000000000E+00 -0.00000000000E+00 -0.27199136014E+03  0.27199136014E+03  0.00000000000E+00 0.  1.
         23    2    1    2    0    0  0.43039102546E+03 -0.20518273514E+03  0.15642153377E+04  0.16377128037E+04  0.89427149629E+02 0.  0.
        254    2    1    2    0    0 -0.43039102546E+03  0.20518273514E+03  0.88348034551E+03  0.13539655998E+04  0.90848716829E+03 0.  0.
        -24    2    4    4    0    0 -0.93348411550E+02 -0.32275414252E+03  0.12185695053E+03  0.36521734839E+03  0.75169360268E+02 0.  0.
         24    2    4    4    0    0 -0.33704261390E+03  0.52793687766E+03  0.76162339498E+03  0.98874825141E+03  0.72372912775E+02 0.  0.
         13    1    3    3    0    0  0.39625469550E+03 -0.17829498219E+03  0.14861340090E+04  0.15483543449E+04  0.00000000000E+00 0. -1.
        -13    1    3    3    0    0  0.34136329959E+02 -0.26887752953E+02  0.78081328639E+02  0.89358458827E+02  0.00000000000E+00 0.  1.
          2    1    6    6  502    0 -0.15356464873E+03  0.23099214195E+03  0.39360082689E+03  0.48151955507E+03  0.00000000000E+00 0. -1.
          3    1    5    5  503    0 -0.10139933556E+03 -0.31742472770E+03  0.12359018424E+03  0.35540795805E+03  0.00000000000E+00 0. -1.
         -4    1    5    5    0  503  0.80509240079E+01 -0.53294148178E+01 -0.17332337158E+01  0.98093903376E+01  0.00000000000E+00 0.  1.
         -1    1    6    6    0  502 -0.18347796517E+03  0.29694473571E+03  0.36802256808E+03  0.50722869634E+03  0.00000000000E+00 0.  1.
<mgrwt>
<rscale>  0 0.17201528E+04</rscale>
<asrwt>0</asrwt>
<pdfrwt beam="1">  1        2 0.41841337E+00 0.17201528E+04</pdfrwt>
<pdfrwt beam="2">  1       -2 0.41844826E-01 0.17201528E+04</pdfrwt>
<totfact> 0.13324842E+01</totfact>
</mgrwt>
</event>
<event>
12    1  0.1506149E-007  0.2943712E+04  0.7818608E-02  0.8259989E-01
          2   -1    0    0  501    0  0.00000000000E+00  0.00000000000E+00  0.76522731296E+03  0.76522731296E+03  0.00000000000E+00 0. -1.
         -2   -1    0    0    0  501 -0.00000000000E+00 -0.00000000000E+00 -0.28310028906E+04  0.28310028906E+04  0.00000000000E+00 0.  1.
         23    2    1    2    0    0 -0.36548212082E+03 -0.59394646379E+03 -0.23235688702E+04  0.24277008720E+04  0.91704126419E+02 0.  0.
        254    2    1    2    0    0  0.36548212082E+03  0.59394646379E+03  0.25779329257E+03  0.11685293316E+04  0.90147314687E+03 0.  0.
        -24    2    4    4    0    0 -0.24479231102E+03  0.38405792019E+03  0.23322791694E+03  0.51779612990E+03  0.79333532015E+02 0.  0.
         24    2    4    4    0    0  0.61027443185E+03  0.20988854360E+03  0.24565375634E+02  0.65073320166E+03  0.79763144148E+02 0.  0.
         11    1    3    3    0    0 -0.25515493616E+03 -0.47851323734E+03 -0.18572255838E+04  0.19347779793E+04  0.00000000000E+00 0.  1.
        -11    1    3    3    0    0 -0.11032718466E+03 -0.11543322644E+03 -0.46634328640E+03  0.49292289276E+03  0.00000000000E+00 0. -1.
          4    1    6    6  502    0  0.17198999363E+03  0.82198510615E+02 -0.21859690936E+02  0.19187235117E+03  0.00000000000E+00 0. -1.
          3    1    5    5  503    0 -0.82764349171E+01  0.30339308960E+02  0.38878880616E+02  0.50005403719E+02  0.00000000000E+00 0. -1.
         -4    1    5    5    0  503 -0.23651587611E+03  0.35371861123E+03  0.19434903632E+03  0.46779072618E+03  0.00000000000E+00 0.  1.
         -3    1    6    6    0  502  0.43828443822E+03  0.12769003298E+03  0.46425066571E+02  0.45886085049E+03  0.00000000000E+00 0.  1.
<mgrwt>
<rscale>  0 0.29437124E+04</rscale>
<asrwt>0</asrwt>
<pdfrwt beam="1">  1        2 0.11772728E+00 0.29437124E+04</pdfrwt>
<pdfrwt beam="2">  1       -2 0.43553891E+00 0.29437124E+04</pdfrwt>
<totfact> 0.13577033E-01</totfact>
</mgrwt>
</event>
<event>
12    1  0.1506149E-007  0.1291846E+04  0.7818608E-02  0.9036056E-01
         -2   -1    0    0    0  501 -0.00000000000E+00  0.00000000000E+00  0.61680177791E+03  0.61680177791E+03  0.00000000000E+00 0.  1.
          2   -1    0    0  501    0  0.00000000000E+00 -0.00000000000E+00 -0.67641946719E+03  0.67641946719E+03  0.00000000000E+00 0. -1.
         23    2    1    2    0    0 -0.26767187384E+03  0.17632364279E+03 -0.78102900281E+02  0.34180345897E+03  0.89393973399E+02 0.  0.
        254    2    1    2    0    0  0.26767187384E+03 -0.17632364279E+03  0.18485211004E+02  0.95141778613E+03  0.89560920143E+03 0.  0.
        -24    2    4    4    0    0  0.33569216304E+03 -0.11925590523E+03 -0.38520263787E+03  0.53042652833E+03  0.77846197538E+02 0.  0.
         24    2    4    4    0    0 -0.68020289206E+02 -0.57067737556E+02  0.40368784888E+03  0.42099125780E+03  0.79914162683E+02 0.  0.
         11    1    3    3    0    0  0.54568937431E+01  0.21895145884E+01  0.46348771791E+01  0.74869052299E+01  0.00000000000E+00 0.  1.
        -11    1    3    3    0    0 -0.27312876758E+03  0.17413412820E+03 -0.82737777460E+02  0.33431655374E+03  0.00000000000E+00 0. -1.
          4    1    6    6  502    0 -0.72321516360E+02 -0.10999960315E+02  0.24231579432E+03  0.25311725550E+03  0.00000000000E+00 0. -1.
          1    1    5    5  503    0  0.19587676367E+03 -0.52283400951E+02 -0.16645247074E+03  0.26231219106E+03  0.00000000000E+00 0. -1.
         -2    1    5    5    0  503  0.13981539937E+03 -0.66972504281E+02 -0.21875016713E+03  0.26811433727E+03  0.00000000000E+00 0.  1.
         -3    1    6    6    0  502  0.43012271540E+01 -0.46067777241E+02  0.16137205456E+03  0.16787400230E+03  0.00000000000E+00 0.  1.
<mgrwt>
<rscale>  0 0.12918463E+04</rscale>
<asrwt>0</asrwt>
<pdfrwt beam="1">  1        2 0.10406453E+00 0.12918463E+04</pdfrwt>
<pdfrwt beam="2">  1       -2 0.94892581E-01 0.12918463E+04</pdfrwt>
<totfact> 0.39222096E+01</totfact>
</mgrwt>
</event>
<event>
12    1  0.1506149E-007  0.1985396E+04  0.7818608E-02  0.8613479E-01
          1   -1    0    0  501    0  0.00000000000E+00  0.00000000000E+00  0.54044126989E+03  0.54044126989E+03  0.00000000000E+00 0. -1.
         -1   -1    0    0    0  501 -0.00000000000E+00 -0.00000000000E+00 -0.18234152956E+04  0.18234152956E+04  0.00000000000E+00 0.  1.
         23    2    1    2    0    0 -0.24509373752E+03 -0.47175932584E+03 -0.11878890198E+04  0.13046926824E+04  0.92276056550E+02 0.  0.
        254    2    1    2    0    0  0.24509373752E+03  0.47175932584E+03 -0.95085005944E+02  0.10591638831E+04  0.91113071025E+03 0.  0.
        -24    2    4    4    0    0  0.53853317213E+03  0.29002835764E+03 -0.25816046917E+03  0.66855157547E+03  0.78612693053E+02 0.  0.
         24    2    4    4    0    0 -0.29343943461E+03  0.18173096820E+03  0.16307546323E+03  0.39061230760E+03  0.82773918287E+02 0.  0.
         13    1    3    3    0    0 -0.12244845969E+03 -0.28194833747E+03 -0.58504330125E+03  0.66088134685E+03  0.00000000000E+00 0.  1.
        -13    1    3    3    0    0 -0.12264527783E+03 -0.18981098837E+03 -0.60284571852E+03  0.64381133558E+03  0.00000000000E+00 0. -1.
          4    1    6    6  502    0 -0.26907399407E+03  0.14693302443E+03  0.11753889682E+03  0.32833750961E+03  0.00000000000E+00 0. -1.
          3    1    5    5  503    0  0.40829551556E+03  0.18138199456E+03 -0.17744653576E+03  0.48072021908E+03  0.00000000000E+00 0. -1.
         -4    1    5    5    0  503  0.13023765656E+03  0.10864636308E+03 -0.80713933412E+02  0.18783135639E+03  0.00000000000E+00 0.  1.
         -3    1    6    6    0  502 -0.24365440544E+02  0.34797943777E+02  0.45536566410E+02  0.62274797987E+02  0.00000000000E+00 0.  1.
<mgrwt>
<rscale>  0 0.19853956E+04</rscale>
<asrwt>0</asrwt>
<pdfrwt beam="1">  1        1 0.83144811E-01 0.19853956E+04</pdfrwt>
<pdfrwt beam="2">  1       -1 0.28052543E+00 0.19853956E+04</pdfrwt>
<totfact> 0.16315595E+00</totfact>
</mgrwt>
</event>
<event>
12    1  0.1506149E-007  0.2713869E+04  0.7818608E-02  0.8330519E-01
         -1   -1    0    0    0  501 -0.00000000000E+00  0.00000000000E+00  0.13012773962E+04  0.13012773962E+04  0.00000000000E+00 0.  1.
          1   -1    0    0  501    0  0.00000000000E+00 -0.00000000000E+00 -0.14149716965E+04  0.14149716965E+04  0.00000000000E+00 0. -1.
         23    2    1    2    0    0  0.27064196363E+03  0.24030474338E+03 -0.12009991230E+04  0.12574980084E+04  0.88932027091E+02 0.  0.
        254    2    1    2    0    0 -0.27064196363E+03 -0.24030474338E+03  0.10873048227E+04  0.14587510844E+04  0.90262367933E+03 0.  0.
        -24    2    4    4    0    0 -0.22731273867E+02 -0.52935178303E+03  0.39910886718E+03  0.66797877764E+03  0.78598590947E+02 0.  0.
         24    2    4    4    0    0 -0.24791068976E+03  0.28904703965E+03  0.68819595552E+03  0.79077230672E+03  0.81849047971E+02 0.  0.
         13    1    3    3    0    0 -0.36000189363E+01  0.21671514328E+02 -0.71464781561E+02  0.74765163500E+02  0.00000000000E+00 0.  1.
        -13    1    3    3    0    0  0.27424198256E+03  0.21863322905E+03 -0.11295343415E+04  0.11827328449E+04  0.00000000000E+00 0. -1.
          2    1    6    6  502    0 -0.19767556596E+03  0.26148322233E+03  0.53771656424E+03  0.62975249773E+03  0.00000000000E+00 0. -1.
          3    1    5    5  503    0 -0.13356666042E+02 -0.48939451395E+03  0.39002518699E+03  0.62594331796E+03  0.00000000000E+00 0. -1.
         -4    1    5    5    0  503 -0.93746078249E+01 -0.39957269081E+02  0.90836801903E+01  0.42035459675E+02  0.00000000000E+00 0.  1.
         -1    1    6    6    0  502 -0.50235123804E+02  0.27563817329E+02  0.15047939127E+03  0.16101980899E+03  0.00000000000E+00 0.  1.
<mgrwt>
<rscale>  0 0.27138686E+04</rscale>
<asrwt>0</asrwt>
<pdfrwt beam="1">  1        1 0.21768795E+00 0.27138686E+04</pdfrwt>
<pdfrwt beam="2">  1       -1 0.20019652E+00 0.27138686E+04</pdfrwt>
<totfact> 0.98128420E-01</totfact>
</mgrwt>
</event>
<event>
12    1  0.1506149E-007  0.1414279E+04  0.7818608E-02  0.8943547E-01
         -2   -1    0    0    0  501 -0.00000000000E+00  0.00000000000E+00  0.54837982448E+03  0.54837982448E+03  0.00000000000E+00 0.  1.
          2   -1    0    0  501    0  0.00000000000E+00 -0.00000000000E+00 -0.91186066894E+03  0.91186066894E+03  0.00000000000E+00 0. -1.
         23    2    1    2    0    0  0.24702536735E+02 -0.41464292769E+03 -0.15003201364E+02  0.42581219325E+03  0.92476781240E+02 0.  0.
        254    2    1    2    0    0 -0.24702536735E+02  0.41464292769E+03 -0.34847764310E+03  0.10344283002E+04  0.88094623426E+03 0.  0.
        -24    2    4    4    0    0  0.28870173159E+03  0.41482533510E+03  0.58318998116E+02  0.51488166468E+03  0.79204006319E+02 0.  0.
         24    2    4    4    0    0 -0.31340426833E+03 -0.18240740772E+00 -0.40679664121E+03  0.51954663550E+03  0.78885553039E+02 0.  0.
         11    1    3    3    0    0 -0.94477450854E+01 -0.35238782554E+03 -0.28004693047E+02  0.35362508722E+03  0.00000000000E+00 0.  1.
        -11    1    3    3    0    0  0.34150281820E+02 -0.62255102145E+02  0.13001491682E+02  0.72187106033E+02  0.00000000000E+00 0. -1.
          4    1    6    6  502    0 -0.98971787654E+02 -0.36647585987E+02 -0.12604407244E+03  0.16439455133E+03  0.00000000000E+00 0. -1.
          1    1    5    5  503    0 -0.29465376085E+01  0.92547204781E+01 -0.56820743726E+01  0.11252462139E+02  0.00000000000E+00 0. -1.
         -2    1    5    5    0  503  0.29164826920E+03  0.40557061462E+03  0.64001072489E+02  0.50362920254E+03  0.00000000000E+00 0.  1.
         -3    1    6    6    0  502 -0.21443248067E+03  0.36465178579E+02 -0.28075256877E+03  0.35515208416E+03  0.00000000000E+00 0.  1.
<mgrwt>
<rscale>  0 0.14142786E+04</rscale>
<asrwt>0</asrwt>
<pdfrwt beam="1">  1        2 0.14028626E+00 0.14142786E+04</pdfrwt>
<pdfrwt beam="2">  1       -2 0.84366128E-01 0.14142786E+04</pdfrwt>
<totfact> 0.34313905E+01</totfact>
</mgrwt>
</event>
<event>
12    1  0.1506149E-007  0.4367161E+04  0.7818608E-02  0.7934315E-01
          1   -1    0    0  501    0  0.00000000000E+00  0.00000000000E+00  0.28638737008E+04  0.28638737008E+04  0.00000000000E+00 0. -1.
         -1   -1    0    0    0  501 -0.00000000000E+00 -0.00000000000E+00 -0.16648861143E+04  0.16648861143E+04  0.00000000000E+00 0.  1.
         23    2    1    2    0    0  0.12119100933E+04  0.17068902655E+04  0.70631707121E+03  0.22111655214E+04  0.90380889589E+02 0.  0.
        254    2    1    2    0    0 -0.12119100933E+04 -0.17068902655E+04  0.49267051528E+03  0.23175942937E+04  0.86389734389E+03 0.  0.
        -24    2    4    4    0    0 -0.48538695530E+03 -0.51887916451E+03  0.57901090979E+03  0.92002520293E+03  0.79728643722E+02 0.  0.
         24    2    4    4    0    0 -0.72652313800E+03 -0.11880111009E+04 -0.86340394504E+02  0.13975690907E+04  0.80860704922E+02 0.  0.
         13    1    3    3    0    0  0.97484737840E+03  0.13247968190E+04  0.52870617305E+03  0.17276991174E+04  0.00000000000E+00 0. -1.
        -13    1    3    3    0    0  0.23706271489E+03  0.38209344642E+03  0.17761089816E+03  0.48346640393E+03  0.00000000000E+00 0.  1.
          4    1    6    6  502    0 -0.24128921418E+01 -0.48007823934E+01 -0.59868204577E+01  0.80443507674E+01  0.00000000000E+00 0. -1.
          1    1    5    5  503    0 -0.27052073956E+03 -0.29043419172E+03  0.27208450767E+03  0.48121042130E+03  0.00000000000E+00 0. -1.
         -2    1    5    5    0  503 -0.21486621574E+03 -0.22844497279E+03  0.30692640212E+03  0.43881478163E+03  0.00000000000E+00 0.  1.
         -3    1    6    6    0  502 -0.72411024586E+03 -0.11832103186E+04 -0.80353574046E+02  0.13895247400E+04  0.00000000000E+00 0.  1.
<mgrwt>
<rscale>  0 0.43671609E+04</rscale>
<asrwt>0</asrwt>
<pdfrwt beam="1">  1        1 0.44059595E+00 0.43671609E+04</pdfrwt>
<pdfrwt beam="2">  1       -1 0.25613633E+00 0.43671609E+04</pdfrwt>
<totfact> 0.36218655E-02</totfact>
</mgrwt>
</event>
<event>
12    1  0.1506149E-007  0.1749614E+04  0.7818608E-02  0.8733563E-01
         -1   -1    0    0    0  501 -0.00000000000E+00  0.00000000000E+00  0.53938759519E+03  0.53938759519E+03  0.00000000000E+00 0.  1.
          1   -1    0    0  501    0  0.00000000000E+00 -0.00000000000E+00 -0.14188081534E+04  0.14188081534E+04  0.00000000000E+00 0. -1.
         23    2    1    2    0    0 -0.46320155120E+03  0.18504892017E+02  0.16537309149E+03  0.50075800694E+03  0.92261660878E+02 0.  0.
        254    2    1    2    0    0  0.46320155120E+03 -0.18504892017E+02 -0.10447936497E+04  0.14574377416E+04  0.90423055260E+03 0.  0.
        -24    2    4    4    0    0 -0.18368583563E+03 -0.21182065852E+03 -0.13413040210E+03  0.32087652982E+03  0.79764058559E+02 0.  0.
         24    2    4    4    0    0  0.64688738683E+03  0.19331576650E+03 -0.91066324759E+03  0.11365612118E+04  0.81422115421E+02 0.  0.
         13    1    3    3    0    0 -0.87085306221E+02 -0.32786836666E+02  0.34018954312E+02  0.99076316396E+02  0.00000000000E+00 0. -1.
        -13    1    3    3    0    0 -0.37611624498E+03  0.51291728683E+02  0.13135413718E+03  0.40168169055E+03  0.00000000000E+00 0.  1.
          4    1    6    6  502    0  0.12442154114E+03  0.46684325616E+01 -0.17251337386E+03  0.21275191732E+03  0.00000000000E+00 0. -1.
          1    1    5    5  503    0 -0.56652935312E+02 -0.29024063839E+02 -0.56538453490E+02  0.85138405460E+02  0.00000000000E+00 0. -1.
         -2    1    5    5    0  503 -0.12703290032E+03 -0.18279659468E+03 -0.77591948612E+02  0.23573812436E+03  0.00000000000E+00 0.  1.
         -3    1    6    6    0  502  0.52246584569E+03  0.18864733394E+03 -0.73814987373E+03  0.92380929450E+03  0.00000000000E+00 0.  1.
<mgrwt>
<rscale>  0 0.17496143E+04</rscale>
<asrwt>0</asrwt>
<pdfrwt beam="1">  1        1 0.21827818E+00 0.17496143E+04</pdfrwt>
<pdfrwt beam="2">  1       -1 0.82982707E-01 0.17496143E+04</pdfrwt>
<totfact> 0.10185068E+01</totfact>
</mgrwt>
</event>
<event>
12    1  0.1506149E-007  0.1284113E+04  0.7818608E-02  0.9042259E-01
         -1   -1    0    0    0  501 -0.00000000000E+00  0.00000000000E+00  0.29077866856E+03  0.29077866856E+03  0.00000000000E+00 0.  1.
          1   -1    0    0  501    0  0.00000000000E+00 -0.00000000000E+00 -0.14176992559E+04  0.14176992559E+04  0.00000000000E+00 0. -1.
         23    2    1    2    0    0  0.12143815307E+03  0.13387824967E+03  0.55016071119E+02  0.20907878314E+03  0.89535237327E+02 0.  0.
        254    2    1    2    0    0 -0.12143815307E+03 -0.13387824967E+03 -0.11819366585E+04  0.14993991414E+04  0.90473913900E+03 0.  0.
        -24    2    4    4    0    0 -0.19892689236E+03 -0.42783468960E+03 -0.30128070325E+03  0.56467572753E+03  0.73987735353E+02 0.  0.
         24    2    4    4    0    0  0.77488739292E+02  0.29395643993E+03 -0.88065595526E+03  0.93472341383E+03  0.75749954021E+02 0.  0.
         11    1    3    3    0    0 -0.71528047914E+01  0.57555203494E+00 -0.10412081520E+02  0.12645367456E+02  0.00000000000E+00 0. -1.
        -11    1    3    3    0    0  0.12859095786E+03  0.13330269763E+03  0.65428152639E+02  0.19643341568E+03  0.00000000000E+00 0.  1.
          2    1    6    6  502    0 -0.56256308440E+01  0.12317038168E+03 -0.33786899931E+03  0.35966380322E+03  0.00000000000E+00 0. -1.
          1    1    5    5  503    0 -0.95772800169E+02 -0.27206501179E+03 -0.20973514374E+03  0.35662393415E+03  0.00000000000E+00 0. -1.
         -2    1    5    5    0  503 -0.10315409219E+03 -0.15576967781E+03 -0.91545559505E+02  0.20805179338E+03  0.00000000000E+00 0.  1.
         -1    1    6    6    0  502  0.83114370136E+02  0.17078605825E+03 -0.54278695594E+03  0.57505961061E+03  0.00000000000E+00 0.  1.
<mgrwt>
<rscale>  0 0.12841132E+04</rscale>
<asrwt>0</asrwt>
<pdfrwt beam="1">  1        1 0.21810758E+00 0.12841132E+04</pdfrwt>
<pdfrwt beam="2">  1       -1 0.44735179E-01 0.12841132E+04</pdfrwt>
<totfact> 0.36358853E+01</totfact>
</mgrwt>
</event>
<event>
12    1  0.1506149E-007  0.1968888E+04  0.7818608E-02  0.8621306E-01
         -1   -1    0    0    0  501 -0.00000000000E+00  0.00000000000E+00  0.48467824124E+03  0.48467824124E+03  0.00000000000E+00 0.  1.
          1   -1    0    0  501    0  0.00000000000E+00 -0.00000000000E+00 -0.19995318253E+04  0.19995318253E+04  0.00000000000E+00 0. -1.
         23    2    1    2    0    0  0.59903273031E+03  0.24670636599E+03 -0.10944349265E+04  0.12750920320E+04  0.91474797146E+02 0.  0.
        254    2    1    2    0    0 -0.59903273031E+03 -0.24670636599E+03 -0.42041865756E+03  0.12091180346E+04  0.93032807708E+03 0.  0.
        -24    2    4    4    0    0 -0.39237993263E+03  0.40174712154E+02  0.23047203637E+03  0.46392362304E+03  0.80819239290E+02 0.  0.
         24    2    4    4    0    0 -0.20665279768E+03 -0.28688107814E+03 -0.65089069392E+03  0.74519441158E+03  0.81546819835E+02 0.  0.
         13    1    3    3    0    0  0.34127714095E+03  0.17282690690E+03 -0.70808866046E+03  0.80481599000E+03  0.00000000000E+00 0. -1.
        -13    1    3    3    0    0  0.25775558936E+03  0.73879459085E+02 -0.38634626608E+03  0.47027604195E+03  0.00000000000E+00 0.  1.
          2    1    6    6  502    0 -0.16172661404E+03 -0.22026082579E+03 -0.42332943913E+03  0.50386321864E+03  0.00000000000E+00 0. -1.
          3    1    5    5  503    0 -0.11254086794E+03  0.30930121320E+02  0.32963385704E+02  0.12127944657E+03  0.00000000000E+00 0. -1.
         -4    1    5    5    0  503 -0.27983906469E+03  0.92445908341E+01  0.19750865066E+03  0.34264417648E+03  0.00000000000E+00 0.  1.
         -1    1    6    6    0  502 -0.44926183638E+02 -0.66620252351E+02 -0.22756125480E+03  0.24133119294E+03  0.00000000000E+00 0.  1.
<mgrwt>
<rscale>  0 0.19688876E+04</rscale>
<asrwt>0</asrwt>
<pdfrwt beam="1">  1        1 0.30762028E+00 0.19688876E+04</pdfrwt>
<pdfrwt beam="2">  1       -1 0.74565884E-01 0.19688876E+04</pdfrwt>
<totfact> 0.50197015E+00</totfact>
</mgrwt>
</event>
<event>
12    1  0.1506149E-007  0.1590680E+04  0.7818608E-02  0.8826294E-01
         -2   -1    0    0    0  501 -0.00000000000E+00  0.00000000000E+00  0.67386338204E+03  0.67386338204E+03  0.00000000000E+00 0. -1.
          2   -1    0    0  501    0  0.00000000000E+00 -0.00000000000E+00 -0.93871499326E+03  0.93871499326E+03  0.00000000000E+00 0.  1.
         23    2    1    2    0    0  0.57661485193E+02  0.25942715852E+03 -0.57002710427E+03  0.63547628217E+03  0.90950031008E+02 0.  0.
        254    2    1    2    0    0 -0.57661485193E+02 -0.25942715852E+03  0.30517549305E+03  0.97710209313E+03  0.88936444802E+03 0.  0.
        -24    2    4    4    0    0 -0.37884004541E+03  0.12301237649E+03  0.46583941251E+02  0.40905026420E+03  0.80624005595E+02 0.  0.
         24    2    4    4    0    0  0.32117856022E+03 -0.38243953500E+03  0.25859155180E+03  0.56805182894E+03  0.79985150007E+02 0.  0.
         13    1    3    3    0    0  0.25369944292E+02  0.68927157753E+02 -0.25994159473E+03  0.27011889941E+03  0.00000000000E+00 0.  1.
        -13    1    3    3    0    0  0.32291540901E+02  0.19050000076E+03 -0.31008550954E+03  0.36535738276E+03  0.00000000000E+00 0. -1.
          4    1    6    6  502    0  0.35635066343E+02 -0.19739423731E+02  0.41210313509E+01  0.40944910574E+02  0.00000000000E+00 0. -1.
          3    1    5    5  503    0 -0.18242171452E+03  0.90905091946E+02  0.50524436770E+02  0.20998603854E+03  0.00000000000E+00 0. -1.
         -4    1    5    5    0  503 -0.19641833089E+03  0.32107284540E+02 -0.39404955185E+01  0.19906422566E+03  0.00000000000E+00 0.  1.
         -3    1    6    6    0  502  0.28554349388E+03 -0.36270011127E+03  0.25447052045E+03  0.52710691836E+03  0.00000000000E+00 0.  1.
<mgrwt>
<rscale>  0 0.15906799E+04</rscale>
<asrwt>0</asrwt>
<pdfrwt beam="1">  1        2 0.14441769E+00 0.15906799E+04</pdfrwt>
<pdfrwt beam="2">  1       -2 0.10367129E+00 0.15906799E+04</pdfrwt>
<totfact> 0.20091493E+01</totfact>
</mgrwt>
</event>
<event>
12    1  0.1506149E-007  0.1754120E+04  0.7818608E-02  0.8731086E-01
          2   -1    0    0  501    0  0.00000000000E+00  0.00000000000E+00  0.13215146113E+04  0.13215146113E+04  0.00000000000E+00 0. -1.
         -2   -1    0    0    0  501 -0.00000000000E+00 -0.00000000000E+00 -0.58208512516E+03  0.58208512516E+03  0.00000000000E+00 0.  1.
         23    2    1    2    0    0  0.48628611086E+03 -0.33265198402E+03 -0.64034956714E+01  0.59630388167E+03  0.91683097926E+02 0.  0.
        254    2    1    2    0    0 -0.48628611086E+03  0.33265198402E+03  0.74583298180E+03  0.13072958548E+04  0.89756564723E+03 0.  0.
        -24    2    4    4    0    0  0.18607904552E+03 -0.36871943505E+02 -0.36635838839E+02  0.20852859455E+03  0.78466799741E+02 0.  0.
         24    2    4    4    0    0 -0.67236515638E+03  0.36952392753E+03  0.78246882064E+03  0.10987672602E+04  0.80057481444E+02 0.  0.
         11    1    3    3    0    0  0.61925422353E+01  0.55232651391E+01 -0.36273432245E+01  0.90560287103E+01  0.00000000000E+00 0. -1.
        -11    1    3    3    0    0  0.48009356863E+03 -0.33817524916E+03 -0.27761524469E+01  0.58724785296E+03  0.00000000000E+00 0.  1.
          2    1    6    6  502    0 -0.44506286960E+03  0.23244190750E+03  0.56277017586E+03  0.75420187556E+03  0.00000000000E+00 0. -1.
          3    1    5    5  503    0  0.15577932434E+02  0.16223057982E+02 -0.18332379565E+02  0.29016128786E+02  0.00000000000E+00 0. -1.
         -4    1    5    5    0  503  0.17050111308E+03 -0.53095001486E+02 -0.18303459274E+02  0.17951246577E+03  0.00000000000E+00 0.  1.
         -1    1    6    6    0  502 -0.22730228678E+03  0.13708202003E+03  0.21969864477E+03  0.34456538466E+03  0.00000000000E+00 0.  1.
<mgrwt>
<rscale>  0 0.17541197E+04</rscale>
<asrwt>0</asrwt>
<pdfrwt beam="1">  1        2 0.20330994E+00 0.17541197E+04</pdfrwt>
<pdfrwt beam="2">  1       -2 0.89551558E-01 0.17541197E+04</pdfrwt>
<totfact> 0.16270974E+01</totfact>
</mgrwt>
</event>
<event>
12    1  0.1506149E-007  0.3283904E+04  0.7818608E-02  0.8167003E-01
         -2   -1    0    0    0  501 -0.00000000000E+00  0.00000000000E+00  0.74666610820E+03  0.74666610820E+03  0.00000000000E+00 0.  1.
          2   -1    0    0  501    0  0.00000000000E+00 -0.00000000000E+00 -0.36107248530E+04  0.36107248530E+04  0.00000000000E+00 0. -1.
         23    2    1    2    0    0  0.77233637531E+03 -0.12732628527E+04 -0.94961978900E+03  0.17685588129E+04  0.91218212593E+02 0.  0.
        254    2    1    2    0    0 -0.77233637531E+03  0.12732628527E+04 -0.19144389558E+04  0.25888321483E+04  0.90513734207E+03 0.  0.
        -24    2    4    4    0    0 -0.39828672844E+03  0.51886498735E+02 -0.22028374694E+03  0.46559976819E+03  0.83268770682E+02 0.  0.
         24    2    4    4    0    0 -0.37404964688E+03  0.12213763540E+04 -0.16941552089E+04  0.21232323801E+04  0.79249807459E+02 0.  0.
         13    1    3    3    0    0  0.71240283517E+02 -0.92996942303E+02 -0.50766785768E+02  0.12767488324E+03  0.00000000000E+00 0. -1.
        -13    1    3    3    0    0  0.70109609180E+03 -0.11802659104E+04 -0.89885300323E+03  0.16408839296E+04  0.00000000000E+00 0.  1.
          4    1    6    6  502    0 -0.17818871858E+03  0.63212826448E+03 -0.93174509681E+03  0.11399501251E+04  0.00000000000E+00 0. -1.
          1    1    5    5  503    0 -0.32466627328E+03  0.61467243284E+02 -0.14828627995E+03  0.36218121407E+03  0.00000000000E+00 0. -1.
         -2    1    5    5    0  503 -0.73620455158E+02 -0.95807445496E+01 -0.71997466984E+02  0.10341855412E+03  0.00000000000E+00 0.  1.
         -3    1    6    6    0  502 -0.19586092830E+03  0.58924808948E+03 -0.76241011207E+03  0.98328225509E+03  0.00000000000E+00 0.  1.
<mgrwt>
<rscale>  0 0.32839037E+04</rscale>
<asrwt>0</asrwt>
<pdfrwt beam="1">  1        2 0.55549613E+00 0.32839037E+04</pdfrwt>
<pdfrwt beam="2">  1       -2 0.11487171E+00 0.32839037E+04</pdfrwt>
<totfact> 0.33484421E-01</totfact>
</mgrwt>
</event>
<event>
12    1  0.1506149E-007  0.1270243E+04  0.7818608E-02  0.9053502E-01
         -1   -1    0    0    0  501 -0.00000000000E+00  0.00000000000E+00  0.86949132700E+03  0.86949132700E+03  0.00000000000E+00 0.  1.
          1   -1    0    0  501    0  0.00000000000E+00 -0.00000000000E+00 -0.46392539901E+03  0.46392539901E+03  0.00000000000E+00 0. -1.
         23    2    1    2    0    0  0.15436062698E+03 -0.19123663355E+02 -0.17790333716E+03  0.25270085523E+03  0.89527689587E+02 0.  0.
        254    2    1    2    0    0 -0.15436062698E+03  0.19123663355E+02  0.58346926515E+03  0.10807158708E+04  0.89627980694E+03 0.  0.
        -24    2    4    4    0    0  0.18379875794E+03  0.62350057809E+02 -0.15681481242E+03  0.26164261360E+03  0.78717588407E+02 0.  0.
         24    2    4    4    0    0 -0.33815938492E+03 -0.43226394455E+02  0.74028407757E+03  0.81907325719E+03  0.81487387663E+02 0.  0.
         13    1    3    3    0    0  0.10830482764E+03  0.12202961919E+02 -0.16113108364E+03  0.19453039373E+03  0.00000000000E+00 0. -1.
        -13    1    3    3    0    0  0.46055799337E+02 -0.31326625274E+02 -0.16772253520E+02  0.58170461506E+02  0.00000000000E+00 0.  1.
          2    1    6    6  502    0 -0.79423818202E+02  0.20985601505E+02  0.14130976390E+03  0.16345331976E+03  0.00000000000E+00 0. -1.
          1    1    5    5  503    0  0.24955655230E+02  0.70211631332E+01  0.69966018634E+01  0.26852074358E+02  0.00000000000E+00 0. -1.
         -2    1    5    5    0  503  0.15884310271E+03  0.55328894676E+02 -0.16381141429E+03  0.23479053924E+03  0.00000000000E+00 0.  1.
         -1    1    6    6    0  502 -0.25873556672E+03 -0.64211995960E+02  0.59897431368E+03  0.65561993743E+03  0.00000000000E+00 0.  1.
<mgrwt>
<rscale>  0 0.12702427E+04</rscale>
<asrwt>0</asrwt>
<pdfrwt beam="1">  1        1 0.71373138E-01 0.12702427E+04</pdfrwt>
<pdfrwt beam="2">  1       -1 0.13376790E+00 0.12702427E+04</pdfrwt>
<totfact> 0.22817446E+01</totfact>
</mgrwt>
</event>
<event>
12    1  0.1506149E-007  0.1266298E+04  0.7818608E-02  0.9056727E-01
         -1   -1    0    0    0  501 -0.00000000000E+00  0.00000000000E+00  0.15681271247E+03  0.15681271247E+03  0.00000000000E+00 0.  1.
          1   -1    0    0  501    0  0.00000000000E+00 -0.00000000000E+00 -0.25564084915E+04  0.25564084915E+04  0.00000000000E+00 0. -1.
         23    2    1    2    0    0 -0.16532701770E+03  0.22063828393E+03 -0.28786987731E+03  0.41043510745E+03  0.97844959219E+02 0.  0.
        254    2    1    2    0    0  0.16532701770E+03 -0.22063828393E+03 -0.21117259017E+04  0.23027860965E+04  0.87602696716E+03 0.  0.
        -24    2    4    4    0    0 -0.25199714173E+03  0.17210710078E+03 -0.50807945321E+03  0.59796629491E+03  0.79344473655E+02 0.  0.
         24    2    4    4    0    0  0.41732415944E+03 -0.39274538472E+03 -0.16036464485E+04  0.17048198016E+04  0.79499892118E+02 0.  0.
         11    1    3    3    0    0 -0.38704691806E+02  0.53800685569E+02 -0.17722005618E+02  0.68604929988E+02  0.00000000000E+00 0.  1.
        -11    1    3    3    0    0 -0.12662232590E+03  0.16683759837E+03 -0.27014787169E+03  0.34183017746E+03  0.00000000000E+00 0. -1.
          2    1    6    6  502    0  0.23360947349E+02 -0.14679739451E+02 -0.13883085488E+03  0.14154587552E+03  0.00000000000E+00 0. -1.
          1    1    5    5  503    0 -0.36193866234E+02  0.91908333486E+01 -0.11464953605E+03  0.12057770726E+03  0.00000000000E+00 0. -1.
         -2    1    5    5    0  503 -0.21580327550E+03  0.16291626743E+03 -0.39342991715E+03  0.47738858765E+03  0.00000000000E+00 0.  1.
         -1    1    6    6    0  502  0.39396321209E+03 -0.37806564526E+03 -0.14648155936E+04  0.15632739261E+04  0.00000000000E+00 0.  1.
<mgrwt>
<rscale>  0 0.12662975E+04</rscale>
<asrwt>0</asrwt>
<pdfrwt beam="1">  1        1 0.39329361E+00 0.12662975E+04</pdfrwt>
<pdfrwt beam="2">  1       -1 0.24125033E-01 0.12662975E+04</pdfrwt>
<totfact> 0.18254604E+01</totfact>
</mgrwt>
</event>
<event>
12    1  0.1506149E-007  0.2447335E+04  0.7818608E-02  0.8421992E-01
         -2   -1    0    0    0  501 -0.00000000000E+00  0.00000000000E+00  0.37628996719E+03  0.37628996719E+03  0.00000000000E+00 0.  1.
          2   -1    0    0  501    0  0.00000000000E+00 -0.00000000000E+00 -0.39792759071E+04  0.39792759071E+04  0.00000000000E+00 0. -1.
         23    2    1    2    0    0 -0.67864338793E+03 -0.47572891088E+03 -0.39569859865E+03  0.92280006182E+03  0.90042925862E+02 0.  0.
        254    2    1    2    0    0  0.67864338793E+03  0.47572891088E+03 -0.32072873413E+04  0.34327658125E+04  0.90017453262E+03 0.  0.
        -24    2    4    4    0    0  0.42448840423E+03 -0.51756358919E+02 -0.23605064610E+04  0.24002090528E+04  0.78381240278E+02 0.  0.
         24    2    4    4    0    0  0.25415498369E+03  0.52748526980E+03 -0.84678088031E+03  0.10325567597E+04  0.79373403108E+02 0.  0.
         11    1    3    3    0    0 -0.64864042988E+02 -0.75232093746E+02 -0.65341502001E+02  0.11889795577E+03  0.00000000000E+00 0. -1.
        -11    1    3    3    0    0 -0.61377934494E+03 -0.40049681713E+03 -0.33035709665E+03  0.80390210605E+03  0.00000000000E+00 0.  1.
          2    1    6    6  502    0  0.65371786185E+02  0.21489879526E+03 -0.35323800629E+03  0.41860727624E+03  0.00000000000E+00 0. -1.
          3    1    5    5  503    0  0.85693489977E+02 -0.20603354411E+01 -0.66232673800E+03  0.66785052749E+03  0.00000000000E+00 0. -1.
         -4    1    5    5    0  503  0.33879491426E+03 -0.49696023477E+02 -0.16981797230E+04  0.17323585253E+04  0.00000000000E+00 0.  1.
         -1    1    6    6    0  502  0.18878319751E+03  0.31258647454E+03 -0.49354287401E+03  0.61394948344E+03  0.00000000000E+00 0.  1.
<mgrwt>
<rscale>  0 0.24473346E+04</rscale>
<asrwt>0</asrwt>
<pdfrwt beam="1">  1        2 0.61219629E+00 0.24473346E+04</pdfrwt>
<pdfrwt beam="2">  1       -2 0.57890764E-01 0.24473346E+04</pdfrwt>
<totfact> 0.89306470E-01</totfact>
</mgrwt>
</event>
<event>
12    1  0.1853914E-007  0.1567887E+04  0.7818608E-02  0.8840523E-01
         -1   -1    0    0    0  501 -0.00000000000E+00  0.00000000000E+00  0.11628624532E+04  0.11628624532E+04  0.00000000000E+00 0.  1.
          1   -1    0    0  501    0  0.00000000000E+00 -0.00000000000E+00 -0.52849535252E+03  0.52849535252E+03  0.00000000000E+00 0. -1.
         23    2    1    2    0    0 -0.37042631799E+03 -0.19874177659E+03 -0.11370586009E+03  0.44487754560E+03  0.90956347436E+02 0.  0.
        254    2    1    2    0    0  0.37042631799E+03  0.19874177659E+03  0.74807296082E+03  0.12464802602E+04  0.90409398485E+03 0.  0.
        -24    2    4    4    0    0  0.43554282884E+02 -0.11215792391E+03  0.77438829010E+03  0.78787840199E+03  0.81232856794E+02 0.  0.
         24    2    4    4    0    0  0.32687203510E+03  0.31089970050E+03 -0.26315329282E+02  0.45860185817E+03  0.78225422074E+02 0.  0.
         11    1    3    3    0    0 -0.31838771515E+03 -0.18963572669E+03 -0.71868678585E+02  0.37748848057E+03  0.00000000000E+00 0. -1.
        -11    1    3    3    0    0 -0.52038602834E+02 -0.91060499021E+01 -0.41837181508E+02  0.67389065035E+02  0.00000000000E+00 0.  1.
          2    1    6    6  502    0  0.71807167152E+02  0.94203882137E+02  0.21904771624E+02  0.12045936943E+03  0.00000000000E+00 0. -1.
          3    1    5    5  503    0  0.25913085848E+02 -0.17081428060E+02  0.66148479941E+02  0.73067671382E+02  0.00000000000E+00 0. -1.
         -4    1    5    5    0  503  0.17641197037E+02 -0.95076495848E+02  0.70823981016E+03  0.71481073061E+03  0.00000000000E+00 0.  1.
         -1    1    6    6    0  502  0.25506486795E+03  0.21669581837E+03 -0.48220100906E+02  0.33814248874E+03  0.00000000000E+00 0.  1.
<mgrwt>
<rscale>  0 0.15678870E+04</rscale>
<asrwt>0</asrwt>
<pdfrwt beam="1">  1        1 0.81306977E-01 0.15678870E+04</pdfrwt>
<pdfrwt beam="2">  1       -1 0.17890192E+00 0.15678870E+04</pdfrwt>
<totfact> 0.83647559E+00</totfact>
</mgrwt>
</event>
<event>
12    1  0.1506149E-007  0.3112388E+04  0.7818608E-02  0.8212346E-01
         -1   -1    0    0    0  501 -0.00000000000E+00  0.00000000000E+00  0.14134235306E+04  0.14134235306E+04  0.00000000000E+00 0.  1.
          1   -1    0    0  501    0  0.00000000000E+00 -0.00000000000E+00 -0.17133852349E+04  0.17133852349E+04  0.00000000000E+00 0. -1.
         23    2    1    2    0    0  0.12971509002E+02 -0.66040380662E+03 -0.13992601180E+04  0.15502441187E+04  0.95007904890E+02 0.  0.
        254    2    1    2    0    0 -0.12971509002E+02  0.66040380662E+03  0.10992984137E+04  0.15765646467E+04  0.91695018132E+03 0.  0.
        -24    2    4    4    0    0 -0.41701598592E+03  0.30334607503E+03  0.27758980879E+03  0.59077756113E+03  0.77722911914E+02 0.  0.
         24    2    4    4    0    0  0.40404447692E+03  0.35705773159E+03  0.82170860491E+03  0.98578708557E+03  0.76347781094E+02 0.  0.
         13    1    3    3    0    0 -0.31276474601E+01 -0.13893997699E+03 -0.21300031373E+03  0.25432898583E+03  0.00000000000E+00 0.  1.
        -13    1    3    3    0    0  0.16099156462E+02 -0.52146382962E+03 -0.11862598043E+04  0.12959151329E+04  0.00000000000E+00 0. -1.
          4    1    6    6  502    0  0.32657726448E+03  0.27341851214E+03  0.59143760560E+03  0.72884074651E+03  0.00000000000E+00 0. -1.
          1    1    5    5  503    0 -0.27222529191E+03  0.17317596446E+03  0.20866525101E+03  0.38423653028E+03  0.00000000000E+00 0. -1.
         -2    1    5    5    0  503 -0.14479069401E+03  0.13017011057E+03  0.68924557779E+02  0.20654103085E+03  0.00000000000E+00 0.  1.
         -3    1    6    6    0  502  0.77467212438E+02  0.83639219453E+02  0.23027099931E+03  0.25694633906E+03  0.00000000000E+00 0.  1.
<mgrwt>
<rscale>  0 0.31123875E+04</rscale>
<asrwt>0</asrwt>
<pdfrwt beam="1">  1        1 0.26359773E+00 0.31123875E+04</pdfrwt>
<pdfrwt beam="2">  1       -1 0.21744977E+00 0.31123875E+04</pdfrwt>
<totfact> 0.45035554E-01</totfact>
</mgrwt>
</event>
<event>
12    1  0.1506149E-007  0.2189356E+04  0.7818608E-02  0.8522871E-01
         -2   -1    0    0    0  501 -0.00000000000E+00  0.00000000000E+00  0.62026065885E+03  0.62026065885E+03  0.00000000000E+00 0. -1.
          2   -1    0    0  501    0  0.00000000000E+00 -0.00000000000E+00 -0.19319620691E+04  0.19319620691E+04  0.00000000000E+00 0.  1.
         23    2    1    2    0    0 -0.47847271753E+03 -0.61634220080E+03 -0.95375585962E+01  0.78574307008E+03  0.92126854137E+02 0.  0.
        254    2    1    2    0    0  0.47847271753E+03  0.61634220080E+03 -0.13021638517E+04  0.17664796579E+04  0.90333041307E+03 0.  0.
        -24    2    4    4    0    0  0.13596337763E+03  0.39193545091E+03 -0.12814939654E+04  0.13491100228E+04  0.75971261342E+02 0.  0.
         24    2    4    4    0    0  0.34250933990E+03  0.22440674989E+03 -0.20669886251E+02  0.41736963505E+03  0.78096931748E+02 0.  0.
         13    1    3    3    0    0 -0.14811639627E+03 -0.20038044895E+03  0.39523879312E+02  0.25229531942E+03  0.00000000000E+00 0.  1.
        -13    1    3    3    0    0 -0.33035632126E+03 -0.41596175185E+03 -0.49061437908E+02  0.53344775066E+03  0.00000000000E+00 0. -1.
          2    1    6    6  502    0  0.26992762723E+03  0.15284473107E+03 -0.42601928072E+02  0.31310918229E+03  0.00000000000E+00 0. -1.
          3    1    5    5  503    0  0.30547884939E+01  0.12250734656E+02 -0.12054723168E+02  0.17456476821E+02  0.00000000000E+00 0. -1.
         -4    1    5    5    0  503  0.13290858913E+03  0.37968471626E+03 -0.12694392422E+04  0.13316535460E+04  0.00000000000E+00 0.  1.
         -1    1    6    6    0  502  0.72581712672E+02  0.71562018814E+02  0.21932041821E+02  0.10426045276E+03  0.00000000000E+00 0.  1.
<mgrwt>
<rscale>  0 0.21893561E+04</rscale>
<asrwt>0</asrwt>
<pdfrwt beam="1">  1        2 0.29722493E+00 0.21893561E+04</pdfrwt>
<pdfrwt beam="2">  1       -2 0.95424717E-01 0.21893561E+04</pdfrwt>
<totfact> 0.61502548E+00</totfact>
</mgrwt>
</event>
<event>
12    1  0.1506149E-007  0.1393861E+04  0.7818608E-02  0.8958274E-01
          1   -1    0    0  501    0  0.00000000000E+00  0.00000000000E+00  0.25606035681E+03  0.25606035681E+03  0.00000000000E+00 0. -1.
         -1   -1    0    0    0  501 -0.00000000000E+00 -0.00000000000E+00 -0.18968657151E+04  0.18968657151E+04  0.00000000000E+00 0.  1.
         23    2    1    2    0    0  0.25959973009E+03 -0.11880029585E+03 -0.92360743702E+03  0.97078590101E+03  0.88707596729E+02 0.  0.
        254    2    1    2    0    0 -0.25959973009E+03  0.11880029585E+03 -0.71719792124E+03  0.11821401709E+04  0.89530832411E+03 0.  0.
        -24    2    4    4    0    0  0.19874858469E+03  0.35599276800E+03 -0.27231582771E+03  0.49631281048E+03  0.77062604695E+02 0.  0.
         24    2    4    4    0    0 -0.45834831478E+03 -0.23719247215E+03 -0.44488209353E+03  0.68582736040E+03  0.78074609349E+02 0.  0.
         11    1    3    3    0    0  0.63823728710E+02 -0.40998867342E+02 -0.13859157319E+03  0.15799366959E+03  0.00000000000E+00 0. -1.
        -11    1    3    3    0    0  0.19577600138E+03 -0.77801428508E+02 -0.78501586383E+03  0.81279223142E+03  0.00000000000E+00 0.  1.
          4    1    6    6  502    0 -0.24497764038E+03 -0.17023923262E+03 -0.25606432478E+03  0.39314676526E+03  0.00000000000E+00 0. -1.
          1    1    5    5  503    0  0.13912901821E+03  0.29994910561E+03 -0.23893011590E+03  0.40793865954E+03  0.00000000000E+00 0. -1.
         -2    1    5    5    0  503  0.59619566481E+02  0.56043662386E+02 -0.33385711814E+02  0.88374150940E+02  0.00000000000E+00 0.  1.
         -1    1    6    6    0  502 -0.21337067439E+03 -0.66953239534E+02 -0.18881776875E+03  0.29268059514E+03  0.00000000000E+00 0.  1.
<mgrwt>
<rscale>  0 0.13938610E+04</rscale>
<asrwt>0</asrwt>
<pdfrwt beam="1">  1        1 0.39393902E-01 0.13938610E+04</pdfrwt>
<pdfrwt beam="2">  1       -1 0.29182549E+00 0.13938610E+04</pdfrwt>
<totfact> 0.39353767E+00</totfact>
</mgrwt>
</event>
<event>
12    1  0.1506149E-007  0.2180570E+04  0.7818608E-02  0.8526559E-01
          2   -1    0    0  501    0  0.00000000000E+00  0.00000000000E+00  0.23902690682E+04  0.23902690682E+04  0.00000000000E+00 0. -1.
         -2   -1    0    0    0  501 -0.00000000000E+00 -0.00000000000E+00 -0.49731681227E+03  0.49731681227E+03  0.00000000000E+00 0.  1.
         23    2    1    2    0    0  0.59386527757E+03 -0.46392105161E+03  0.14501082244E+04  0.16369735464E+04  0.94709128718E+02 0.  0.
        254    2    1    2    0    0 -0.59386527757E+03  0.46392105161E+03  0.44284403145E+03  0.12506123340E+04  0.89443930134E+03 0.  0.
        -24    2    4    4    0    0 -0.30822205969E+03  0.25783490687E+03  0.69691777074E+03  0.80789152229E+03  0.74260725470E+02 0.  0.
         24    2    4    4    0    0 -0.28564321788E+03  0.20608614474E+03 -0.25407373928E+03  0.44272081173E+03  0.85934307271E+02 0.  0.
         11    1    3    3    0    0  0.40261962454E+03 -0.27051511285E+03  0.99105627020E+03  0.11033918248E+04  0.00000000000E+00 0. -1.
        -11    1    3    3    0    0  0.19124565304E+03 -0.19340593876E+03  0.45905195423E+03  0.53358172161E+03  0.00000000000E+00 0.  1.
          4    1    6    6  502    0 -0.60194985985E+02  0.29643227105E+02 -0.12762480540E+02  0.68301084621E+02  0.00000000000E+00 0. -1.
          1    1    5    5  503    0 -0.43543673863E+02  0.22104398170E+02  0.47920383593E+02  0.68417973630E+02  0.00000000000E+00 0. -1.
         -2    1    5    5    0  503 -0.26467838583E+03  0.23573050870E+03  0.64899738714E+03  0.73947354866E+03  0.00000000000E+00 0.  1.
         -3    1    6    6    0  502 -0.22544823190E+03  0.17644291764E+03 -0.24131125874E+03  0.37441972710E+03  0.00000000000E+00 0.  1.
<mgrwt>
<rscale>  0 0.21805696E+04</rscale>
<asrwt>0</asrwt>
<pdfrwt beam="1">  1        2 0.36773370E+00 0.21805696E+04</pdfrwt>
<pdfrwt beam="2">  1       -2 0.76510280E-01 0.21805696E+04</pdfrwt>
<totfact> 0.56314934E+00</totfact>
</mgrwt>
</event>
<event>
12    1  0.1506149E-007  0.2248895E+04  0.7818608E-02  0.8498348E-01
         -2   -1    0    0    0  501 -0.00000000000E+00  0.00000000000E+00  0.91065408742E+03  0.91065408742E+03  0.00000000000E+00 0. -1.
          2   -1    0    0  501    0  0.00000000000E+00 -0.00000000000E+00 -0.13884333698E+04  0.13884333698E+04  0.00000000000E+00 0.  1.
         23    2    1    2    0    0  0.46822329142E+03 -0.21579410596E+03  0.62394753664E+03  0.81426288649E+03  0.88957141626E+02 0.  0.
        254    2    1    2    0    0 -0.46822329142E+03  0.21579410596E+03 -0.11017268191E+04  0.14848245708E+04  0.85152913944E+03 0.  0.
        -24    2    4    4    0    0 -0.35805197075E+03  0.34566317577E+03 -0.16487974413E+03  0.53000108752E+03  0.77663233949E+02 0.  0.
         24    2    4    4    0    0 -0.11017132066E+03 -0.12986906981E+03 -0.93684707493E+03  0.95482348324E+03  0.70723031250E+02 0.  0.
         11    1    3    3    0    0  0.38811765482E+01  0.52808006891E+01  0.12889788061E+01  0.66792105580E+01  0.00000000000E+00 0.  1.
        -11    1    3    3    0    0  0.46434211487E+03 -0.22107490665E+03  0.62265855784E+03  0.80758367594E+03  0.00000000000E+00 0. -1.
          2    1    6    6  502    0 -0.46380957607E+02 -0.35428808376E+02 -0.49844815318E+03  0.50185351956E+03  0.00000000000E+00 0. -1.
          1    1    5    5  503    0 -0.11205281886E+03  0.89510513300E+02 -0.13879220675E+02  0.14408538778E+03  0.00000000000E+00 0. -1.
         -2    1    5    5    0  503 -0.24599915189E+03  0.25615266247E+03 -0.15100052346E+03  0.38591569974E+03  0.00000000000E+00 0.  1.
         -1    1    6    6    0  502 -0.63790363056E+02 -0.94440261438E+02 -0.43839892175E+03  0.45296996368E+03  0.00000000000E+00 0.  1.
<mgrwt>
<rscale>  0 0.22488953E+04</rscale>
<asrwt>0</asrwt>
<pdfrwt beam="1">  1        2 0.21360514E+00 0.22488953E+04</pdfrwt>
<pdfrwt beam="2">  1       -2 0.14010063E+00 0.22488953E+04</pdfrwt>
<totfact> 0.47962883E+00</totfact>
</mgrwt>
</event>
<event>
12    1  0.1668735E-007  0.1366530E+04  0.7818608E-02  0.8978409E-01
         -2   -1    0    0    0  501 -0.00000000000E+00  0.00000000000E+00  0.28293738690E+03  0.28293738690E+03  0.00000000000E+00 0.  1.
          2   -1    0    0  501    0  0.00000000000E+00 -0.00000000000E+00 -0.16500153852E+04  0.16500153852E+04  0.00000000000E+00 0. -1.
         23    2    1    2    0    0 -0.13273444763E+03  0.33863603124E+03 -0.25327372321E+03  0.45246281400E+03  0.91006724701E+02 0.  0.
        254    2    1    2    0    0  0.13273444763E+03 -0.33863603124E+03 -0.11138042750E+04  0.14804899581E+04  0.90498494881E+03 0.  0.
        -24    2    4    4    0    0  0.47451507309E+03 -0.36979907718E+03 -0.57086485433E+03  0.83322165098E+03  0.80347530634E+02 0.  0.
         24    2    4    4    0    0 -0.34178062546E+03  0.31163045941E+02 -0.54293942071E+03  0.64726830708E+03  0.79924435687E+02 0.  0.
         13    1    3    3    0    0 -0.12647106159E+03  0.30176939124E+03 -0.25529648114E+03  0.41501323857E+03  0.00000000000E+00 0.  1.
        -13    1    3    3    0    0 -0.62633860368E+01  0.36866640001E+02  0.20227579337E+01  0.37449575422E+02  0.00000000000E+00 0. -1.
          4    1    6    6  502    0 -0.82962789035E+02  0.26659240239E+02 -0.88028239999E+02  0.12386488805E+03  0.00000000000E+00 0. -1.
          3    1    5    5  503    0  0.38760131630E+02 -0.43583032470E+02 -0.88055129668E+02  0.10561976323E+03  0.00000000000E+00 0. -1.
         -4    1    5    5    0  503  0.43575494146E+03 -0.32621604471E+03 -0.48280972466E+03  0.72760188775E+03  0.00000000000E+00 0.  1.
         -3    1    6    6    0  502 -0.25881783643E+03  0.45038057024E+01 -0.45491118071E+03  0.52340341903E+03  0.00000000000E+00 0.  1.
<mgrwt>
<rscale>  0 0.13665300E+04</rscale>
<asrwt>0</asrwt>
<pdfrwt beam="1">  1        2 0.25384852E+00 0.13665300E+04</pdfrwt>
<pdfrwt beam="2">  1       -2 0.43528830E-01 0.13665300E+04</pdfrwt>
<totfact> 0.51045836E+01</totfact>
</mgrwt>
</event>
<event>
12    1  0.1506149E-007  0.1956026E+04  0.7818608E-02  0.8627460E-01
          1   -1    0    0  501    0  0.00000000000E+00  0.00000000000E+00  0.76456017153E+03  0.76456017153E+03  0.00000000000E+00 0. -1.
         -1   -1    0    0    0  501 -0.00000000000E+00 -0.00000000000E+00 -0.12510589865E+04  0.12510589865E+04  0.00000000000E+00 0.  1.
         23    2    1    2    0    0  0.37049030262E+03  0.30083658728E+03  0.42476111900E+03  0.64629711966E+03  0.97530723828E+02 0.  0.
        254    2    1    2    0    0 -0.37049030262E+03 -0.30083658728E+03 -0.91125993399E+03  0.13693220384E+04  0.90381550160E+03 0.  0.
        -24    2    4    4    0    0 -0.40640249346E+03  0.98680346169E+02 -0.66793744041E+02  0.43079391581E+03  0.78874560158E+02 0.  0.
         24    2    4    4    0    0  0.35912190841E+02 -0.39951693344E+03 -0.84446618995E+03  0.93852812258E+03  0.82513182837E+02 0.  0.
         11    1    3    3    0    0  0.35251638527E+03  0.27171516456E+03  0.41960264349E+03  0.61168890047E+03  0.00000000000E+00 0. -1.
        -11    1    3    3    0    0  0.17973917357E+02  0.29121422719E+02  0.51584755087E+01  0.34608219196E+02  0.00000000000E+00 0.  1.
          2    1    6    6  502    0  0.47091724221E+02 -0.18204741166E+03 -0.32884755676E+03  0.37881341868E+03  0.00000000000E+00 0. -1.
          3    1    5    5  503    0 -0.16010876197E+02 -0.66562797401E+01  0.87854544192E+01  0.19438066415E+02  0.00000000000E+00 0. -1.
         -2    1    5    5    0  503 -0.39039161727E+03  0.10533662591E+03 -0.75579198460E+02  0.41135584939E+03  0.00000000000E+00 0.  1.
         -1    1    6    6    0  502 -0.11179533379E+02 -0.21746952178E+03 -0.51561863318E+03  0.55971470390E+03  0.00000000000E+00 0.  1.
<mgrwt>
<rscale>  0 0.19560265E+04</rscale>
<asrwt>0</asrwt>
<pdfrwt beam="1">  1        1 0.11762464E+00 0.19560265E+04</pdfrwt>
<pdfrwt beam="2">  1       -1 0.19247061E+00 0.19560265E+04</pdfrwt>
<totfact> 0.37567265E+00</totfact>
</mgrwt>
</event>
<event>
12    1  0.1506149E-007  0.1818505E+04  0.7818608E-02  0.8696520E-01
          1   -1    0    0  501    0  0.00000000000E+00  0.00000000000E+00  0.21297544068E+04  0.21297544068E+04  0.00000000000E+00 0. -1.
         -1   -1    0    0    0  501 -0.00000000000E+00 -0.00000000000E+00 -0.38818579200E+03  0.38818579200E+03  0.00000000000E+00 0.  1.
         23    2    1    2    0    0 -0.55395344923E+03  0.19263893670E+03  0.11298476352E+04  0.12761878148E+04  0.90141422698E+02 0.  0.
        254    2    1    2    0    0  0.55395344923E+03 -0.19263893670E+03  0.61172097964E+03  0.12417523840E+04  0.90761899629E+03 0.  0.
        -24    2    4    4    0    0  0.70576351585E+03 -0.14959874537E+03  0.14205571904E+03  0.74017071866E+03  0.84799413457E+02 0.  0.
         24    2    4    4    0    0 -0.15181006662E+03 -0.43040191323E+02  0.46966526060E+03  0.50158166535E+03  0.78102212544E+02 0.  0.
         11    1    3    3    0    0 -0.67366449347E+02  0.40776535098E+02  0.21423642731E+03  0.22825032552E+03  0.00000000000E+00 0.  1.
        -11    1    3    3    0    0 -0.48658699988E+03  0.15186240160E+03  0.91561120787E+03  0.10479374893E+04  0.00000000000E+00 0. -1.
          4    1    6    6  502    0 -0.91820956677E+02 -0.42444532825E+02  0.18686315066E+03  0.21248638434E+03  0.00000000000E+00 0. -1.
          3    1    5    5  503    0  0.43307573805E+03 -0.51077454385E+02  0.97244291220E+02  0.44678848844E+03  0.00000000000E+00 0. -1.
         -4    1    5    5    0  503  0.27268777781E+03 -0.98521290989E+02  0.44811427818E+02  0.29338223022E+03  0.00000000000E+00 0.  1.
         -3    1    6    6    0  502 -0.59989109947E+02 -0.59565849821E+00  0.28280210994E+03  0.28909528102E+03  0.00000000000E+00 0.  1.
<mgrwt>
<rscale>  0 0.18185053E+04</rscale>
<asrwt>0</asrwt>
<pdfrwt beam="1">  1        1 0.32765452E+00 0.18185053E+04</pdfrwt>
<pdfrwt beam="2">  1       -1 0.59720892E-01 0.18185053E+04</pdfrwt>
<totfact> 0.65158758E+00</totfact>
</mgrwt>
</event>
<event>
12    1  0.1506149E-007  0.1426753E+04  0.7818608E-02  0.8934678E-01
          1   -1    0    0  501    0  0.00000000000E+00  0.00000000000E+00  0.72464624638E+03  0.72464624638E+03  0.00000000000E+00 0. -1.
         -1   -1    0    0    0  501 -0.00000000000E+00 -0.00000000000E+00 -0.70228168272E+03  0.70228168272E+03  0.00000000000E+00 0.  1.
         23    2    1    2    0    0 -0.47337874597E+02  0.24266290003E+03  0.22642083463E+03  0.34711229422E+03  0.89968844749E+02 0.  0.
        254    2    1    2    0    0  0.47337874597E+02 -0.24266290003E+03 -0.20405627096E+03  0.10798156349E+04  0.10311336898E+04 0.  0.
        -24    2    4    4    0    0 -0.43107130362E+02 -0.17338789909E+03 -0.61513912449E+03  0.64543056862E+03  0.79138411606E+02 0.  0.
         24    2    4    4    0    0  0.90445004960E+02 -0.69275000939E+02  0.41108285352E+03  0.43438506627E+03  0.81987490876E+02 0.  0.
         13    1    3    3    0    0 -0.58682555731E+02  0.24401628005E+03  0.21078291897E+03  0.32774536794E+03  0.00000000000E+00 0. -1.
        -13    1    3    3    0    0  0.11344681134E+02 -0.13533800231E+01  0.15637915653E+02  0.19366926279E+02  0.00000000000E+00 0.  1.
          2    1    6    6  502    0  0.50197478062E+02 -0.14234616342E+02  0.74432630379E+02  0.90898996536E+02  0.00000000000E+00 0. -1.
          3    1    5    5  503    0 -0.55290284130E+02 -0.86846739216E+02 -0.25868712125E+03  0.27842126056E+03  0.00000000000E+00 0. -1.
         -4    1    5    5    0  503  0.12183153768E+02 -0.86541159871E+02 -0.35645200324E+03  0.36700930805E+03  0.00000000000E+00 0.  1.
         -1    1    6    6    0  502  0.40247526898E+02 -0.55040384597E+02  0.33665022314E+03  0.34348606973E+03  0.00000000000E+00 0.  1.
<mgrwt>
<rscale>  0 0.14267527E+04</rscale>
<asrwt>0</asrwt>
<pdfrwt beam="1">  1        1 0.11148404E+00 0.14267527E+04</pdfrwt>
<pdfrwt beam="2">  1       -1 0.10804334E+00 0.14267527E+04</pdfrwt>
<totfact> 0.20024609E+01</totfact>
</mgrwt>
</event>
<event>
12    1  0.1506149E-007  0.1900038E+04  0.7818608E-02  0.8654838E-01
         -2   -1    0    0    0  501 -0.00000000000E+00  0.00000000000E+00  0.13688033095E+04  0.13688033095E+04  0.00000000000E+00 0.  1.
          2   -1    0    0  501    0  0.00000000000E+00 -0.00000000000E+00 -0.65936123023E+03  0.65936123023E+03  0.00000000000E+00 0. -1.
         23    2    1    2    0    0 -0.65534650804E+03  0.91263685869E+02  0.61672902603E+03  0.90908248481E+03  0.90929459970E+02 0.  0.
        254    2    1    2    0    0  0.65534650804E+03 -0.91263685869E+02  0.92713053239E+02  0.11190820549E+04  0.89774207289E+03 0.  0.
        -24    2    4    4    0    0  0.61101255142E+03 -0.42501626428E+02  0.43915196535E+03  0.75750656667E+03  0.76282525089E+02 0.  0.
         24    2    4    4    0    0  0.44333956620E+02 -0.48762059441E+02 -0.34643891211E+03  0.36157548825E+03  0.79835303800E+02 0.  0.
         11    1    3    3    0    0 -0.36435378756E+03  0.88618019345E+02  0.31295439967E+03  0.48841303436E+03  0.00000000000E+00 0. -1.
        -11    1    3    3    0    0 -0.29099272048E+03  0.26456665240E+01  0.30377462636E+03  0.42066945045E+03  0.00000000000E+00 0.  1.
          2    1    6    6  502    0 -0.39409972636E+01 -0.37931700689E+02 -0.25289082053E+03  0.25575009773E+03  0.00000000000E+00 0. -1.
          3    1    5    5  503    0  0.55468338040E+03 -0.46043833548E+02  0.37048162165E+03  0.66861821623E+03  0.00000000000E+00 0. -1.
         -4    1    5    5    0  503  0.56329171020E+02  0.35422071196E+01  0.68670343701E+02  0.88888350435E+02  0.00000000000E+00 0.  1.
         -1    1    6    6    0  502  0.48274953884E+02 -0.10830358752E+02 -0.93548091574E+02  0.10582539053E+03  0.00000000000E+00 0.  1.
<mgrwt>
<rscale>  0 0.19000377E+04</rscale>
<asrwt>0</asrwt>
<pdfrwt beam="1">  1        2 0.10144019E+00 0.19000377E+04</pdfrwt>
<pdfrwt beam="2">  1       -2 0.21058512E+00 0.19000377E+04</pdfrwt>
<totfact> 0.46930023E+00</totfact>
</mgrwt>
</event>
<event>
12    1  0.1506149E-007  0.1910559E+04  0.7818608E-02  0.8649618E-01
         -2   -1    0    0    0  501 -0.00000000000E+00  0.00000000000E+00  0.12247612040E+04  0.12247612040E+04  0.00000000000E+00 0.  1.
          2   -1    0    0  501    0  0.00000000000E+00 -0.00000000000E+00 -0.74509160061E+03  0.74509160061E+03  0.00000000000E+00 0. -1.
         23    2    1    2    0    0  0.66692488527E+03  0.12165878052E+03  0.49349545767E+03  0.84348524374E+03  0.91323207285E+02 0.  0.
        254    2    1    2    0    0 -0.66692488527E+03 -0.12165878052E+03 -0.13825854319E+02  0.11263675608E+04  0.89940150456E+03 0.  0.
        -24    2    4    4    0    0 -0.55012627504E+03 -0.46761700259E+03  0.10379577116E+03  0.73383375764E+03  0.80211234519E+02 0.  0.
         24    2    4    4    0    0 -0.11679861023E+03  0.34595822208E+03 -0.11762162548E+03  0.39253380320E+03  0.83180124436E+02 0.  0.
         11    1    3    3    0    0  0.40369915650E+03  0.50800581744E+02  0.34260899634E+03  0.53191600130E+03  0.00000000000E+00 0.  1.
        -11    1    3    3    0    0  0.26322572877E+03  0.70858198774E+02  0.15088646133E+03  0.31156924243E+03  0.00000000000E+00 0. -1.
          4    1    6    6  502    0 -0.10712066391E+03  0.34519719859E+03 -0.10455343467E+03  0.37625438636E+03  0.00000000000E+00 0. -1.
          1    1    5    5  503    0 -0.47145441952E+03 -0.42305483938E+03  0.11116013092E+03  0.64311837286E+03  0.00000000000E+00 0. -1.
         -2    1    5    5    0  503 -0.78671855520E+02 -0.44562163215E+02 -0.73643597622E+01  0.90715384782E+02  0.00000000000E+00 0.  1.
         -3    1    6    6    0  502 -0.96779463250E+01  0.76102348376E+00 -0.13068190806E+02  0.16279416843E+02  0.00000000000E+00 0.  1.
<mgrwt>
<rscale>  0 0.19105594E+04</rscale>
<asrwt>0</asrwt>
<pdfrwt beam="1">  1        2 0.11462948E+00 0.19105594E+04</pdfrwt>
<pdfrwt beam="2">  1       -2 0.18842480E+00 0.19105594E+04</pdfrwt>
<totfact> 0.56178008E+00</totfact>
</mgrwt>
</event>
<event>
12    1  0.1506149E-007  0.1932597E+04  0.7818608E-02  0.8638799E-01
          1   -1    0    0  501    0  0.00000000000E+00  0.00000000000E+00  0.47111112687E+03  0.47111112687E+03  0.00000000000E+00 0. -1.
         -1   -1    0    0    0  501 -0.00000000000E+00 -0.00000000000E+00 -0.19819788923E+04  0.19819788923E+04  0.00000000000E+00 0.  1.
         23    2    1    2    0    0  0.34924986231E+03  0.63381857045E+03 -0.38806151118E+03  0.82588202822E+03  0.88249314432E+02 0.  0.
        254    2    1    2    0    0 -0.34924986231E+03 -0.63381857045E+03 -0.11228062543E+04  0.16272079910E+04  0.92919885638E+03 0.  0.
        -24    2    4    4    0    0  0.11811818253E+03 -0.22485731319E+03  0.74637422284E+02  0.27585093918E+03  0.77525992437E+02 0.  0.
         24    2    4    4    0    0 -0.46736804484E+03 -0.40896125726E+03 -0.11974436766E+04  0.13513570518E+04  0.81316195290E+02 0.  0.
         11    1    3    3    0    0  0.27172498946E+03  0.49535718155E+03 -0.25988712099E+03  0.62189590999E+03  0.00000000000E+00 0.  1.
        -11    1    3    3    0    0  0.77524872846E+02  0.13846138890E+03 -0.12817439019E+03  0.20398611822E+03  0.00000000000E+00 0. -1.
          4    1    6    6  502    0 -0.11855254242E+03 -0.14246131219E+03 -0.40671960422E+03  0.44695723201E+03  0.00000000000E+00 0. -1.
          1    1    5    5  503    0  0.82417045053E+02 -0.15853467811E+03  0.88292295346E+02  0.19930213972E+03  0.00000000000E+00 0. -1.
         -2    1    5    5    0  503  0.35701137481E+02 -0.66322635080E+02 -0.13654873061E+02  0.76548799466E+02  0.00000000000E+00 0.  1.
         -3    1    6    6    0  502 -0.34881550243E+03 -0.26649994507E+03 -0.79072407236E+03  0.90439981981E+03  0.00000000000E+00 0.  1.
<mgrwt>
<rscale>  0 0.19325965E+04</rscale>
<asrwt>0</asrwt>
<pdfrwt beam="1">  1        1 0.72478635E-01 0.19325965E+04</pdfrwt>
<pdfrwt beam="2">  1       -1 0.30491983E+00 0.19325965E+04</pdfrwt>
<totfact> 0.13783949E+00</totfact>
</mgrwt>
</event>
<event>
12    1  0.1506149E-007  0.1226506E+04  0.7818608E-02  0.9089967E-01
          2   -1    0    0  501    0  0.00000000000E+00  0.00000000000E+00  0.75833800972E+03  0.75833800972E+03  0.00000000000E+00 0. -1.
         -2   -1    0    0    0  501 -0.00000000000E+00 -0.00000000000E+00 -0.49592533144E+03  0.49592533144E+03  0.00000000000E+00 0.  1.
         23    2    1    2    0    0  0.63404214655E+02 -0.30763758056E+03  0.28575035885E+03  0.43396704848E+03  0.89516234117E+02 0.  0.
        254    2    1    2    0    0 -0.63404214655E+02  0.30763758056E+03 -0.23337680577E+02  0.82029629268E+03  0.75741691627E+03 0.  0.
        -24    2    4    4    0    0 -0.15737081275E+03  0.12132571141E+02 -0.33058879889E+03  0.37503012947E+03  0.80286188519E+02 0.  0.
         24    2    4    4    0    0  0.93966598091E+02  0.29550500942E+03  0.30725111832E+03  0.44526616322E+03  0.87782539568E+02 0.  0.
         13    1    3    3    0    0  0.18645672598E+02 -0.36053753880E+02  0.51671798888E+01  0.40917404897E+02  0.00000000000E+00 0.  1.
        -13    1    3    3    0    0  0.44758542057E+02 -0.27158382668E+03  0.28058317896E+03  0.39304964358E+03  0.00000000000E+00 0. -1.
          2    1    6    6  502    0  0.10002866221E+03  0.29199142949E+03  0.27866941230E+03  0.41583815302E+03  0.00000000000E+00 0. -1.
          3    1    5    5  503    0 -0.15823163688E+03 -0.15395328911E+01 -0.27036612840E+03  0.31326899696E+03  0.00000000000E+00 0. -1.
         -4    1    5    5    0  503  0.86082413546E+00  0.13672104032E+02 -0.60222670492E+02  0.61761132503E+02  0.00000000000E+00 0.  1.
         -1    1    6    6    0  502 -0.60620641214E+01  0.35135799343E+01  0.28581706019E+02  0.29428010200E+02  0.00000000000E+00 0.  1.
<mgrwt>
<rscale>  0 0.12265057E+04</rscale>
<asrwt>0</asrwt>
<pdfrwt beam="1">  1        2 0.11666739E+00 0.12265057E+04</pdfrwt>
<pdfrwt beam="2">  1       -2 0.76296205E-01 0.12265057E+04</pdfrwt>
<totfact> 0.55994285E+01</totfact>
</mgrwt>
</event>
<event>
12    1  0.1506149E-007  0.1697555E+04  0.7818608E-02  0.8762760E-01
         -2   -1    0    0    0  501 -0.00000000000E+00  0.00000000000E+00  0.42209498936E+03  0.42209498936E+03  0.00000000000E+00 0.  1.
          2   -1    0    0  501    0  0.00000000000E+00 -0.00000000000E+00 -0.17067790223E+04  0.17067790223E+04  0.00000000000E+00 0. -1.
         23    2    1    2    0    0  0.14219802249E+03  0.52915437406E+03 -0.19063483075E+03  0.58733503501E+03  0.91630646983E+02 0.  0.
        254    2    1    2    0    0 -0.14219802249E+03 -0.52915437406E+03 -0.10940492022E+04  0.15415389766E+04  0.93764285873E+03 0.  0.
        -24    2    4    4    0    0  0.17556200771E+03 -0.54761233302E+03 -0.10640696759E+04  0.12120216104E+04  0.77787036396E+02 0.  0.
         24    2    4    4    0    0 -0.31776003020E+03  0.18457958962E+02 -0.29979526271E+02  0.32951736625E+03  0.79817226349E+02 0.  0.
         11    1    3    3    0    0  0.56067333110E+02  0.15802095824E+03 -0.10167038183E+03  0.19608935623E+03  0.00000000000E+00 0. -1.
        -11    1    3    3    0    0  0.86130689380E+02  0.37113341582E+03 -0.88964448917E+02  0.39124567878E+03  0.00000000000E+00 0.  1.
          2    1    6    6  502    0 -0.50730737152E+02  0.67785285065E+01 -0.35309368995E+02  0.62179640394E+02  0.00000000000E+00 0. -1.
          3    1    5    5  503    0  0.32715964197E+02 -0.21166180076E+03 -0.42946933105E+03  0.47991140696E+03  0.00000000000E+00 0. -1.
         -4    1    5    5    0  503  0.14284604351E+03 -0.33595053226E+03 -0.63460034485E+03  0.73211020343E+03  0.00000000000E+00 0.  1.
         -1    1    6    6    0  502 -0.26702929305E+03  0.11679430455E+02  0.53298427235E+01  0.26733772586E+03  0.00000000000E+00 0.  1.
<mgrwt>
<rscale>  0 0.16975546E+04</rscale>
<asrwt>0</asrwt>
<pdfrwt beam="1">  1        2 0.26258139E+00 0.16975546E+04</pdfrwt>
<pdfrwt beam="2">  1       -2 0.64937690E-01 0.16975546E+04</pdfrwt>
<totfact> 0.20239765E+01</totfact>
</mgrwt>
</event>
<event>
12    1  0.1506149E-007  0.1258525E+04  0.7818608E-02  0.9063118E-01
          1   -1    0    0  501    0  0.00000000000E+00  0.00000000000E+00  0.92967451499E+03  0.92967451499E+03  0.00000000000E+00 0. -1.
         -1   -1    0    0    0  501 -0.00000000000E+00 -0.00000000000E+00 -0.42592450828E+03  0.42592450828E+03  0.00000000000E+00 0.  1.
         23    2    1    2    0    0  0.27330875022E+03  0.22090719094E+02  0.25928909641E+03  0.38819789679E+03  0.91000542490E+02 0.  0.
        254    2    1    2    0    0 -0.27330875022E+03 -0.22090719094E+02  0.24446091029E+03  0.96740112648E+03  0.89494029412E+03 0.  0.
        -24    2    4    4    0    0  0.10747778470E+03  0.28770119571E+03  0.33475995412E+03  0.46139722786E+03  0.80620858182E+02 0.  0.
         24    2    4    4    0    0 -0.38078653492E+03 -0.30979191480E+03 -0.90299043832E+02  0.50600389863E+03  0.83166173781E+02 0.  0.
         13    1    3    3    0    0  0.25604523633E+03  0.39903700595E+02  0.21203566332E+03  0.33482919659E+03  0.00000000000E+00 0.  1.
        -13    1    3    3    0    0  0.17263513894E+02 -0.17812981501E+02  0.47253433097E+02  0.53368700203E+02  0.00000000000E+00 0. -1.
          2    1    6    6  502    0 -0.66980801311E+02 -0.10016804612E+03 -0.22402654492E+02  0.12256404096E+03  0.00000000000E+00 0. -1.
          3    1    5    5  503    0  0.29670084778E+02  0.36916195214E+02  0.19783792437E+02  0.51327554422E+02  0.00000000000E+00 0. -1.
         -2    1    5    5    0  503  0.77807699917E+02  0.25078500049E+03  0.31497616169E+03  0.41006967343E+03  0.00000000000E+00 0.  1.
         -1    1    6    6    0  502 -0.31380573361E+03 -0.20962386868E+03 -0.67896389340E+02  0.38343985767E+03  0.00000000000E+00 0.  1.
<mgrwt>
<rscale>  0 0.12585248E+04</rscale>
<asrwt>0</asrwt>
<pdfrwt beam="1">  1        1 0.14302685E+00 0.12585248E+04</pdfrwt>
<pdfrwt beam="2">  1       -1 0.65526848E-01 0.12585248E+04</pdfrwt>
<totfact> 0.40050639E+01</totfact>
</mgrwt>
</event>
<event>
12    1  0.1506149E-007  0.1221594E+04  0.7818608E-02  0.9094163E-01
          2   -1    0    0  501    0  0.00000000000E+00  0.00000000000E+00  0.15513752747E+04  0.15513752747E+04  0.00000000000E+00 0. -1.
         -2   -1    0    0    0  501 -0.00000000000E+00 -0.00000000000E+00 -0.24047870323E+03  0.24047870323E+03  0.00000000000E+00 0.  1.
         23    2    1    2    0    0 -0.81952297679E+01 -0.21276534578E+03  0.59022991277E+03  0.63368823524E+03  0.88618143708E+02 0.  0.
        254    2    1    2    0    0  0.81952297679E+01  0.21276534578E+03  0.72066665873E+03  0.11581657427E+04  0.88127816292E+03 0.  0.
        -24    2    4    4    0    0  0.13141393123E+03  0.39533709491E+03  0.80392445192E+03  0.90901859684E+03  0.80369428744E+02 0.  0.
         24    2    4    4    0    0 -0.12321870146E+03 -0.18257174914E+03 -0.83257793187E+02  0.24914714588E+03  0.81407298199E+02 0.  0.
         11    1    3    3    0    0 -0.18904692149E+02 -0.18922674829E+03  0.56990672540E+03  0.60079765754E+03  0.00000000000E+00 0. -1.
        -11    1    3    3    0    0  0.10709462381E+02 -0.23538597485E+02  0.20323187370E+02  0.32890577692E+02  0.00000000000E+00 0.  1.
          4    1    6    6  502    0 -0.10366864219E+03 -0.17816601928E+03 -0.52968832159E+02  0.21282860470E+03  0.00000000000E+00 0. -1.
          1    1    5    5  503    0  0.10791595967E+03  0.37993822653E+03  0.73117548215E+03  0.83103339044E+03  0.00000000000E+00 0. -1.
         -2    1    5    5    0  503  0.23497971558E+02  0.15398868378E+02  0.72748969766E+02  0.77985206397E+02  0.00000000000E+00 0.  1.
         -3    1    6    6    0  502 -0.19550059270E+02 -0.44057298606E+01 -0.30288961028E+02  0.36318541177E+02  0.00000000000E+00 0.  1.
<mgrwt>
<rscale>  0 0.12215936E+04</rscale>
<asrwt>0</asrwt>
<pdfrwt beam="1">  1        2 0.23867311E+00 0.12215936E+04</pdfrwt>
<pdfrwt beam="2">  1       -2 0.36996725E-01 0.12215936E+04</pdfrwt>
<totfact> 0.80522554E+01</totfact>
</mgrwt>
</event>
<event>
12    1  0.1506149E-007  0.1546520E+04  0.7818608E-02  0.8854094E-01
          2   -1    0    0  501    0  0.00000000000E+00  0.00000000000E+00  0.66913103718E+03  0.66913103718E+03  0.00000000000E+00 0.  1.
         -2   -1    0    0    0  501 -0.00000000000E+00 -0.00000000000E+00 -0.89359282267E+03  0.89359282267E+03  0.00000000000E+00 0. -1.
         23    2    1    2    0    0 -0.26746108644E+03 -0.87497941376E+02  0.34983568517E+03  0.45846734620E+03  0.92822294777E+02 0.  0.
        254    2    1    2    0    0  0.26746108644E+03  0.87497941376E+02 -0.57429747066E+03  0.11042565136E+04  0.90020749865E+03 0.  0.
        -24    2    4    4    0    0  0.31389172132E+03  0.30286311430E+03 -0.70714777302E+03  0.83435783760E+03  0.76426105247E+02 0.  0.
         24    2    4    4    0    0 -0.46430634873E+02 -0.21536517293E+03  0.13285030236E+03  0.26989867605E+03  0.81597370853E+02 0.  0.
         13    1    3    3    0    0 -0.53173397353E+02 -0.57625537717E+02  0.73168430496E+02  0.10724612816E+03  0.00000000000E+00 0. -1.
        -13    1    3    3    0    0 -0.21428768909E+03 -0.29872403659E+02  0.27666725468E+03  0.35122121805E+03  0.00000000000E+00 0.  1.
          4    1    6    6  502    0 -0.36369988205E+01 -0.91901420664E+01 -0.11073496408E+02  0.14842802778E+02  0.00000000000E+00 0. -1.
          3    1    5    5  503    0  0.27332625929E+02  0.12795875512E+02 -0.87793138618E+02  0.92835564622E+02  0.00000000000E+00 0. -1.
         -4    1    5    5    0  503  0.28655909539E+03  0.29006723879E+03 -0.61935463441E+03  0.74152227298E+03  0.00000000000E+00 0.  1.
         -3    1    6    6    0  502 -0.42793636052E+02 -0.20617503086E+03  0.14392379877E+03  0.25505587327E+03  0.00000000000E+00 0.  1.
<mgrwt>
<rscale>  0 0.15465196E+04</rscale>
<asrwt>0</asrwt>
<pdfrwt beam="1">  1        2 0.10294324E+00 0.15465196E+04</pdfrwt>
<pdfrwt beam="2">  1       -2 0.13747582E+00 0.15465196E+04</pdfrwt>
<totfact> 0.15714676E+01</totfact>
</mgrwt>
</event>
<event>
12    1  0.1506149E-007  0.2667257E+04  0.7818608E-02  0.8345708E-01
         -2   -1    0    0    0  501 -0.00000000000E+00  0.00000000000E+00  0.85927707481E+03  0.85927707481E+03  0.00000000000E+00 0.  1.
          2   -1    0    0  501    0  0.00000000000E+00 -0.00000000000E+00 -0.20698381820E+04  0.20698381820E+04  0.00000000000E+00 0. -1.
         23    2    1    2    0    0 -0.10134988388E+04  0.42124429234E+03 -0.92034896841E+03  0.14352085213E+04  0.90302967146E+02 0.  0.
        254    2    1    2    0    0  0.10134988388E+04 -0.42124429234E+03 -0.29021213874E+03  0.14939067355E+04  0.97103429338E+03 0.  0.
        -24    2    4    4    0    0  0.64724601823E+03 -0.56412888808E+03  0.17458798570E+03  0.87986230200E+03  0.80671526868E+02 0.  0.
         24    2    4    4    0    0  0.36625282053E+03  0.14288459574E+03 -0.46480012445E+03  0.61404443350E+03  0.80338498771E+02 0.  0.
         11    1    3    3    0    0 -0.12973510665E+03  0.25256481473E+02 -0.12722252819E+03  0.18345206304E+03  0.00000000000E+00 0.  1.
        -11    1    3    3    0    0 -0.88376373210E+03  0.39598781087E+03 -0.79312644021E+03  0.12517564582E+04  0.00000000000E+00 0. -1.
          4    1    6    6  502    0  0.16304717563E+03  0.24560120756E+02 -0.21548874482E+03  0.27133554901E+03  0.00000000000E+00 0. -1.
          3    1    5    5  503    0  0.13643790837E+03 -0.97410790445E+02  0.62550163846E+02  0.17893207631E+03  0.00000000000E+00 0. -1.
         -4    1    5    5    0  503  0.51080810986E+03 -0.46671809764E+03  0.11203782186E+03  0.70093022569E+03  0.00000000000E+00 0.  1.
         -3    1    6    6    0  502  0.20320564489E+03  0.11832447498E+03 -0.24931137963E+03  0.34270888449E+03  0.00000000000E+00 0.  1.
<mgrwt>
<rscale>  0 0.26672566E+04</rscale>
<asrwt>0</asrwt>
<pdfrwt beam="1">  1        2 0.31843664E+00 0.26672566E+04</pdfrwt>
<pdfrwt beam="2">  1       -2 0.13219648E+00 0.26672566E+04</pdfrwt>
<totfact> 0.22364240E+00</totfact>
</mgrwt>
</event>
<event>
12    1  0.1506149E-007  0.1224895E+04  0.7818608E-02  0.9091341E-01
         -1   -1    0    0    0  501 -0.00000000000E+00  0.00000000000E+00  0.38015395260E+03  0.38015395260E+03  0.00000000000E+00 0.  1.
          1   -1    0    0  501    0  0.00000000000E+00 -0.00000000000E+00 -0.98668411419E+03  0.98668411419E+03  0.00000000000E+00 0. -1.
         23    2    1    2    0    0  0.19020811620E+03 -0.20141303280E+02 -0.35630914641E+03  0.41443898478E+03  0.90656851508E+02 0.  0.
        254    2    1    2    0    0 -0.19020811620E+03  0.20141303280E+02 -0.25022101518E+03  0.95239908201E+03  0.89881513973E+03 0.  0.
        -24    2    4    4    0    0 -0.10503285023E+03  0.37939939552E+03 -0.37907395168E+03  0.55270780153E+03  0.82541214371E+02 0.  0.
         24    2    4    4    0    0 -0.85175265969E+02 -0.35925809224E+03  0.12885293650E+03  0.39969128049E+03  0.82636781615E+02 0.  0.
         13    1    3    3    0    0  0.39183387650E+02 -0.43263978695E+02 -0.11178959428E+03  0.12611115379E+03  0.00000000000E+00 0.  1.
        -13    1    3    3    0    0  0.15102472855E+03  0.23122675416E+02 -0.24451955213E+03  0.28832783099E+03  0.00000000000E+00 0. -1.
          2    1    6    6  502    0 -0.93545291003E+00 -0.12101088222E+03  0.71515012992E+02  0.14056637497E+03  0.00000000000E+00 0. -1.
          3    1    5    5  503    0 -0.82717769218E+02  0.20885001514E+03 -0.25952115540E+03  0.34323721865E+03  0.00000000000E+00 0. -1.
         -4    1    5    5    0  503 -0.22315081016E+02  0.17054938038E+03 -0.11955279629E+03  0.20947058287E+03  0.00000000000E+00 0.  1.
         -1    1    6    6    0  502 -0.84239813059E+02 -0.23824721003E+03  0.57337923511E+02  0.25912490552E+03  0.00000000000E+00 0.  1.
<mgrwt>
<rscale>  0 0.12248949E+04</rscale>
<asrwt>0</asrwt>
<pdfrwt beam="1">  1        1 0.15179756E+00 0.12248949E+04</pdfrwt>
<pdfrwt beam="2">  1       -1 0.58485224E-01 0.12248949E+04</pdfrwt>
<totfact> 0.45364563E+01</totfact>
</mgrwt>
</event>
<event>
12    1  0.1506149E-007  0.2261362E+04  0.7818608E-02  0.8493313E-01
         -2   -1    0    0    0  501 -0.00000000000E+00  0.00000000000E+00  0.80690841508E+03  0.80690841508E+03  0.00000000000E+00 0.  1.
          2   -1    0    0  501    0  0.00000000000E+00 -0.00000000000E+00 -0.15843675766E+04  0.15843675766E+04  0.00000000000E+00 0. -1.
         23    2    1    2    0    0  0.62103434345E+03 -0.66756280403E+03 -0.61143170465E+03  0.11015296652E+04  0.90526906975E+02 0.  0.
        254    2    1    2    0    0 -0.62103434345E+03  0.66756280403E+03 -0.16602745683E+03  0.12897463264E+04  0.89697085626E+03 0.  0.
        -24    2    4    4    0    0  0.14268884788E+03  0.44808356624E+03 -0.17725117422E+02  0.47756862884E+03  0.81354937315E+02 0.  0.
         24    2    4    4    0    0 -0.76372319133E+03  0.21947923779E+03 -0.14830233941E+03  0.81217769757E+03  0.78706923150E+02 0.  0.
         11    1    3    3    0    0  0.24062157523E+03 -0.25257587368E+03 -0.28729512676E+03  0.45192013044E+03  0.00000000000E+00 0.  1.
        -11    1    3    3    0    0  0.38041276822E+03 -0.41498693034E+03 -0.32413657789E+03  0.64960953480E+03  0.00000000000E+00 0. -1.
          4    1    6    6  502    0 -0.43932337978E+03  0.87463375160E+02 -0.71383655750E+02  0.45359728871E+03  0.00000000000E+00 0. -1.
          3    1    5    5  503    0  0.13192856989E+03  0.42550080036E+03  0.23560351345E+01  0.44549032488E+03  0.00000000000E+00 0. -1.
         -4    1    5    5    0  503  0.10760277988E+02  0.22582765876E+02 -0.20081152556E+02  0.32078303960E+02  0.00000000000E+00 0.  1.
         -3    1    6    6    0  502 -0.32439981155E+03  0.13201586263E+03 -0.76918683659E+02  0.35858040886E+03  0.00000000000E+00 0.  1.
<mgrwt>
<rscale>  0 0.22613620E+04</rscale>
<asrwt>0</asrwt>
<pdfrwt beam="1">  1        2 0.24374886E+00 0.22613620E+04</pdfrwt>
<pdfrwt beam="2">  1       -2 0.12413976E+00 0.22613620E+04</pdfrwt>
<totfact> 0.50496939E+00</totfact>
</mgrwt>
</event>
<event>
12    1  0.1506149E-007  0.2065914E+04  0.7818608E-02  0.8576409E-01
          2   -1    0    0  501    0  0.00000000000E+00  0.00000000000E+00  0.26304832170E+04  0.26304832170E+04  0.00000000000E+00 0. -1.
         -2   -1    0    0    0  501 -0.00000000000E+00 -0.00000000000E+00 -0.40562878224E+03  0.40562878224E+03  0.00000000000E+00 0.  1.
         23    2    1    2    0    0 -0.78754756971E+03 -0.14853264478E+03  0.12732678094E+04  0.15072954387E+04  0.91844999585E+02 0.  0.
        254    2    1    2    0    0  0.78754756971E+03  0.14853264478E+03  0.95158662541E+03  0.15288165606E+04  0.88852115851E+03 0.  0.
        -24    2    4    4    0    0  0.41357307473E+03  0.46966153529E+03  0.27563288808E+03  0.68842366555E+03  0.79555065361E+02 0.  0.
         24    2    4    4    0    0  0.37397449498E+03 -0.32112889051E+03  0.67595373733E+03  0.84039289502E+03  0.79787691932E+02 0.  0.
         11    1    3    3    0    0 -0.41584963326E+03 -0.55216469849E+02  0.59074376373E+03  0.72453983356E+03  0.00000000000E+00 0.  1.
        -11    1    3    3    0    0 -0.37169793644E+03 -0.93316174931E+02  0.68252404563E+03  0.78275560511E+03  0.00000000000E+00 0. -1.
          2    1    6    6  502    0  0.25094745773E+02 -0.50107243350E+02  0.98536314766E+02  0.11335734396E+03  0.00000000000E+00 0. -1.
          1    1    5    5  503    0  0.15989117001E+03  0.13841372426E+03  0.66316102912E+02  0.22163341539E+03  0.00000000000E+00 0. -1.
         -2    1    5    5    0  503  0.25368190472E+03  0.33124781103E+03  0.20931678517E+03  0.46679025016E+03  0.00000000000E+00 0.  1.
         -1    1    6    6    0  502  0.34887974920E+03 -0.27102164716E+03  0.57741742256E+03  0.72703555107E+03  0.00000000000E+00 0.  1.
<mgrwt>
<rscale>  0 0.20659136E+04</rscale>
<asrwt>0</asrwt>
<pdfrwt beam="1">  1        2 0.40468971E+00 0.20659136E+04</pdfrwt>
<pdfrwt beam="2">  1       -2 0.62404430E-01 0.20659136E+04</pdfrwt>
<totfact> 0.64331349E+00</totfact>
</mgrwt>
</event>
<event>
12    1  0.1506149E-007  0.2738083E+04  0.7818608E-02  0.8322753E-01
         -1   -1    0    0    0  501 -0.00000000000E+00  0.00000000000E+00  0.13398070076E+04  0.13398070076E+04  0.00000000000E+00 0.  1.
          1   -1    0    0  501    0  0.00000000000E+00 -0.00000000000E+00 -0.13989137206E+04  0.13989137206E+04  0.00000000000E+00 0. -1.
         23    2    1    2    0    0  0.66587843191E+03  0.10207383206E+04 -0.50297502658E+02  0.12237732537E+04  0.98946108550E+02 0.  0.
        254    2    1    2    0    0 -0.66587843191E+03 -0.10207383206E+04 -0.88092103039E+01  0.15149474745E+04  0.89982634039E+03 0.  0.
        -24    2    4    4    0    0 -0.21544147475E+03 -0.54308854885E+02  0.31876999229E+03  0.39664878981E+03  0.79696133611E+02 0.  0.
         24    2    4    4    0    0 -0.45043695716E+03 -0.96642946576E+03 -0.32757920260E+03  0.11182986846E+04  0.80027804073E+02 0.  0.
         13    1    3    3    0    0  0.73453383143E+02  0.17062741003E+03 -0.23562773230E+02  0.18725468440E+03  0.00000000000E+00 0. -1.
        -13    1    3    3    0    0  0.59242504876E+03  0.85011091062E+03 -0.26734729428E+02  0.10365185693E+04  0.00000000000E+00 0.  1.
          2    1    6    6  502    0 -0.40148509242E+03 -0.79088488765E+03 -0.27569397872E+03  0.92881448893E+03  0.00000000000E+00 0. -1.
          1    1    5    5  503    0 -0.19685579909E+03 -0.21356731827E+02  0.27343677123E+03  0.33760329307E+03  0.00000000000E+00 0. -1.
         -2    1    5    5    0  503 -0.18585675656E+02 -0.32952123059E+02  0.45333221062E+02  0.59045496742E+02  0.00000000000E+00 0.  1.
         -1    1    6    6    0  502 -0.48951864737E+02 -0.17554457811E+03 -0.51885223881E+02  0.18948419570E+03  0.00000000000E+00 0.  1.
<mgrwt>
<rscale>  0 0.27380828E+04</rscale>
<asrwt>0</asrwt>
<pdfrwt beam="1">  1        1 0.21521749E+00 0.27380828E+04</pdfrwt>
<pdfrwt beam="2">  1       -1 0.20612416E+00 0.27380828E+04</pdfrwt>
<totfact> 0.91511806E-01</totfact>
</mgrwt>
</event>
<event>
12    1  0.1506149E-007  0.2555097E+04  0.7818608E-02  0.8383616E-01
          2   -1    0    0  501    0  0.00000000000E+00  0.00000000000E+00  0.23599736947E+04  0.23599736947E+04  0.00000000000E+00 0. -1.
         -2   -1    0    0    0  501 -0.00000000000E+00 -0.00000000000E+00 -0.69158851302E+03  0.69158851302E+03  0.00000000000E+00 0.  1.
         23    2    1    2    0    0  0.59199465493E+03  0.13716249728E+03 -0.39465510024E+03  0.73027442855E+03  0.90977308818E+02 0.  0.
        254    2    1    2    0    0 -0.59199465493E+03 -0.13716249728E+03  0.20630402820E+04  0.23212877792E+04  0.87348184113E+03 0.  0.
        -24    2    4    4    0    0 -0.52434909831E+01  0.85930454247E+02 -0.42975662200E+02  0.12219686923E+03  0.75323503260E+02 0.  0.
         24    2    4    4    0    0 -0.58675116395E+03 -0.22309295153E+03  0.21060159442E+04  0.21990909100E+04  0.81549248183E+02 0.  0.
         13    1    3    3    0    0  0.58419056905E+03  0.12475911658E+03 -0.37342665539E+03  0.70447918712E+03  0.00000000000E+00 0.  1.
        -13    1    3    3    0    0  0.78040858814E+01  0.12403380708E+02 -0.21228444851E+02  0.25795241426E+02  0.00000000000E+00 0. -1.
          2    1    6    6  502    0 -0.95408865083E+02 -0.28507556472E+02  0.44616970598E+03  0.45714651792E+03  0.00000000000E+00 0. -1.
          3    1    5    5  503    0  0.14750165664E+02 -0.90650556266E+01 -0.66465362199E+01  0.18545054983E+02  0.00000000000E+00 0. -1.
         -2    1    5    5    0  503 -0.19993656647E+02  0.94995509873E+02 -0.36329125980E+02  0.10365181425E+03  0.00000000000E+00 0.  1.
         -1    1    6    6    0  502 -0.49134229886E+03 -0.19458539506E+03  0.16598462382E+04  0.17419443920E+04  0.00000000000E+00 0.  1.
<mgrwt>
<rscale>  0 0.25550974E+04</rscale>
<asrwt>0</asrwt>
<pdfrwt beam="1">  1        2 0.36307287E+00 0.25550974E+04</pdfrwt>
<pdfrwt beam="2">  1       -2 0.10639823E+00 0.25550974E+04</pdfrwt>
<totfact> 0.26489296E+00</totfact>
</mgrwt>
</event>
<event>
12    1  0.1506149E-007  0.3285040E+04  0.7818608E-02  0.8166713E-01
         -2   -1    0    0    0  501 -0.00000000000E+00  0.00000000000E+00  0.29362743888E+04  0.29362743888E+04  0.00000000000E+00 0.  1.
          2   -1    0    0  501    0  0.00000000000E+00 -0.00000000000E+00 -0.91880757060E+03  0.91880757060E+03  0.00000000000E+00 0. -1.
         23    2    1    2    0    0 -0.76628544403E+03 -0.13047456264E+04  0.10807753792E+04  0.18616730046E+04  0.90534105099E+02 0.  0.
        254    2    1    2    0    0  0.76628544403E+03  0.13047456264E+04  0.93669143899E+03  0.19934089548E+04  0.89818365488E+03 0.  0.
        -24    2    4    4    0    0  0.68305572047E+03  0.48193412310E+03  0.15726080310E+03  0.85424219106E+03  0.78569361215E+02 0.  0.
         24    2    4    4    0    0  0.83229723559E+02  0.82281150333E+03  0.77943063589E+03  0.11391667638E+04  0.79011661187E+02 0.  0.
         11    1    3    3    0    0 -0.39654267247E+03 -0.74988743888E+03  0.57526631102E+03  0.10249432134E+04  0.00000000000E+00 0.  1.
        -11    1    3    3    0    0 -0.36974277157E+03 -0.55485818756E+03  0.50550906818E+03  0.83672979117E+03  0.00000000000E+00 0. -1.
          4    1    6    6  502    0 -0.12460379186E+02  0.84840940836E+02  0.65237343173E+02  0.10774579916E+03  0.00000000000E+00 0. -1.
          3    1    5    5  503    0  0.21189215861E+03  0.18389285170E+03  0.77347409600E+02  0.29102833120E+03  0.00000000000E+00 0. -1.
         -4    1    5    5    0  503  0.47116356187E+03  0.29804127140E+03  0.79913393495E+02  0.56321385987E+03  0.00000000000E+00 0.  1.
         -3    1    6    6    0  502  0.95690102745E+02  0.73797056250E+03  0.71419329272E+03  0.10314209646E+04  0.00000000000E+00 0.  1.
<mgrwt>
<rscale>  0 0.32850395E+04</rscale>
<asrwt>0</asrwt>
<pdfrwt beam="1">  1        2 0.14135501E+00 0.32850395E+04</pdfrwt>
<pdfrwt beam="2">  1       -2 0.45173452E+00 0.32850395E+04</pdfrwt>
<totfact> 0.80387399E-02</totfact>
</mgrwt>
</event>
<event>
12    1  0.1506149E-007  0.1440777E+04  0.7818608E-02  0.8924820E-01
          2   -1    0    0  501    0  0.00000000000E+00  0.00000000000E+00  0.16651636156E+04  0.16651636156E+04  0.00000000000E+00 0.  1.
         -2   -1    0    0    0  501 -0.00000000000E+00 -0.00000000000E+00 -0.31165660601E+03  0.31165660601E+03  0.00000000000E+00 0. -1.
         23    2    1    2    0    0  0.24160073282E+01 -0.37984524539E+03  0.20777480910E+03  0.44260792119E+03  0.91886631602E+02 0.  0.
        254    2    1    2    0    0 -0.24160073282E+01  0.37984524539E+03  0.11457322005E+04  0.15342123004E+04  0.94700414992E+03 0.  0.
        -24    2    4    4    0    0 -0.17786612091E+03  0.12666303069E+02  0.10998624336E+04  0.11171089333E+04  0.80238419301E+02 0.  0.
         24    2    4    4    0    0  0.17545011358E+03  0.36717894232E+03  0.45869766874E+02  0.41710336705E+03  0.79171113773E+02 0.  0.
         11    1    3    3    0    0 -0.13476013753E+02 -0.28804834384E+03  0.19608296417E+03  0.34871475474E+03  0.00000000000E+00 0.  1.
        -11    1    3    3    0    0  0.15892021081E+02 -0.91796901548E+02  0.11691844930E+02  0.93893166449E+02  0.00000000000E+00 0. -1.
          2    1    6    6  502    0  0.82048990565E+02  0.21675161353E+03  0.60220702922E+02  0.23945736965E+03  0.00000000000E+00 0. -1.
          3    1    5    5  503    0 -0.58910130121E+01 -0.19078853018E+02  0.87191178401E+02  0.89448355254E+02  0.00000000000E+00 0. -1.
         -4    1    5    5    0  503 -0.17197510789E+03  0.31745156087E+02  0.10126712552E+04  0.10276605781E+04  0.00000000000E+00 0.  1.
         -1    1    6    6    0  502  0.93401123012E+02  0.15042732879E+03 -0.14350936047E+02  0.17764599740E+03  0.00000000000E+00 0.  1.
<mgrwt>
<rscale>  0 0.14407765E+04</rscale>
<asrwt>0</asrwt>
<pdfrwt beam="1">  1        2 0.25617901E+00 0.14407765E+04</pdfrwt>
<pdfrwt beam="2">  1       -2 0.47947171E-01 0.14407765E+04</pdfrwt>
<totfact> 0.41008346E+01</totfact>
</mgrwt>
</event>
<event>
12    1  0.1506149E-007  0.2574869E+04  0.7818608E-02  0.8376788E-01
         -2   -1    0    0    0  501 -0.00000000000E+00  0.00000000000E+00  0.16307222220E+04  0.16307222220E+04  0.00000000000E+00 0.  1.
          2   -1    0    0  501    0  0.00000000000E+00 -0.00000000000E+00 -0.10164128300E+04  0.10164128300E+04  0.00000000000E+00 0. -1.
         23    2    1    2    0    0  0.18292970736E+02 -0.66108899772E+03  0.12107827653E+04  0.13827745237E+04  0.93258689120E+02 0.  0.
        254    2    1    2    0    0 -0.18292970736E+02  0.66108899772E+03 -0.59647337327E+03  0.12643605282E+04  0.89747075978E+03 0.  0.
        -24    2    4    4    0    0 -0.13549225626E+03  0.27495585913E+02  0.18736555148E+03  0.24647530774E+03  0.80808840437E+02 0.  0.
         24    2    4    4    0    0  0.11719928553E+03  0.63359341181E+03 -0.78383892475E+03  0.10178852205E+04  0.80688153666E+02 0.  0.
         13    1    3    3    0    0  0.34565187751E+02 -0.46329682522E+03  0.76866024458E+03  0.89815214305E+03  0.00000000000E+00 0.  1.
        -13    1    3    3    0    0 -0.16272217014E+02 -0.19779217250E+03  0.44212252071E+03  0.48462238069E+03  0.00000000000E+00 0. -1.
          2    1    6    6  502    0  0.29169891420E+02  0.78049168317E+02 -0.68322764295E+02  0.10775228704E+03  0.00000000000E+00 0. -1.
          3    1    5    5  503    0 -0.25977238082E+02  0.68572763190E+01  0.10369426490E+03  0.10711834441E+03  0.00000000000E+00 0. -1.
         -4    1    5    5    0  503 -0.10951501818E+03  0.20638309594E+02  0.83671286580E+02  0.13935696333E+03  0.00000000000E+00 0.  1.
         -1    1    6    6    0  502  0.88029394107E+02  0.55554424349E+03 -0.71551616045E+03  0.91013293346E+03  0.00000000000E+00 0.  1.
<mgrwt>
<rscale>  0 0.25748685E+04</rscale>
<asrwt>0</asrwt>
<pdfrwt beam="1">  1        2 0.15637120E+00 0.25748685E+04</pdfrwt>
<pdfrwt beam="2">  1       -2 0.25088034E+00 0.25748685E+04</pdfrwt>
<totfact> 0.13829254E+00</totfact>
</mgrwt>
</event>
<event>
12    1  0.1506149E-007  0.1674043E+04  0.7818608E-02  0.8776309E-01
         -1   -1    0    0    0  501 -0.00000000000E+00  0.00000000000E+00  0.12766204315E+04  0.12766204315E+04  0.00000000000E+00 0.  1.
          1   -1    0    0  501    0  0.00000000000E+00 -0.00000000000E+00 -0.54879655513E+03  0.54879655513E+03  0.00000000000E+00 0. -1.
         23    2    1    2    0    0  0.48891657719E+03 -0.19304905275E+03 -0.31961282889E+02  0.53558719374E+03  0.97594888555E+02 0.  0.
        254    2    1    2    0    0 -0.48891657719E+03  0.19304905275E+03  0.75978515930E+03  0.12898297929E+04  0.90004447123E+03 0.  0.
        -24    2    4    4    0    0  0.22781497968E+03 -0.69448600008E+02  0.80270187009E+02  0.26446764586E+03  0.82322899461E+02 0.  0.
         24    2    4    4    0    0 -0.71673155687E+03  0.26249765276E+03  0.67951497230E+03  0.10253621471E+04  0.83772267190E+02 0.  0.
         11    1    3    3    0    0  0.62369369368E+02 -0.62982771447E+02 -0.82193428510E+01  0.89018679677E+02  0.00000000000E+00 0.  1.
        -11    1    3    3    0    0  0.42654720783E+03 -0.13006628130E+03 -0.23741940038E+02  0.44656851406E+03  0.00000000000E+00 0. -1.
          2    1    6    6  502    0 -0.17674565758E+03  0.61010350214E+02  0.12051144975E+03  0.22245066830E+03  0.00000000000E+00 0. -1.
          1    1    5    5  503    0  0.15374538072E+02  0.16272228406E+02  0.24158544026E+01  0.22516620322E+02  0.00000000000E+00 0. -1.
         -2    1    5    5    0  503  0.21244044160E+03 -0.85720828413E+02  0.77854332606E+02  0.24195102554E+03  0.00000000000E+00 0.  1.
         -1    1    6    6    0  502 -0.53998589929E+03  0.20148730255E+03  0.55900352255E+03  0.80291147877E+03  0.00000000000E+00 0.  1.
<mgrwt>
<rscale>  0 0.16740429E+04</rscale>
<asrwt>0</asrwt>
<pdfrwt beam="1">  1        1 0.84430240E-01 0.16740429E+04</pdfrwt>
<pdfrwt beam="2">  1       -1 0.19640314E+00 0.16740429E+04</pdfrwt>
<totfact> 0.59137813E+00</totfact>
</mgrwt>
</event>
<event>
12    1  0.1506149E-007  0.1485897E+04  0.7818608E-02  0.8893886E-01
         -2   -1    0    0    0  501 -0.00000000000E+00  0.00000000000E+00  0.54785902905E+03  0.54785902905E+03  0.00000000000E+00 0.  1.
          2   -1    0    0  501    0  0.00000000000E+00 -0.00000000000E+00 -0.10075083702E+04  0.10075083702E+04  0.00000000000E+00 0. -1.
         23    2    1    2    0    0 -0.99631967925E+02  0.24500684607E+03  0.25869177163E+03  0.38077210203E+03  0.90061519653E+02 0.  0.
        254    2    1    2    0    0  0.99631967925E+02 -0.24500684607E+03 -0.71834111274E+03  0.11745952972E+04  0.89090138301E+03 0.  0.
        -24    2    4    4    0    0 -0.80255936108E+02 -0.50881498548E+03 -0.65850278564E+03  0.83982739021E+03  0.79689534616E+02 0.  0.
         24    2    4    4    0    0  0.17988790403E+03  0.26380813941E+03 -0.59838327100E+02  0.33476790696E+03  0.80836462726E+02 0.  0.
         11    1    3    3    0    0 -0.99958400416E+02  0.20089812062E+03  0.16931685302E+03  0.28110484414E+03  0.00000000000E+00 0.  1.
        -11    1    3    3    0    0  0.32643249115E+00  0.44108725449E+02  0.89374918608E+02  0.99667257889E+02  0.00000000000E+00 0. -1.
          2    1    6    6  502    0  0.18659258393E+03  0.23922811506E+03 -0.60103945602E+02  0.30928848619E+03  0.00000000000E+00 0. -1.
          1    1    5    5  503    0 -0.72679680629E+02 -0.50696477585E+03 -0.65449441649E+03  0.83105869898E+03  0.00000000000E+00 0. -1.
         -2    1    5    5    0  503 -0.75762554795E+01 -0.18502096289E+01 -0.40083691535E+01  0.87686912383E+01  0.00000000000E+00 0.  1.
         -3    1    6    6    0  502 -0.67046799011E+01  0.24580024350E+02  0.26561850208E+00  0.25479420771E+02  0.00000000000E+00 0.  1.
<mgrwt>
<rscale>  0 0.14858971E+04</rscale>
<asrwt>0</asrwt>
<pdfrwt beam="1">  1        2 0.15500129E+00 0.14858971E+04</pdfrwt>
<pdfrwt beam="2">  1       -2 0.84286004E-01 0.14858971E+04</pdfrwt>
<totfact> 0.29600670E+01</totfact>
</mgrwt>
</event>
<event>
12    1  0.1506149E-007  0.1700566E+04  0.7818608E-02  0.8761041E-01
          1   -1    0    0  501    0  0.00000000000E+00  0.00000000000E+00  0.37954670917E+03  0.37954670917E+03  0.00000000000E+00 0. -1.
         -1   -1    0    0    0  501 -0.00000000000E+00 -0.00000000000E+00 -0.19048548879E+04  0.19048548879E+04  0.00000000000E+00 0.  1.
         23    2    1    2    0    0 -0.39643131450E+03 -0.31489210360E+03 -0.95989334629E+02  0.52319633267E+03  0.90584911153E+02 0.  0.
        254    2    1    2    0    0  0.39643131450E+03  0.31489210360E+03 -0.14293188441E+04  0.17612052644E+04  0.89586650859E+03 0.  0.
        -24    2    4    4    0    0  0.22027236384E+03 -0.28334017265E+02  0.40411499574E+02  0.23950819641E+03  0.80052208246E+02 0.  0.
         24    2    4    4    0    0  0.17615895066E+03  0.34322612087E+03 -0.14697303437E+04  0.15216970680E+04  0.81354395370E+02 0.  0.
         13    1    3    3    0    0 -0.36406500020E+03 -0.30567042171E+03 -0.10796024842E+03  0.48747630334E+03  0.00000000000E+00 0. -1.
        -13    1    3    3    0    0 -0.32366314297E+02 -0.92216818867E+01  0.11970913788E+02  0.35720029324E+02  0.00000000000E+00 0.  1.
          4    1    6    6  502    0  0.10529252363E+03  0.23168506316E+03 -0.11001582353E+04  0.11292088499E+04  0.00000000000E+00 0. -1.
          1    1    5    5  503    0  0.12738992393E+03  0.22826064377E+02  0.30800619131E+02  0.13303345471E+03  0.00000000000E+00 0. -1.
         -2    1    5    5    0  503  0.92882439908E+02 -0.51160081642E+02  0.96108804432E+01  0.10647474170E+03  0.00000000000E+00 0.  1.
         -3    1    6    6    0  502  0.70866427032E+02  0.11154105770E+03 -0.36957210835E+03  0.39248821805E+03  0.00000000000E+00 0.  1.
<mgrwt>
<rscale>  0 0.17005663E+04</rscale>
<asrwt>0</asrwt>
<pdfrwt beam="1">  1        1 0.58391801E-01 0.17005663E+04</pdfrwt>
<pdfrwt beam="2">  1       -1 0.29305460E+00 0.17005663E+04</pdfrwt>
<totfact> 0.22456371E+00</totfact>
</mgrwt>
</event>
<event>
12    1  0.1506149E-007  0.1597706E+04  0.7818608E-02  0.8821958E-01
         -1   -1    0    0    0  501 -0.00000000000E+00  0.00000000000E+00  0.63380674535E+03  0.63380674535E+03  0.00000000000E+00 0.  1.
          1   -1    0    0  501    0  0.00000000000E+00 -0.00000000000E+00 -0.10068786353E+04  0.10068786353E+04  0.00000000000E+00 0. -1.
         23    2    1    2    0    0  0.30692694480E+03  0.40353233744E+02 -0.58527401037E+03  0.66755684027E+03  0.85170034953E+02 0.  0.
        254    2    1    2    0    0 -0.30692694480E+03 -0.40353233744E+02  0.21220212038E+03  0.97312854042E+03  0.89784012128E+03 0.  0.
        -24    2    4    4    0    0  0.46081416143E+01 -0.13268896315E+03  0.50546165882E+03  0.52847313114E+03  0.78516023126E+02 0.  0.
         24    2    4    4    0    0 -0.31153508641E+03  0.92335729403E+02 -0.29325953844E+03  0.44465540929E+03  0.78340788429E+02 0.  0.
         13    1    3    3    0    0 -0.60539879683E+00  0.83030528638E+01 -0.41660515876E+01  0.93093061177E+01  0.00000000000E+00 0.  1.
        -13    1    3    3    0    0  0.30753234359E+03  0.32050180881E+02 -0.58110795878E+03  0.65824753415E+03  0.00000000000E+00 0. -1.
          4    1    6    6  502    0 -0.16412544019E+03  0.86233740325E+02 -0.18267511342E+03  0.26027603645E+03  0.00000000000E+00 0. -1.
          1    1    5    5  503    0  0.70959713321E+01 -0.79129439482E+02  0.42099691418E+03  0.42842761670E+03  0.00000000000E+00 0. -1.
         -2    1    5    5    0  503 -0.24878297178E+01 -0.53559523666E+02  0.84464744635E+02  0.10004551443E+03  0.00000000000E+00 0.  1.
         -3    1    6    6    0  502 -0.14740964622E+03  0.61019890788E+01 -0.11058442502E+03  0.18437937283E+03  0.00000000000E+00 0.  1.
<mgrwt>
<rscale>  0 0.15977064E+04</rscale>
<asrwt>0</asrwt>
<pdfrwt beam="1">  1        1 0.15490440E+00 0.15977064E+04</pdfrwt>
<pdfrwt beam="2">  1       -1 0.97508731E-01 0.15977064E+04</pdfrwt>
<totfact> 0.14482764E+01</totfact>
</mgrwt>
</event>
<event>
12    1  0.1506149E-007  0.1197571E+04  0.7818608E-02  0.9114985E-01
          1   -1    0    0  501    0  0.00000000000E+00  0.00000000000E+00  0.15223450950E+04  0.15223450950E+04  0.00000000000E+00 0. -1.
         -1   -1    0    0    0  501 -0.00000000000E+00 -0.00000000000E+00 -0.23552101279E+03  0.23552101279E+03  0.00000000000E+00 0.  1.
         23    2    1    2    0    0 -0.12707174423E+03  0.16889365724E+03  0.41527362204E+03  0.47495072696E+03  0.91944093012E+02 0.  0.
        254    2    1    2    0    0  0.12707174423E+03 -0.16889365724E+03  0.87155046013E+03  0.12829153808E+04  0.91738725415E+03 0.  0.
        -24    2    4    4    0    0  0.19407782348E+03  0.13267286720E+03 -0.94681541746E+02  0.26564947029E+03  0.79603740266E+02 0.  0.
         24    2    4    4    0    0 -0.67006079248E+02 -0.30156652444E+03  0.96623200188E+03  0.10172659105E+04  0.76114833599E+02 0.  0.
         11    1    3    3    0    0 -0.70086225062E+02  0.67446050569E+02  0.28056200581E+03  0.29694458706E+03  0.00000000000E+00 0. -1.
        -11    1    3    3    0    0 -0.56985519167E+02  0.10144760667E+03  0.13471161622E+03  0.17800613989E+03  0.00000000000E+00 0.  1.
          2    1    6    6  502    0 -0.12977726831E+02 -0.21730074300E+03  0.68434029284E+03  0.71812928551E+03  0.00000000000E+00 0. -1.
          1    1    5    5  503    0  0.12727001965E+03  0.12909183047E+03 -0.70656382179E+02  0.19456279947E+03  0.00000000000E+00 0. -1.
         -2    1    5    5    0  503  0.66807803826E+02  0.35810367257E+01 -0.24025159567E+02  0.71086670821E+02  0.00000000000E+00 0.  1.
         -1    1    6    6    0  502 -0.54028352416E+02 -0.84265781439E+02  0.28189170904E+03  0.29913662499E+03  0.00000000000E+00 0.  1.
<mgrwt>
<rscale>  0 0.11975713E+04</rscale>
<asrwt>0</asrwt>
<pdfrwt beam="1">  1        1 0.23420693E+00 0.11975713E+04</pdfrwt>
<pdfrwt beam="2">  1       -1 0.36234003E-01 0.11975713E+04</pdfrwt>
<totfact> 0.45548687E+01</totfact>
</mgrwt>
</event>
<event>
12    1  0.1506149E-007  0.2493959E+04  0.7818608E-02  0.8405141E-01
          1   -1    0    0  501    0  0.00000000000E+00  0.00000000000E+00  0.24630979256E+04  0.24630979256E+04  0.00000000000E+00 0. -1.
         -1   -1    0    0    0  501 -0.00000000000E+00 -0.00000000000E+00 -0.63130182502E+03  0.63130182502E+03  0.00000000000E+00 0.  1.
         23    2    1    2    0    0 -0.91738923863E+03 -0.16804722557E+03  0.89652784760E+02  0.93913004404E+03  0.63911913074E+02 0.  0.
        254    2    1    2    0    0  0.91738923863E+03  0.16804722557E+03  0.17421433158E+04  0.21552697065E+04  0.86039600769E+03 0.  0.
        -24    2    4    4    0    0  0.91954765028E+03  0.22531573892E+03  0.18062350240E+04  0.20409939149E+04  0.82680925562E+02 0.  0.
         24    2    4    4    0    0 -0.21584116523E+01 -0.57268513352E+02 -0.64091708196E+02  0.11427579165E+03  0.75278603436E+02 0.  0.
         13    1    3    3    0    0 -0.54930730604E+03 -0.73573940838E+02  0.36431414990E+02  0.55540875869E+03  0.00000000000E+00 0.  1.
        -13    1    3    3    0    0 -0.36808193259E+03 -0.94473284731E+02  0.53221369770E+02  0.38372128535E+03  0.00000000000E+00 0. -1.
          4    1    6    6  502    0  0.13245227810E+02  0.20586490448E+01 -0.49480702862E+02  0.51264159520E+02  0.00000000000E+00 0. -1.
          3    1    5    5  503    0  0.14891321086E+03  0.19725315249E+02  0.34429197808E+03  0.37563439486E+03  0.00000000000E+00 0. -1.
         -4    1    5    5    0  503  0.77063443942E+03  0.20559042367E+03  0.14619430459E+04  0.16653595200E+04  0.00000000000E+00 0.  1.
         -3    1    6    6    0  502 -0.15403639463E+02 -0.59327162397E+02 -0.14611005335E+02  0.63011632130E+02  0.00000000000E+00 0.  1.
<mgrwt>
<rscale>  0 0.24939593E+04</rscale>
<asrwt>0</asrwt>
<pdfrwt beam="1">  1        1 0.37893814E+00 0.24939593E+04</pdfrwt>
<pdfrwt beam="2">  1       -1 0.97123359E-01 0.24939593E+04</pdfrwt>
<totfact> 0.13006612E+00</totfact>
</mgrwt>
</event>
<event>
12    1  0.1506149E-007  0.2649583E+04  0.7818608E-02  0.8351551E-01
          2   -1    0    0  501    0  0.00000000000E+00  0.00000000000E+00  0.37893526607E+04  0.37893526607E+04  0.00000000000E+00 0. -1.
         -2   -1    0    0    0  501 -0.00000000000E+00 -0.00000000000E+00 -0.46315889095E+03  0.46315889095E+03  0.00000000000E+00 0.  1.
         23    2    1    2    0    0 -0.61600683213E+03 -0.78839664529E+03  0.50992768904E+03  0.11268971175E+04  0.94006264885E+02 0.  0.
        254    2    1    2    0    0  0.61600683213E+03  0.78839664529E+03  0.28162660808E+04  0.31256144342E+04  0.91491926756E+03 0.  0.
        -24    2    4    4    0    0  0.45429681984E+03  0.28987775948E+03  0.23724522957E+04  0.24342188055E+04  0.80477212415E+02 0.  0.
         24    2    4    4    0    0  0.16171001230E+03  0.49851888580E+03  0.44381378508E+03  0.69139562873E+03  0.79912652415E+02 0.  0.
         11    1    3    3    0    0 -0.82129137318E+02 -0.14637556644E+03  0.11318597407E+03  0.20244027853E+03  0.00000000000E+00 0. -1.
        -11    1    3    3    0    0 -0.53387769481E+03 -0.64202107884E+03  0.39674171497E+03  0.92445683896E+03  0.00000000000E+00 0.  1.
          4    1    6    6  502    0  0.66733284959E+02  0.11388204712E+03  0.85951808391E+02  0.15751242917E+03  0.00000000000E+00 0. -1.
          3    1    5    5  503    0  0.16322059870E+03  0.14489339237E+03  0.86742987213E+03  0.89446612125E+03  0.00000000000E+00 0. -1.
         -4    1    5    5    0  503  0.29107622114E+03  0.14498436711E+03  0.15050224235E+04  0.15397526842E+04  0.00000000000E+00 0.  1.
         -3    1    6    6    0  502  0.94976727336E+02  0.38463683869E+03  0.35786197669E+03  0.53388319956E+03  0.00000000000E+00 0.  1.
<mgrwt>
<rscale>  0 0.26495829E+04</rscale>
<asrwt>0</asrwt>
<pdfrwt beam="1">  1        2 0.58297731E+00 0.26495829E+04</pdfrwt>
<pdfrwt beam="2">  1       -2 0.71255216E-01 0.26495829E+04</pdfrwt>
<totfact> 0.78904104E-01</totfact>
</mgrwt>
</event>
<event>
12    1  0.1506149E-007  0.1230556E+04  0.7818608E-02  0.9086523E-01
          1   -1    0    0  501    0  0.00000000000E+00  0.00000000000E+00  0.61761336248E+03  0.61761336248E+03  0.00000000000E+00 0. -1.
         -1   -1    0    0    0  501 -0.00000000000E+00 -0.00000000000E+00 -0.61295176964E+03  0.61295176964E+03  0.00000000000E+00 0.  1.
         23    2    1    2    0    0  0.26196883984E+03 -0.31186055597E+01  0.34638532124E+02  0.29158289597E+03  0.12322077165E+03 0.  0.
        254    2    1    2    0    0 -0.26196883984E+03  0.31186055597E+01 -0.29976939282E+02  0.93898223615E+03  0.90119455400E+03 0.  0.
        -24    2    4    4    0    0 -0.10941099245E+02  0.39036988285E+03 -0.19302464767E+03  0.44314780500E+03  0.81321026714E+02 0.  0.
         24    2    4    4    0    0 -0.25102774060E+03 -0.38725127729E+03  0.16304770839E+03  0.49583443115E+03  0.79301636759E+02 0.  0.
         13    1    3    3    0    0  0.76212292084E+01 -0.30928273404E+02  0.14288932566E+02  0.34911528530E+02  0.00000000000E+00 0.  1.
        -13    1    3    3    0    0  0.25434761064E+03  0.27809667845E+02  0.20349599558E+02  0.25667136744E+03  0.00000000000E+00 0. -1.
          2    1    6    6  502    0 -0.81468986339E+01 -0.26126275915E+02 -0.75481860405E+01  0.28388895066E+02  0.00000000000E+00 0. -1.
          3    1    5    5  503    0  0.25562297530E+00  0.13671098177E+02 -0.29144747114E+02  0.32192864936E+02  0.00000000000E+00 0. -1.
         -4    1    5    5    0  503 -0.11196722220E+02  0.37669878467E+03 -0.16387990055E+03  0.41095494007E+03  0.00000000000E+00 0.  1.
         -1    1    6    6    0  502 -0.24288084197E+03 -0.36112500137E+03  0.17059589443E+03  0.46744553608E+03  0.00000000000E+00 0.  1.
<mgrwt>
<rscale>  0 0.12305563E+04</rscale>
<asrwt>0</asrwt>
<pdfrwt beam="1">  1        1 0.95017440E-01 0.12305563E+04</pdfrwt>
<pdfrwt beam="2">  1       -1 0.94300272E-01 0.12305563E+04</pdfrwt>
<totfact> 0.35324052E+01</totfact>
</mgrwt>
</event>
<event>
12    1  0.1506149E-007  0.1209073E+04  0.7818608E-02  0.9104952E-01
         -1   -1    0    0    0  501 -0.00000000000E+00  0.00000000000E+00  0.28847777504E+03  0.28847777504E+03  0.00000000000E+00 0.  1.
          1   -1    0    0  501    0  0.00000000000E+00 -0.00000000000E+00 -0.12668711902E+04  0.12668711902E+04  0.00000000000E+00 0. -1.
         23    2    1    2    0    0  0.55386878107E+01 -0.24632558237E+03 -0.31071023464E+03  0.40672646051E+03  0.90435580240E+02 0.  0.
        254    2    1    2    0    0 -0.55386878107E+01  0.24632558237E+03 -0.66768318051E+03  0.11486225047E+04  0.90156855494E+03 0.  0.
        -24    2    4    4    0    0  0.34222287749E+03 -0.28995896463E+01 -0.61776254276E+03  0.71068249715E+03  0.79461607225E+02 0.  0.
         24    2    4    4    0    0 -0.34776156530E+03  0.24922517201E+03 -0.49920637748E+02  0.43794000759E+03  0.79044844922E+02 0.  0.
         13    1    3    3    0    0 -0.28458609286E+02 -0.20103745907E+03 -0.26564230184E+03  0.33435278512E+03  0.00000000000E+00 0. -1.
        -13    1    3    3    0    0  0.33997297097E+02 -0.45288123300E+02 -0.45067932806E+02  0.72373675389E+02  0.00000000000E+00 0.  1.
          4    1    6    6  502    0 -0.16158911972E+02 -0.51073433561E+01 -0.47502763421E+01  0.17600014705E+02  0.00000000000E+00 0. -1.
          3    1    5    5  503    0  0.85792589235E+02  0.73785903531E+01 -0.94335678087E+02  0.12772639556E+03  0.00000000000E+00 0. -1.
         -4    1    5    5    0  503  0.25643028825E+03 -0.10278179999E+02 -0.52342686467E+03  0.58295610158E+03  0.00000000000E+00 0.  1.
         -3    1    6    6    0  502 -0.33160265332E+03  0.25433251537E+03 -0.45170361406E+02  0.42033999288E+03  0.00000000000E+00 0.  1.
<mgrwt>
<rscale>  0 0.12090727E+04</rscale>
<asrwt>0</asrwt>
<pdfrwt beam="1">  1        1 0.19490326E+00 0.12090727E+04</pdfrwt>
<pdfrwt beam="2">  1       -1 0.44381196E-01 0.12090727E+04</pdfrwt>
<totfact> 0.47478327E+01</totfact>
</mgrwt>
</event>
<event>
12    1  0.1506149E-007  0.2598559E+04  0.7818608E-02  0.8368691E-01
         -1   -1    0    0    0  501 -0.00000000000E+00  0.00000000000E+00  0.19669739011E+04  0.19669739011E+04  0.00000000000E+00 0.  1.
          1   -1    0    0  501    0  0.00000000000E+00 -0.00000000000E+00 -0.85823537034E+03  0.85823537034E+03  0.00000000000E+00 0. -1.
         23    2    1    2    0    0  0.30450294955E+03 -0.97372373927E+03  0.10364882434E+04  0.14571723830E+04  0.90462745929E+02 0.  0.
        254    2    1    2    0    0 -0.30450294955E+03  0.97372373927E+03  0.72250287337E+02  0.13680368884E+04  0.90853995913E+03 0.  0.
        -24    2    4    4    0    0  0.13954027437E+02  0.39480415813E+03  0.44899664328E+03  0.60333382002E+03  0.79678570173E+02 0.  0.
         24    2    4    4    0    0 -0.31845697699E+03  0.57891958114E+03 -0.37674635594E+03  0.76470306839E+03  0.79184837418E+02 0.  0.
         13    1    3    3    0    0  0.10475507841E+03 -0.36894855056E+03  0.32985511610E+03  0.50586663957E+03  0.00000000000E+00 0. -1.
        -13    1    3    3    0    0  0.19974787113E+03 -0.60477518871E+03  0.70663312731E+03  0.95130574345E+03  0.00000000000E+00 0.  1.
          2    1    6    6  502    0 -0.58264815784E+02  0.67024435386E+02 -0.29175472070E+02  0.93478724144E+02  0.00000000000E+00 0. -1.
          3    1    5    5  503    0  0.85336478528E+01  0.10125291831E+03  0.67709988618E+02  0.12210495146E+03  0.00000000000E+00 0. -1.
         -4    1    5    5    0  503  0.54203795847E+01  0.29355123983E+03  0.38128665466E+03  0.48122886856E+03  0.00000000000E+00 0.  1.
         -1    1    6    6    0  502 -0.26019216120E+03  0.51189514575E+03 -0.34757088387E+03  0.67122434424E+03  0.00000000000E+00 0.  1.
<mgrwt>
<rscale>  0 0.25985585E+04</rscale>
<asrwt>0</asrwt>
<pdfrwt beam="1">  1        1 0.13203621E+00 0.25985585E+04</pdfrwt>
<pdfrwt beam="2">  1       -1 0.30261137E+00 0.25985585E+04</pdfrwt>
<totfact> 0.55145578E-01</totfact>
</mgrwt>
</event>
<event>
12    1  0.1506149E-007  0.1517930E+04  0.7818608E-02  0.8872617E-01
         -1   -1    0    0    0  501 -0.00000000000E+00  0.00000000000E+00  0.50547941299E+03  0.50547941299E+03  0.00000000000E+00 0.  1.
          1   -1    0    0  501    0  0.00000000000E+00 -0.00000000000E+00 -0.11395671263E+04  0.11395671263E+04  0.00000000000E+00 0. -1.
         23    2    1    2    0    0 -0.25307458169E+03 -0.83128746916E+02 -0.65048949820E+03  0.70802833369E+03  0.84914083480E+02 0.  0.
        254    2    1    2    0    0  0.25307458169E+03  0.83128746916E+02  0.16401784924E+02  0.93701820556E+03  0.89820764111E+03 0.  0.
        -24    2    4    4    0    0  0.20429055797E+02 -0.51383825400E+02 -0.41302620344E+03  0.42413216653E+03  0.78992443435E+02 0.  0.
         24    2    4    4    0    0  0.23264552589E+03  0.13451257232E+03  0.42942798837E+03  0.51288603904E+03  0.80163077641E+02 0.  0.
         11    1    3    3    0    0 -0.18215615541E+03 -0.98339431764E+02 -0.47595039818E+03  0.51901858379E+03  0.00000000000E+00 0. -1.
        -11    1    3    3    0    0 -0.70918426282E+02  0.15210684848E+02 -0.17453910003E+03  0.18900974990E+03  0.00000000000E+00 0.  1.
          4    1    6    6  502    0  0.18970289754E+02  0.10578555584E+02  0.93058983951E+02  0.95560202101E+02  0.00000000000E+00 0. -1.
          1    1    5    5  503    0  0.65222728911E+01  0.15949905030E+02 -0.26996203239E+02  0.32027090149E+02  0.00000000000E+00 0. -1.
         -2    1    5    5    0  503  0.13906782906E+02 -0.67333730430E+02 -0.38603000020E+03  0.39210507638E+03  0.00000000000E+00 0.  1.
         -3    1    6    6    0  502  0.21367523614E+03  0.12393401673E+03  0.33636900442E+03  0.41732583693E+03  0.00000000000E+00 0.  1.
<mgrwt>
<rscale>  0 0.15179298E+04</rscale>
<asrwt>0</asrwt>
<pdfrwt beam="1">  1        1 0.17531802E+00 0.15179298E+04</pdfrwt>
<pdfrwt beam="2">  1       -1 0.77766064E-01 0.15179298E+04</pdfrwt>
<totfact> 0.18952163E+01</totfact>
</mgrwt>
</event>
<event>
12    1  0.1506149E-007  0.1383286E+04  0.7818608E-02  0.8966006E-01
          1   -1    0    0  501    0  0.00000000000E+00  0.00000000000E+00  0.89181945856E+03  0.89181945856E+03  0.00000000000E+00 0. -1.
         -1   -1    0    0    0  501 -0.00000000000E+00 -0.00000000000E+00 -0.53639811962E+03  0.53639811962E+03  0.00000000000E+00 0.  1.
         23    2    1    2    0    0  0.27428275651E+03 -0.10554885890E+03  0.40151974399E+03  0.50553138413E+03  0.89287644097E+02 0.  0.
        254    2    1    2    0    0 -0.27428275651E+03  0.10554885890E+03 -0.46098405048E+02  0.92268619406E+03  0.87341465389E+03 0.  0.
        -24    2    4    4    0    0  0.12691085983E+03  0.14136347218E+03 -0.35376009956E+03  0.40961030332E+03  0.80897434638E+02 0.  0.
         24    2    4    4    0    0 -0.40119361635E+03 -0.35814613280E+02  0.30766169451E+03  0.51307589074E+03  0.79700358025E+02 0.  0.
         13    1    3    3    0    0  0.11261280463E+03 -0.41622283457E+02  0.23941108766E+03  0.26782779382E+03  0.00000000000E+00 0. -1.
        -13    1    3    3    0    0  0.16166995188E+03 -0.63926575448E+02  0.16210865633E+03  0.23770359031E+03  0.00000000000E+00 0.  1.
          4    1    6    6  502    0  0.56032593508E+00 -0.72617517002E+01  0.22989035066E+01  0.76375362678E+01  0.00000000000E+00 0. -1.
          1    1    5    5  503    0  0.74562113768E+02  0.12575296403E+03 -0.21049490118E+03  0.25628386643E+03  0.00000000000E+00 0. -1.
         -2    1    5    5    0  503  0.52348746067E+02  0.15610508150E+02 -0.14326519839E+03  0.15332643688E+03  0.00000000000E+00 0.  1.
         -3    1    6    6    0  502 -0.40175394228E+03 -0.28552861580E+02  0.30536279101E+03  0.50543835448E+03  0.00000000000E+00 0.  1.
<mgrwt>
<rscale>  0 0.13832863E+04</rscale>
<asrwt>0</asrwt>
<pdfrwt beam="1">  1        1 0.13720299E+00 0.13832863E+04</pdfrwt>
<pdfrwt beam="2">  1       -1 0.82522788E-01 0.13832863E+04</pdfrwt>
<totfact> 0.26343325E+01</totfact>
</mgrwt>
</event>
<event>
12    1  0.1506149E-007  0.1860699E+04  0.7818608E-02  0.8674670E-01
          2   -1    0    0  501    0  0.00000000000E+00  0.00000000000E+00  0.33933781522E+04  0.33933781522E+04  0.00000000000E+00 0.  1.
         -2   -1    0    0    0  501 -0.00000000000E+00 -0.00000000000E+00 -0.25507035204E+03  0.25507035204E+03  0.00000000000E+00 0. -1.
         23    2    1    2    0    0 -0.81825814292E+02 -0.62542010826E+03  0.58600273371E+03  0.86587091554E+03  0.92127426796E+02 0.  0.
        254    2    1    2    0    0  0.81825814292E+02  0.62542010826E+03  0.25523050664E+04  0.27825775887E+04  0.91138965826E+03 0.  0.
        -24    2    4    4    0    0  0.43344216683E+03  0.80651045713E+02  0.89535675890E+03  0.10014577280E+04  0.82928596414E+02 0.  0.
         24    2    4    4    0    0 -0.35161635254E+03  0.54476906254E+03  0.16569483075E+04  0.17811198607E+04  0.80640395495E+02 0.  0.
         11    1    3    3    0    0 -0.94441167355E+02 -0.51783191219E+03  0.45403776017E+03  0.69513977806E+03  0.00000000000E+00 0. -1.
        -11    1    3    3    0    0  0.12615353063E+02 -0.10758819606E+03  0.13196497354E+03  0.17073113749E+03  0.00000000000E+00 0.  1.
          4    1    6    6  502    0 -0.25036626998E+03  0.44622690939E+03  0.13244273865E+04  0.14198273226E+04  0.00000000000E+00 0. -1.
          1    1    5    5  503    0  0.25578175376E+03  0.28243278215E+02  0.59954343159E+03  0.65243721129E+03  0.00000000000E+00 0. -1.
         -2    1    5    5    0  503  0.17766041308E+03  0.52407767498E+02  0.29581332731E+03  0.34902051671E+03  0.00000000000E+00 0.  1.
         -3    1    6    6    0  502 -0.10125008257E+03  0.98542153154E+02  0.33252092102E+03  0.36129253810E+03  0.00000000000E+00 0.  1.
<mgrwt>
<rscale>  0 0.18606990E+04</rscale>
<asrwt>0</asrwt>
<pdfrwt beam="1">  1        2 0.52205815E+00 0.18606990E+04</pdfrwt>
<pdfrwt beam="2">  1       -2 0.39241595E-01 0.18606990E+04</pdfrwt>
<totfact> 0.55927541E+00</totfact>
</mgrwt>
</event>
<event>
12    1  0.1506149E-007  0.1466310E+04  0.7818608E-02  0.8907171E-01
         -1   -1    0    0    0  501 -0.00000000000E+00  0.00000000000E+00  0.54799153514E+03  0.54799153514E+03  0.00000000000E+00 0. -1.
          1   -1    0    0  501    0  0.00000000000E+00 -0.00000000000E+00 -0.98088361398E+03  0.98088361398E+03  0.00000000000E+00 0.  1.
         23    2    1    2    0    0 -0.25384733351E+03 -0.23165223886E+03 -0.44112193129E+03  0.56655872465E+03  0.91098856801E+02 0.  0.
        254    2    1    2    0    0  0.25384733351E+03  0.23165223886E+03  0.82298524559E+01  0.96231642447E+03  0.89882364335E+03 0.  0.
        -24    2    4    4    0    0  0.36100729773E+03  0.50141362326E+03 -0.12073596596E+03  0.63481403905E+03  0.81668844049E+02 0.  0.
         24    2    4    4    0    0 -0.10715996423E+03 -0.26976138441E+03  0.12896581841E+03  0.32750238542E+03  0.79819594644E+02 0.  0.
         11    1    3    3    0    0 -0.57360273950E+02 -0.81374419140E+02 -0.18741265078E+03  0.21221568931E+03  0.00000000000E+00 0.  1.
        -11    1    3    3    0    0 -0.19648705956E+03 -0.15027781972E+03 -0.25370928051E+03  0.35434303534E+03  0.00000000000E+00 0. -1.
          2    1    6    6  502    0 -0.17397732374E+02 -0.27011876798E+01  0.16543128579E+02  0.24158903324E+02  0.00000000000E+00 0. -1.
          1    1    5    5  503    0  0.17335899837E+03  0.17586190748E+03 -0.60629533259E+02  0.25427680414E+03  0.00000000000E+00 0. -1.
         -2    1    5    5    0  503  0.18764829936E+03  0.32555171579E+03 -0.60106432700E+02  0.38053723491E+03  0.00000000000E+00 0.  1.
         -1    1    6    6    0  502 -0.89762231853E+02 -0.26706019673E+03  0.11242268984E+03  0.30334348210E+03  0.00000000000E+00 0.  1.
<mgrwt>
<rscale>  0 0.14663095E+04</rscale>
<asrwt>0</asrwt>
<pdfrwt beam="1">  1        1 0.15090517E+00 0.14663095E+04</pdfrwt>
<pdfrwt beam="2">  1       -1 0.84306390E-01 0.14663095E+04</pdfrwt>
<totfact> 0.21179595E+01</totfact>
</mgrwt>
</event>
<event>
12    1  0.1506149E-007  0.1520602E+04  0.7818608E-02  0.8870867E-01
         -2   -1    0    0    0  501 -0.00000000000E+00  0.00000000000E+00  0.69987813198E+03  0.69987813198E+03  0.00000000000E+00 0. -1.
          2   -1    0    0  501    0  0.00000000000E+00 -0.00000000000E+00 -0.82594057136E+03  0.82594057136E+03  0.00000000000E+00 0.  1.
         23    2    1    2    0    0  0.16342407496E+02  0.95711756039E+02  0.44324381253E+03  0.46009421787E+03  0.76116998406E+02 0.  0.
        254    2    1    2    0    0 -0.16342407496E+02 -0.95711756039E+02 -0.56930625191E+03  0.10657244855E+04  0.89567363250E+03 0.  0.
        -24    2    4    4    0    0  0.64707827154E+02 -0.12579892118E+03 -0.79488801541E+03  0.81131074308E+03  0.79785295193E+02 0.  0.
         24    2    4    4    0    0 -0.81050234649E+02  0.30087165146E+02  0.22558176350E+03  0.25441374240E+03  0.79779961485E+02 0.  0.
         13    1    3    3    0    0 -0.19731531043E+02  0.10768568799E+02  0.35356583525E+02  0.41897295735E+02  0.00000000000E+00 0.  1.
        -13    1    3    3    0    0  0.36073938539E+02  0.84943187239E+02  0.40788722900E+03  0.41819692213E+03  0.00000000000E+00 0. -1.
          2    1    6    6  502    0 -0.10700446132E+02  0.82945034437E+01  0.14349052377E+03  0.14412782087E+03  0.00000000000E+00 0. -1.
          3    1    5    5  503    0  0.42104276444E+02 -0.51007072387E+02 -0.55716429002E+03  0.56107623155E+03  0.00000000000E+00 0. -1.
         -4    1    5    5    0  503  0.22603550710E+02 -0.74791848797E+02 -0.23772372538E+03  0.25023451153E+03  0.00000000000E+00 0.  1.
         -1    1    6    6    0  502 -0.70349788517E+02  0.21792661702E+02  0.82091239724E+02  0.11028592153E+03  0.00000000000E+00 0.  1.
<mgrwt>
<rscale>  0 0.15206022E+04</rscale>
<asrwt>0</asrwt>
<pdfrwt beam="1">  1        2 0.12706778E+00 0.15206022E+04</pdfrwt>
<pdfrwt beam="2">  1       -2 0.10767356E+00 0.15206022E+04</pdfrwt>
<totfact> 0.22030642E+01</totfact>
</mgrwt>
</event>
<event>
12    1  0.2089213E-007  0.1488883E+04  0.7818608E-02  0.8891879E-01
          2   -1    0    0  501    0  0.00000000000E+00  0.00000000000E+00  0.19013054892E+04  0.19013054892E+04  0.00000000000E+00 0. -1.
         -2   -1    0    0    0  501 -0.00000000000E+00 -0.00000000000E+00 -0.29148029061E+03  0.29148029061E+03  0.00000000000E+00 0.  1.
         23    2    1    2    0    0 -0.38074145143E+03  0.21378254410E+03  0.77863538798E+03  0.89752967879E+03  0.92840874085E+02 0.  0.
        254    2    1    2    0    0  0.38074145143E+03 -0.21378254410E+03  0.83118981060E+03  0.12952561010E+04  0.89226948671E+03 0.  0.
        -24    2    4    4    0    0 -0.16045699880E+03 -0.42036467981E+02 -0.94036214305E+02  0.20673097611E+03  0.79883501285E+02 0.  0.
         24    2    4    4    0    0  0.54119845024E+03 -0.17174607612E+03  0.92522602490E+03  0.10885251249E+04  0.80319817858E+02 0.  0.
         11    1    3    3    0    0 -0.86380195808E+02  0.52031944479E+02  0.10969780216E+03  0.14900493037E+03  0.00000000000E+00 0. -1.
        -11    1    3    3    0    0 -0.29436125563E+03  0.16175059962E+03  0.66893758581E+03  0.74852474843E+03  0.00000000000E+00 0.  1.
          4    1    6    6  502    0  0.14292847118E+03 -0.22840654948E+02  0.18529903232E+03  0.23512969776E+03  0.00000000000E+00 0. -1.
          3    1    5    5  503    0 -0.20495725938E+02 -0.12946846900E+01  0.14373798034E+02  0.25067051284E+02  0.00000000000E+00 0. -1.
         -2    1    5    5    0  503 -0.13996127287E+03 -0.40741783291E+02 -0.10841001234E+03  0.18166392483E+03  0.00000000000E+00 0.  1.
         -3    1    6    6    0  502  0.39826997906E+03 -0.14890542117E+03  0.73992699258E+03  0.85339542712E+03  0.00000000000E+00 0.  1.
<mgrwt>
<rscale>  0 0.14888829E+04</rscale>
<asrwt>0</asrwt>
<pdfrwt beam="1">  1        2 0.29250853E+00 0.14888829E+04</pdfrwt>
<pdfrwt beam="2">  1       -2 0.44843123E-01 0.14888829E+04</pdfrwt>
<totfact> 0.34576786E+01</totfact>
</mgrwt>
</event>
<event>
12    1  0.1506149E-007  0.1507684E+04  0.7818608E-02  0.8879359E-01
          1   -1    0    0  501    0  0.00000000000E+00  0.00000000000E+00  0.33341292410E+04  0.33341292410E+04  0.00000000000E+00 0. -1.
         -1   -1    0    0    0  501 -0.00000000000E+00 -0.00000000000E+00 -0.17044261815E+03  0.17044261815E+03  0.00000000000E+00 0.  1.
         23    2    1    2    0    0  0.26128006683E+03 -0.22495606757E+02  0.13958515334E+03  0.31262817080E+03  0.97360323023E+02 0.  0.
        254    2    1    2    0    0 -0.26128006683E+03  0.22495606757E+02  0.30241014695E+04  0.31919436884E+04  0.98718867803E+03 0.  0.
        -24    2    4    4    0    0 -0.46100232712E+03  0.38117144408E+03  0.18457985331E+04  0.19416465015E+04  0.72139424757E+02 0.  0.
         24    2    4    4    0    0  0.19972226028E+03 -0.35867583732E+03  0.11783029364E+04  0.12502971868E+04  0.79422339118E+02 0.  0.
         11    1    3    3    0    0 -0.37915439695E+01 -0.88532104221E+01 -0.44872242025E+01  0.10624985717E+02  0.00000000000E+00 0. -1.
        -11    1    3    3    0    0  0.26507161080E+03 -0.13642396335E+02  0.14407237754E+03  0.30200318508E+03  0.00000000000E+00 0.  1.
          2    1    6    6  502    0  0.18995071584E+03 -0.28600452167E+03  0.92806716539E+03  0.98953955168E+03  0.00000000000E+00 0. -1.
          3    1    5    5  503    0 -0.38589143704E+03  0.32699214812E+03  0.16337502055E+04  0.17102560628E+04  0.00000000000E+00 0. -1.
         -4    1    5    5    0  503 -0.75110890079E+02  0.54179295961E+02  0.21204832760E+03  0.23139043878E+03  0.00000000000E+00 0.  1.
         -1    1    6    6    0  502  0.97715444414E+01 -0.72671315650E+02  0.25023577100E+03  0.26075763515E+03  0.00000000000E+00 0.  1.
<mgrwt>
<rscale>  0 0.15076839E+04</rscale>
<asrwt>0</asrwt>
<pdfrwt beam="1">  1        1 0.51294291E+00 0.15076839E+04</pdfrwt>
<pdfrwt beam="2">  1       -1 0.26221944E-01 0.15076839E+04</pdfrwt>
<totfact> 0.42346829E+00</totfact>
</mgrwt>
</event>
<event>
12    1  0.1506149E-007  0.1426931E+04  0.7818608E-02  0.8934552E-01
          2   -1    0    0  501    0  0.00000000000E+00  0.00000000000E+00  0.35600307174E+03  0.35600307174E+03  0.00000000000E+00 0. -1.
         -2   -1    0    0    0  501 -0.00000000000E+00 -0.00000000000E+00 -0.14298563288E+04  0.14298563288E+04  0.00000000000E+00 0.  1.
         23    2    1    2    0    0 -0.16746177423E+03 -0.35466692337E+03 -0.51161546872E+03  0.65117474333E+03  0.91902590606E+02 0.  0.
        254    2    1    2    0    0  0.16746177423E+03  0.35466692337E+03 -0.56223778832E+03  0.11346846572E+04  0.90419349052E+03 0.  0.
        -24    2    4    4    0    0 -0.95810135424E+02  0.33893505145E+03  0.13388349560E+03  0.38570495500E+03  0.82383073284E+02 0.  0.
         24    2    4    4    0    0  0.26327190965E+03  0.15731871919E+02 -0.69612128392E+03  0.74897970220E+03  0.82620591670E+02 0.  0.
         13    1    3    3    0    0 -0.59155446254E+02 -0.12511636944E+03 -0.11328131766E+03  0.17884666521E+03  0.00000000000E+00 0. -1.
        -13    1    3    3    0    0 -0.10830632797E+03 -0.22955055392E+03 -0.39833415106E+03  0.47232807813E+03  0.00000000000E+00 0.  1.
          2    1    6    6  502    0  0.11103698551E+03 -0.10248905479E+02 -0.19534761835E+03  0.22493319944E+03  0.00000000000E+00 0. -1.
          1    1    5    5  503    0  0.65112960977E+01  0.76622484264E+01 -0.61410957115E+01  0.11782193529E+02  0.00000000000E+00 0. -1.
         -2    1    5    5    0  503 -0.10232143152E+03  0.33127280302E+03  0.14002459131E+03  0.37392276147E+03  0.00000000000E+00 0.  1.
         -1    1    6    6    0  502  0.15223492414E+03  0.25980777398E+02 -0.50077366557E+03  0.52404650276E+03  0.00000000000E+00 0.  1.
<mgrwt>
<rscale>  0 0.14269313E+04</rscale>
<asrwt>0</asrwt>
<pdfrwt beam="1">  1        2 0.54769704E-01 0.14269313E+04</pdfrwt>
<pdfrwt beam="2">  1       -2 0.21997790E+00 0.14269313E+04</pdfrwt>
<totfact> 0.87034613E+00</totfact>
</mgrwt>
</event>
<event>
12    1  0.1506149E-007  0.2348687E+04  0.7818608E-02  0.8458968E-01
          1   -1    0    0  501    0  0.00000000000E+00  0.00000000000E+00  0.43968167285E+04  0.43968167285E+04  0.00000000000E+00 0. -1.
         -1   -1    0    0    0  501 -0.00000000000E+00 -0.00000000000E+00 -0.31365477443E+03  0.31365477443E+03  0.00000000000E+00 0.  1.
         23    2    1    2    0    0  0.85653341851E+03  0.26913796512E+03  0.86334116639E+03  0.12489835185E+04  0.92288236068E+02 0.  0.
        254    2    1    2    0    0 -0.85653341851E+03 -0.26913796512E+03  0.32198207876E+04  0.34614879844E+04  0.89920432635E+03 0.  0.
        -24    2    4    4    0    0 -0.82567964005E+03 -0.70196385265E+00  0.29738770297E+04  0.30875222097E+04  0.84270084693E+02 0.  0.
         24    2    4    4    0    0 -0.30853778465E+02 -0.26843600127E+03  0.24594375798E+03  0.37396577472E+03  0.79700854129E+02 0.  0.
         13    1    3    3    0    0  0.81944615342E+03  0.23736801855E+03  0.82630594910E+03  0.11876940246E+04  0.00000000000E+00 0.  1.
        -13    1    3    3    0    0  0.37087265095E+02  0.31769946564E+02  0.37035217291E+02  0.61289493853E+02  0.00000000000E+00 0. -1.
          4    1    6    6  502    0 -0.50484705222E+02 -0.23561365759E+03  0.19339294699E+03  0.30897141138E+03  0.00000000000E+00 0. -1.
          3    1    5    5  503    0 -0.71349159837E+03  0.19560083943E+02  0.26363393180E+04  0.27312520678E+04  0.00000000000E+00 0. -1.
         -4    1    5    5    0  503 -0.11218804168E+03 -0.20262047796E+02  0.33753771164E+03  0.35627014196E+03  0.00000000000E+00 0.  1.
         -3    1    6    6    0  502  0.19630926758E+02 -0.32822343672E+02  0.52550810990E+02  0.64994363334E+02  0.00000000000E+00 0.  1.
<mgrwt>
<rscale>  0 0.23486869E+04</rscale>
<asrwt>0</asrwt>
<pdfrwt beam="1">  1        1 0.67643330E+00 0.23486869E+04</pdfrwt>
<pdfrwt beam="2">  1       -1 0.48254584E-01 0.23486869E+04</pdfrwt>
<totfact> 0.15927224E-01</totfact>
</mgrwt>
</event>
<event>
12    1  0.1506149E-007  0.2243913E+04  0.7818608E-02  0.8500370E-01
          2   -1    0    0  501    0  0.00000000000E+00  0.00000000000E+00  0.13094527954E+04  0.13094527954E+04  0.00000000000E+00 0. -1.
         -2   -1    0    0    0  501 -0.00000000000E+00 -0.00000000000E+00 -0.96130749898E+03  0.96130749898E+03  0.00000000000E+00 0.  1.
         23    2    1    2    0    0 -0.36358015905E+03 -0.70041044020E+03 -0.37403253353E+03  0.87801814070E+03  0.90830625224E+02 0.  0.
        254    2    1    2    0    0  0.36358015905E+03  0.70041044020E+03  0.72217782990E+03  0.13927421536E+04  0.89186578122E+03 0.  0.
        -24    2    4    4    0    0  0.55369907875E+03  0.52602240655E+03  0.80315225928E+03  0.11113742763E+04  0.82565056257E+02 0.  0.
         24    2    4    4    0    0 -0.19011891970E+03  0.17438803365E+03 -0.80974429381E+02  0.28136787730E+03  0.77811530350E+02 0.  0.
         11    1    3    3    0    0 -0.25004301717E+03 -0.45613942897E+03 -0.19988995070E+03  0.55726177106E+03  0.00000000000E+00 0. -1.
        -11    1    3    3    0    0 -0.11353714188E+03 -0.24427101122E+03 -0.17414258283E+03  0.32075636964E+03  0.00000000000E+00 0.  1.
          4    1    6    6  502    0 -0.28459508268E+01 -0.58015683391E+00 -0.16955261075E+02  0.17202235209E+02  0.00000000000E+00 0. -1.
          3    1    5    5  503    0  0.36763859332E+03  0.31479736916E+03  0.46222369360E+03  0.66925799349E+03  0.00000000000E+00 0. -1.
         -4    1    5    5    0  503  0.18606048543E+03  0.21122503739E+03  0.34092856568E+03  0.44211628284E+03  0.00000000000E+00 0.  1.
         -3    1    6    6    0  502 -0.18727296887E+03  0.17496819048E+03 -0.64019168305E+02  0.26416564209E+03  0.00000000000E+00 0.  1.
<mgrwt>
<rscale>  0 0.22439134E+04</rscale>
<asrwt>0</asrwt>
<pdfrwt beam="1">  1        2 0.20145428E+00 0.22439134E+04</pdfrwt>
<pdfrwt beam="2">  1       -2 0.14789346E+00 0.22439134E+04</pdfrwt>
<totfact> 0.46248636E+00</totfact>
</mgrwt>
</event>
<event>
12    1  0.1506149E-007  0.1626118E+04  0.7818608E-02  0.8804661E-01
         -3   -1    0    0    0  501 -0.00000000000E+00  0.00000000000E+00  0.10080483019E+04  0.10080483019E+04  0.00000000000E+00 0.  1.
          3   -1    0    0  501    0  0.00000000000E+00 -0.00000000000E+00 -0.65578729074E+03  0.65578729074E+03  0.00000000000E+00 0. -1.
         23    2    1    2    0    0 -0.41272374241E+03 -0.30286797067E+03  0.34914875928E+03  0.62610572803E+03  0.89630526952E+02 0.  0.
        254    2    1    2    0    0  0.41272374241E+03  0.30286797067E+03  0.31122518585E+01  0.10377298646E+04  0.90266477195E+03 0.  0.
        -24    2    4    4    0    0 -0.24405391414E+03 -0.14236990336E+02 -0.13630235058E+03  0.29089912327E+03  0.79239915729E+02 0.  0.
         24    2    4    4    0    0  0.65677765655E+03  0.31710496101E+03  0.13941460244E+03  0.74683074131E+03  0.80045476747E+02 0.  0.
         11    1    3    3    0    0 -0.16466374956E+03 -0.10960411544E+03  0.84484928381E+02  0.21509280710E+03  0.00000000000E+00 0.  1.
        -11    1    3    3    0    0 -0.24805999285E+03 -0.19326385524E+03  0.26466383090E+03  0.41101292094E+03  0.00000000000E+00 0. -1.
          4    1    6    6  502    0  0.44700008366E+03  0.22710852491E+03  0.59147440887E+02  0.50486213627E+03  0.00000000000E+00 0. -1.
          1    1    5    5  503    0 -0.73465020005E+02  0.29900571699E+02 -0.28229820158E+02  0.84190712661E+02  0.00000000000E+00 0. -1.
         -2    1    5    5    0  503 -0.17058889414E+03 -0.44137562035E+02 -0.10807253042E+03  0.20670841061E+03  0.00000000000E+00 0.  1.
         -3    1    6    6    0  502  0.20977757289E+03  0.89996436094E+02  0.80267161551E+02  0.24196860504E+03  0.00000000000E+00 0.  1.
<mgrwt>
<rscale>  0 0.16261184E+04</rscale>
<asrwt>0</asrwt>
<pdfrwt beam="1">  1        3 0.10089035E+00 0.16261184E+04</pdfrwt>
<pdfrwt beam="2">  1       -3 0.15508435E+00 0.16261184E+04</pdfrwt>
<totfact> 0.63471716E-01</totfact>
</mgrwt>
</event>
<event>
12    1  0.1506149E-007  0.1646925E+04  0.7818608E-02  0.8792228E-01
          1   -1    0    0  501    0  0.00000000000E+00  0.00000000000E+00  0.11083505161E+04  0.11083505161E+04  0.00000000000E+00 0. -1.
         -1   -1    0    0    0  501 -0.00000000000E+00 -0.00000000000E+00 -0.61180123359E+03  0.61180123359E+03  0.00000000000E+00 0.  1.
         23    2    1    2    0    0  0.19165462387E+02 -0.49493563004E+03 -0.58763865193E+02  0.51061040607E+03  0.10927580747E+03 0.  0.
        254    2    1    2    0    0 -0.19165462387E+02  0.49493563004E+03  0.55531314768E+03  0.12095413436E+04  0.95356645130E+03 0.  0.
        -24    2    4    4    0    0 -0.41201994954E+03  0.41814639556E+03  0.54000412862E+03  0.80096647604E+03  0.73047860238E+02 0.  0.
         24    2    4    4    0    0  0.39285448715E+03  0.76789234489E+02  0.15309019063E+02  0.40857486755E+03  0.80422768669E+02 0.  0.
         13    1    3    3    0    0  0.22150174836E+02 -0.34378538865E+03  0.97363045599E+01  0.34463577778E+03  0.00000000000E+00 0. -1.
        -13    1    3    3    0    0 -0.29847124486E+01 -0.15115024139E+03 -0.68500169753E+02  0.16597462829E+03  0.00000000000E+00 0.  1.
          4    1    6    6  502    0  0.35640617068E+03  0.44157039975E+02  0.17972839856E+02  0.35958062469E+03  0.00000000000E+00 0. -1.
          3    1    5    5  503    0 -0.39427864719E+03  0.40881164632E+03  0.50207174976E+03  0.75806243523E+03  0.00000000000E+00 0. -1.
         -4    1    5    5    0  503 -0.17741302350E+02  0.93347492328E+01  0.37932378857E+02  0.42904040813E+02  0.00000000000E+00 0.  1.
         -3    1    6    6    0  502  0.36448316469E+02  0.32632194514E+02 -0.26638207927E+01  0.48994242860E+02  0.00000000000E+00 0.  1.
<mgrwt>
<rscale>  0 0.16469247E+04</rscale>
<asrwt>0</asrwt>
<pdfrwt beam="1">  1        1 0.17051546E+00 0.16469247E+04</pdfrwt>
<pdfrwt beam="2">  1       -1 0.94123267E-01 0.16469247E+04</pdfrwt>
<totfact> 0.13060921E+01</totfact>
</mgrwt>
</event>
<event>
12    1  0.1506149E-007  0.1535080E+04  0.7818608E-02  0.8861454E-01
          2   -1    0    0  501    0  0.00000000000E+00  0.00000000000E+00  0.37718309543E+03  0.37718309543E+03  0.00000000000E+00 0. -1.
         -2   -1    0    0    0  501 -0.00000000000E+00 -0.00000000000E+00 -0.15618880397E+04  0.15618880397E+04  0.00000000000E+00 0.  1.
         23    2    1    2    0    0 -0.34061236404E+03  0.11999519257E+03 -0.75607641160E+03  0.84277607181E+03  0.90577802242E+02 0.  0.
        254    2    1    2    0    0  0.34061236404E+03 -0.11999519257E+03 -0.42862853270E+03  0.10962950633E+04  0.94219149757E+03 0.  0.
        -24    2    4    4    0    0  0.53478346872E+03 -0.29798781061E+03 -0.37722478612E+02  0.61794161588E+03  0.75091687694E+02 0.  0.
         24    2    4    4    0    0 -0.19417110468E+03  0.17799261804E+03 -0.39090605408E+03  0.47835344746E+03  0.81429034179E+02 0.  0.
         11    1    3    3    0    0 -0.79621409587E+02  0.24171631749E+02 -0.27307450382E+03  0.28547070127E+03  0.00000000000E+00 0.  1.
        -11    1    3    3    0    0 -0.26099095445E+03  0.95823560821E+02 -0.48300190778E+03  0.55730537054E+03  0.00000000000E+00 0. -1.
          2    1    6    6  502    0 -0.90602869380E+02  0.45464810818E+02 -0.19783524208E+03  0.22229420139E+03  0.00000000000E+00 0. -1.
          1    1    5    5  503    0  0.79373315340E+02 -0.74889579480E+02 -0.16596581446E+02  0.11038124306E+03  0.00000000000E+00 0. -1.
         -2    1    5    5    0  503  0.45541015338E+03 -0.22309823113E+03 -0.21125897167E+02  0.50756037283E+03  0.00000000000E+00 0.  1.
         -1    1    6    6    0  502 -0.10356823530E+03  0.13252780722E+03 -0.19307081200E+03  0.25605924607E+03  0.00000000000E+00 0.  1.
<mgrwt>
<rscale>  0 0.15350801E+04</rscale>
<asrwt>0</asrwt>
<pdfrwt beam="1">  1        2 0.58028170E-01 0.15350801E+04</pdfrwt>
<pdfrwt beam="2">  1       -2 0.24029046E+00 0.15350801E+04</pdfrwt>
<totfact> 0.60401849E+00</totfact>
</mgrwt>
</event>
<event>
12    1  0.1506149E-007  0.1660787E+04  0.7818608E-02  0.8784050E-01
         -1   -1    0    0    0  501 -0.00000000000E+00  0.00000000000E+00  0.10056746482E+04  0.10056746482E+04  0.00000000000E+00 0.  1.
          1   -1    0    0  501    0  0.00000000000E+00 -0.00000000000E+00 -0.68566256884E+03  0.68566256884E+03  0.00000000000E+00 0. -1.
         23    2    1    2    0    0 -0.33794164759E+02  0.42613426142E+03  0.50643006494E+03  0.66914925617E+03  0.92503308170E+02 0.  0.
        254    2    1    2    0    0  0.33794164759E+02 -0.42613426142E+03 -0.18641798555E+03  0.10221879609E+04  0.90960656756E+03 0.  0.
        -24    2    4    4    0    0 -0.12584791336E+03 -0.32375224242E+03 -0.51988641554E+03  0.63030146803E+03  0.79654527620E+02 0.  0.
         24    2    4    4    0    0  0.15964207812E+03 -0.10238201900E+03  0.33346842999E+03  0.39188649287E+03  0.80038481837E+02 0.  0.
         11    1    3    3    0    0 -0.15858001416E+02  0.83397195654E+02  0.51543951023E+02  0.99314386365E+02  0.00000000000E+00 0. -1.
        -11    1    3    3    0    0 -0.17936163343E+02  0.34273706577E+03  0.45488611392E+03  0.56983486980E+03  0.00000000000E+00 0.  1.
          2    1    6    6  502    0  0.12150674767E+03 -0.85895129134E+02  0.31073737550E+03  0.34452805324E+03  0.00000000000E+00 0. -1.
          3    1    5    5  503    0 -0.87029167966E+02 -0.28131273770E+03 -0.39383964907E+03  0.49175258174E+03  0.00000000000E+00 0. -1.
         -4    1    5    5    0  503 -0.38818745393E+02 -0.42439504722E+02 -0.12604676647E+03  0.13854888630E+03  0.00000000000E+00 0.  1.
         -1    1    6    6    0  502  0.38135330452E+02 -0.16486889868E+02  0.22731054493E+02  0.47358439633E+02  0.00000000000E+00 0.  1.
<mgrwt>
<rscale>  0 0.16607871E+04</rscale>
<asrwt>0</asrwt>
<pdfrwt beam="1">  1        1 0.10548655E+00 0.16607871E+04</pdfrwt>
<pdfrwt beam="2">  1       -1 0.15471918E+00 0.16607871E+04</pdfrwt>
<totfact> 0.86086003E+00</totfact>
</mgrwt>
</event>
<event>
12    1  0.1506149E-007  0.2654174E+04  0.7818608E-02  0.8350029E-01
          1   -1    0    0  501    0  0.00000000000E+00  0.00000000000E+00  0.16463073994E+04  0.16463073994E+04  0.00000000000E+00 0. -1.
         -1   -1    0    0    0  501 -0.00000000000E+00 -0.00000000000E+00 -0.10697639974E+04  0.10697639974E+04  0.00000000000E+00 0.  1.
         23    2    1    2    0    0  0.46483708005E+03 -0.61357462125E+03  0.11509266151E+04  0.13876837138E+04  0.92123230093E+02 0.  0.
        254    2    1    2    0    0 -0.46483708005E+03  0.61357462125E+03 -0.57438321309E+03  0.13283876830E+04  0.91768754710E+03 0.  0.
        -24    2    4    4    0    0 -0.61003989978E+03  0.17440268087E+03 -0.76401398715E+02  0.64403687315E+03  0.79883326332E+02 0.  0.
         24    2    4    4    0    0  0.14520281974E+03  0.43917194038E+03 -0.49798181438E+03  0.68435080987E+03  0.79964313593E+02 0.  0.
         13    1    3    3    0    0  0.16046472124E+03 -0.19517555991E+03  0.30490485884E+03  0.39599166518E+03  0.00000000000E+00 0.  1.
        -13    1    3    3    0    0  0.30437235881E+03 -0.41839906133E+03  0.84602175625E+03  0.99169204866E+03  0.00000000000E+00 0. -1.
          4    1    6    6  502    0  0.11811523266E+03  0.27596887293E+03 -0.27828872505E+03  0.40933438837E+03  0.00000000000E+00 0. -1.
          3    1    5    5  503    0 -0.52125862292E+03  0.13193005125E+03 -0.88318851176E+02  0.54490027516E+03  0.00000000000E+00 0. -1.
         -4    1    5    5    0  503 -0.88781276863E+02  0.42472629618E+02  0.11917452462E+02  0.99136597991E+02  0.00000000000E+00 0.  1.
         -3    1    6    6    0  502  0.27087587075E+02  0.16320306745E+03 -0.21969308932E+03  0.27501642150E+03  0.00000000000E+00 0.  1.
<mgrwt>
<rscale>  0 0.26541744E+04</rscale>
<asrwt>0</asrwt>
<pdfrwt beam="1">  1        1 0.25327806E+00 0.26541744E+04</pdfrwt>
<pdfrwt beam="2">  1       -1 0.16457908E+00 0.26541744E+04</pdfrwt>
<totfact> 0.12272966E+00</totfact>
</mgrwt>
</event>
<event>
12    1  0.1506149E-007  0.1670389E+04  0.7818608E-02  0.8778435E-01
         -2   -1    0    0    0  501 -0.00000000000E+00  0.00000000000E+00  0.55621832218E+03  0.55621832218E+03  0.00000000000E+00 0.  1.
          2   -1    0    0  501    0  0.00000000000E+00 -0.00000000000E+00 -0.12540931104E+04  0.12540931104E+04  0.00000000000E+00 0. -1.
         23    2    1    2    0    0  0.31282548041E+03  0.49544031033E+03 -0.17538231077E+03  0.61842242499E+03  0.91468346957E+02 0.  0.
        254    2    1    2    0    0 -0.31282548041E+03 -0.49544031033E+03 -0.52249247749E+03  0.11918890076E+04  0.89681666754E+03 0.  0.
        -24    2    4    4    0    0  0.12938985616E+03 -0.24657223069E+03  0.16531442289E+03  0.33333257323E+03  0.79007253691E+02 0.  0.
         24    2    4    4    0    0 -0.44221533657E+03 -0.24886807965E+03 -0.68780690038E+03  0.85855643440E+03  0.80938828031E+02 0.  0.
         13    1    3    3    0    0  0.27837845312E+03  0.47958158363E+03 -0.17077313555E+03  0.58022109781E+03  0.00000000000E+00 0.  1.
        -13    1    3    3    0    0  0.34447027286E+02  0.15858726702E+02 -0.46091752240E+01  0.38201327172E+02  0.00000000000E+00 0. -1.
          2    1    6    6  502    0 -0.37853526246E+01 -0.48490110665E-01 -0.27765846457E+02  0.28022731402E+02  0.00000000000E+00 0. -1.
          3    1    5    5  503    0  0.43571248028E+02 -0.21829693715E+02  0.23930566465E+02  0.54292367730E+02  0.00000000000E+00 0. -1.
         -4    1    5    5    0  503  0.85818608131E+02 -0.22474253697E+03  0.14138385642E+03  0.27904020550E+03  0.00000000000E+00 0.  1.
         -1    1    6    6    0  502 -0.43842998394E+03 -0.24881958953E+03 -0.66004105392E+03  0.83053370300E+03  0.00000000000E+00 0.  1.
<mgrwt>
<rscale>  0 0.16703887E+04</rscale>
<asrwt>0</asrwt>
<pdfrwt beam="1">  1        2 0.19293740E+00 0.16703887E+04</pdfrwt>
<pdfrwt beam="2">  1       -2 0.85572050E-01 0.16703887E+04</pdfrwt>
<totfact> 0.19909075E+01</totfact>
</mgrwt>
</event>
<event>
12    1  0.1506149E-007  0.1190554E+04  0.7818608E-02  0.9121165E-01
         -2   -1    0    0    0  501 -0.00000000000E+00  0.00000000000E+00  0.66368935388E+03  0.66368935388E+03  0.00000000000E+00 0.  1.
          2   -1    0    0  501    0  0.00000000000E+00 -0.00000000000E+00 -0.53391677231E+03  0.53391677231E+03  0.00000000000E+00 0. -1.
         23    2    1    2    0    0  0.20002674622E+03  0.13683532632E+03 -0.95087806255E+01  0.25992454126E+03  0.93465204804E+02 0.  0.
        254    2    1    2    0    0 -0.20002674622E+03 -0.13683532632E+03  0.13928136219E+03  0.93768158493E+03  0.89504907750E+03 0.  0.
        -24    2    4    4    0    0 -0.22658783313E+03  0.34361266692E+03 -0.27474533355E+02  0.42172297735E+03  0.87656766178E+02 0.  0.
         24    2    4    4    0    0  0.26561086912E+02 -0.48044799324E+03  0.16675589555E+03  0.51595860758E+03  0.82885405769E+02 0.  0.
         13    1    3    3    0    0  0.14359627271E+03  0.47921967996E+02  0.13986451175E+02  0.15202639695E+03  0.00000000000E+00 0.  1.
        -13    1    3    3    0    0  0.56430473509E+02  0.88913358324E+02 -0.23495231801E+02  0.10789814431E+03  0.00000000000E+00 0. -1.
          2    1    6    6  502    0 -0.90426274512E+01 -0.37444966831E+03  0.14719053778E+03  0.40244176923E+03  0.00000000000E+00 0. -1.
          1    1    5    5  503    0 -0.23369441655E+03  0.32924819707E+03 -0.20585115214E+02  0.40427861998E+03  0.00000000000E+00 0. -1.
         -2    1    5    5    0  503  0.71065834246E+01  0.14364469849E+02 -0.68894181405E+01  0.17444357378E+02  0.00000000000E+00 0.  1.
         -1    1    6    6    0  502  0.35603714363E+02 -0.10599832493E+03  0.19565357767E+02  0.11351683835E+03  0.00000000000E+00 0.  1.
<mgrwt>
<rscale>  0 0.11905543E+04</rscale>
<asrwt>0</asrwt>
<pdfrwt beam="1">  1        2 0.82141041E-01 0.11905543E+04</pdfrwt>
<pdfrwt beam="2">  1       -2 0.10210606E+00 0.11905543E+04</pdfrwt>
<totfact> 0.44257943E+01</totfact>
</mgrwt>
</event>
<event>
12    1  0.1506149E-007  0.2276938E+04  0.7818608E-02  0.8487070E-01
         -1   -1    0    0    0  501 -0.00000000000E+00  0.00000000000E+00  0.30213231541E+04  0.30213231541E+04  0.00000000000E+00 0.  1.
          1   -1    0    0  501    0  0.00000000000E+00 -0.00000000000E+00 -0.42898815134E+03  0.42898815134E+03  0.00000000000E+00 0. -1.
         23    2    1    2    0    0  0.21756053082E+03 -0.50316782813E+03  0.22835325627E+04  0.23501557448E+04  0.90557231688E+02 0.  0.
        254    2    1    2    0    0 -0.21756053082E+03  0.50316782813E+03  0.30880244002E+03  0.11001555606E+04  0.90248150267E+03 0.  0.
        -24    2    4    4    0    0 -0.55930641153E+02  0.73920550857E+03  0.13324552908E+03  0.75728130777E+03  0.78533989866E+02 0.  0.
         24    2    4    4    0    0 -0.16162988967E+03 -0.23603768044E+03  0.17555691094E+03  0.34287425280E+03  0.70032252807E+02 0.  0.
         11    1    3    3    0    0  0.58779743577E+02 -0.21886746259E+03  0.10664982585E+04  0.10903103044E+04  0.00000000000E+00 0. -1.
        -11    1    3    3    0    0  0.15878078724E+03 -0.28430036554E+03  0.12170343042E+04  0.12598454404E+04  0.00000000000E+00 0.  1.
          4    1    6    6  502    0  0.31094103250E+01 -0.26584893528E+02  0.73745112219E+01  0.27763436607E+02  0.00000000000E+00 0. -1.
          3    1    5    5  503    0  0.10757440140E+02  0.18883431595E+03  0.57797162635E+02  0.19777419804E+03  0.00000000000E+00 0. -1.
         -4    1    5    5    0  503 -0.66688081293E+02  0.55037119262E+03  0.75448366446E+02  0.55950710974E+03  0.00000000000E+00 0.  1.
         -3    1    6    6    0  502 -0.16473929999E+03 -0.20945278691E+03  0.16818239972E+03  0.31511081619E+03  0.00000000000E+00 0.  1.
<mgrwt>
<rscale>  0 0.22769381E+04</rscale>
<asrwt>0</asrwt>
<pdfrwt beam="1">  1        1 0.65998179E-01 0.22769381E+04</pdfrwt>
<pdfrwt beam="2">  1       -1 0.46481893E+00 0.22769381E+04</pdfrwt>
<totfact> 0.12648785E-01</totfact>
</mgrwt>
</event>
<event>
12    1  0.1506149E-007  0.1924490E+04  0.7818608E-02  0.8642761E-01
          1   -1    0    0  501    0  0.00000000000E+00  0.00000000000E+00  0.10237855009E+04  0.10237855009E+04  0.00000000000E+00 0. -1.
         -1   -1    0    0    0  501 -0.00000000000E+00 -0.00000000000E+00 -0.90440363888E+03  0.90440363888E+03  0.00000000000E+00 0.  1.
         23    2    1    2    0    0 -0.25699766587E+02  0.70994826337E+03  0.28644914299E+03  0.77134494083E+03  0.90735282869E+02 0.  0.
        254    2    1    2    0    0  0.25699766587E+02 -0.70994826337E+03 -0.16706728096E+03  0.11568441990E+04  0.89760236723E+03 0.  0.
        -24    2    4    4    0    0 -0.31635777391E+03 -0.15249718568E+03  0.19015009087E+03  0.40723833233E+03  0.79676655995E+02 0.  0.
         24    2    4    4    0    0  0.34205754049E+03 -0.55745107769E+03 -0.35721737183E+03  0.74960586664E+03  0.80929843323E+02 0.  0.
         13    1    3    3    0    0 -0.17144587107E+02  0.69690591798E+03  0.29051013951E+03  0.75522707615E+03  0.00000000000E+00 0. -1.
        -13    1    3    3    0    0 -0.85551794803E+01  0.13042345386E+02 -0.40609965217E+01  0.16117864681E+02  0.00000000000E+00 0.  1.
          2    1    6    6  502    0  0.70550404629E+02 -0.13705912637E+03 -0.48507400838E+02  0.16160300632E+03  0.00000000000E+00 0. -1.
          1    1    5    5  503    0 -0.15302659287E+03 -0.68027090685E+02  0.46224007158E+02  0.17372818433E+03  0.00000000000E+00 0. -1.
         -2    1    5    5    0  503 -0.16333118103E+03 -0.84470094998E+02  0.14392608371E+03  0.23351014800E+03  0.00000000000E+00 0.  1.
         -1    1    6    6    0  502  0.27150713586E+03 -0.42039195131E+03 -0.30870997099E+03  0.58800286032E+03  0.00000000000E+00 0.  1.
<mgrwt>
<rscale>  0 0.19244899E+04</rscale>
<asrwt>0</asrwt>
<pdfrwt beam="1">  1        1 0.15750546E+00 0.19244899E+04</pdfrwt>
<pdfrwt beam="2">  1       -1 0.13913902E+00 0.19244899E+04</pdfrwt>
<totfact> 0.57671871E+00</totfact>
</mgrwt>
</event>
<event>
12    1  0.1540528E-007  0.1633381E+04  0.7818608E-02  0.8800300E-01
         -2   -1    0    0    0  501 -0.00000000000E+00  0.00000000000E+00  0.42977342534E+03  0.42977342534E+03  0.00000000000E+00 0.  1.
          2   -1    0    0  501    0  0.00000000000E+00 -0.00000000000E+00 -0.15519409342E+04  0.15519409342E+04  0.00000000000E+00 0. -1.
         23    2    1    2    0    0  0.26044091122E+03 -0.18106444442E+03 -0.95511591284E+03  0.10105315728E+04  0.91180323734E+02 0.  0.
        254    2    1    2    0    0 -0.26044091122E+03  0.18106444442E+03 -0.16705159606E+03  0.97118278675E+03  0.90259402184E+03 0.  0.
        -24    2    4    4    0    0  0.21430079753E+03  0.28079094970E+03 -0.29033893991E+03  0.46418071721E+03  0.79991555454E+02 0.  0.
         24    2    4    4    0    0 -0.47474170875E+03 -0.99726505278E+02  0.12328734385E+03  0.50700206954E+03  0.80785292497E+02 0.  0.
         11    1    3    3    0    0  0.61764274499E+02 -0.15239406862E+01 -0.20112841456E+03  0.21040386675E+03  0.00000000000E+00 0.  1.
        -11    1    3    3    0    0  0.19867663672E+03 -0.17954050374E+03 -0.75398749828E+03  0.80012770607E+03  0.00000000000E+00 0. -1.
          2    1    6    6  502    0 -0.38060617275E+03 -0.54108436737E+02  0.11851550976E+03  0.40228684756E+03  0.00000000000E+00 0. -1.
          3    1    5    5  503    0  0.20711958616E+03  0.26248751334E+03 -0.29270002468E+03  0.44437767955E+03  0.00000000000E+00 0. -1.
         -4    1    5    5    0  503  0.71812113742E+01  0.18303436359E+02  0.23610847719E+01  0.19803037662E+02  0.00000000000E+00 0.  1.
         -1    1    6    6    0  502 -0.94135535999E+02 -0.45618068541E+02  0.47718340950E+01  0.10471522199E+03  0.00000000000E+00 0.  1.
<mgrwt>
<rscale>  0 0.16333805E+04</rscale>
<asrwt>0</asrwt>
<pdfrwt beam="1">  1        2 0.23876015E+00 0.16333805E+04</pdfrwt>
<pdfrwt beam="2">  1       -2 0.66118988E-01 0.16333805E+04</pdfrwt>
<totfact> 0.23880602E+01</totfact>
</mgrwt>
</event>
<event>
12    1  0.1506149E-007  0.1447822E+04  0.7818608E-02  0.8919912E-01
          2   -1    0    0  501    0  0.00000000000E+00  0.00000000000E+00  0.37517764470E+04  0.37517764470E+04  0.00000000000E+00 0. -1.
         -2   -1    0    0    0  501 -0.00000000000E+00 -0.00000000000E+00 -0.13967977656E+03  0.13967977656E+03  0.00000000000E+00 0.  1.
         23    2    1    2    0    0  0.43755062652E+03  0.84963471455E+01  0.12048972210E+04  0.12849676028E+04  0.88553308615E+02 0.  0.
        254    2    1    2    0    0 -0.43755062652E+03 -0.84963471455E+01  0.24071994495E+04  0.26064886208E+04  0.89869405361E+03 0.  0.
        -24    2    4    4    0    0 -0.16458421951E+03 -0.42186455973E+03  0.79878504200E+03  0.92162266399E+03  0.79203026417E+02 0.  0.
         24    2    4    4    0    0 -0.27296640701E+03  0.41336821258E+03  0.16084144075E+04  0.16848659568E+04  0.79952783685E+02 0.  0.
         13    1    3    3    0    0  0.32281449496E+03  0.40648245611E+02  0.82579403019E+03  0.88757943775E+03  0.00000000000E+00 0.  1.
        -13    1    3    3    0    0  0.11473613156E+03 -0.32151898465E+02  0.37910319079E+03  0.39738816505E+03  0.00000000000E+00 0. -1.
          2    1    6    6  502    0 -0.81124681182E+02  0.98691668344E+02  0.31361604910E+03  0.33863887189E+03  0.00000000000E+00 0. -1.
          3    1    5    5  503    0 -0.22017818334E+02 -0.15095378677E+02  0.69963027011E+02  0.74883108443E+02  0.00000000000E+00 0. -1.
         -4    1    5    5    0  503 -0.14256640118E+03 -0.40676918105E+03  0.72882201499E+03  0.84673955555E+03  0.00000000000E+00 0.  1.
         -1    1    6    6    0  502 -0.19184172583E+03  0.31467654424E+03  0.12947983584E+04  0.13462270849E+04  0.00000000000E+00 0.  1.
<mgrwt>
<rscale>  0 0.14478222E+04</rscale>
<asrwt>0</asrwt>
<pdfrwt beam="1">  1        2 0.57719630E+00 0.14478222E+04</pdfrwt>
<pdfrwt beam="2">  1       -2 0.21489199E-01 0.14478222E+04</pdfrwt>
<totfact> 0.99552096E+00</totfact>
</mgrwt>
</event>
<event>
12    1  0.1506149E-007  0.2494933E+04  0.7818608E-02  0.8404793E-01
         -1   -1    0    0    0  501 -0.00000000000E+00  0.00000000000E+00  0.17943485144E+04  0.17943485144E+04  0.00000000000E+00 0.  1.
          1   -1    0    0  501    0  0.00000000000E+00 -0.00000000000E+00 -0.86726328691E+03  0.86726328691E+03  0.00000000000E+00 0. -1.
         23    2    1    2    0    0  0.27852295619E+03  0.43437623065E+02  0.15298013583E+04  0.15581321929E+04  0.89564895755E+02 0.  0.
        254    2    1    2    0    0 -0.27852295619E+03 -0.43437623065E+02 -0.60271613072E+03  0.11034796085E+04  0.88030599671E+03 0.  0.
        -24    2    4    4    0    0 -0.37126751472E+03 -0.38297951748E+03 -0.23604868244E+03  0.58891597024E+03  0.81179807954E+02 0.  0.
         24    2    4    4    0    0  0.92744558535E+02  0.33954189442E+03 -0.36666744828E+03  0.51456363823E+03  0.80252532414E+02 0.  0.
         13    1    3    3    0    0  0.27903952585E+03  0.49106222705E+02  0.15235786733E+04  0.15496988262E+04  0.00000000000E+00 0.  1.
        -13    1    3    3    0    0 -0.51656966625E+00 -0.56685996404E+01  0.62226849716E+01  0.84333667274E+01  0.00000000000E+00 0. -1.
          4    1    6    6  502    0  0.60854680438E+02  0.27606344616E+03 -0.24699243864E+03  0.37539257209E+03  0.00000000000E+00 0. -1.
          3    1    5    5  503    0 -0.26349790707E+03 -0.22686478508E+03 -0.17747115040E+03  0.39037774907E+03  0.00000000000E+00 0. -1.
         -4    1    5    5    0  503 -0.10776960765E+03 -0.15611473240E+03 -0.58577532039E+02  0.19853822117E+03  0.00000000000E+00 0.  1.
         -3    1    6    6    0  502  0.31889878096E+02  0.63478448261E+02 -0.11967500964E+03  0.13917106614E+03  0.00000000000E+00 0.  1.
<mgrwt>
<rscale>  0 0.24949329E+04</rscale>
<asrwt>0</asrwt>
<pdfrwt beam="1">  1        1 0.13342512E+00 0.24949329E+04</pdfrwt>
<pdfrwt beam="2">  1       -1 0.27605362E+00 0.24949329E+04</pdfrwt>
<totfact> 0.81265588E-01</totfact>
</mgrwt>
</event>
<event>
12    1  0.1506149E-007  0.2209439E+04  0.7818608E-02  0.8514510E-01
         -2   -1    0    0    0  501 -0.00000000000E+00  0.00000000000E+00  0.56549391901E+03  0.56549391901E+03  0.00000000000E+00 0.  1.
          2   -1    0    0  501    0  0.00000000000E+00 -0.00000000000E+00 -0.21581227620E+04  0.21581227620E+04  0.00000000000E+00 0. -1.
         23    2    1    2    0    0  0.80289437528E+03 -0.44706157383E+03 -0.64767641057E+03  0.11277770298E+04  0.88841811844E+02 0.  0.
        254    2    1    2    0    0 -0.80289437528E+03  0.44706157383E+03 -0.94495243239E+03  0.15958396512E+04  0.89959194309E+03 0.  0.
        -24    2    4    4    0    0  0.56284290112E+01  0.25495764597E+03 -0.66310616391E+03  0.71470771929E+03  0.77860509560E+02 0.  0.
         24    2    4    4    0    0 -0.80852280429E+03  0.19210392786E+03 -0.28184626848E+03  0.88113193186E+03  0.79643694924E+02 0.  0.
         11    1    3    3    0    0  0.47652862567E+03 -0.23807167289E+03 -0.32958661398E+03  0.62640640852E+03  0.00000000000E+00 0. -1.
        -11    1    3    3    0    0  0.32636574961E+03 -0.20898990094E+03 -0.31808979658E+03  0.50137062130E+03  0.00000000000E+00 0.  1.
          2    1    6    6  502    0 -0.43043769197E+03  0.12190408252E+03 -0.11474687503E+03  0.46184852207E+03  0.00000000000E+00 0. -1.
          3    1    5    5  503    0 -0.21634316489E+02  0.21728026888E+03 -0.51229309029E+03  0.55688685498E+03  0.00000000000E+00 0. -1.
         -4    1    5    5    0  503  0.27262745500E+02  0.37677377093E+02 -0.15081307362E+03  0.15782086431E+03  0.00000000000E+00 0.  1.
         -1    1    6    6    0  502 -0.37808511232E+03  0.70199845338E+02 -0.16709939345E+03  0.41928340980E+03  0.00000000000E+00 0.  1.
<mgrwt>
<rscale>  0 0.22094391E+04</rscale>
<asrwt>0</asrwt>
<pdfrwt beam="1">  1        2 0.33201889E+00 0.22094391E+04</pdfrwt>
<pdfrwt beam="2">  1       -2 0.86999064E-01 0.22094391E+04</pdfrwt>
<totfact> 0.56880887E+00</totfact>
</mgrwt>
</event>
<event>
12    1  0.1506149E-007  0.1572763E+04  0.7818608E-02  0.8837458E-01
         -1   -1    0    0    0  501 -0.00000000000E+00  0.00000000000E+00  0.57644741558E+03  0.57644741558E+03  0.00000000000E+00 0.  1.
          1   -1    0    0  501    0  0.00000000000E+00 -0.00000000000E+00 -0.10727707076E+04  0.10727707076E+04  0.00000000000E+00 0. -1.
         23    2    1    2    0    0 -0.10079902899E+03 -0.76445583908E+01 -0.67871790495E+03  0.69263818534E+03  0.94184806499E+02 0.  0.
        254    2    1    2    0    0  0.10079902899E+03  0.76445583908E+01  0.18239461289E+03  0.95657993788E+03  0.93357297477E+03 0.  0.
        -24    2    4    4    0    0  0.43820059608E+03  0.14884109419E+03 -0.10805836592E+03  0.48273424363E+03  0.84748485551E+02 0.  0.
         24    2    4    4    0    0 -0.33740156709E+03 -0.14119653580E+03  0.29045297882E+03  0.47384569425E+03  0.79940789706E+02 0.  0.
         11    1    3    3    0    0 -0.82032098121E+02 -0.46188224810E+02 -0.50572005116E+03  0.51440780261E+03  0.00000000000E+00 0. -1.
        -11    1    3    3    0    0 -0.18766930864E+02  0.38543666419E+02 -0.17299785378E+03  0.17823038273E+03  0.00000000000E+00 0.  1.
          2    1    6    6  502    0 -0.22425210943E+02  0.27681077503E+00 -0.32523329246E+00  0.22429277446E+02  0.00000000000E+00 0. -1.
          3    1    5    5  503    0  0.23750041819E+03  0.87518373348E+02 -0.10169592308E+03  0.27277825259E+03  0.00000000000E+00 0. -1.
         -4    1    5    5    0  503  0.20070017789E+03  0.61322720843E+02 -0.63624428483E+01  0.20995599104E+03  0.00000000000E+00 0.  1.
         -1    1    6    6    0  502 -0.31497635615E+03 -0.14147334657E+03  0.29077821211E+03  0.45141641681E+03  0.00000000000E+00 0.  1.
<mgrwt>
<rscale>  0 0.15727630E+04</rscale>
<asrwt>0</asrwt>
<pdfrwt beam="1">  1        1 0.16504165E+00 0.15727630E+04</pdfrwt>
<pdfrwt beam="2">  1       -1 0.88684219E-01 0.15727630E+04</pdfrwt>
<totfact> 0.15957523E+01</totfact>
</mgrwt>
</event>
<event>
12    1  0.1506149E-007  0.2271091E+04  0.7818608E-02  0.8489408E-01
          2   -1    0    0  501    0  0.00000000000E+00  0.00000000000E+00  0.83036651844E+03  0.83036651844E+03  0.00000000000E+00 0.  1.
         -2   -1    0    0    0  501 -0.00000000000E+00 -0.00000000000E+00 -0.15528843858E+04  0.15528843858E+04  0.00000000000E+00 0. -1.
         23    2    1    2    0    0 -0.70224439214E+03 -0.61054635780E+03 -0.25570123903E+03  0.96850760778E+03  0.81913499274E+02 0.  0.
        254    2    1    2    0    0  0.70224439214E+03  0.61054635780E+03 -0.46681662833E+03  0.14147432965E+04  0.95794926228E+03 0.  0.
        -24    2    4    4    0    0 -0.42537846706E+02 -0.39480884698E+02 -0.40934039044E+03  0.42107134008E+03  0.79833010311E+02 0.  0.
         24    2    4    4    0    0  0.74478223885E+03  0.65002724250E+03 -0.57476237894E+02  0.99367195639E+03  0.82731128968E+02 0.  0.
         13    1    3    3    0    0 -0.39278905466E+03 -0.32049065432E+03 -0.17811844589E+03  0.53733014221E+03  0.00000000000E+00 0.  1.
        -13    1    3    3    0    0 -0.30945533749E+03 -0.29005570348E+03 -0.77582793145E+02  0.43117746557E+03  0.00000000000E+00 0. -1.
          2    1    6    6  502    0  0.22574750669E+03  0.20754089900E+03  0.19623572753E+02  0.30727877594E+03  0.00000000000E+00 0. -1.
          1    1    5    5  503    0  0.18318057367E+02 -0.27877660177E+02 -0.19976487219E+03  0.20253078612E+03  0.00000000000E+00 0. -1.
         -2    1    5    5    0  503 -0.60855904073E+02 -0.11603224521E+02 -0.20957551825E+03  0.21854055397E+03  0.00000000000E+00 0.  1.
         -1    1    6    6    0  502  0.51903473216E+03  0.44248634349E+03 -0.77099810647E+02  0.68639318045E+03  0.00000000000E+00 0.  1.
<mgrwt>
<rscale>  0 0.22710907E+04</rscale>
<asrwt>0</asrwt>
<pdfrwt beam="1">  1        2 0.12774870E+00 0.22710907E+04</pdfrwt>
<pdfrwt beam="2">  1       -2 0.23890529E+00 0.22710907E+04</pdfrwt>
<totfact> 0.22397374E+00</totfact>
</mgrwt>
</event>
<event>
12    1  0.1506149E-007  0.1287743E+04  0.7818608E-02  0.9039342E-01
          2   -1    0    0  501    0  0.00000000000E+00  0.00000000000E+00  0.15149024936E+04  0.15149024936E+04  0.00000000000E+00 0.  1.
         -2   -1    0    0    0  501 -0.00000000000E+00 -0.00000000000E+00 -0.27366134637E+03  0.27366134637E+03  0.00000000000E+00 0. -1.
         23    2    1    2    0    0 -0.15310821906E+03 -0.14111183962E+02  0.70578444327E+03  0.72802838175E+03  0.90842677327E+02 0.  0.
        254    2    1    2    0    0  0.15310821906E+03  0.14111183962E+02  0.53545670392E+03  0.10605354582E+04  0.90243023221E+03 0.  0.
        -24    2    4    4    0    0 -0.30417896163E+03 -0.17923184582E+03  0.58267176134E+02  0.36730127567E+03  0.82862947341E+02 0.  0.
         24    2    4    4    0    0  0.45728718069E+03  0.19334302978E+03  0.47718952779E+03  0.69323418249E+03  0.79816624586E+02 0.  0.
         13    1    3    3    0    0  0.31775462659E+01 -0.16112304073E+02  0.28043301903E+02  0.32498152631E+02  0.00000000000E+00 0. -1.
        -13    1    3    3    0    0 -0.15628576532E+03  0.20011201110E+01  0.67774114137E+03  0.69553022912E+03  0.00000000000E+00 0.  1.
          4    1    6    6  502    0  0.12851232076E+03  0.85759500561E+02  0.17965437521E+03  0.23695105624E+03  0.00000000000E+00 0. -1.
          1    1    5    5  503    0 -0.45428517678E+02 -0.78546007709E+01  0.31405813856E+02  0.55783242247E+02  0.00000000000E+00 0. -1.
         -2    1    5    5    0  503 -0.25875044396E+03 -0.17137724505E+03  0.26861362278E+02  0.31151803343E+03  0.00000000000E+00 0.  1.
         -3    1    6    6    0  502  0.32877485993E+03  0.10758352922E+03  0.29753515258E+03  0.45628312625E+03  0.00000000000E+00 0.  1.
<mgrwt>
<rscale>  0 0.12877426E+04</rscale>
<asrwt>0</asrwt>
<pdfrwt beam="1">  1        2 0.23306192E+00 0.12877426E+04</pdfrwt>
<pdfrwt beam="2">  1       -2 0.42101746E-01 0.12877426E+04</pdfrwt>
<totfact> 0.65278412E+01</totfact>
</mgrwt>
</event>
<event>
12    1  0.1506149E-007  0.1574356E+04  0.7818608E-02  0.8836459E-01
          2   -1    0    0  501    0  0.00000000000E+00  0.00000000000E+00  0.99045563607E+03  0.99045563607E+03  0.00000000000E+00 0. -1.
         -2   -1    0    0    0  501 -0.00000000000E+00 -0.00000000000E+00 -0.62562000196E+03  0.62562000196E+03  0.00000000000E+00 0.  1.
         23    2    1    2    0    0  0.99695234016E+02  0.43148731712E+03 -0.16866393117E+03  0.48253901533E+03  0.90972166725E+02 0.  0.
        254    2    1    2    0    0 -0.99695234016E+02 -0.43148731712E+03  0.53349956528E+03  0.11335366227E+04  0.89675138378E+03 0.  0.
        -24    2    4    4    0    0 -0.37563136024E+03  0.96861054575E+02  0.25203148135E+03  0.46901264835E+03  0.77278807182E+02 0.  0.
         24    2    4    4    0    0  0.27593612622E+03 -0.52834837170E+03  0.28146808393E+03  0.66452397434E+03  0.84113510040E+02 0.  0.
         11    1    3    3    0    0  0.27936476322E+02  0.58379225453E+02  0.47415830922E+01  0.64892705938E+02  0.00000000000E+00 0.  1.
        -11    1    3    3    0    0  0.71758757693E+02  0.37310809167E+03 -0.17340551426E+03  0.41764630940E+03  0.00000000000E+00 0. -1.
          4    1    6    6  502    0  0.94015728497E+02 -0.17835161534E+03  0.14006483184E+03  0.24549218525E+03  0.00000000000E+00 0. -1.
          3    1    5    5  503    0 -0.12015162809E+03 -0.52625630005E+01  0.82430992330E+02  0.14580458428E+03  0.00000000000E+00 0. -1.
         -4    1    5    5    0  503 -0.25547973215E+03  0.10212361758E+03  0.16960048902E+03  0.32320806407E+03  0.00000000000E+00 0.  1.
         -3    1    6    6    0  502  0.18192039772E+03 -0.34999675636E+03  0.14140325210E+03  0.41903178909E+03  0.00000000000E+00 0.  1.
<mgrwt>
<rscale>  0 0.15743556E+04</rscale>
<asrwt>0</asrwt>
<pdfrwt beam="1">  1        2 0.15237779E+00 0.15743556E+04</pdfrwt>
<pdfrwt beam="2">  1       -2 0.96249231E-01 0.15743556E+04</pdfrwt>
<totfact> 0.22192828E+01</totfact>
</mgrwt>
</event>
<event>
12    1  0.1506149E-007  0.2776321E+04  0.7818608E-02  0.8310658E-01
          2   -1    0    0  501    0  0.00000000000E+00  0.00000000000E+00  0.28546470138E+04  0.28546470138E+04  0.00000000000E+00 0. -1.
         -2   -1    0    0    0  501 -0.00000000000E+00 -0.00000000000E+00 -0.67503600389E+03  0.67503600389E+03  0.00000000000E+00 0.  1.
         23    2    1    2    0    0 -0.79889229034E+03 -0.82329579385E+03  0.37564396897E+03  0.12106122603E+04  0.91808483674E+02 0.  0.
        254    2    1    2    0    0  0.79889229034E+03  0.82329579385E+03  0.18039670409E+04  0.23190707574E+04  0.89874759373E+03 0.  0.
        -24    2    4    4    0    0  0.82382228209E+03  0.41675781598E+03  0.76949384831E+03  0.12045317878E+04  0.80036339608E+02 0.  0.
         24    2    4    4    0    0 -0.24929991750E+02  0.40653797787E+03  0.10344731926E+04  0.11145389696E+04  0.78534683137E+02 0.  0.
         13    1    3    3    0    0 -0.38838668492E+03 -0.35259202292E+03  0.13843313591E+03  0.54252104546E+03  0.00000000000E+00 0.  1.
        -13    1    3    3    0    0 -0.41050560542E+03 -0.47070377092E+03  0.23721083306E+03  0.66809121485E+03  0.00000000000E+00 0. -1.
          2    1    6    6  502    0  0.26299363756E+02  0.88163523782E+02  0.24861279824E+03  0.26509014865E+03  0.00000000000E+00 0. -1.
          1    1    5    5  503    0  0.47392451319E+03  0.20890700794E+03  0.46796308546E+03  0.69802294484E+03  0.00000000000E+00 0. -1.
         -2    1    5    5    0  503  0.34989776890E+03  0.20785080803E+03  0.30153076286E+03  0.50650884299E+03  0.00000000000E+00 0.  1.
         -1    1    6    6    0  502 -0.51229355507E+02  0.31837445409E+03  0.78586039439E+03  0.84944882091E+03  0.00000000000E+00 0.  1.
<mgrwt>
<rscale>  0 0.27763210E+04</rscale>
<asrwt>0</asrwt>
<pdfrwt beam="1">  1        2 0.43917646E+00 0.27763210E+04</pdfrwt>
<pdfrwt beam="2">  1       -2 0.10385169E+00 0.27763210E+04</pdfrwt>
<totfact> 0.14089435E+00</totfact>
</mgrwt>
</event>
<event>
12    1  0.1506149E-007  0.1625885E+04  0.7818608E-02  0.8804802E-01
          2   -1    0    0  501    0  0.00000000000E+00  0.00000000000E+00  0.47340023547E+03  0.47340023547E+03  0.00000000000E+00 0. -1.
         -2   -1    0    0    0  501 -0.00000000000E+00 -0.00000000000E+00 -0.13960186484E+04  0.13960186484E+04  0.00000000000E+00 0.  1.
         23    2    1    2    0    0  0.54062610628E+03  0.13302408540E+03 -0.24186977225E+03  0.61442602082E+03  0.95112324417E+02 0.  0.
        254    2    1    2    0    0 -0.54062610628E+03 -0.13302408540E+03 -0.68074864064E+03  0.12549928630E+04  0.89533031913E+03 0.  0.
        -24    2    4    4    0    0  0.13616656007E+03  0.21773998762E+03 -0.28842232888E+03  0.39432372038E+03  0.79697693597E+02 0.  0.
         24    2    4    4    0    0 -0.67679266635E+03 -0.35076407302E+03 -0.39232631176E+03  0.86066914262E+03  0.75813521306E+02 0.  0.
         11    1    3    3    0    0  0.19795812184E+02  0.78153659246E+01  0.87707759536E+01  0.23019136287E+02  0.00000000000E+00 0.  1.
        -11    1    3    3    0    0  0.52083029409E+03  0.12520871947E+03 -0.25064054820E+03  0.59140688454E+03  0.00000000000E+00 0. -1.
          2    1    6    6  502    0 -0.57037851881E+03 -0.28181671097E+03 -0.35473859604E+03  0.72841731501E+03  0.00000000000E+00 0. -1.
          3    1    5    5  503    0  0.14054490725E+03  0.21272244628E+03 -0.25628901327E+03  0.36150763260E+03  0.00000000000E+00 0. -1.
         -4    1    5    5    0  503 -0.43783471734E+01  0.50175413400E+01 -0.32133315605E+02  0.32816087774E+02  0.00000000000E+00 0.  1.
         -1    1    6    6    0  502 -0.10641414754E+03 -0.68947362057E+02 -0.37587715725E+02  0.13225182761E+03  0.00000000000E+00 0.  1.
<mgrwt>
<rscale>  0 0.16258851E+04</rscale>
<asrwt>0</asrwt>
<pdfrwt beam="1">  1        2 0.72830806E-01 0.16258851E+04</pdfrwt>
<pdfrwt beam="2">  1       -2 0.21477210E+00 0.16258851E+04</pdfrwt>
<totfact> 0.66949746E+00</totfact>
</mgrwt>
</event>
<event>
12    1  0.1506149E-007  0.1480302E+04  0.7818608E-02  0.8897658E-01
         -1   -1    0    0    0  501 -0.00000000000E+00  0.00000000000E+00  0.62504037025E+03  0.62504037025E+03  0.00000000000E+00 0.  1.
          1   -1    0    0  501    0  0.00000000000E+00 -0.00000000000E+00 -0.87646116162E+03  0.87646116162E+03  0.00000000000E+00 0. -1.
         23    2    1    2    0    0  0.42063004712E+03 -0.10112236270E+03 -0.24951337212E+03  0.50754549130E+03  0.90499359647E+02 0.  0.
        254    2    1    2    0    0 -0.42063004712E+03  0.10112236270E+03 -0.19074192565E+01  0.99395604058E+03  0.89486848396E+03 0.  0.
        -24    2    4    4    0    0 -0.59766187108E+03 -0.16999493771E+02  0.25070572821E+03  0.65373742068E+03  0.83848423421E+02 0.  0.
         24    2    4    4    0    0  0.17703182396E+03  0.11812185647E+03 -0.25261314746E+03  0.34021861990E+03  0.81500106649E+02 0.  0.
         13    1    3    3    0    0  0.76522426153E+02 -0.22227987431E+02 -0.89816133611E+02  0.12006957561E+03  0.00000000000E+00 0.  1.
        -13    1    3    3    0    0  0.34410762096E+03 -0.78894375266E+02 -0.15969723850E+03  0.38747591569E+03  0.00000000000E+00 0. -1.
          4    1    6    6  502    0  0.59007328304E+02  0.85304908424E+02 -0.95510150747E+02  0.14099993295E+03  0.00000000000E+00 0. -1.
          3    1    5    5  503    0 -0.14197802394E+03 -0.39942963838E+02  0.62210140449E+02  0.16007279974E+03  0.00000000000E+00 0. -1.
         -4    1    5    5    0  503 -0.45568384714E+03  0.22943470067E+02  0.18849558776E+03  0.49366462094E+03  0.00000000000E+00 0.  1.
         -3    1    6    6    0  502  0.11802449566E+03  0.32816948043E+02 -0.15710299672E+03  0.19921868695E+03  0.00000000000E+00 0.  1.
<mgrwt>
<rscale>  0 0.14803021E+04</rscale>
<asrwt>0</asrwt>
<pdfrwt beam="1">  1        1 0.13484018E+00 0.14803021E+04</pdfrwt>
<pdfrwt beam="2">  1       -1 0.96160057E-01 0.14803021E+04</pdfrwt>
<totfact> 0.19216746E+01</totfact>
</mgrwt>
</event>
<event>
12    1  0.1506149E-007  0.1620942E+04  0.7818608E-02  0.8807785E-01
          1   -1    0    0  501    0  0.00000000000E+00  0.00000000000E+00  0.69702866995E+03  0.69702866995E+03  0.00000000000E+00 0. -1.
         -1   -1    0    0    0  501 -0.00000000000E+00 -0.00000000000E+00 -0.94237660363E+03  0.94237660363E+03  0.00000000000E+00 0.  1.
         23    2    1    2    0    0  0.20442178904E+03 -0.28480366965E+03 -0.52445758868E+03  0.63745663194E+03  0.91617668597E+02 0.  0.
        254    2    1    2    0    0 -0.20442178904E+03  0.28480366965E+03  0.27910965500E+03  0.10019486416E+04  0.89615706374E+03 0.  0.
        -24    2    4    4    0    0 -0.35424562003E+03 -0.50227595528E+02 -0.18038987260E+03  0.40846072289E+03  0.79289881709E+02 0.  0.
         24    2    4    4    0    0  0.14982383099E+03  0.33503126518E+03  0.45949952761E+03  0.59348791876E+03  0.79968524155E+02 0.  0.
         13    1    3    3    0    0  0.12100224255E+03 -0.19380816871E+03 -0.26342606178E+03  0.34870680949E+03  0.00000000000E+00 0. -1.
        -13    1    3    3    0    0  0.83419546486E+02 -0.90995500943E+02 -0.26103152690E+03  0.28874982245E+03  0.00000000000E+00 0.  1.
          2    1    6    6  502    0  0.15920551667E+03  0.32435592607E+03  0.44440789575E+03  0.57275783811E+03  0.00000000000E+00 0. -1.
          3    1    5    5  503    0 -0.13649378530E+03 -0.58634977476E+02 -0.73080531924E+02  0.16555777891E+03  0.00000000000E+00 0. -1.
         -4    1    5    5    0  503 -0.21775183473E+03  0.84073819478E+01 -0.10730934068E+03  0.24290294398E+03  0.00000000000E+00 0.  1.
         -1    1    6    6    0  502 -0.93816856790E+01  0.10675339110E+02  0.15091631857E+02  0.20730080642E+02  0.00000000000E+00 0.  1.
<mgrwt>
<rscale>  0 0.16209423E+04</rscale>
<asrwt>0</asrwt>
<pdfrwt beam="1">  1        1 0.10723518E+00 0.16209423E+04</pdfrwt>
<pdfrwt beam="2">  1       -1 0.14498101E+00 0.16209423E+04</pdfrwt>
<totfact> 0.10040435E+01</totfact>
</mgrwt>
</event>
<event>
12    1  0.1506149E-007  0.2312942E+04  0.7818608E-02  0.8472836E-01
          1   -1    0    0  501    0  0.00000000000E+00  0.00000000000E+00  0.14154149876E+04  0.14154149876E+04  0.00000000000E+00 0. -1.
         -1   -1    0    0    0  501 -0.00000000000E+00 -0.00000000000E+00 -0.94489953428E+03  0.94489953428E+03  0.00000000000E+00 0.  1.
         23    2    1    2    0    0 -0.31883846387E+03  0.44974213263E+03  0.10245392721E+04  0.11672293610E+04  0.93902657655E+02 0.  0.
        254    2    1    2    0    0  0.31883846387E+03 -0.44974213263E+03 -0.55402381874E+03  0.11930851610E+04  0.90143433352E+03 0.  0.
        -24    2    4    4    0    0  0.40758387806E+03 -0.53034373294E+03 -0.71191611833E+03  0.98020571146E+03  0.81176255873E+02 0.  0.
         24    2    4    4    0    0 -0.88745414183E+02  0.80601600305E+02  0.15789229958E+03  0.21287944950E+03  0.77558463385E+02 0.  0.
         11    1    3    3    0    0 -0.25960942696E+03  0.31375836357E+03  0.68866687270E+03  0.80006463916E+03  0.00000000000E+00 0. -1.
        -11    1    3    3    0    0 -0.59229036918E+02  0.13598376907E+03  0.33587239939E+03  0.36716472180E+03  0.00000000000E+00 0.  1.
          2    1    6    6  502    0 -0.54746778313E+02  0.18487516149E+02  0.11852843971E+03  0.13186352418E+03  0.00000000000E+00 0. -1.
          3    1    5    5  503    0  0.29149638835E+03 -0.39051118902E+03 -0.56792989126E+03  0.74834049373E+03  0.00000000000E+00 0. -1.
         -4    1    5    5    0  503  0.11608748971E+03 -0.13983254392E+03 -0.14398622707E+03  0.23186521773E+03  0.00000000000E+00 0.  1.
         -1    1    6    6    0  502 -0.33998635870E+02  0.62114084157E+02  0.39363859871E+02  0.81015925321E+02  0.00000000000E+00 0.  1.
<mgrwt>
<rscale>  0 0.23129418E+04</rscale>
<asrwt>0</asrwt>
<pdfrwt beam="1">  1        1 0.21775615E+00 0.23129418E+04</pdfrwt>
<pdfrwt beam="2">  1       -1 0.14536916E+00 0.23129418E+04</pdfrwt>
<totfact> 0.25678153E+00</totfact>
</mgrwt>
</event>
<event>
12    1  0.1506149E-007  0.1819938E+04  0.7818608E-02  0.8695768E-01
          2   -1    0    0  501    0  0.00000000000E+00  0.00000000000E+00  0.15052410260E+04  0.15052410260E+04  0.00000000000E+00 0. -1.
         -2   -1    0    0    0  501 -0.00000000000E+00 -0.00000000000E+00 -0.55010710691E+03  0.55010710691E+03  0.00000000000E+00 0.  1.
         23    2    1    2    0    0  0.35427649893E+03  0.96925767667E+02 -0.29175648252E+03  0.47771258295E+03  0.90449017066E+02 0.  0.
        254    2    1    2    0    0 -0.35427649893E+03 -0.96925767667E+02  0.12468904016E+04  0.15776355499E+04  0.89403121463E+03 0.  0.
        -24    2    4    4    0    0  0.28551364879E+03 -0.24368998676E+02  0.25131804464E+03  0.38919860236E+03  0.78758496519E+02 0.  0.
         24    2    4    4    0    0 -0.63979014772E+03 -0.72556768991E+02  0.99557235694E+03  0.11884369476E+04  0.81376548249E+02 0.  0.
         11    1    3    3    0    0  0.13659239448E+03  0.14330376544E+01 -0.74073700958E+02  0.15539127711E+03  0.00000000000E+00 0. -1.
        -11    1    3    3    0    0  0.21768410445E+03  0.95492730013E+02 -0.21768278156E+03  0.32232130584E+03  0.00000000000E+00 0.  1.
          4    1    6    6  502    0 -0.29624625236E+03  0.58011764500E+01  0.43555674405E+03  0.52678759759E+03  0.00000000000E+00 0. -1.
          3    1    5    5  503    0  0.19813484432E+03 -0.53102613069E+02  0.17735626073E+03  0.27116885379E+03  0.00000000000E+00 0. -1.
         -4    1    5    5    0  503  0.87378804476E+02  0.28733614393E+02  0.73961783915E+02  0.11802974857E+03  0.00000000000E+00 0.  1.
         -3    1    6    6    0  502 -0.34354389536E+03 -0.78357945441E+02  0.56001561289E+03  0.66164934998E+03  0.00000000000E+00 0.  1.
<mgrwt>
<rscale>  0 0.18199382E+04</rscale>
<asrwt>0</asrwt>
<pdfrwt beam="1">  1        2 0.23157554E+00 0.18199382E+04</pdfrwt>
<pdfrwt beam="2">  1       -2 0.84631863E-01 0.18199382E+04</pdfrwt>
<totfact> 0.14461012E+01</totfact>
</mgrwt>
</event>
<event>
12    1  0.1506149E-007  0.1591345E+04  0.7818608E-02  0.8825883E-01
          1   -1    0    0  501    0  0.00000000000E+00  0.00000000000E+00  0.12189736119E+04  0.12189736119E+04  0.00000000000E+00 0. -1.
         -1   -1    0    0    0  501 -0.00000000000E+00 -0.00000000000E+00 -0.51936724642E+03  0.51936724642E+03  0.00000000000E+00 0.  1.
         23    2    1    2    0    0 -0.94866069291E+02  0.17541146682E+02  0.83170727060E+03  0.84170347025E+03  0.86142236646E+02 0.  0.
        254    2    1    2    0    0  0.94866069291E+02 -0.17541146682E+02 -0.13210090509E+03  0.89663738809E+03  0.88158986704E+03 0.  0.
        -24    2    4    4    0    0  0.38902563351E+03 -0.14693223075E+03 -0.30452707936E+03  0.52154440450E+03  0.79635418234E+02 0.  0.
         24    2    4    4    0    0 -0.29415956422E+03  0.12939108407E+03  0.17242617427E+03  0.37509298359E+03  0.87704383646E+02 0.  0.
         11    1    3    3    0    0 -0.10719542858E+03  0.23990402131E+02  0.79298664002E+03  0.80055868651E+03  0.00000000000E+00 0. -1.
        -11    1    3    3    0    0  0.12329359287E+02 -0.64492554489E+01  0.38720630579E+02  0.41144783736E+02  0.00000000000E+00 0.  1.
          4    1    6    6  502    0 -0.66088339134E+02  0.27640259029E+01  0.77513245332E+01  0.66598734527E+02  0.00000000000E+00 0. -1.
          3    1    5    5  503    0  0.16123968996E+01  0.54985741443E+01 -0.10164704438E+02  0.11668562794E+02  0.00000000000E+00 0. -1.
         -4    1    5    5    0  503  0.38741323661E+03 -0.15243080490E+03 -0.29436237493E+03  0.50987584170E+03  0.00000000000E+00 0.  1.
         -3    1    6    6    0  502 -0.22807122508E+03  0.12662705817E+03  0.16467484974E+03  0.30849424907E+03  0.00000000000E+00 0.  1.
<mgrwt>
<rscale>  0 0.15913453E+04</rscale>
<asrwt>0</asrwt>
<pdfrwt beam="1">  1        1 0.18753440E+00 0.15913453E+04</pdfrwt>
<pdfrwt beam="2">  1       -1 0.79902654E-01 0.15913453E+04</pdfrwt>
<totfact> 0.15544123E+01</totfact>
</mgrwt>
</event>
<event>
12    1  0.1506149E-007  0.2799487E+04  0.7818608E-02  0.8303428E-01
         -1   -1    0    0    0  501 -0.00000000000E+00  0.00000000000E+00  0.22643568667E+04  0.22643568667E+04  0.00000000000E+00 0.  1.
          1   -1    0    0  501    0  0.00000000000E+00 -0.00000000000E+00 -0.86527049455E+03  0.86527049455E+03  0.00000000000E+00 0. -1.
         23    2    1    2    0    0  0.10288714162E+03  0.19921249956E+03  0.19952515087E+04  0.20099564690E+04  0.92871096481E+02 0.  0.
        254    2    1    2    0    0 -0.10288714162E+03 -0.19921249956E+03 -0.59616513650E+03  0.11196708923E+04  0.92085756396E+03 0.  0.
        -24    2    4    4    0    0 -0.19292439329E+03  0.31551707546E+03 -0.93019729183E+02  0.38969153648E+03  0.80224542095E+02 0.  0.
         24    2    4    4    0    0  0.90037251669E+02 -0.51472957502E+03 -0.50314540732E+03  0.72997935578E+03  0.81616890844E+02 0.  0.
         13    1    3    3    0    0  0.43147757810E+02  0.10786028454E+03  0.65126587136E+03  0.66154576954E+03  0.00000000000E+00 0. -1.
        -13    1    3    3    0    0  0.59739383811E+02  0.91352215013E+02  0.13439856373E+04  0.13484106995E+04  0.00000000000E+00 0.  1.
          4    1    6    6  502    0  0.62483437786E+02 -0.28227083047E+03 -0.22435304091E+03  0.36594437924E+03  0.00000000000E+00 0. -1.
          3    1    5    5  503    0 -0.17184501106E+03  0.26353043285E+03 -0.49038249709E+02  0.31840814500E+03  0.00000000000E+00 0. -1.
         -4    1    5    5    0  503 -0.21079382230E+02  0.51986642608E+02 -0.43981479474E+02  0.71283391485E+02  0.00000000000E+00 0.  1.
         -3    1    6    6    0  502  0.27553813884E+02 -0.23245874455E+03 -0.27879236641E+03  0.36403497654E+03  0.00000000000E+00 0.  1.
<mgrwt>
<rscale>  0 0.27994865E+04</rscale>
<asrwt>0</asrwt>
<pdfrwt beam="1">  1        1 0.13311854E+00 0.27994865E+04</pdfrwt>
<pdfrwt beam="2">  1       -1 0.34836259E+00 0.27994865E+04</pdfrwt>
<totfact> 0.26814952E-01</totfact>
</mgrwt>
</event>
<event>
12    1  0.1506149E-007  0.2422280E+04  0.7818608E-02  0.8431209E-01
         -1   -1    0    0    0  501 -0.00000000000E+00  0.00000000000E+00  0.11799004874E+04  0.11799004874E+04  0.00000000000E+00 0.  1.
          1   -1    0    0  501    0  0.00000000000E+00 -0.00000000000E+00 -0.12432063902E+04  0.12432063902E+04  0.00000000000E+00 0. -1.
         23    2    1    2    0    0 -0.93033309860E+02 -0.45596398080E+03 -0.95931401740E+03  0.10701180252E+04  0.91163892411E+02 0.  0.
        254    2    1    2    0    0  0.93033309860E+02  0.45596398080E+03  0.89600811460E+03  0.13529888524E+04  0.90066083788E+03 0.  0.
        -24    2    4    4    0    0 -0.37251339607E+03  0.28909631548E+03  0.26403423445E+03  0.54638278075E+03  0.80480781979E+02 0.  0.
         24    2    4    4    0    0  0.46554670593E+03  0.16686766532E+03  0.63197388015E+03  0.80660607169E+03  0.81509610277E+02 0.  0.
         13    1    3    3    0    0 -0.46702432222E+02 -0.38344609886E+03 -0.74539787992E+03  0.83954155781E+03  0.00000000000E+00 0. -1.
        -13    1    3    3    0    0 -0.46330877637E+02 -0.72517881942E+02 -0.21391613748E+03  0.23057646735E+03  0.00000000000E+00 0.  1.
          4    1    6    6  502    0  0.11369959505E+03  0.24664680480E+02  0.20202190070E+03  0.23312827529E+03  0.00000000000E+00 0. -1.
          1    1    5    5  503    0 -0.66829184669E+02  0.95351468725E+02  0.64735666371E+02  0.13322443099E+03  0.00000000000E+00 0. -1.
         -2    1    5    5    0  503 -0.30568421140E+03  0.19374484676E+03  0.19929856808E+03  0.41315834977E+03  0.00000000000E+00 0.  1.
         -3    1    6    6    0  502  0.35184711088E+03  0.14220298484E+03  0.42995197945E+03  0.57347779640E+03  0.00000000000E+00 0.  1.
<mgrwt>
<rscale>  0 0.24222798E+04</rscale>
<asrwt>0</asrwt>
<pdfrwt beam="1">  1        1 0.19126252E+00 0.24222798E+04</pdfrwt>
<pdfrwt beam="2">  1       -1 0.18152315E+00 0.24222798E+04</pdfrwt>
<totfact> 0.18040450E+00</totfact>
</mgrwt>
</event>
<event>
12    1  0.1597375E-007  0.1500485E+04  0.7818608E-02  0.8884130E-01
         -2   -1    0    0    0  501 -0.00000000000E+00  0.00000000000E+00  0.35116803090E+03  0.35116803090E+03  0.00000000000E+00 0.  1.
          2   -1    0    0  501    0  0.00000000000E+00 -0.00000000000E+00 -0.16028333947E+04  0.16028333947E+04  0.00000000000E+00 0. -1.
         23    2    1    2    0    0 -0.12693149878E+03 -0.99667064261E+02 -0.98503978280E+03  0.10022451490E+04  0.90259824680E+02 0.  0.
        254    2    1    2    0    0  0.12693149878E+03  0.99667064261E+02 -0.26662558101E+03  0.95175627660E+03  0.89928064614E+03 0.  0.
        -24    2    4    4    0    0 -0.35163723136E+03  0.23183918964E+02 -0.28479242565E+03  0.46020403421E+03  0.80590265063E+02 0.  0.
         24    2    4    4    0    0  0.47856873014E+03  0.76483145297E+02  0.18166844631E+02  0.49155224239E+03  0.80099137186E+02 0.  0.
         11    1    3    3    0    0  0.11658553187E+01  0.59389160585E+01 -0.39936646726E+01  0.72511585344E+01  0.00000000000E+00 0.  1.
        -11    1    3    3    0    0 -0.12809735409E+03 -0.10560598032E+03 -0.98104611813E+03  0.99499399048E+03  0.00000000000E+00 0. -1.
          4    1    6    6  502    0  0.46306456390E+03  0.84410343035E+02  0.67752549101E+01  0.47074387986E+03  0.00000000000E+00 0. -1.
          1    1    5    5  503    0 -0.33292065618E+03  0.17771512131E+02 -0.23832715083E+03  0.40981925379E+03  0.00000000000E+00 0. -1.
         -2    1    5    5    0  503 -0.18716575176E+02  0.54124068329E+01 -0.46465274817E+02  0.50384780419E+02  0.00000000000E+00 0.  1.
         -3    1    6    6    0  502  0.15504166236E+02 -0.79271977386E+01  0.11391589721E+02  0.20808362526E+02  0.00000000000E+00 0.  1.
<mgrwt>
<rscale>  0 0.15004851E+04</rscale>
<asrwt>0</asrwt>
<pdfrwt beam="1">  1        2 0.24658975E+00 0.15004851E+04</pdfrwt>
<pdfrwt beam="2">  1       -2 0.54025851E-01 0.15004851E+04</pdfrwt>
<totfact> 0.34632556E+01</totfact>
</mgrwt>
</event>
<event>
12    1  0.2326120E-007  0.1731791E+04  0.7818608E-02  0.8743437E-01
         -1   -1    0    0    0  501 -0.00000000000E+00  0.00000000000E+00  0.33383637873E+03  0.33383637873E+03  0.00000000000E+00 0.  1.
          1   -1    0    0  501    0  0.00000000000E+00 -0.00000000000E+00 -0.22459365109E+04  0.22459365109E+04  0.00000000000E+00 0. -1.
         23    2    1    2    0    0 -0.18976446356E+03 -0.38159924643E+03 -0.13933725134E+04  0.14598858408E+04  0.90283833726E+02 0.  0.
        254    2    1    2    0    0  0.18976446356E+03  0.38159924643E+03 -0.51872761872E+03  0.11198870488E+04  0.89634821530E+03 0.  0.
        -24    2    4    4    0    0  0.77541633530E+02  0.53591157944E+03  0.15054762407E+02  0.54756637013E+03  0.79927203895E+02 0.  0.
         24    2    4    4    0    0  0.11222283003E+03 -0.15431233301E+03 -0.53378238113E+03  0.57232067864E+03  0.78873754139E+02 0.  0.
         13    1    3    3    0    0 -0.68113158166E+02 -0.17929661291E+03 -0.76375469597E+03  0.78746930946E+03  0.00000000000E+00 0. -1.
        -13    1    3    3    0    0 -0.12165130539E+03 -0.20230263352E+03 -0.62961781743E+03  0.67241653137E+03  0.00000000000E+00 0.  1.
          2    1    6    6  502    0 -0.66705637566E+01 -0.11633032125E+02 -0.10421495623E+02  0.16983269069E+02  0.00000000000E+00 0. -1.
          3    1    5    5  503    0 -0.39416179336E+01  0.11244906414E+02 -0.10659411499E+02  0.15987724219E+02  0.00000000000E+00 0. -1.
         -4    1    5    5    0  503  0.81483251463E+02  0.52466667302E+03  0.25714173907E+02  0.53157864591E+03  0.00000000000E+00 0.  1.
         -1    1    6    6    0  502  0.11889339379E+03 -0.14267930088E+03 -0.52336088551E+03  0.55533740957E+03  0.00000000000E+00 0.  1.
<mgrwt>
<rscale>  0 0.17317913E+04</rscale>
<asrwt>0</asrwt>
<pdfrwt beam="1">  1        1 0.34552868E+00 0.17317913E+04</pdfrwt>
<pdfrwt beam="2">  1       -1 0.51359444E-01 0.17317913E+04</pdfrwt>
<totfact> 0.73396112E+00</totfact>
</mgrwt>
</event>
<event>
12    1  0.1506149E-007  0.1786987E+04  0.7818608E-02  0.8713251E-01
         -1   -1    0    0    0  501 -0.00000000000E+00  0.00000000000E+00  0.27921103655E+03  0.27921103655E+03  0.00000000000E+00 0.  1.
          1   -1    0    0  501    0  0.00000000000E+00 -0.00000000000E+00 -0.28592361931E+04  0.28592361931E+04  0.00000000000E+00 0. -1.
         23    2    1    2    0    0 -0.54578092751E+03 -0.11599408739E+03 -0.15867652178E+04  0.16855897627E+04  0.10980684219E+03 0.  0.
        254    2    1    2    0    0  0.54578092751E+03  0.11599408739E+03 -0.99325993870E+03  0.14528574669E+04  0.90160859809E+03 0.  0.
        -24    2    4    4    0    0 -0.21445103386E+03  0.14750434122E+03 -0.40330225912E+03  0.48677772274E+03  0.80950988526E+02 0.  0.
         24    2    4    4    0    0  0.76023196137E+03 -0.31510253831E+02 -0.58995767959E+03  0.96607974416E+03  0.79463684691E+02 0.  0.
         11    1    3    3    0    0 -0.54674004446E+03 -0.11024824500E+03 -0.15836245443E+04  0.16789717237E+04  0.00000000000E+00 0. -1.
        -11    1    3    3    0    0  0.95911695226E+00 -0.57458423940E+01 -0.31406735169E+01  0.66180390060E+01  0.00000000000E+00 0.  1.
          2    1    6    6  502    0  0.66479251565E+03 -0.36501492514E+02 -0.54525314872E+03  0.86057099882E+03  0.00000000000E+00 0. -1.
          1    1    5    5  503    0 -0.10421757994E+03  0.86120751039E+02 -0.13900477766E+03  0.19390826682E+03  0.00000000000E+00 0. -1.
         -2    1    5    5    0  503 -0.11023345392E+03  0.61383590183E+02 -0.26429748146E+03  0.29286945592E+03  0.00000000000E+00 0.  1.
         -1    1    6    6    0  502  0.95439445724E+02  0.49912386829E+01 -0.44704530868E+02  0.10550874534E+03  0.00000000000E+00 0.  1.
<mgrwt>
<rscale>  0 0.17869866E+04</rscale>
<asrwt>0</asrwt>
<pdfrwt beam="1">  1        1 0.43988248E+00 0.17869866E+04</pdfrwt>
<pdfrwt beam="2">  1       -1 0.42955546E-01 0.17869866E+04</pdfrwt>
<totfact> 0.38230091E+00</totfact>
</mgrwt>
</event>
<event>
12    1  0.1506149E-007  0.1821080E+04  0.7818608E-02  0.8695169E-01
         -2   -1    0    0    0  501 -0.00000000000E+00  0.00000000000E+00  0.28265688046E+03  0.28265688046E+03  0.00000000000E+00 0.  1.
          2   -1    0    0  501    0  0.00000000000E+00 -0.00000000000E+00 -0.29331788534E+04  0.29331788534E+04  0.00000000000E+00 0. -1.
         23    2    1    2    0    0  0.59373668698E+02 -0.16507600288E+03 -0.21695855180E+04  0.21789654662E+04  0.10006929500E+03 0.  0.
        254    2    1    2    0    0 -0.59373668698E+02  0.16507600288E+03 -0.48093645489E+03  0.10368702676E+04  0.90167885575E+03 0.  0.
        -24    2    4    4    0    0  0.18506168723E+03 -0.58597214930E+02  0.19057001159E+03  0.28377616619E+03  0.80811642098E+02 0.  0.
         24    2    4    4    0    0 -0.24443535593E+03  0.22367321781E+03 -0.67150646648E+03  0.75309410140E+03  0.80320853110E+02 0.  0.
         11    1    3    3    0    0  0.59545450004E+02 -0.12561472956E+03 -0.20010037701E+04  0.20058267145E+04  0.00000000000E+00 0. -1.
        -11    1    3    3    0    0 -0.17178130628E+00 -0.39461273319E+02 -0.16858174795E+03  0.17313875171E+03  0.00000000000E+00 0.  1.
          4    1    6    6  502    0 -0.17420637081E+03  0.10753668083E+03 -0.38403140989E+03  0.43519205087E+03  0.00000000000E+00 0. -1.
          3    1    5    5  503    0 -0.66561630658E+01 -0.83190763312E+01  0.34457645207E+01  0.11197536823E+02  0.00000000000E+00 0. -1.
         -4    1    5    5    0  503  0.19171785030E+03 -0.50278138599E+02  0.18712424707E+03  0.27257862936E+03  0.00000000000E+00 0.  1.
         -3    1    6    6    0  502 -0.70228985123E+02  0.11613653698E+03 -0.28747505659E+03  0.31790205053E+03  0.00000000000E+00 0.  1.
<mgrwt>
<rscale>  0 0.18210801E+04</rscale>
<asrwt>0</asrwt>
<pdfrwt beam="1">  1        2 0.45125828E+00 0.18210801E+04</pdfrwt>
<pdfrwt beam="2">  1       -2 0.43485674E-01 0.18210801E+04</pdfrwt>
<totfact> 0.90864949E+00</totfact>
</mgrwt>
</event>
<event>
12    1  0.1506149E-007  0.2457940E+04  0.7818608E-02  0.8418125E-01
         -1   -1    0    0    0  501 -0.00000000000E+00  0.00000000000E+00  0.13589792139E+04  0.13589792139E+04  0.00000000000E+00 0.  1.
          1   -1    0    0  501    0  0.00000000000E+00 -0.00000000000E+00 -0.11113979824E+04  0.11113979824E+04  0.00000000000E+00 0. -1.
         23    2    1    2    0    0 -0.25059500408E+03  0.85181897357E+03  0.68821000948E+03  0.11272495366E+04  0.93086415672E+02 0.  0.
        254    2    1    2    0    0  0.25059500408E+03 -0.85181897357E+03 -0.44062877792E+03  0.13431276597E+04  0.90633590378E+03 0.  0.
        -24    2    4    4    0    0 -0.18133553907E+02 -0.21519313540E+03  0.26613289752E+03  0.35143343676E+03  0.77729209631E+02 0.  0.
         24    2    4    4    0    0  0.26872855798E+03 -0.63662583817E+03 -0.70676167543E+03  0.99169422293E+03  0.80236339814E+02 0.  0.
         11    1    3    3    0    0 -0.48131894002E+02  0.27367649620E+03  0.17766658709E+03  0.32981952635E+03  0.00000000000E+00 0. -1.
        -11    1    3    3    0    0 -0.20246311008E+03  0.57814247737E+03  0.51054342239E+03  0.79743001024E+03  0.00000000000E+00 0.  1.
          4    1    6    6  502    0  0.26148294095E+03 -0.58923709055E+03 -0.67908684206E+03  0.93634001108E+03  0.00000000000E+00 0. -1.
          1    1    5    5  503    0 -0.36463851048E+01 -0.21436810136E+03  0.25493250356E+03  0.33310292760E+03  0.00000000000E+00 0. -1.
         -2    1    5    5    0  503 -0.14487168802E+02 -0.82503403473E+00  0.11200393962E+02  0.18330509157E+02  0.00000000000E+00 0.  1.
         -3    1    6    6    0  502  0.72456170300E+01 -0.47388747620E+02 -0.27674833373E+02  0.55354211849E+02  0.00000000000E+00 0.  1.
<mgrwt>
<rscale>  0 0.24579396E+04</rscale>
<asrwt>0</asrwt>
<pdfrwt beam="1">  1        1 0.17098431E+00 0.24579396E+04</pdfrwt>
<pdfrwt beam="2">  1       -1 0.20907372E+00 0.24579396E+04</pdfrwt>
<totfact> 0.14457136E+00</totfact>
</mgrwt>
</event>
<event>
12    1  0.1506149E-007  0.1434217E+04  0.7818608E-02  0.8929416E-01
         -1   -1    0    0    0  501 -0.00000000000E+00  0.00000000000E+00  0.32289186623E+03  0.32289186623E+03  0.00000000000E+00 0.  1.
          1   -1    0    0  501    0  0.00000000000E+00 -0.00000000000E+00 -0.15926214887E+04  0.15926214887E+04  0.00000000000E+00 0. -1.
         23    2    1    2    0    0 -0.45213184972E+03 -0.82116200992E+02 -0.45795537286E+03  0.65564130038E+03  0.94742341302E+02 0.  0.
        254    2    1    2    0    0  0.45213184972E+03  0.82116200992E+02 -0.81177424959E+03  0.12598720545E+04  0.84683757681E+03 0.  0.
        -24    2    4    4    0    0  0.67977075495E+03 -0.46307233110E+02 -0.52551040654E+03  0.86406723484E+03  0.78856577581E+02 0.  0.
         24    2    4    4    0    0 -0.22763890523E+03  0.12842343410E+03 -0.28626384305E+03  0.39580481969E+03  0.80015110165E+02 0.  0.
         11    1    3    3    0    0 -0.34393779223E+03 -0.73808006793E+02 -0.29105897844E+03  0.45656998995E+03  0.00000000000E+00 0.  1.
        -11    1    3    3    0    0 -0.10819405749E+03 -0.83081941988E+01 -0.16689639442E+03  0.19907131043E+03  0.00000000000E+00 0. -1.
          4    1    6    6  502    0 -0.12951879801E+03  0.32561730098E+02 -0.16855892293E+03  0.21505230946E+03  0.00000000000E+00 0. -1.
          3    1    5    5  503    0  0.58746649081E+03 -0.25367385641E+02 -0.42176858547E+03  0.72363604234E+03  0.00000000000E+00 0. -1.
         -4    1    5    5    0  503  0.92304264134E+02 -0.20939847469E+02 -0.10374182107E+03  0.14043119250E+03  0.00000000000E+00 0.  1.
         -3    1    6    6    0  502 -0.98120107218E+02  0.95861704004E+02 -0.11770492012E+03  0.18075251023E+03  0.00000000000E+00 0.  1.
<mgrwt>
<rscale>  0 0.14342169E+04</rscale>
<asrwt>0</asrwt>
<pdfrwt beam="1">  1        1 0.24501869E+00 0.14342169E+04</pdfrwt>
<pdfrwt beam="2">  1       -1 0.49675672E-01 0.14342169E+04</pdfrwt>
<totfact> 0.22311456E+01</totfact>
</mgrwt>
</event>
<event>
12    1  0.1506149E-007  0.2802561E+04  0.7818608E-02  0.8302474E-01
         -1   -1    0    0    0  501 -0.00000000000E+00  0.00000000000E+00  0.62926373818E+03  0.62926373818E+03  0.00000000000E+00 0.  1.
          1   -1    0    0  501    0  0.00000000000E+00 -0.00000000000E+00 -0.31204525870E+04  0.31204525870E+04  0.00000000000E+00 0. -1.
         23    2    1    2    0    0 -0.76731198674E+03  0.66566985789E+03 -0.20943279260E+04  0.23292293933E+04  0.84947397579E+02 0.  0.
        254    2    1    2    0    0  0.76731198674E+03 -0.66566985789E+03 -0.39686092281E+03  0.14204869318E+04  0.91016508766E+03 0.  0.
        -24    2    4    4    0    0  0.39848718516E+03 -0.33035842491E+03  0.26589466721E+03  0.58735320809E+03  0.79718826811E+02 0.  0.
         24    2    4    4    0    0  0.36882480157E+03 -0.33531143298E+03 -0.66275559002E+03  0.83313372376E+03  0.80008363401E+02 0.  0.
         13    1    3    3    0    0 -0.80006947614E+02  0.55436780342E+02 -0.15334198518E+03  0.18162629958E+03  0.00000000000E+00 0.  1.
        -13    1    3    3    0    0 -0.68730503912E+03  0.61023307755E+03 -0.19409859408E+04  0.21476030937E+04  0.00000000000E+00 0. -1.
          4    1    6    6  502    0  0.11759369021E+03 -0.71483473165E+02 -0.22338784089E+03  0.26237433253E+03  0.00000000000E+00 0. -1.
          1    1    5    5  503    0  0.25020105974E+03 -0.15672037252E+03  0.14295877100E+03  0.32802294990E+03  0.00000000000E+00 0. -1.
         -2    1    5    5    0  503  0.14828612543E+03 -0.17363805240E+03  0.12293589621E+03  0.25933025819E+03  0.00000000000E+00 0.  1.
         -3    1    6    6    0  502  0.25123111136E+03 -0.26382795982E+03 -0.43936774913E+03  0.57075939123E+03  0.00000000000E+00 0.  1.
<mgrwt>
<rscale>  0 0.28025614E+04</rscale>
<asrwt>0</asrwt>
<pdfrwt beam="1">  1        1 0.48006962E+00 0.28025614E+04</pdfrwt>
<pdfrwt beam="2">  1       -1 0.96809807E-01 0.28025614E+04</pdfrwt>
<totfact> 0.43259290E-01</totfact>
</mgrwt>
</event>
<event>
12    1  0.1506149E-007  0.2105112E+04  0.7818608E-02  0.8558995E-01
         -1   -1    0    0    0  501 -0.00000000000E+00  0.00000000000E+00  0.62018154217E+03  0.62018154217E+03  0.00000000000E+00 0.  1.
          1   -1    0    0  501    0  0.00000000000E+00 -0.00000000000E+00 -0.17863708329E+04  0.17863708329E+04  0.00000000000E+00 0. -1.
         23    2    1    2    0    0 -0.82385986957E+03  0.15416181642E+03 -0.25698551469E+03  0.88133885930E+03  0.90585207580E+02 0.  0.
        254    2    1    2    0    0  0.82385986957E+03 -0.15416181642E+03 -0.90920377607E+03  0.15252135158E+04  0.89281230505E+03 0.  0.
        -24    2    4    4    0    0  0.68473735708E+03 -0.24848693763E+03 -0.15594858655E+03  0.74932723098E+03  0.80995870726E+02 0.  0.
         24    2    4    4    0    0  0.13912251248E+03  0.94325121212E+02 -0.75325518952E+03  0.77588628483E+03  0.79711006035E+02 0.  0.
         11    1    3    3    0    0 -0.33266914908E+03  0.85245593341E+02 -0.14546079190E+03  0.37295363775E+03  0.00000000000E+00 0. -1.
        -11    1    3    3    0    0 -0.49119072049E+03  0.68916223076E+02 -0.11152472279E+03  0.50838522155E+03  0.00000000000E+00 0.  1.
          4    1    6    6  502    0  0.34711767773E+02  0.68493489593E+02 -0.26356658047E+03  0.27452432912E+03  0.00000000000E+00 0. -1.
          3    1    5    5  503    0  0.17413641402E+03 -0.99465801139E+02 -0.30710768079E+02  0.20287949024E+03  0.00000000000E+00 0. -1.
         -4    1    5    5    0  503  0.51060094307E+03 -0.14902113649E+03 -0.12523781848E+03  0.54644774074E+03  0.00000000000E+00 0.  1.
         -3    1    6    6    0  502  0.10441074471E+03  0.25831631619E+02 -0.48968860905E+03  0.50136195571E+03  0.00000000000E+00 0.  1.
<mgrwt>
<rscale>  0 0.21051121E+04</rscale>
<asrwt>0</asrwt>
<pdfrwt beam="1">  1        1 0.27482628E+00 0.21051121E+04</pdfrwt>
<pdfrwt beam="2">  1       -1 0.95412544E-01 0.21051121E+04</pdfrwt>
<totfact> 0.40563968E+00</totfact>
</mgrwt>
</event>
<event>
12    1  0.1506149E-007  0.1144923E+04  0.7818608E-02  0.9162480E-01
         -2   -1    0    0    0  501 -0.00000000000E+00  0.00000000000E+00  0.25824009619E+03  0.25824009619E+03  0.00000000000E+00 0. -1.
          2   -1    0    0  501    0  0.00000000000E+00 -0.00000000000E+00 -0.12690211150E+04  0.12690211150E+04  0.00000000000E+00 0.  1.
         23    2    1    2    0    0 -0.16447189438E+02  0.66728276161E+02 -0.44325140312E+03  0.45840437029E+03  0.94549391606E+02 0.  0.
        254    2    1    2    0    0  0.16447189438E+02 -0.66728276161E+02 -0.56752961571E+03  0.10688568409E+04  0.90312895468E+03 0.  0.
        -24    2    4    4    0    0  0.40175418182E+02 -0.60711566206E+02  0.23703620758E+03  0.25999533007E+03  0.78175760021E+02 0.  0.
         24    2    4    4    0    0 -0.23728228744E+02 -0.60167099553E+01 -0.80456582329E+03  0.80886151085E+03  0.79571038037E+02 0.  0.
         13    1    3    3    0    0  0.36401179048E+02  0.46745201368E+02 -0.25872037649E+03  0.26541739374E+03  0.00000000000E+00 0.  1.
        -13    1    3    3    0    0 -0.52848368486E+02  0.19983074793E+02 -0.18453102663E+03  0.19298697656E+03  0.00000000000E+00 0. -1.
          2    1    6    6  502    0  0.14985598341E+02  0.18300272161E+01 -0.33046514176E+02  0.36331656396E+02  0.00000000000E+00 0. -1.
          3    1    5    5  503    0 -0.42983331667E+01  0.11051033652E+02  0.46299861392E+01  0.12729406288E+02  0.00000000000E+00 0. -1.
         -4    1    5    5    0  503  0.44473751349E+02 -0.71762599858E+02  0.23240622144E+03  0.24726592378E+03  0.00000000000E+00 0.  1.
         -1    1    6    6    0  502 -0.38713827085E+02 -0.78467371714E+01 -0.77151930911E+03  0.77252985446E+03  0.00000000000E+00 0.  1.
<mgrwt>
<rscale>  0 0.11449229E+04</rscale>
<asrwt>0</asrwt>
<pdfrwt beam="1">  1        2 0.19523402E+00 0.11449229E+04</pdfrwt>
<pdfrwt beam="2">  1       -2 0.39729245E-01 0.11449229E+04</pdfrwt>
<totfact> 0.10222051E+02</totfact>
</mgrwt>
</event>
<event>
12    1  0.1506149E-007  0.1403446E+04  0.7818608E-02  0.8951328E-01
          1   -1    0    0  501    0  0.00000000000E+00  0.00000000000E+00  0.21523353536E+04  0.21523353536E+04  0.00000000000E+00 0. -1.
         -1   -1    0    0    0  501 -0.00000000000E+00 -0.00000000000E+00 -0.22878173760E+03  0.22878173760E+03  0.00000000000E+00 0.  1.
         23    2    1    2    0    0  0.14759133342E+03 -0.23274251423E+03  0.61508301819E+02  0.29631277481E+03  0.89809296258E+02 0.  0.
        254    2    1    2    0    0 -0.14759133342E+03  0.23274251423E+03  0.18620453141E+04  0.20848043163E+04  0.89623881076E+03 0.  0.
        -24    2    4    4    0    0 -0.33525864344E+03  0.72546135946E+02  0.20909058373E+03  0.41159987799E+03  0.89634187241E+02 0.  0.
         24    2    4    4    0    0  0.18766731001E+03  0.16019637828E+03  0.16529547304E+04  0.16732044383E+04  0.80447826937E+02 0.  0.
         11    1    3    3    0    0  0.69068805582E+02 -0.50222291669E+02  0.46038648083E+02  0.97017192303E+02  0.00000000000E+00 0. -1.
        -11    1    3    3    0    0  0.78522527839E+02 -0.18252022256E+03  0.15469653736E+02  0.19929558251E+03  0.00000000000E+00 0.  1.
          4    1    6    6  502    0  0.91745352435E+02  0.10484167920E+03  0.69165993613E+03  0.70555117081E+03  0.00000000000E+00 0. -1.
          1    1    5    5  503    0 -0.34512252014E+02 -0.12669118874E+01  0.56876835341E+02  0.66540776996E+02  0.00000000000E+00 0. -1.
         -2    1    5    5    0  503 -0.30074639142E+03  0.73813047834E+02  0.15221374838E+03  0.34505910100E+03  0.00000000000E+00 0.  1.
         -3    1    6    6    0  502  0.95921957579E+02  0.55354699079E+02  0.96129479428E+03  0.96765326753E+03  0.00000000000E+00 0.  1.
<mgrwt>
<rscale>  0 0.14034458E+04</rscale>
<asrwt>0</asrwt>
<pdfrwt beam="1">  1        1 0.33112850E+00 0.14034458E+04</pdfrwt>
<pdfrwt beam="2">  1       -1 0.35197192E-01 0.14034458E+04</pdfrwt>
<totfact> 0.17607650E+01</totfact>
</mgrwt>
</event>
<event>
12    1  0.1506149E-007  0.1766738E+04  0.7818608E-02  0.8724191E-01
          2   -1    0    0  501    0  0.00000000000E+00  0.00000000000E+00  0.12784092649E+04  0.12784092649E+04  0.00000000000E+00 0. -1.
         -2   -1    0    0    0  501 -0.00000000000E+00 -0.00000000000E+00 -0.61039949935E+03  0.61039949935E+03  0.00000000000E+00 0.  1.
         23    2    1    2    0    0 -0.18497873516E+03  0.18209497798E+03 -0.38532806850E+03  0.47319222427E+03  0.89763284620E+02 0.  0.
        254    2    1    2    0    0  0.18497873516E+03 -0.18209497798E+03  0.10533378340E+04  0.14156165400E+04  0.90943602421E+03 0.  0.
        -24    2    4    4    0    0 -0.33066084388E+03  0.96119085238E+02  0.43388586289E+03  0.55953687943E+03  0.79051282089E+02 0.  0.
         24    2    4    4    0    0  0.51563957904E+03 -0.27821406322E+03  0.61945197116E+03  0.85607966054E+03  0.76579371742E+02 0.  0.
         11    1    3    3    0    0  0.11800702871E+01  0.30605894957E+02 -0.21851492315E+02  0.37624474593E+02  0.00000000000E+00 0. -1.
        -11    1    3    3    0    0 -0.18615880545E+03  0.15148908302E+03 -0.36347657619E+03  0.43556774968E+03  0.00000000000E+00 0.  1.
          2    1    6    6  502    0  0.42007349016E+03 -0.19299162829E+03  0.46939911044E+03  0.65881942185E+03  0.00000000000E+00 0. -1.
          1    1    5    5  503    0 -0.29867687877E+03  0.10875327095E+03  0.40338616519E+03  0.51357136809E+03  0.00000000000E+00 0. -1.
         -2    1    5    5    0  503 -0.31983965105E+02 -0.12634185712E+02  0.30499697701E+02  0.45965511336E+02  0.00000000000E+00 0.  1.
         -1    1    6    6    0  502  0.95566088882E+02 -0.85222434929E+02  0.15005286072E+03  0.19726023869E+03  0.00000000000E+00 0.  1.
<mgrwt>
<rscale>  0 0.17667375E+04</rscale>
<asrwt>0</asrwt>
<pdfrwt beam="1">  1        2 0.19667835E+00 0.17667375E+04</pdfrwt>
<pdfrwt beam="2">  1       -2 0.93907616E-01 0.17667375E+04</pdfrwt>
<totfact> 0.15428146E+01</totfact>
</mgrwt>
</event>
<event>
12    1  0.1506149E-007  0.2485038E+04  0.7818608E-02  0.8408335E-01
         -1   -1    0    0    0  501 -0.00000000000E+00  0.00000000000E+00  0.43054270485E+03  0.43054270485E+03  0.00000000000E+00 0.  1.
          1   -1    0    0  501    0  0.00000000000E+00 -0.00000000000E+00 -0.35858299065E+04  0.35858299065E+04  0.00000000000E+00 0. -1.
         23    2    1    2    0    0  0.38108127103E+03 -0.46884382417E+03  0.68460761422E+02  0.61536850620E+03  0.94625873734E+02 0.  0.
        254    2    1    2    0    0 -0.38108127103E+03  0.46884382417E+03 -0.32237479631E+04  0.34010041051E+04  0.89957797174E+03 0.  0.
        -24    2    4    4    0    0  0.13321659302E+03  0.10122511071E+03 -0.21074804993E+04  0.21156254123E+04  0.80022786691E+02 0.  0.
         24    2    4    4    0    0 -0.51429786405E+03  0.36761871346E+03 -0.11162674638E+04  0.12853786929E+04  0.80619612974E+02 0.  0.
         11    1    3    3    0    0  0.29038203306E+03 -0.31912978467E+03  0.84234294813E+02  0.43961455960E+03  0.00000000000E+00 0. -1.
        -11    1    3    3    0    0  0.90699237970E+02 -0.14971403950E+03 -0.15773533390E+02  0.17575394661E+03  0.00000000000E+00 0.  1.
          4    1    6    6  502    0 -0.24011897790E+03  0.12492625274E+03 -0.45037834793E+03  0.52545632402E+03  0.00000000000E+00 0. -1.
          1    1    5    5  503    0 -0.32950637323E+01 -0.91164785621E+01 -0.88634132925E+02  0.89162644340E+02  0.00000000000E+00 0. -1.
         -2    1    5    5    0  503  0.13651165675E+03  0.11034158927E+03 -0.20188463664E+04  0.20264627679E+04  0.00000000000E+00 0.  1.
         -3    1    6    6    0  502 -0.27417888615E+03  0.24269246072E+03 -0.66588911584E+03  0.75992236886E+03  0.00000000000E+00 0.  1.
<mgrwt>
<rscale>  0 0.24850376E+04</rscale>
<asrwt>0</asrwt>
<pdfrwt beam="1">  1        1 0.55166613E+00 0.24850376E+04</pdfrwt>
<pdfrwt beam="2">  1       -1 0.66237340E-01 0.24850376E+04</pdfrwt>
<totfact> 0.43931137E-01</totfact>
</mgrwt>
</event>
<event>
12    1  0.1646431E-007  0.3177765E+04  0.7818608E-02  0.8194714E-01
         -1   -1    0    0    0  501 -0.00000000000E+00  0.00000000000E+00  0.92111957003E+03  0.92111957003E+03  0.00000000000E+00 0.  1.
          1   -1    0    0  501    0  0.00000000000E+00 -0.00000000000E+00 -0.27407383378E+04  0.27407383378E+04  0.00000000000E+00 0. -1.
         23    2    1    2    0    0 -0.10991674344E+04  0.31704837117E+03  0.21033982737E+03  0.11670353411E+04  0.95078524055E+02 0.  0.
        254    2    1    2    0    0  0.10991674344E+04 -0.31704837117E+03 -0.20299585951E+04  0.24948225667E+04  0.89147014699E+03 0.  0.
        -24    2    4    4    0    0  0.12482058689E+03 -0.40939019075E+03 -0.88625479322E+03  0.98735725484E+03  0.79033429536E+02 0.  0.
         24    2    4    4    0    0  0.97434684756E+03  0.92341819579E+02 -0.11437038019E+04  0.15074653119E+04  0.80712385006E+02 0.  0.
         13    1    3    3    0    0 -0.26282582664E+03  0.10458996670E+03  0.82906098556E+02  0.29477092370E+03  0.00000000000E+00 0. -1.
        -13    1    3    3    0    0 -0.83634160780E+03  0.21245840447E+03  0.12743372882E+03  0.87226441737E+03  0.00000000000E+00 0.  1.
          2    1    6    6  502    0  0.33632172657E+02 -0.10106937306E+02 -0.31466049808E+02  0.47152788994E+02  0.00000000000E+00 0. -1.
          3    1    5    5  503    0 -0.10244577094E+02 -0.13576268757E+02 -0.34495707520E+02  0.38460632736E+02  0.00000000000E+00 0. -1.
         -4    1    5    5    0  503  0.13506516398E+03 -0.39581392199E+03 -0.85175908570E+03  0.94889662210E+03  0.00000000000E+00 0.  1.
         -1    1    6    6    0  502  0.94071467490E+03  0.10244875688E+03 -0.11122377521E+04  0.14603125229E+04  0.00000000000E+00 0.  1.
<mgrwt>
<rscale>  0 0.31777651E+04</rscale>
<asrwt>0</asrwt>
<pdfrwt beam="1">  1        1 0.42165205E+00 0.31777651E+04</pdfrwt>
<pdfrwt beam="2">  1       -1 0.14171070E+00 0.31777651E+04</pdfrwt>
<totfact> 0.31235830E-01</totfact>
</mgrwt>
</event>
<event>
12    1  0.1506149E-007  0.1460669E+04  0.7818608E-02  0.8911037E-01
         -2   -1    0    0    0  501 -0.00000000000E+00  0.00000000000E+00  0.39025081772E+03  0.39025081772E+03  0.00000000000E+00 0.  1.
          2   -1    0    0  501    0  0.00000000000E+00 -0.00000000000E+00 -0.13667830225E+04  0.13667830225E+04  0.00000000000E+00 0. -1.
         23    2    1    2    0    0  0.16780774191E+03 -0.33358821222E+03 -0.60522041516E+03  0.71698656476E+03  0.91309635536E+02 0.  0.
        254    2    1    2    0    0 -0.16780774191E+03  0.33358821222E+03 -0.37131178959E+03  0.10400472754E+04  0.89687532939E+03 0.  0.
        -24    2    4    4    0    0  0.13244807659E+03  0.33906892151E+03 -0.56348548769E+03  0.67562235537E+03  0.80246156960E+02 0.  0.
         24    2    4    4    0    0 -0.30025581851E+03 -0.54807092921E+01  0.19217369810E+03  0.36442492006E+03  0.75440025163E+02 0.  0.
         13    1    3    3    0    0  0.14755962799E+03 -0.33224125521E+03 -0.58133632166E+03  0.68564569156E+03  0.00000000000E+00 0. -1.
        -13    1    3    3    0    0  0.20248113922E+02 -0.13469570147E+01 -0.23884093495E+02  0.31340873196E+02  0.00000000000E+00 0.  1.
          2    1    6    6  502    0 -0.27416622253E+03  0.10011874702E+02  0.15063092022E+03  0.31298087696E+03  0.00000000000E+00 0. -1.
          1    1    5    5  503    0  0.14359890474E+03  0.31506446862E+03 -0.52612554193E+03  0.62983676512E+03  0.00000000000E+00 0. -1.
         -2    1    5    5    0  503 -0.11150828144E+02  0.24004452894E+02 -0.37359945762E+02  0.45785590248E+02  0.00000000000E+00 0.  1.
         -1    1    6    6    0  502 -0.26089595974E+02 -0.15492583994E+02  0.41542777880E+02  0.51444043104E+02  0.00000000000E+00 0.  1.
<mgrwt>
<rscale>  0 0.14606686E+04</rscale>
<asrwt>0</asrwt>
<pdfrwt beam="1">  1        2 0.21027431E+00 0.14606686E+04</pdfrwt>
<pdfrwt beam="2">  1       -2 0.60038588E-01 0.14606686E+04</pdfrwt>
<totfact> 0.37893573E+01</totfact>
</mgrwt>
</event>
<event>
12    1  0.1506149E-007  0.2313934E+04  0.7818608E-02  0.8472447E-01
         -1   -1    0    0    0  501 -0.00000000000E+00  0.00000000000E+00  0.11489653913E+04  0.11489653913E+04  0.00000000000E+00 0.  1.
          1   -1    0    0  501    0  0.00000000000E+00 -0.00000000000E+00 -0.11650241074E+04  0.11650241074E+04  0.00000000000E+00 0. -1.
         23    2    1    2    0    0  0.12715283370E+03 -0.59063477343E+03  0.75934472462E+03  0.97461113700E+03  0.90802967195E+02 0.  0.
        254    2    1    2    0    0 -0.12715283370E+03  0.59063477343E+03 -0.77540344065E+03  0.13393783617E+04  0.90976184865E+03 0.  0.
        -24    2    4    4    0    0 -0.29472249591E+03  0.18067503799E+03 -0.81392789551E+03  0.88779441703E+03  0.78711427805E+02 0.  0.
         24    2    4    4    0    0  0.16756966221E+03  0.40995973544E+03  0.38524454856E+02  0.45158394465E+03  0.79355838284E+02 0.  0.
         11    1    3    3    0    0  0.10957822352E+03 -0.31368726929E+03  0.44369090490E+03  0.55431823809E+03  0.00000000000E+00 0.  1.
        -11    1    3    3    0    0  0.17574610178E+02 -0.27694750413E+03  0.31565381972E+03  0.42029289891E+03  0.00000000000E+00 0. -1.
          2    1    6    6  502    0  0.12241798481E+03  0.23248980450E+03 -0.71603221301E+01  0.26284775520E+03  0.00000000000E+00 0. -1.
          1    1    5    5  503    0 -0.29125847017E+02  0.20717255946E+01 -0.12170390939E+03  0.12515769482E+03  0.00000000000E+00 0. -1.
         -2    1    5    5    0  503 -0.26559664890E+03  0.17860331239E+03 -0.69222398612E+03  0.76263672221E+03  0.00000000000E+00 0.  1.
         -1    1    6    6    0  502  0.45151677400E+02  0.17746993093E+03  0.45684776986E+02  0.18873618945E+03  0.00000000000E+00 0.  1.
<mgrwt>
<rscale>  0 0.23139338E+04</rscale>
<asrwt>0</asrwt>
<pdfrwt beam="1">  1        1 0.17923448E+00 0.23139338E+04</pdfrwt>
<pdfrwt beam="2">  1       -1 0.17676391E+00 0.23139338E+04</pdfrwt>
<totfact> 0.22480464E+00</totfact>
</mgrwt>
</event>
<event>
12    1  0.1506149E-007  0.1706781E+04  0.7818608E-02  0.8757506E-01
         -2   -1    0    0    0  501 -0.00000000000E+00  0.00000000000E+00  0.44164149211E+03  0.44164149211E+03  0.00000000000E+00 0. -1.
          2   -1    0    0  501    0  0.00000000000E+00 -0.00000000000E+00 -0.16490198834E+04  0.16490198834E+04  0.00000000000E+00 0.  1.
         23    2    1    2    0    0 -0.33445867264E+03  0.68726967964E+02 -0.10559459890E+04  0.11131320986E+04  0.86343136837E+02 0.  0.
        254    2    1    2    0    0  0.33445867264E+03 -0.68726967964E+02 -0.15143240230E+03  0.97752927699E+03  0.90335248662E+03 0.  0.
        -24    2    4    4    0    0 -0.16259819274E+03  0.11585002302E+03  0.23336585905E+03  0.31731809429E+03  0.79823233943E+02 0.  0.
         24    2    4    4    0    0  0.49705686538E+03 -0.18457699098E+03 -0.38479826135E+03  0.66021118271E+03  0.81700127393E+02 0.  0.
         13    1    3    3    0    0 -0.48775225865E+01 -0.84392310324E+01 -0.10848010229E+02  0.14583901156E+02  0.00000000000E+00 0. -1.
        -13    1    3    3    0    0 -0.32958115005E+03  0.77166198996E+02 -0.10450979788E+04  0.10985481974E+04  0.00000000000E+00 0.  1.
          4    1    6    6  502    0  0.24859125265E+02 -0.98907065756E+01 -0.46467469101E+02  0.53619286364E+02  0.00000000000E+00 0. -1.
          3    1    5    5  503    0 -0.36589385481E+02  0.62582000923E+02  0.11738538264E+03  0.13796600316E+03  0.00000000000E+00 0. -1.
         -4    1    5    5    0  503 -0.12600880726E+03  0.53268022095E+02  0.11598047640E+03  0.17935209113E+03  0.00000000000E+00 0.  1.
         -3    1    6    6    0  502  0.47219774011E+03 -0.17468628441E+03 -0.33833079224E+03  0.60659189634E+03  0.00000000000E+00 0.  1.
<mgrwt>
<rscale>  0 0.17067813E+04</rscale>
<asrwt>0</asrwt>
<pdfrwt beam="1">  1        2 0.25369537E+00 0.17067813E+04</pdfrwt>
<pdfrwt beam="2">  1       -2 0.67944844E-01 0.17067813E+04</pdfrwt>
<totfact> 0.19750231E+01</totfact>
</mgrwt>
</event>
<event>
12    1  0.1590749E-007  0.1574052E+04  0.7818608E-02  0.8836650E-01
          1   -1    0    0  501    0  0.00000000000E+00  0.00000000000E+00  0.14050193788E+04  0.14050193788E+04  0.00000000000E+00 0. -1.
         -1   -1    0    0    0  501 -0.00000000000E+00 -0.00000000000E+00 -0.44085489964E+03  0.44085489964E+03  0.00000000000E+00 0.  1.
         23    2    1    2    0    0  0.22263370454E+03 -0.78023208789E+02 -0.22413763303E+03  0.33788915192E+03  0.90983586079E+02 0.  0.
        254    2    1    2    0    0 -0.22263370454E+03  0.78023208789E+02  0.11883021122E+04  0.15079851265E+04  0.89794423237E+03 0.  0.
        -24    2    4    4    0    0 -0.46624238174E+03 -0.21397072497E+03  0.83664890488E+03  0.98478570657E+03  0.81584729856E+02 0.  0.
         24    2    4    4    0    0  0.24360867720E+03  0.29199393376E+03  0.35165320728E+03  0.52319941993E+03  0.73973034693E+02 0.  0.
         11    1    3    3    0    0 -0.23450457063E+01 -0.18578117730E+02 -0.27292821001E+02  0.33098999622E+02  0.00000000000E+00 0. -1.
        -11    1    3    3    0    0  0.22497875025E+03 -0.59445091058E+02 -0.19684481203E+03  0.30479015230E+03  0.00000000000E+00 0.  1.
          4    1    6    6  502    0  0.55699518374E+02  0.33760570403E+02  0.37193006880E+02  0.75003548062E+02  0.00000000000E+00 0. -1.
          1    1    5    5  503    0 -0.11242364396E+03 -0.37101919625E+02  0.25786543287E+03  0.28374321072E+03  0.00000000000E+00 0. -1.
         -4    1    5    5    0  503 -0.35381873778E+03 -0.17686880535E+03  0.57878347201E+03  0.70104249585E+03  0.00000000000E+00 0.  1.
         -3    1    6    6    0  502  0.18790915882E+03  0.25823336336E+03  0.31446020040E+03  0.44819587186E+03  0.00000000000E+00 0.  1.
<mgrwt>
<rscale>  0 0.15740517E+04</rscale>
<asrwt>0</asrwt>
<pdfrwt beam="1">  1        1 0.21615682E+00 0.15740517E+04</pdfrwt>
<pdfrwt beam="2">  1       -1 0.67823832E-01 0.15740517E+04</pdfrwt>
<totfact> 0.16129256E+01</totfact>
</mgrwt>
</event>
<event>
12    1  0.1506149E-007  0.2012056E+04  0.7818608E-02  0.8601005E-01
          2   -1    0    0  501    0  0.00000000000E+00  0.00000000000E+00  0.87635642380E+03  0.87635642380E+03  0.00000000000E+00 0. -1.
         -2   -1    0    0    0  501 -0.00000000000E+00 -0.00000000000E+00 -0.11548869680E+04  0.11548869680E+04  0.00000000000E+00 0.  1.
         23    2    1    2    0    0 -0.52766749712E+02  0.59937893102E+03 -0.64702086994E+03  0.88814130822E+03  0.90108514634E+02 0.  0.
        254    2    1    2    0    0  0.52766749712E+02 -0.59937893102E+03  0.36849032576E+03  0.11431020835E+04  0.89936523193E+03 0.  0.
        -24    2    4    4    0    0 -0.32449803264E+03 -0.57514106933E+02  0.33856067770E+03  0.47765255573E+03  0.70155440424E+02 0.  0.
         24    2    4    4    0    0  0.37726478235E+03 -0.54186482408E+03  0.29929648063E+02  0.66544952782E+03  0.77337485441E+02 0.  0.
         13    1    3    3    0    0  0.16028925214E+02  0.32338038890E+02 -0.26708175504E+02  0.44899909148E+02  0.00000000000E+00 0. -1.
        -13    1    3    3    0    0 -0.68795674926E+02  0.56704089213E+03 -0.62031269444E+03  0.84324139908E+03  0.00000000000E+00 0.  1.
          4    1    6    6  502    0  0.31946905827E+03 -0.48045685693E+03  0.48804181856E+02  0.57903464381E+03  0.00000000000E+00 0. -1.
          1    1    5    5  503    0 -0.23584450701E+03 -0.10056334837E+02  0.22769868211E+03  0.32797934568E+03  0.00000000000E+00 0. -1.
         -2    1    5    5    0  503 -0.88653525631E+02 -0.47457772096E+02  0.11086199559E+03  0.14967321005E+03  0.00000000000E+00 0.  1.
         -3    1    6    6    0  502  0.57795724082E+02 -0.61407967152E+02 -0.18874533793E+02  0.86414884007E+02  0.00000000000E+00 0.  1.
<mgrwt>
<rscale>  0 0.20120563E+04</rscale>
<asrwt>0</asrwt>
<pdfrwt beam="1">  1        2 0.13482407E+00 0.20120563E+04</pdfrwt>
<pdfrwt beam="2">  1       -2 0.17767492E+00 0.20120563E+04</pdfrwt>
<totfact> 0.53134626E+00</totfact>
</mgrwt>
</event>
<event>
12    1  0.1506149E-007  0.2854072E+04  0.7818608E-02  0.8286675E-01
          1   -1    0    0  501    0  0.00000000000E+00  0.00000000000E+00  0.17044231824E+04  0.17044231824E+04  0.00000000000E+00 0. -1.
         -1   -1    0    0    0  501 -0.00000000000E+00 -0.00000000000E+00 -0.11947921250E+04  0.11947921250E+04  0.00000000000E+00 0.  1.
         23    2    1    2    0    0 -0.31418644149E+03 -0.72984045654E+03 -0.80849409243E+03  0.11373067967E+04  0.91781481173E+02 0.  0.
        254    2    1    2    0    0  0.31418644149E+03  0.72984045654E+03  0.13181251498E+04  0.17619085108E+04  0.85760566568E+03 0.  0.
        -24    2    4    4    0    0  0.30187373752E+03  0.46090916010E+03  0.17337686918E+03  0.58305699726E+03  0.79567053605E+02 0.  0.
         24    2    4    4    0    0  0.12312703973E+02  0.26893129643E+03  0.11447482806E+04  0.11788515135E+04  0.82259467994E+02 0.  0.
         11    1    3    3    0    0 -0.15479576229E+03 -0.44153509843E+03 -0.51878624942E+03  0.69860872007E+03  0.00000000000E+00 0.  1.
        -11    1    3    3    0    0 -0.15939067920E+03 -0.28830535811E+03 -0.28970784301E+03  0.43869807662E+03  0.00000000000E+00 0. -1.
          2    1    6    6  502    0  0.27553149390E+02  0.48051043072E+02  0.15379604476E+03  0.16346651696E+03  0.00000000000E+00 0. -1.
          3    1    5    5  503    0  0.61051599201E+02  0.95065298421E+02  0.70408350783E+02  0.13312416982E+03  0.00000000000E+00 0. -1.
         -4    1    5    5    0  503  0.24082213832E+03  0.36584386168E+03  0.10296851840E+03  0.44993282745E+03  0.00000000000E+00 0.  1.
         -1    1    6    6    0  502 -0.15240445416E+02  0.22088025336E+03  0.99095223584E+03  0.10153849965E+04  0.00000000000E+00 0.  1.
<mgrwt>
<rscale>  0 0.28540718E+04</rscale>
<asrwt>0</asrwt>
<pdfrwt beam="1">  1        1 0.26221895E+00 0.28540718E+04</pdfrwt>
<pdfrwt beam="2">  1       -1 0.18381417E+00 0.28540718E+04</pdfrwt>
<totfact> 0.79711591E-01</totfact>
</mgrwt>
</event>
<event>
12    1  0.1506149E-007  0.3074104E+04  0.7818608E-02  0.8222881E-01
          2   -1    0    0  501    0  0.00000000000E+00  0.00000000000E+00  0.36283998067E+04  0.36283998067E+04  0.00000000000E+00 0. -1.
         -2   -1    0    0    0  501 -0.00000000000E+00 -0.00000000000E+00 -0.65112155293E+03  0.65112155293E+03  0.00000000000E+00 0.  1.
         23    2    1    2    0    0 -0.13581741209E+04 -0.26951366655E+03  0.10078369996E+04  0.17149665417E+04  0.90001457224E+02 0.  0.
        254    2    1    2    0    0  0.13581741209E+04  0.26951366655E+03  0.19694412542E+04  0.25645548179E+04  0.88372393947E+03 0.  0.
        -24    2    4    4    0    0  0.15946948295E+03 -0.19022663826E+03  0.74386068935E+03  0.78785712322E+03  0.75983100417E+02 0.  0.
         24    2    4    4    0    0  0.11987046380E+04  0.45974030481E+03  0.12255805648E+04  0.17766976947E+04  0.79705837161E+02 0.  0.
         13    1    3    3    0    0 -0.52893105386E+03 -0.61614920332E+02  0.37402340709E+03  0.65073648061E+03  0.00000000000E+00 0. -1.
        -13    1    3    3    0    0 -0.82924306705E+03 -0.20789874622E+03  0.63381359247E+03  0.10642300611E+04  0.00000000000E+00 0.  1.
          4    1    6    6  502    0  0.30823588443E+02  0.26449099707E+02  0.36537484866E+02  0.54631824792E+02  0.00000000000E+00 0. -1.
          3    1    5    5  503    0  0.28289478762E+01  0.64523075207E+01  0.10983373756E+02  0.13048743905E+02  0.00000000000E+00 0. -1.
         -4    1    5    5    0  503  0.15664053508E+03 -0.19667894578E+03  0.73287731560E+03  0.77480837932E+03  0.00000000000E+00 0.  1.
         -3    1    6    6    0  502  0.11678810495E+04  0.43329120511E+03  0.11890430800E+04  0.17220658699E+04  0.00000000000E+00 0.  1.
<mgrwt>
<rscale>  0 0.30741043E+04</rscale>
<asrwt>0</asrwt>
<pdfrwt beam="1">  1        2 0.55821534E+00 0.30741043E+04</pdfrwt>
<pdfrwt beam="2">  1       -2 0.10017255E+00 0.30741043E+04</pdfrwt>
<totfact> 0.46046751E-01</totfact>
</mgrwt>
</event>
<event>
12    1  0.1506149E-007  0.2259658E+04  0.7818608E-02  0.8493999E-01
          2   -1    0    0  501    0  0.00000000000E+00  0.00000000000E+00  0.26806219378E+04  0.26806219378E+04  0.00000000000E+00 0. -1.
         -2   -1    0    0    0  501 -0.00000000000E+00 -0.00000000000E+00 -0.47620049938E+03  0.47620049938E+03  0.00000000000E+00 0.  1.
         23    2    1    2    0    0 -0.49142153646E+00 -0.31675937103E+03 -0.31899584859E+03  0.45807322500E+03  0.87954462183E+02 0.  0.
        254    2    1    2    0    0  0.49142153646E+00  0.31675937103E+03  0.25234172870E+04  0.26987492122E+04  0.90292622355E+03 0.  0.
        -24    2    4    4    0    0 -0.58565980194E+02  0.58594857570E+03  0.21330552400E+04  0.22142885946E+04  0.79897534617E+02 0.  0.
         24    2    4    4    0    0  0.59057401730E+02 -0.26918920467E+03  0.39036204700E+03  0.48446061753E+03  0.79805749084E+02 0.  0.
         13    1    3    3    0    0 -0.36045279027E+02 -0.11038611339E+03 -0.14528636589E+03  0.18599054891E+03  0.00000000000E+00 0. -1.
        -13    1    3    3    0    0  0.35553857491E+02 -0.20637325764E+03 -0.17370948270E+03  0.27208267609E+03  0.00000000000E+00 0.  1.
          4    1    6    6  502    0  0.25966604691E+01 -0.11717463515E+03  0.21992084661E+03  0.24920236063E+03  0.00000000000E+00 0. -1.
          1    1    5    5  503    0 -0.45041477372E+02  0.44253943541E+03  0.14730973004E+04  0.15387935348E+04  0.00000000000E+00 0. -1.
         -2    1    5    5    0  503 -0.13524502822E+02  0.14340914029E+03  0.65995793967E+03  0.67549505981E+03  0.00000000000E+00 0.  1.
         -3    1    6    6    0  502  0.56460741261E+02 -0.15201456952E+03  0.17044120039E+03  0.23525825690E+03  0.00000000000E+00 0.  1.
<mgrwt>
<rscale>  0 0.22596579E+04</rscale>
<asrwt>0</asrwt>
<pdfrwt beam="1">  1        2 0.41240337E+00 0.22596579E+04</pdfrwt>
<pdfrwt beam="2">  1       -2 0.73261617E-01 0.22596579E+04</pdfrwt>
<totfact> 0.41729418E+00</totfact>
</mgrwt>
</event>
<event>
12    1  0.1506149E-007  0.2000059E+04  0.7818608E-02  0.8606593E-01
          1   -1    0    0  501    0  0.00000000000E+00  0.00000000000E+00  0.62654157791E+03  0.62654157791E+03  0.00000000000E+00 0. -1.
         -1   -1    0    0    0  501 -0.00000000000E+00 -0.00000000000E+00 -0.15961581688E+04  0.15961581688E+04  0.00000000000E+00 0.  1.
         23    2    1    2    0    0 -0.77966776446E+03 -0.14129033576E+03 -0.42307955164E+03  0.90235683053E+03  0.86062539248E+02 0.  0.
        254    2    1    2    0    0  0.77966776446E+03  0.14129033576E+03 -0.54653703924E+03  0.13203429162E+04  0.90374659010E+03 0.  0.
        -24    2    4    4    0    0 -0.37509904277E+02  0.33294102007E+03 -0.69504895876E+02  0.35170722327E+03  0.81303902678E+02 0.  0.
         24    2    4    4    0    0  0.81717766874E+03 -0.19165068430E+03 -0.47703214336E+03  0.96863569290E+03  0.78651844755E+02 0.  0.
         11    1    3    3    0    0 -0.64692972588E+03 -0.13049172624E+03 -0.38408611056E+03  0.76358909183E+03  0.00000000000E+00 0. -1.
        -11    1    3    3    0    0 -0.13273803859E+03 -0.10798609523E+02 -0.38993441079E+02  0.13876773870E+03  0.00000000000E+00 0.  1.
          2    1    6    6  502    0  0.63807777409E+03 -0.18096608396E+03 -0.36366333763E+03  0.75640134351E+03  0.00000000000E+00 0. -1.
          3    1    5    5  503    0 -0.29536575779E+02  0.15847879043E+03 -0.73143101768E+02  0.17702499728E+03  0.00000000000E+00 0. -1.
         -4    1    5    5    0  503 -0.79733284976E+01  0.17446222963E+03  0.36382058919E+01  0.17468222599E+03  0.00000000000E+00 0.  1.
         -1    1    6    6    0  502  0.17909989465E+03 -0.10684600346E+02 -0.11336880573E+03  0.21223434939E+03  0.00000000000E+00 0.  1.
<mgrwt>
<rscale>  0 0.20000595E+04</rscale>
<asrwt>0</asrwt>
<pdfrwt beam="1">  1        1 0.96391011E-01 0.20000595E+04</pdfrwt>
<pdfrwt beam="2">  1       -1 0.24556280E+00 0.20000595E+04</pdfrwt>
<totfact> 0.22232580E+00</totfact>
</mgrwt>
</event>
<event>
12    1  0.1506149E-007  0.1448120E+04  0.7818608E-02  0.8919705E-01
         -2   -1    0    0    0  501 -0.00000000000E+00  0.00000000000E+00  0.21697973979E+03  0.21697973979E+03  0.00000000000E+00 0.  1.
          2   -1    0    0  501    0  0.00000000000E+00 -0.00000000000E+00 -0.24161846677E+04  0.24161846677E+04  0.00000000000E+00 0. -1.
         23    2    1    2    0    0  0.19213431324E+03 -0.20831243525E+03 -0.13173642967E+04  0.13520809214E+04  0.11119560621E+03 0.  0.
        254    2    1    2    0    0 -0.19213431324E+03  0.20831243525E+03 -0.88184063115E+03  0.12810834860E+04  0.88499849399E+03 0.  0.
        -24    2    4    4    0    0 -0.50730935980E+03  0.22907940829E+03 -0.72961150637E+03  0.92119399355E+03  0.80157730030E+02 0.  0.
         24    2    4    4    0    0  0.31517504655E+03 -0.20766973035E+02 -0.15222912478E+03  0.35988949246E+03  0.81118205170E+02 0.  0.
         13    1    3    3    0    0  0.14943026111E+03 -0.11507585164E+03 -0.64740248791E+03  0.67431582802E+03  0.00000000000E+00 0.  1.
        -13    1    3    3    0    0  0.42704052129E+02 -0.93236583609E+02 -0.66996180881E+03  0.67776509341E+03  0.00000000000E+00 0. -1.
          4    1    6    6  502    0  0.28892128565E+02  0.50375998124E+01  0.85332258380E+01  0.30544204820E+02  0.00000000000E+00 0. -1.
          1    1    5    5  503    0 -0.24074270349E+02  0.29967779423E+02 -0.67257619697E+02  0.77467578404E+02  0.00000000000E+00 0. -1.
         -2    1    5    5    0  503 -0.48323508945E+03  0.19911162886E+03 -0.66235388668E+03  0.84372641515E+03  0.00000000000E+00 0.  1.
         -3    1    6    6    0  502  0.28628291799E+03 -0.25804572848E+02 -0.16076235062E+03  0.32934528764E+03  0.00000000000E+00 0.  1.
<mgrwt>
<rscale>  0 0.14481203E+04</rscale>
<asrwt>0</asrwt>
<pdfrwt beam="1">  1        2 0.37172072E+00 0.14481203E+04</pdfrwt>
<pdfrwt beam="2">  1       -2 0.33381499E-01 0.14481203E+04</pdfrwt>
<totfact> 0.31730631E+01</totfact>
</mgrwt>
</event>
<event>
12    1  0.1506149E-007  0.1410060E+04  0.7818608E-02  0.8946569E-01
          2   -1    0    0  501    0  0.00000000000E+00  0.00000000000E+00  0.10782079571E+04  0.10782079571E+04  0.00000000000E+00 0. -1.
         -2   -1    0    0    0  501 -0.00000000000E+00 -0.00000000000E+00 -0.46101222504E+03  0.46101222504E+03  0.00000000000E+00 0.  1.
         23    2    1    2    0    0  0.17008685313E+03 -0.25442022369E+03 -0.11294259615E+03  0.33853656604E+03  0.90508500648E+02 0.  0.
        254    2    1    2    0    0 -0.17008685313E+03  0.25442022369E+03  0.73013832823E+03  0.12006836161E+04  0.90270702879E+03 0.  0.
        -24    2    4    4    0    0  0.33199915138E+03 -0.10999726810E+02  0.11729604845E+03  0.36115820735E+03  0.79576738089E+02 0.  0.
         24    2    4    4    0    0 -0.50208600451E+03  0.26541995050E+03  0.61284227977E+03  0.83952540876E+03  0.81787199707E+02 0.  0.
         11    1    3    3    0    0  0.21367361494E+02 -0.10628360918E+03 -0.27050780264E+02  0.11173412384E+03  0.00000000000E+00 0. -1.
        -11    1    3    3    0    0  0.14871949163E+03 -0.14813661451E+03 -0.85891815889E+02  0.22680244220E+03  0.00000000000E+00 0.  1.
          4    1    6    6  502    0 -0.44958141247E+03  0.25831275796E+03  0.53211525077E+03  0.74296404184E+03  0.00000000000E+00 0. -1.
          3    1    5    5  503    0  0.30434592076E+03 -0.27174970148E+01  0.81323752678E+02  0.31503551708E+03  0.00000000000E+00 0. -1.
         -4    1    5    5    0  503  0.27653230623E+02 -0.82822297955E+01  0.35972295775E+02  0.46122690269E+02  0.00000000000E+00 0.  1.
         -3    1    6    6    0  502 -0.52504592036E+02  0.71071925433E+01  0.80727029003E+02  0.96561366924E+02  0.00000000000E+00 0.  1.
<mgrwt>
<rscale>  0 0.14100596E+04</rscale>
<asrwt>0</asrwt>
<pdfrwt beam="1">  1        2 0.16587815E+00 0.14100596E+04</pdfrwt>
<pdfrwt beam="2">  1       -2 0.70924958E-01 0.14100596E+04</pdfrwt>
<totfact> 0.39490428E+01</totfact>
</mgrwt>
</event>
<event>
12    1  0.1506149E-007  0.1803642E+04  0.7818608E-02  0.8704365E-01
         -2   -1    0    0    0  501 -0.00000000000E+00  0.00000000000E+00  0.27367197182E+03  0.27367197182E+03  0.00000000000E+00 0.  1.
          2   -1    0    0  501    0  0.00000000000E+00 -0.00000000000E+00 -0.29717371206E+04  0.29717371206E+04  0.00000000000E+00 0. -1.
         23    2    1    2    0    0  0.26684808754E+03 -0.48678437367E+03 -0.17226686867E+04  0.18123459891E+04  0.94040692738E+02 0.  0.
        254    2    1    2    0    0 -0.26684808754E+03  0.48678437367E+03 -0.97539646207E+03  0.14330631033E+04  0.89112550829E+03 0.  0.
        -24    2    4    4    0    0 -0.35776742335E+03  0.14986471251E+03 -0.18835096623E+01  0.39585972034E+03  0.79021575016E+02 0.  0.
         24    2    4    4    0    0  0.90919335807E+02  0.33691966116E+03 -0.97351295241E+03  0.10372033829E+04  0.79260364558E+02 0.  0.
         13    1    3    3    0    0  0.54302120253E+02 -0.14124459970E+03 -0.59446501634E+03  0.61342270325E+03  0.00000000000E+00 0. -1.
        -13    1    3    3    0    0  0.21254596729E+03 -0.34553977397E+03 -0.11282036703E+04  0.11989232858E+04  0.00000000000E+00 0.  1.
          4    1    6    6  502    0  0.70052157266E+02  0.32758285946E+03 -0.90946302619E+03  0.96919597118E+03  0.00000000000E+00 0. -1.
          3    1    5    5  503    0 -0.32225306617E+03  0.13928832849E+03  0.22029773805E+02  0.35175785428E+03  0.00000000000E+00 0. -1.
         -2    1    5    5    0  503 -0.35514357174E+02  0.10576384020E+02 -0.23913283467E+02  0.44101866067E+02  0.00000000000E+00 0.  1.
         -3    1    6    6    0  502  0.20867178542E+02  0.93368016982E+01 -0.64049926224E+02  0.68007411769E+02  0.00000000000E+00 0.  1.
<mgrwt>
<rscale>  0 0.18036420E+04</rscale>
<asrwt>0</asrwt>
<pdfrwt beam="1">  1        2 0.45719034E+00 0.18036420E+04</pdfrwt>
<pdfrwt beam="2">  1       -2 0.42103379E-01 0.18036420E+04</pdfrwt>
<totfact> 0.91841730E+00</totfact>
</mgrwt>
</event>
<event>
12    1  0.1506149E-007  0.1727605E+04  0.7818608E-02  0.8745775E-01
          2   -1    0    0  501    0  0.00000000000E+00  0.00000000000E+00  0.19184072828E+04  0.19184072828E+04  0.00000000000E+00 0. -1.
         -2   -1    0    0    0  501 -0.00000000000E+00 -0.00000000000E+00 -0.38894494329E+03  0.38894494329E+03  0.00000000000E+00 0.  1.
         23    2    1    2    0    0 -0.58538955435E+03 -0.12007295184E+03  0.81315290347E+03  0.10134008736E+04  0.93087282474E+02 0.  0.
        254    2    1    2    0    0  0.58538955435E+03  0.12007295184E+03  0.71630943608E+03  0.12939513525E+04  0.89672317373E+03 0.  0.
        -24    2    4    4    0    0  0.32848475233E+03  0.43583384551E+03  0.68206690851E+03  0.87731454708E+03  0.81315271751E+02 0.  0.
         24    2    4    4    0    0  0.25690480202E+03 -0.31576089367E+03  0.34242527572E+02  0.41663680542E+03  0.81906395748E+02 0.  0.
         13    1    3    3    0    0 -0.27007267819E+03 -0.20108579972E+02  0.41811790946E+03  0.49816281747E+03  0.00000000000E+00 0. -1.
        -13    1    3    3    0    0 -0.31531687616E+03 -0.99964371872E+02  0.39503499401E+03  0.51523805618E+03  0.00000000000E+00 0.  1.
          4    1    6    6  502    0  0.17725657640E+03 -0.24270704419E+03 -0.78644125799E+01  0.30064672318E+03  0.00000000000E+00 0. -1.
          3    1    5    5  503    0  0.28633005313E+03  0.34815413589E+03  0.51896579237E+03  0.68740213508E+03  0.00000000000E+00 0. -1.
         -4    1    5    5    0  503  0.42154699203E+02  0.87679709624E+02  0.16310111614E+03  0.18991241200E+03  0.00000000000E+00 0.  1.
         -3    1    6    6    0  502  0.79648225620E+02 -0.73053849483E+02  0.42106940152E+02  0.11599008224E+03  0.00000000000E+00 0.  1.
<mgrwt>
<rscale>  0 0.17276051E+04</rscale>
<asrwt>0</asrwt>
<pdfrwt beam="1">  1        2 0.29513957E+00 0.17276051E+04</pdfrwt>
<pdfrwt beam="2">  1       -2 0.59837685E-01 0.17276051E+04</pdfrwt>
<totfact> 0.18343453E+01</totfact>
</mgrwt>
</event>
<event>
12    1  0.1506149E-007  0.1424222E+04  0.7818608E-02  0.8936470E-01
          1   -1    0    0  501    0  0.00000000000E+00  0.00000000000E+00  0.21988538651E+04  0.21988538651E+04  0.00000000000E+00 0. -1.
         -1   -1    0    0    0  501 -0.00000000000E+00 -0.00000000000E+00 -0.23062112457E+03  0.23062112457E+03  0.00000000000E+00 0.  1.
         23    2    1    2    0    0 -0.20823996850E+03 -0.11779613748E+03  0.11826763385E+04  0.12110843725E+04  0.10374112586E+03 0.  0.
        254    2    1    2    0    0  0.20823996850E+03  0.11779613748E+03  0.78555640204E+03  0.12183906172E+04  0.90007611941E+03 0.  0.
        -24    2    4    4    0    0  0.19895348292E+03 -0.29826732132E+03  0.69440935953E+03  0.78564372427E+03  0.80534585992E+02 0.  0.
         24    2    4    4    0    0  0.92864855748E+01  0.41606345881E+03  0.91147042511E+02  0.43274689290E+03  0.75941091591E+02 0.  0.
         11    1    3    3    0    0 -0.35935991178E+02  0.40194593682E+01  0.35866449067E+03  0.36048268805E+03  0.00000000000E+00 0. -1.
        -11    1    3    3    0    0 -0.17230397732E+03 -0.12181559685E+03  0.82401184782E+03  0.85060168445E+03  0.00000000000E+00 0.  1.
          2    1    6    6  502    0  0.29267019429E+02  0.63879888071E+02  0.16859636302E+02  0.72259572808E+02  0.00000000000E+00 0. -1.
          3    1    5    5  503    0  0.20876598943E+02 -0.33641336852E+02  0.33785542913E+02  0.52048389394E+02  0.00000000000E+00 0. -1.
         -4    1    5    5    0  503  0.17807688398E+03 -0.26462598447E+03  0.66062381662E+03  0.73359533488E+03  0.00000000000E+00 0.  1.
         -1    1    6    6    0  502 -0.19980533854E+02  0.35218357074E+03  0.74287406208E+02  0.36048732010E+03  0.00000000000E+00 0.  1.
<mgrwt>
<rscale>  0 0.14242221E+04</rscale>
<asrwt>0</asrwt>
<pdfrwt beam="1">  1        1 0.33828520E+00 0.14242221E+04</pdfrwt>
<pdfrwt beam="2">  1       -1 0.35480174E-01 0.14242221E+04</pdfrwt>
<totfact> 0.16109290E+01</totfact>
</mgrwt>
</event>
<event>
12    1  0.1506149E-007  0.1207352E+04  0.7818608E-02  0.9106446E-01
         -2   -1    0    0    0  501 -0.00000000000E+00  0.00000000000E+00  0.63739553085E+03  0.63739553085E+03  0.00000000000E+00 0. -1.
          2   -1    0    0  501    0  0.00000000000E+00 -0.00000000000E+00 -0.57174031326E+03  0.57174031326E+03  0.00000000000E+00 0.  1.
         23    2    1    2    0    0  0.19886632245E+03  0.15020486564E+03 -0.41471744805E+02  0.26883254330E+03  0.91878805230E+02 0.  0.
        254    2    1    2    0    0 -0.19886632245E+03 -0.15020486564E+03  0.10712696240E+03  0.94030330081E+03  0.90032482782E+03 0.  0.
        -24    2    4    4    0    0  0.95283963401E+02  0.94136418348E+02  0.41463431415E+03  0.44317114550E+03  0.80860069193E+02 0.  0.
         24    2    4    4    0    0 -0.29415028586E+03 -0.24434128399E+03 -0.30750735175E+03  0.49713215532E+03  0.79702915470E+02 0.  0.
         13    1    3    3    0    0  0.37208620011E+01  0.26094334965E+01 -0.23017605007E+02  0.23461971303E+02  0.00000000000E+00 0. -1.
        -13    1    3    3    0    0  0.19514546045E+03  0.14759543215E+03 -0.18454139798E+02  0.24537057200E+03  0.00000000000E+00 0.  1.
          2    1    6    6  502    0 -0.22606825358E+03 -0.20087989732E+03 -0.19963938588E+03  0.36237476846E+03  0.00000000000E+00 0. -1.
          3    1    5    5  503    0  0.91167335279E+02  0.87392595957E+02  0.26737203716E+03  0.29569706645E+03  0.00000000000E+00 0. -1.
         -4    1    5    5    0  503  0.41166281217E+01  0.67438223914E+01  0.14726227699E+03  0.14747407905E+03  0.00000000000E+00 0.  1.
         -1    1    6    6    0  502 -0.68082032280E+02 -0.43461386674E+02 -0.10786796587E+03  0.13475738685E+03  0.00000000000E+00 0.  1.
<mgrwt>
<rscale>  0 0.12073520E+04</rscale>
<asrwt>0</asrwt>
<pdfrwt beam="1">  1        2 0.87960048E-01 0.12073520E+04</pdfrwt>
<pdfrwt beam="2">  1       -2 0.98060851E-01 0.12073520E+04</pdfrwt>
<totfact> 0.44863802E+01</totfact>
</mgrwt>
</event>
<event>
12    1  0.1506149E-007  0.4172486E+04  0.7818608E-02  0.7970627E-01
          2   -1    0    0  501    0  0.00000000000E+00  0.00000000000E+00  0.18984859936E+04  0.18984859936E+04  0.00000000000E+00 0. -1.
         -2   -1    0    0    0  501 -0.00000000000E+00 -0.00000000000E+00 -0.22925685732E+04  0.22925685732E+04  0.00000000000E+00 0.  1.
         23    2    1    2    0    0  0.10092484520E+04 -0.14341599781E+04 -0.11286772549E+04  0.20876277342E+04  0.94233382075E+02 0.  0.
        254    2    1    2    0    0 -0.10092484520E+04  0.14341599781E+04  0.73459467539E+03  0.21034268326E+04  0.89965427927E+03 0.  0.
        -24    2    4    4    0    0 -0.98428895476E+03  0.11875079318E+04  0.26592428244E+03  0.15671603634E+04  0.79221499835E+02 0.  0.
         24    2    4    4    0    0 -0.24959497276E+02  0.24665204627E+03  0.46867039296E+03  0.53626646918E+03  0.80433701258E+02 0.  0.
         13    1    3    3    0    0  0.36246998624E+03 -0.54334155820E+03 -0.47124199088E+03  0.80540272768E+03  0.00000000000E+00 0.  1.
        -13    1    3    3    0    0  0.64677846579E+03 -0.89081841988E+03 -0.65743526405E+03  0.12822250066E+04  0.00000000000E+00 0. -1.
          4    1    6    6  502    0 -0.45067750567E+02  0.22508295242E+03  0.43209080245E+03  0.48928100226E+03  0.00000000000E+00 0. -1.
          1    1    5    5  503    0 -0.81718912752E+03  0.10299963562E+04  0.22548135831E+03  0.13339911570E+04  0.00000000000E+00 0. -1.
         -2    1    5    5    0  503 -0.16709982723E+03  0.15751157561E+03  0.40442924127E+02  0.23316920642E+03  0.00000000000E+00 0.  1.
         -3    1    6    6    0  502  0.20108253291E+02  0.21569093859E+02  0.36579590508E+02  0.46985466924E+02  0.00000000000E+00 0.  1.
<mgrwt>
<rscale>  0 0.41724857E+04</rscale>
<asrwt>0</asrwt>
<pdfrwt beam="1">  1        2 0.29207477E+00 0.41724857E+04</pdfrwt>
<pdfrwt beam="2">  1       -2 0.35270286E+00 0.41724857E+04</pdfrwt>
<totfact> 0.88525638E-02</totfact>
</mgrwt>
</event>
<event>
12    1  0.1506149E-007  0.2269889E+04  0.7818608E-02  0.8489889E-01
          2   -1    0    0  501    0  0.00000000000E+00  0.00000000000E+00  0.13207126873E+04  0.13207126873E+04  0.00000000000E+00 0.  1.
         -2   -1    0    0    0  501 -0.00000000000E+00 -0.00000000000E+00 -0.97530597473E+03  0.97530597473E+03  0.00000000000E+00 0. -1.
         23    2    1    2    0    0  0.78226356456E+03  0.31061791611E+03  0.60271673605E+03  0.10392619737E+04  0.91532572716E+02 0.  0.
        254    2    1    2    0    0 -0.78226356456E+03 -0.31061791611E+03 -0.25731002349E+03  0.12567566883E+04  0.89711156004E+03 0.  0.
        -24    2    4    4    0    0 -0.60018352029E+03  0.18615185597E+03 -0.33457117311E+03  0.71612917437E+03  0.77655347534E+02 0.  0.
         24    2    4    4    0    0 -0.18208004427E+03 -0.49676977208E+03  0.77261149628E+02  0.54062751393E+03  0.79846569100E+02 0.  0.
         13    1    3    3    0    0  0.62689387252E+03  0.27344745982E+03  0.45326438122E+03  0.82049865324E+03  0.00000000000E+00 0.  1.
        -13    1    3    3    0    0  0.15536969204E+03  0.37170456289E+02  0.14945235483E+03  0.21876332048E+03  0.00000000000E+00 0. -1.
          4    1    6    6  502    0 -0.59165101718E+02 -0.11309914031E+03 -0.11269661843E+02  0.12813637297E+03  0.00000000000E+00 0. -1.
          3    1    5    5  503    0 -0.36190925220E+03  0.75133533016E+02 -0.21175314420E+03  0.42598444654E+03  0.00000000000E+00 0. -1.
         -4    1    5    5    0  503 -0.23827426809E+03  0.11101832296E+03 -0.12281802891E+03  0.29014472784E+03  0.00000000000E+00 0.  1.
         -3    1    6    6    0  502 -0.12291494255E+03 -0.38367063178E+03  0.88530811472E+02  0.41249114096E+03  0.00000000000E+00 0.  1.
<mgrwt>
<rscale>  0 0.22698890E+04</rscale>
<asrwt>0</asrwt>
<pdfrwt beam="1">  1        2 0.20318657E+00 0.22698890E+04</pdfrwt>
<pdfrwt beam="2">  1       -2 0.15004707E+00 0.22698890E+04</pdfrwt>
<totfact> 0.43751957E+00</totfact>
</mgrwt>
</event>
<event>
12    1  0.1506149E-007  0.1119474E+04  0.7818608E-02  0.9186416E-01
          1   -1    0    0  501    0  0.00000000000E+00  0.00000000000E+00  0.13266948040E+04  0.13266948040E+04  0.00000000000E+00 0. -1.
         -1   -1    0    0    0  501 -0.00000000000E+00 -0.00000000000E+00 -0.23615510772E+03  0.23615510772E+03  0.00000000000E+00 0.  1.
         23    2    1    2    0    0  0.76696753683E+02 -0.12456678614E+03  0.53738414258E+02  0.18234698856E+03  0.94674869082E+02 0.  0.
        254    2    1    2    0    0 -0.76696753683E+02  0.12456678614E+03  0.10368012821E+04  0.13805029232E+04  0.89968447036E+03 0.  0.
        -24    2    4    4    0    0 -0.60734615449E+02  0.39911342126E+02 -0.15196810952E+03  0.18606442964E+03  0.79019345233E+02 0.  0.
         24    2    4    4    0    0 -0.15962138233E+02  0.84655444017E+02  0.11887693916E+04  0.11944384935E+04  0.78034059455E+02 0.  0.
         11    1    3    3    0    0  0.42030718255E+02 -0.68177536184E+02  0.78048133149E+02  0.11183143031E+03  0.00000000000E+00 0. -1.
        -11    1    3    3    0    0  0.34666035428E+02 -0.56389249959E+02 -0.24309718891E+02  0.70515558253E+02  0.00000000000E+00 0.  1.
          2    1    6    6  502    0 -0.17039693180E+02  0.93647128354E+02  0.11667967397E+04  0.11706727842E+04  0.00000000000E+00 0. -1.
          3    1    5    5  503    0 -0.35878970248E+02  0.48392165496E+02 -0.43097317909E+02  0.74070783703E+02  0.00000000000E+00 0. -1.
         -4    1    5    5    0  503 -0.24855645202E+02 -0.84808233697E+01 -0.10887079162E+03  0.11199364594E+03  0.00000000000E+00 0.  1.
         -1    1    6    6    0  502  0.10775549460E+01 -0.89916843367E+01  0.21972651891E+02  0.23765709394E+02  0.00000000000E+00 0.  1.
<mgrwt>
<rscale>  0 0.11194744E+04</rscale>
<asrwt>0</asrwt>
<pdfrwt beam="1">  1        1 0.20410689E+00 0.11194744E+04</pdfrwt>
<pdfrwt beam="2">  1       -1 0.36331556E-01 0.11194744E+04</pdfrwt>
<totfact> 0.62473250E+01</totfact>
</mgrwt>
</event>
<event>
12    1  0.1506149E-007  0.1409671E+04  0.7818608E-02  0.8946848E-01
         -1   -1    0    0    0  501 -0.00000000000E+00  0.00000000000E+00  0.25714792379E+03  0.25714792379E+03  0.00000000000E+00 0.  1.
          1   -1    0    0  501    0  0.00000000000E+00 -0.00000000000E+00 -0.19319358652E+04  0.19319358652E+04  0.00000000000E+00 0. -1.
         23    2    1    2    0    0  0.21605427640E+03  0.34227375196E+03 -0.57734866353E+03  0.71109958107E+03  0.92197414723E+02 0.  0.
        254    2    1    2    0    0 -0.21605427640E+03 -0.34227375196E+03 -0.10974392779E+04  0.14779842079E+04  0.90345646191E+03 0.  0.
        -24    2    4    4    0    0  0.21060080906E+03  0.15879985157E+03 -0.12897380607E+03  0.30425467630E+03  0.79790799979E+02 0.  0.
         24    2    4    4    0    0 -0.42665508546E+03 -0.50107360353E+03 -0.96846547179E+03  0.11737295316E+04  0.81279303610E+02 0.  0.
         13    1    3    3    0    0  0.17903623105E+03  0.24011473840E+03 -0.47672055320E+03  0.56300226063E+03  0.00000000000E+00 0. -1.
        -13    1    3    3    0    0  0.37018045349E+02  0.10215901356E+03 -0.10062811032E+03  0.14809732044E+03  0.00000000000E+00 0.  1.
          2    1    6    6  502    0 -0.27825827555E+02 -0.58272263083E+02 -0.66665845784E+02  0.92813082687E+02  0.00000000000E+00 0. -1.
          1    1    5    5  503    0 -0.32132329526E+01 -0.86350371154E+00  0.47297166945E+01  0.57827955763E+01  0.00000000000E+00 0. -1.
         -2    1    5    5    0  503  0.21381404202E+03  0.15966335528E+03 -0.13370352277E+03  0.29847188072E+03  0.00000000000E+00 0.  1.
         -1    1    6    6    0  502 -0.39882925791E+03 -0.44280134045E+03 -0.90179962600E+03  0.10809164489E+04  0.00000000000E+00 0.  1.
<mgrwt>
<rscale>  0 0.14096713E+04</rscale>
<asrwt>0</asrwt>
<pdfrwt beam="1">  1        1 0.29722090E+00 0.14096713E+04</pdfrwt>
<pdfrwt beam="2">  1       -1 0.39561220E-01 0.14096713E+04</pdfrwt>
<totfact> 0.20084782E+01</totfact>
</mgrwt>
</event>
<event>
12    1  0.2849928E-007  0.1309105E+04  0.7818608E-02  0.9022376E-01
          2   -1    0    0  501    0  0.00000000000E+00  0.00000000000E+00  0.69876485807E+03  0.69876485807E+03  0.00000000000E+00 0. -1.
         -2   -1    0    0    0  501 -0.00000000000E+00 -0.00000000000E+00 -0.61313745241E+03  0.61313745241E+03  0.00000000000E+00 0.  1.
         23    2    1    2    0    0 -0.28460231461E+03  0.16440541835E+03  0.11917651429E+03  0.36150159733E+03  0.91938807093E+02 0.  0.
        254    2    1    2    0    0  0.28460231461E+03 -0.16440541835E+03 -0.33549108633E+02  0.95040071316E+03  0.89112757438E+03 0.  0.
        -24    2    4    4    0    0 -0.63204146132E+02 -0.31165596406E+03  0.29694688178E+03  0.44235734102E+03  0.79864651373E+02 0.  0.
         24    2    4    4    0    0  0.34780646074E+03  0.14725054571E+03 -0.33049599041E+03  0.50804337213E+03  0.78920282228E+02 0.  0.
         13    1    3    3    0    0 -0.28803225606E+03  0.16708743844E+03  0.10890318323E+03  0.35034368259E+03  0.00000000000E+00 0. -1.
        -13    1    3    3    0    0  0.34299414510E+01 -0.26820200946E+01  0.10273331060E+02  0.11157914734E+02  0.00000000000E+00 0.  1.
          4    1    6    6  502    0  0.30981063287E+03  0.14127162046E+03 -0.32202534337E+03  0.46865831984E+03  0.00000000000E+00 0. -1.
          3    1    5    5  503    0 -0.79571321871E+02 -0.28428603408E+03  0.27647954849E+03  0.40446394793E+03  0.00000000000E+00 0. -1.
         -4    1    5    5    0  503  0.16367175739E+02 -0.27369929974E+02  0.20467333286E+02  0.37893393096E+02  0.00000000000E+00 0.  1.
         -3    1    6    6    0  502  0.37995827870E+02  0.59789252507E+01 -0.84706470442E+01  0.39385052292E+02  0.00000000000E+00 0.  1.
<mgrwt>
<rscale>  0 0.13091049E+04</rscale>
<asrwt>0</asrwt>
<pdfrwt beam="1">  1        2 0.10750229E+00 0.13091049E+04</pdfrwt>
<pdfrwt beam="2">  1       -2 0.94328838E-01 0.13091049E+04</pdfrwt>
<totfact> 0.38129587E+01</totfact>
</mgrwt>
</event>
<event>
12    1  0.1506149E-007  0.1748606E+04  0.7818608E-02  0.8734118E-01
         -2   -1    0    0    0  501 -0.00000000000E+00  0.00000000000E+00  0.93538312286E+03  0.93538312286E+03  0.00000000000E+00 0.  1.
          2   -1    0    0  501    0  0.00000000000E+00 -0.00000000000E+00 -0.81721168569E+03  0.81721168569E+03  0.00000000000E+00 0. -1.
         23    2    1    2    0    0  0.16507737437E+03  0.32710256494E+03  0.57193773753E+03  0.68437065830E+03  0.83688677891E+02 0.  0.
        254    2    1    2    0    0 -0.16507737437E+03 -0.32710256494E+03 -0.45376630037E+03  0.10682241502E+04  0.89495941378E+03 0.  0.
        -24    2    4    4    0    0 -0.31698392424E+03 -0.52697476029E+03 -0.50527361925E+03  0.79993671305E+03  0.80100614065E+02 0.  0.
         24    2    4    4    0    0  0.15190654987E+03  0.19987219534E+03  0.51507318885E+02  0.26828743720E+03  0.79376638214E+02 0.  0.
         11    1    3    3    0    0  0.39410157169E+02  0.80260955265E+02  0.21282873130E+03  0.23084854406E+03  0.00000000000E+00 0. -1.
        -11    1    3    3    0    0  0.12566721720E+03  0.24684160968E+03  0.35910900624E+03  0.45352211424E+03  0.00000000000E+00 0.  1.
          2    1    6    6  502    0  0.32870233936E+02  0.68603370032E+02 -0.17606864162E+02  0.78082496914E+02  0.00000000000E+00 0. -1.
          1    1    5    5  503    0 -0.13328647775E+02 -0.62438517234E+02 -0.36971773714E+02  0.73777593736E+02  0.00000000000E+00 0. -1.
         -4    1    5    5    0  503 -0.30365527646E+03 -0.46453624305E+03 -0.46830184554E+03  0.72615911932E+03  0.00000000000E+00 0.  1.
         -1    1    6    6    0  502  0.11903631593E+03  0.13126882531E+03  0.69114183047E+02  0.19020494028E+03  0.00000000000E+00 0.  1.
<mgrwt>
<rscale>  0 0.17486063E+04</rscale>
<asrwt>0</asrwt>
<pdfrwt beam="1">  1        2 0.12572487E+00 0.17486063E+04</pdfrwt>
<pdfrwt beam="2">  1       -2 0.14390510E+00 0.17486063E+04</pdfrwt>
<totfact> 0.10604394E+01</totfact>
</mgrwt>
</event>
<event>
12    1  0.1906749E-007  0.1710795E+04  0.7818608E-02  0.8755231E-01
         -1   -1    0    0    0  501 -0.00000000000E+00  0.00000000000E+00  0.10145158245E+04  0.10145158245E+04  0.00000000000E+00 0.  1.
          1   -1    0    0  501    0  0.00000000000E+00 -0.00000000000E+00 -0.72123571632E+03  0.72123571632E+03  0.00000000000E+00 0. -1.
         23    2    1    2    0    0  0.56277702932E+03 -0.20959615394E+03  0.21001463378E+03  0.64232661872E+03  0.88480541595E+02 0.  0.
        254    2    1    2    0    0 -0.56277702932E+03  0.20959615394E+03  0.83265474389E+02  0.10934249221E+04  0.90994306885E+03 0.  0.
        -24    2    4    4    0    0 -0.13995654191E+03 -0.26813751237E+03  0.28115578945E+03  0.42016105734E+03  0.77467264028E+02 0.  0.
         24    2    4    4    0    0 -0.42282048740E+03  0.47773366631E+03 -0.19789031506E+03  0.67326386475E+03  0.84362517115E+02 0.  0.
         11    1    3    3    0    0  0.15454558393E+02 -0.15243005960E+02  0.24228820385E+02  0.32530421808E+02  0.00000000000E+00 0. -1.
        -11    1    3    3    0    0  0.54732247093E+03 -0.19435314798E+03  0.18578581339E+03  0.60979619691E+03  0.00000000000E+00 0.  1.
          2    1    6    6  502    0 -0.95567621042E+02  0.10623598513E+03 -0.83464685317E+01  0.14313950630E+03  0.00000000000E+00 0. -1.
          1    1    5    5  503    0 -0.60687378052E+02 -0.16577623664E+03  0.12007631703E+03  0.21350185105E+03  0.00000000000E+00 0. -1.
         -2    1    5    5    0  503 -0.79269163862E+02 -0.10236127573E+03  0.16107947242E+03  0.20665920629E+03  0.00000000000E+00 0.  1.
         -1    1    6    6    0  502 -0.32725286636E+03  0.37149768118E+03 -0.18954384653E+03  0.53012435845E+03  0.00000000000E+00 0.  1.
<mgrwt>
<rscale>  0 0.17107952E+04</rscale>
<asrwt>0</asrwt>
<pdfrwt beam="1">  1        1 0.11095934E+00 0.17107952E+04</pdfrwt>
<pdfrwt beam="2">  1       -1 0.15607936E+00 0.17107952E+04</pdfrwt>
<totfact> 0.77470172E+00</totfact>
</mgrwt>
</event>
<event>
12    1  0.1506149E-007  0.2366917E+04  0.7818608E-02  0.8451994E-01
         -2   -1    0    0    0  501 -0.00000000000E+00  0.00000000000E+00  0.71690418434E+03  0.71690418434E+03  0.00000000000E+00 0. -1.
          2   -1    0    0  501    0  0.00000000000E+00 -0.00000000000E+00 -0.19536412401E+04  0.19536412401E+04  0.00000000000E+00 0.  1.
         23    2    1    2    0    0  0.59333784838E+03 -0.66746495288E+03 -0.37530534141E+00  0.89768140883E+03  0.90953313643E+02 0.  0.
        254    2    1    2    0    0 -0.59333784838E+03  0.66746495288E+03 -0.12363617504E+04  0.17728640156E+04  0.90382364116E+03 0.  0.
        -24    2    4    4    0    0 -0.38052620072E+03  0.32972592726E+03 -0.42473016508E+02  0.51157897762E+03  0.79935703344E+02 0.  0.
         24    2    4    4    0    0 -0.21281164766E+03  0.33773902561E+03 -0.11938887339E+04  0.12612850380E+04  0.78186899897E+02 0.  0.
         13    1    3    3    0    0  0.55959030326E+03 -0.62265646612E+03 -0.22282956561E+02  0.83745979751E+03  0.00000000000E+00 0.  1.
        -13    1    3    3    0    0  0.33747545128E+02 -0.44808486758E+02  0.21907651220E+02  0.60221611317E+02  0.00000000000E+00 0. -1.
          2    1    6    6  502    0 -0.16853944585E+03  0.28194677394E+03 -0.10586160650E+04  0.11084076422E+04  0.00000000000E+00 0. -1.
          1    1    5    5  503    0 -0.37310619887E+03  0.33361356406E+03 -0.37666792553E+02  0.50192134147E+03  0.00000000000E+00 0. -1.
         -2    1    5    5    0  503 -0.74200018527E+01 -0.38876367989E+01 -0.48062239553E+01  0.96576361540E+01  0.00000000000E+00 0.  1.
         -1    1    6    6    0  502 -0.44272201810E+02  0.55792251672E+02 -0.13527266885E+03  0.15287739577E+03  0.00000000000E+00 0.  1.
<mgrwt>
<rscale>  0 0.23669166E+04</rscale>
<asrwt>0</asrwt>
<pdfrwt beam="1">  1        2 0.30056018E+00 0.23669166E+04</pdfrwt>
<pdfrwt beam="2">  1       -2 0.11029295E+00 0.23669166E+04</pdfrwt>
<totfact> 0.41730974E+00</totfact>
</mgrwt>
</event>
<event>
12    1  0.1559362E-007  0.1713323E+04  0.7818608E-02  0.8753802E-01
          2   -1    0    0  501    0  0.00000000000E+00  0.00000000000E+00  0.23072568308E+04  0.23072568308E+04  0.00000000000E+00 0. -1.
         -2   -1    0    0    0  501 -0.00000000000E+00 -0.00000000000E+00 -0.31806998210E+03  0.31806998210E+03  0.00000000000E+00 0.  1.
         23    2    1    2    0    0 -0.45712655048E+03  0.13796227483E+03  0.12432306123E+03  0.50209087619E+03  0.92955645171E+02 0.  0.
        254    2    1    2    0    0  0.45712655048E+03 -0.13796227483E+03  0.18648637875E+04  0.21232359367E+04  0.89577654841E+03 0.  0.
        -24    2    4    4    0    0  0.44569260941E+02 -0.34197108638E+03  0.14674288288E+04  0.15098697563E+04  0.86189735158E+02 0.  0.
         24    2    4    4    0    0  0.41255728954E+03  0.20400881155E+03  0.39743495868E+03  0.61336618041E+03  0.80252180992E+02 0.  0.
         11    1    3    3    0    0 -0.11302793066E+03  0.43091517189E+02  0.73527166081E+02  0.14155718319E+03  0.00000000000E+00 0. -1.
        -11    1    3    3    0    0 -0.34409861982E+03  0.94870757637E+02  0.50795895144E+02  0.36053369299E+03  0.00000000000E+00 0.  1.
          4    1    6    6  502    0  0.25999035084E+03  0.16622633341E+03  0.28555757068E+03  0.42043941611E+03  0.00000000000E+00 0. -1.
          3    1    5    5  503    0  0.61579663672E+02 -0.31561931858E+03  0.12764733377E+04  0.13163554957E+04  0.00000000000E+00 0. -1.
         -4    1    5    5    0  503 -0.17010402731E+02 -0.26351767797E+02  0.19095549114E+03  0.19351426062E+03  0.00000000000E+00 0.  1.
         -3    1    6    6    0  502  0.15256693870E+03  0.37782478142E+02  0.11187738800E+03  0.19292676430E+03  0.00000000000E+00 0.  1.
<mgrwt>
<rscale>  0 0.17133232E+04</rscale>
<asrwt>0</asrwt>
<pdfrwt beam="1">  1        2 0.35496258E+00 0.17133232E+04</pdfrwt>
<pdfrwt beam="2">  1       -2 0.48933845E-01 0.17133232E+04</pdfrwt>
<totfact> 0.16893378E+01</totfact>
</mgrwt>
</event>
<event>
12    1  0.1506149E-007  0.1757709E+04  0.7818608E-02  0.8729118E-01
          2   -1    0    0  501    0  0.00000000000E+00  0.00000000000E+00  0.19361430492E+04  0.19361430492E+04  0.00000000000E+00 0. -1.
         -2   -1    0    0    0  501 -0.00000000000E+00 -0.00000000000E+00 -0.39893000949E+03  0.39893000949E+03  0.00000000000E+00 0.  1.
         23    2    1    2    0    0 -0.34793433443E+02 -0.47964223350E+03  0.24955159209E+02  0.49016082730E+03  0.91474704030E+02 0.  0.
        254    2    1    2    0    0  0.34793433443E+02  0.47964223350E+03  0.15122578805E+04  0.18449122314E+04  0.94101540329E+03 0.  0.
        -24    2    4    4    0    0  0.39215843181E+01  0.30762525530E+03  0.16017215679E+04  0.16329518435E+04  0.79818956601E+02 0.  0.
         24    2    4    4    0    0  0.30871849125E+02  0.17201697820E+03 -0.89463687362E+02  0.21196038785E+03  0.79878299961E+02 0.  0.
         13    1    3    3    0    0 -0.13814195551E+02 -0.13953334287E+03  0.49068559879E+02  0.14855338885E+03  0.00000000000E+00 0.  1.
        -13    1    3    3    0    0 -0.20979237892E+02 -0.34010889063E+03 -0.24113400669E+02  0.34160743844E+03  0.00000000000E+00 0. -1.
          4    1    6    6  502    0 -0.25432421931E+01  0.11014681179E+03 -0.17880267042E+02  0.11161761589E+03  0.00000000000E+00 0. -1.
          3    1    5    5  503    0 -0.21149873087E+02  0.25571307733E+02  0.22261321983E+03  0.22507299828E+03  0.00000000000E+00 0. -1.
         -4    1    5    5    0  503  0.25071457405E+02  0.28205394757E+03  0.13791083480E+04  0.14078788453E+04  0.00000000000E+00 0.  1.
         -3    1    6    6    0  502  0.33415091318E+02  0.61870166405E+02 -0.71583420320E+02  0.10034277195E+03  0.00000000000E+00 0.  1.
<mgrwt>
<rscale>  0 0.17577094E+04</rscale>
<asrwt>0</asrwt>
<pdfrwt beam="1">  1        2 0.29786816E+00 0.17577094E+04</pdfrwt>
<pdfrwt beam="2">  1       -2 0.61373849E-01 0.17577094E+04</pdfrwt>
<totfact> 0.16952770E+01</totfact>
</mgrwt>
</event>
<event>
12    1  0.1506149E-007  0.1434416E+04  0.7818608E-02  0.8929277E-01
         -2   -1    0    0    0  501 -0.00000000000E+00  0.00000000000E+00  0.33893719866E+03  0.33893719866E+03  0.00000000000E+00 0.  1.
          2   -1    0    0  501    0  0.00000000000E+00 -0.00000000000E+00 -0.15176468527E+04  0.15176468527E+04  0.00000000000E+00 0. -1.
         23    2    1    2    0    0 -0.28902274762E+03  0.24688636412E+03 -0.52613747536E+03  0.65548251951E+03  0.91376501266E+02 0.  0.
        254    2    1    2    0    0  0.28902274762E+03 -0.24688636412E+03 -0.65257217868E+03  0.12011015318E+04  0.93397399107E+03 0.  0.
        -24    2    4    4    0    0  0.70465372854E+02 -0.39404739435E+03  0.82188308103E+02  0.41647553160E+03  0.80363130057E+02 0.  0.
         24    2    4    4    0    0  0.21855737477E+03  0.14716103023E+03 -0.73476048679E+03  0.78462600025E+03  0.79632232395E+02 0.  0.
         13    1    3    3    0    0 -0.24629122794E+03  0.16803739116E+03 -0.36735855948E+03  0.47312603502E+03  0.00000000000E+00 0.  1.
        -13    1    3    3    0    0 -0.42731519677E+02  0.78848972952E+02 -0.15877891587E+03  0.18235648449E+03  0.00000000000E+00 0. -1.
          2    1    6    6  502    0  0.22136395530E+03  0.14315057196E+03 -0.67477970777E+03  0.72444581645E+03  0.00000000000E+00 0. -1.
          1    1    5    5  503    0  0.88360162965E+02 -0.31098027149E+03  0.66869891820E+02  0.33013304907E+03  0.00000000000E+00 0. -1.
         -4    1    5    5    0  503 -0.17894790112E+02 -0.83067122857E+02  0.15318416283E+02  0.86342482535E+02  0.00000000000E+00 0.  1.
         -1    1    6    6    0  502 -0.28065805349E+01  0.40104582687E+01 -0.59980779017E+02  0.60180183792E+02  0.00000000000E+00 0.  1.
<mgrwt>
<rscale>  0 0.14344155E+04</rscale>
<asrwt>0</asrwt>
<pdfrwt beam="1">  1        2 0.23348413E+00 0.14344155E+04</pdfrwt>
<pdfrwt beam="2">  1       -2 0.52144185E-01 0.14344155E+04</pdfrwt>
<totfact> 0.41809752E+01</totfact>
</mgrwt>
</event>
<event>
12    1  0.1506149E-007  0.1241818E+04  0.7818608E-02  0.9077021E-01
          2   -1    0    0  501    0  0.00000000000E+00  0.00000000000E+00  0.21102300188E+04  0.21102300188E+04  0.00000000000E+00 0. -1.
         -2   -1    0    0    0  501 -0.00000000000E+00 -0.00000000000E+00 -0.18269482997E+03  0.18269482997E+03  0.00000000000E+00 0.  1.
         23    2    1    2    0    0 -0.26780404260E+03 -0.26590752346E+02  0.46355681850E+03  0.54416923350E+03  0.93857111464E+02 0.  0.
        254    2    1    2    0    0  0.26780404260E+03  0.26590752346E+02  0.14639783703E+04  0.17487556152E+04  0.91787115640E+03 0.  0.
        -24    2    4    4    0    0  0.25844706717E+03  0.39954368849E+03  0.11758936794E+04  0.12708641767E+04  0.77069868932E+02 0.  0.
         24    2    4    4    0    0  0.93569754278E+01 -0.37295293615E+03  0.28808469087E+03  0.47789143855E+03  0.78778121062E+02 0.  0.
         11    1    3    3    0    0 -0.10338763937E+03 -0.44320100687E+02  0.13029690265E+03  0.17213529022E+03  0.00000000000E+00 0.  1.
        -11    1    3    3    0    0 -0.16441640323E+03  0.17729348341E+02  0.33325991584E+03  0.37203394328E+03  0.00000000000E+00 0. -1.
          2    1    6    6  502    0  0.47843034795E+01 -0.37522263860E+03  0.27950583144E+03  0.46790856787E+03  0.00000000000E+00 0. -1.
          1    1    5    5  503    0  0.17340074950E+03  0.19912324542E+03  0.66626689363E+03  0.71667946834E+03  0.00000000000E+00 0. -1.
         -2    1    5    5    0  503  0.85046317674E+02  0.20042044307E+03  0.50962678581E+03  0.55418470835E+03  0.00000000000E+00 0.  1.
         -1    1    6    6    0  502  0.45726719483E+01  0.22697024512E+01  0.85788594284E+01  0.99828706821E+01  0.00000000000E+00 0.  1.
<mgrwt>
<rscale>  0 0.12418182E+04</rscale>
<asrwt>0</asrwt>
<pdfrwt beam="1">  1        2 0.32465075E+00 0.12418182E+04</pdfrwt>
<pdfrwt beam="2">  1       -2 0.28106898E-01 0.12418182E+04</pdfrwt>
<totfact> 0.66175657E+01</totfact>
</mgrwt>
</event>
<event>
12    1  0.1506149E-007  0.1740801E+04  0.7818608E-02  0.8738430E-01
         -1   -1    0    0    0  501 -0.00000000000E+00  0.00000000000E+00  0.33651099131E+03  0.33651099131E+03  0.00000000000E+00 0. -1.
          1   -1    0    0  501    0  0.00000000000E+00 -0.00000000000E+00 -0.22513288958E+04  0.22513288958E+04  0.00000000000E+00 0.  1.
         23    2    1    2    0    0 -0.38938016309E+03 -0.26366828625E+03 -0.13708994744E+04  0.14519540347E+04  0.87562968857E+02 0.  0.
        254    2    1    2    0    0  0.38938016309E+03  0.26366828625E+03 -0.54391843013E+03  0.11358858524E+04  0.87934722065E+03 0.  0.
        -24    2    4    4    0    0 -0.25358948048E+03 -0.24061007456E+01 -0.32115472460E+02  0.26841894854E+03  0.81877435450E+02 0.  0.
         24    2    4    4    0    0  0.64296964357E+03  0.26607438700E+03 -0.51180295767E+03  0.86746690386E+03  0.79693286067E+02 0.  0.
         13    1    3    3    0    0 -0.81499046058E+01  0.70389180128E+01 -0.30858670811E+02  0.32683709644E+02  0.00000000000E+00 0.  1.
        -13    1    3    3    0    0 -0.38123025848E+03 -0.27070720427E+03 -0.13400408036E+04  0.14192703251E+04  0.00000000000E+00 0. -1.
          2    1    6    6  502    0  0.47493200296E+03  0.18541335160E+03 -0.41525105261E+03  0.65754996395E+03  0.00000000000E+00 0. -1.
          1    1    5    5  503    0 -0.18229119261E+03 -0.26021926753E+02  0.59103024285E+01  0.18423395792E+03  0.00000000000E+00 0. -1.
         -4    1    5    5    0  503 -0.71298287871E+02  0.23615826007E+02 -0.38025774889E+02  0.84184990629E+02  0.00000000000E+00 0.  1.
         -1    1    6    6    0  502  0.16803764061E+03  0.80661035397E+02 -0.96551905052E+02  0.20991693991E+03  0.00000000000E+00 0.  1.
<mgrwt>
<rscale>  0 0.17408009E+04</rscale>
<asrwt>0</asrwt>
<pdfrwt beam="1">  1        1 0.34635830E+00 0.17408009E+04</pdfrwt>
<pdfrwt beam="2">  1       -1 0.51770920E-01 0.17408009E+04</pdfrwt>
<totfact> 0.71614749E+00</totfact>
</mgrwt>
</event>
<event>
12    1  0.1506149E-007  0.1366698E+04  0.7818608E-02  0.8978283E-01
         -2   -1    0    0    0  501 -0.00000000000E+00  0.00000000000E+00  0.11106612180E+04  0.11106612180E+04  0.00000000000E+00 0.  1.
          2   -1    0    0  501    0  0.00000000000E+00 -0.00000000000E+00 -0.42043956427E+03  0.42043956427E+03  0.00000000000E+00 0. -1.
         23    2    1    2    0    0 -0.24842959505E+03  0.12484149363E+03 -0.88997122787E+02  0.30550548319E+03  0.90058037778E+02 0.  0.
        254    2    1    2    0    0  0.24842959505E+03 -0.12484149363E+03  0.77921877653E+03  0.12255952991E+04  0.90421196255E+03 0.  0.
        -24    2    4    4    0    0  0.49367748848E+03 -0.34438143464E+03  0.49779248579E+03  0.78525419450E+03  0.80689255248E+02 0.  0.
         24    2    4    4    0    0 -0.24524789343E+03  0.21953994101E+03  0.28142629074E+03  0.44034110459E+03  0.79719610784E+02 0.  0.
         11    1    3    3    0    0 -0.10241768275E+03  0.61552930467E+01 -0.46258428006E+02  0.11254826313E+03  0.00000000000E+00 0.  1.
        -11    1    3    3    0    0 -0.14601191230E+03  0.11868620058E+03 -0.42738694781E+02  0.19295722006E+03  0.00000000000E+00 0. -1.
          2    1    6    6  502    0 -0.15508937182E+03  0.10365816585E+03  0.19551702744E+03  0.27023070998E+03  0.00000000000E+00 0. -1.
          3    1    5    5  503    0  0.25853444373E+03 -0.16435241806E+03  0.20372346630E+03  0.36790627426E+03  0.00000000000E+00 0. -1.
         -4    1    5    5    0  503  0.23514304474E+03 -0.18002901658E+03  0.29406901949E+03  0.41734792023E+03  0.00000000000E+00 0.  1.
         -1    1    6    6    0  502 -0.90158521605E+02  0.11588177516E+03  0.85909263301E+02  0.17011039461E+03  0.00000000000E+00 0.  1.
<mgrwt>
<rscale>  0 0.13666981E+04</rscale>
<asrwt>0</asrwt>
<pdfrwt beam="1">  1        2 0.64683010E-01 0.13666981E+04</pdfrwt>
<pdfrwt beam="2">  1       -2 0.17087096E+00 0.13666981E+04</pdfrwt>
<totfact> 0.15387876E+01</totfact>
</mgrwt>
</event>
<event>
12    1  0.1506149E-007  0.1622109E+04  0.7818608E-02  0.8807079E-01
         -1   -1    0    0    0  501 -0.00000000000E+00  0.00000000000E+00  0.55496809381E+03  0.55496809381E+03  0.00000000000E+00 0.  1.
          1   -1    0    0  501    0  0.00000000000E+00 -0.00000000000E+00 -0.11853108418E+04  0.11853108418E+04  0.00000000000E+00 0. -1.
         23    2    1    2    0    0  0.11987698383E+03 -0.36376804769E+02  0.36325893055E+03  0.39531547972E+03  0.92862881187E+02 0.  0.
        254    2    1    2    0    0 -0.11987698383E+03  0.36376804769E+02 -0.99360167859E+03  0.13449634559E+04  0.89776870012E+03 0.  0.
        -24    2    4    4    0    0 -0.46123917578E+02  0.31312142368E+03 -0.18958091191E+02  0.32612029434E+03  0.76305933057E+02 0.  0.
         24    2    4    4    0    0 -0.73753066249E+02 -0.27674461891E+03 -0.97464358740E+03  0.10188431616E+04  0.78001067875E+02 0.  0.
         11    1    3    3    0    0  0.31970596134E+02 -0.14039474048E+02  0.19923101606E+02  0.40201440600E+02  0.00000000000E+00 0. -1.
        -11    1    3    3    0    0  0.87906387694E+02 -0.22337330720E+02  0.34333582895E+03  0.35511403912E+03  0.00000000000E+00 0.  1.
          4    1    6    6  502    0 -0.76543753503E+02 -0.21809517832E+03 -0.85314247606E+03  0.88389848821E+03  0.00000000000E+00 0. -1.
          1    1    5    5  503    0  0.15234793375E+01  0.14034702373E+03  0.22542601194E+02  0.14215406054E+03  0.00000000000E+00 0. -1.
         -2    1    5    5    0  503 -0.47647396916E+02  0.17277439995E+03 -0.41500692385E+02  0.18396623380E+03  0.00000000000E+00 0.  1.
         -3    1    6    6    0  502  0.27906872538E+01 -0.58649440594E+02 -0.12150111134E+03  0.13494467338E+03  0.00000000000E+00 0.  1.
<mgrwt>
<rscale>  0 0.16221094E+04</rscale>
<asrwt>0</asrwt>
<pdfrwt beam="1">  1        1 0.18235551E+00 0.16221094E+04</pdfrwt>
<pdfrwt beam="2">  1       -1 0.85379707E-01 0.16221094E+04</pdfrwt>
<totfact> 0.14227316E+01</totfact>
</mgrwt>
</event>
<event>
12    1  0.1506149E-007  0.2796769E+04  0.7818608E-02  0.8304272E-01
         -2   -1    0    0    0  501 -0.00000000000E+00  0.00000000000E+00  0.51361548308E+03  0.51361548308E+03  0.00000000000E+00 0. -1.
          2   -1    0    0  501    0  0.00000000000E+00 -0.00000000000E+00 -0.38072828684E+04  0.38072828684E+04  0.00000000000E+00 0.  1.
         23    2    1    2    0    0  0.16701144439E+02  0.36705363976E+03  0.36863234712E+03  0.53050795463E+03  0.10267219631E+03 0.  0.
        254    2    1    2    0    0 -0.16701144439E+02 -0.36705363976E+03 -0.36622997324E+04  0.37903903968E+04  0.90532465315E+03 0.  0.
        -24    2    4    4    0    0 -0.26235371739E+02  0.28068577021E+03 -0.75130924038E+03  0.80711552816E+03  0.86585823219E+02 0.  0.
         24    2    4    4    0    0  0.95342273002E+01 -0.64773940997E+03 -0.29109904920E+04  0.29832748687E+04  0.80037819661E+02 0.  0.
         11    1    3    3    0    0  0.44334935815E+02  0.32561543062E+03  0.29496296438E+03  0.44158141440E+03  0.00000000000E+00 0. -1.
        -11    1    3    3    0    0 -0.27633791376E+02  0.41438209135E+02  0.73669382746E+02  0.88926540225E+02  0.00000000000E+00 0.  1.
          4    1    6    6  502    0 -0.15706809021E+02 -0.54498408195E+03 -0.25126170520E+04  0.25710890307E+04  0.00000000000E+00 0. -1.
          1    1    5    5  503    0  0.32018826102E+02  0.91875531198E+02 -0.24360255102E+03  0.26231378408E+03  0.00000000000E+00 0. -1.
         -2    1    5    5    0  503 -0.58254197841E+02  0.18881023901E+03 -0.50770668936E+03  0.54480174407E+03  0.00000000000E+00 0.  1.
         -3    1    6    6    0  502  0.25241036321E+02 -0.10275532802E+03 -0.39837344001E+03  0.41218583801E+03  0.00000000000E+00 0.  1.
<mgrwt>
<rscale>  0 0.27967692E+04</rscale>
<asrwt>0</asrwt>
<pdfrwt beam="1">  1        2 0.58573583E+00 0.27967692E+04</pdfrwt>
<pdfrwt beam="2">  1       -2 0.79017765E-01 0.27967692E+04</pdfrwt>
<totfact> 0.60000455E-01</totfact>
</mgrwt>
</event>
<event>
12    1  0.1506149E-007  0.1405696E+04  0.7818608E-02  0.8949705E-01
          2   -1    0    0  501    0  0.00000000000E+00  0.00000000000E+00  0.24259721869E+04  0.24259721869E+04  0.00000000000E+00 0. -1.
         -2   -1    0    0    0  501 -0.00000000000E+00 -0.00000000000E+00 -0.20362788873E+03  0.20362788873E+03  0.00000000000E+00 0.  1.
         23    2    1    2    0    0  0.27125668903E+03 -0.29175203324E+03  0.79265942486E+03  0.89226948097E+03  0.95584635892E+02 0.  0.
        254    2    1    2    0    0 -0.27125668903E+03  0.29175203324E+03  0.14296848734E+04  0.17373305947E+04  0.90311644760E+03 0.  0.
        -24    2    4    4    0    0 -0.27667986767E+03  0.38177809405E+02  0.14424447451E+04  0.14720053107E+04  0.90241332047E+02 0.  0.
         24    2    4    4    0    0  0.54231786409E+01  0.25357422384E+03 -0.12759871700E+02  0.26532528396E+03  0.76846562178E+02 0.  0.
         11    1    3    3    0    0  0.19583159638E+03 -0.18613850586E+03  0.61966994683E+03  0.67600917191E+03  0.00000000000E+00 0.  1.
        -11    1    3    3    0    0  0.75425092650E+02 -0.10561352739E+03  0.17298947803E+03  0.21626030906E+03  0.00000000000E+00 0. -1.
          4    1    6    6  502    0 -0.20264083913E+02  0.15533614416E+02 -0.29381493487E+01  0.25701342285E+02  0.00000000000E+00 0. -1.
          3    1    5    5  503    0 -0.27455123379E+02 -0.18289491117E+02  0.95582604878E+02  0.10111539764E+03  0.00000000000E+00 0. -1.
         -4    1    5    5    0  503 -0.24922474429E+03  0.56467300522E+02  0.13468621402E+04  0.13708899131E+04  0.00000000000E+00 0.  1.
         -3    1    6    6    0  502  0.25687262554E+02  0.23804060942E+03 -0.98217223518E+01  0.23962394167E+03  0.00000000000E+00 0.  1.
<mgrwt>
<rscale>  0 0.14056964E+04</rscale>
<asrwt>0</asrwt>
<pdfrwt beam="1">  1        2 0.37322647E+00 0.14056964E+04</pdfrwt>
<pdfrwt beam="2">  1       -2 0.31327369E-01 0.14056964E+04</pdfrwt>
<totfact> 0.35442465E+01</totfact>
</mgrwt>
</event>
<event>
12    1  0.1506149E-007  0.1204266E+04  0.7818608E-02  0.9109131E-01
          1   -1    0    0  501    0  0.00000000000E+00  0.00000000000E+00  0.53446596943E+03  0.53446596943E+03  0.00000000000E+00 0. -1.
         -1   -1    0    0    0  501 -0.00000000000E+00 -0.00000000000E+00 -0.67836679377E+03  0.67836679377E+03  0.00000000000E+00 0.  1.
         23    2    1    2    0    0 -0.20588977829E+03  0.12020277045E+03 -0.17833058566E+03  0.31108191421E+03  0.90171241206E+02 0.  0.
        254    2    1    2    0    0  0.20588977829E+03 -0.12020277045E+03  0.34429761324E+02  0.90175084899E+03  0.86898209323E+03 0.  0.
        -24    2    4    4    0    0  0.97082818679E+02 -0.24914016627E+03 -0.36581222498E+03  0.45998434980E+03  0.79190415983E+02 0.  0.
         24    2    4    4    0    0  0.10880695962E+03  0.12893739582E+03  0.40024198631E+03  0.44176649919E+03  0.80623729112E+02 0.  0.
         13    1    3    3    0    0 -0.17809772900E+03  0.12529348284E+03 -0.18036803527E+03  0.28275410884E+03  0.00000000000E+00 0.  1.
        -13    1    3    3    0    0 -0.27792049290E+02 -0.50907123931E+01  0.20374496115E+01  0.28327805374E+02  0.00000000000E+00 0. -1.
          4    1    6    6  502    0  0.83964204371E+02  0.42817464538E+02  0.16491765341E+03  0.18995040218E+03  0.00000000000E+00 0. -1.
          1    1    5    5  503    0 -0.13903386011E+02 -0.34566735953E+02 -0.51274525853E+02  0.63381703815E+02  0.00000000000E+00 0. -1.
         -4    1    5    5    0  503  0.11098620469E+03 -0.21457343032E+03 -0.31453769913E+03  0.39660264599E+03  0.00000000000E+00 0.  1.
         -3    1    6    6    0  502  0.24842755244E+02  0.86119931285E+02  0.23532433290E+03  0.25181609700E+03  0.00000000000E+00 0.  1.
<mgrwt>
<rscale>  0 0.12042657E+04</rscale>
<asrwt>0</asrwt>
<pdfrwt beam="1">  1        1 0.82225534E-01 0.12042657E+04</pdfrwt>
<pdfrwt beam="2">  1       -1 0.10436412E+00 0.12042657E+04</pdfrwt>
<totfact> 0.34526199E+01</totfact>
</mgrwt>
</event>
<event>
12    1  0.1506149E-007  0.1867116E+04  0.7818608E-02  0.8671400E-01
         -2   -1    0    0    0  501 -0.00000000000E+00  0.00000000000E+00  0.50981614842E+03  0.50981614842E+03  0.00000000000E+00 0.  1.
          2   -1    0    0  501    0  0.00000000000E+00 -0.00000000000E+00 -0.17094992436E+04  0.17094992436E+04  0.00000000000E+00 0. -1.
         23    2    1    2    0    0 -0.69442530810E+02  0.11215735424E+03  0.37061307223E+03  0.40388290874E+03  0.91464842781E+02 0.  0.
        254    2    1    2    0    0  0.69442530810E+02 -0.11215735424E+03 -0.15702961674E+04  0.18154324833E+04  0.90142304761E+03 0.  0.
        -24    2    4    4    0    0 -0.40192820439E+03 -0.10860447443E+03 -0.86214832287E+03  0.96084818689E+03  0.81168308264E+02 0.  0.
         24    2    4    4    0    0  0.47137073520E+03 -0.35528798117E+01 -0.70814784458E+03  0.85458429643E+03  0.81473657990E+02 0.  0.
         11    1    3    3    0    0 -0.22229034450E+02  0.10649210199E+03  0.21181979199E+03  0.23812249376E+03  0.00000000000E+00 0. -1.
        -11    1    3    3    0    0 -0.47213496360E+02  0.56652522535E+01  0.15879328024E+03  0.16576041497E+03  0.00000000000E+00 0.  1.
          4    1    6    6  502    0  0.34878498063E+03 -0.35206708398E+02 -0.54624481427E+03  0.64905613944E+03  0.00000000000E+00 0. -1.
          3    1    5    5  503    0 -0.27920532858E+03 -0.10627241250E+03 -0.55965608920E+03  0.63440080339E+03  0.00000000000E+00 0. -1.
         -4    1    5    5    0  503 -0.12272287582E+03 -0.23320619245E+01 -0.30249223366E+03  0.32644738349E+03  0.00000000000E+00 0.  1.
         -3    1    6    6    0  502  0.12258575457E+03  0.31653828586E+02 -0.16190303031E+03  0.20552815698E+03  0.00000000000E+00 0.  1.
<mgrwt>
<rscale>  0 0.18671158E+04</rscale>
<asrwt>0</asrwt>
<pdfrwt beam="1">  1        2 0.26299989E+00 0.18671158E+04</pdfrwt>
<pdfrwt beam="2">  1       -2 0.78433252E-01 0.18671158E+04</pdfrwt>
<totfact> 0.13145740E+01</totfact>
</mgrwt>
</event>
<event>
12    1  0.1506149E-007  0.1414802E+04  0.7818608E-02  0.8943173E-01
          2   -1    0    0  501    0  0.00000000000E+00  0.00000000000E+00  0.26605187718E+04  0.26605187718E+04  0.00000000000E+00 0. -1.
         -2   -1    0    0    0  501 -0.00000000000E+00 -0.00000000000E+00 -0.18808979940E+03  0.18808979940E+03  0.00000000000E+00 0.  1.
         23    2    1    2    0    0  0.31680556412E+03  0.20680041344E+03  0.40454244962E+03  0.56117504995E+03  0.90170209482E+02 0.  0.
        254    2    1    2    0    0 -0.31680556412E+03 -0.20680041344E+03  0.20678865227E+04  0.22874335212E+04  0.90170131784E+03 0.  0.
        -24    2    4    4    0    0 -0.13299101924E+03 -0.49641972442E+03  0.17019179541E+04  0.17795300371E+04  0.77995362408E+02 0.  0.
         24    2    4    4    0    0 -0.18381454488E+03  0.28961931098E+03  0.36596856863E+03  0.50790348408E+03  0.79786112288E+02 0.  0.
         13    1    3    3    0    0  0.10038988810E+02  0.29429372284E+02  0.56471564708E+02  0.64466323534E+02  0.00000000000E+00 0. -1.
        -13    1    3    3    0    0  0.30676657531E+03  0.17737104116E+03  0.34807088491E+03  0.49670872641E+03  0.00000000000E+00 0.  1.
          4    1    6    6  502    0 -0.11720774494E+03  0.11090518398E+03  0.16174767545E+03  0.22847303084E+03  0.00000000000E+00 0. -1.
          1    1    5    5  503    0 -0.64408215601E+02 -0.13959549598E+03  0.42646037631E+03  0.45332524009E+03  0.00000000000E+00 0. -1.
         -2    1    5    5    0  503 -0.68582803637E+02 -0.35682422844E+03  0.12754575778E+04  0.13262047971E+04  0.00000000000E+00 0.  1.
         -3    1    6    6    0  502 -0.66606799947E+02  0.17871412700E+03  0.20422089318E+03  0.27943045325E+03  0.00000000000E+00 0.  1.
<mgrwt>
<rscale>  0 0.14148024E+04</rscale>
<asrwt>0</asrwt>
<pdfrwt beam="1">  1        2 0.40931055E+00 0.14148024E+04</pdfrwt>
<pdfrwt beam="2">  1       -2 0.28936894E-01 0.14148024E+04</pdfrwt>
<totfact> 0.30038069E+01</totfact>
</mgrwt>
</event>
<event>
12    1  0.1506149E-007  0.1358414E+04  0.7818608E-02  0.8984483E-01
          2   -1    0    0  501    0  0.00000000000E+00  0.00000000000E+00  0.83868495718E+03  0.83868495718E+03  0.00000000000E+00 0. -1.
         -2   -1    0    0    0  501 -0.00000000000E+00 -0.00000000000E+00 -0.55005393775E+03  0.55005393775E+03  0.00000000000E+00 0.  1.
         23    2    1    2    0    0  0.23968508727E+02 -0.23374443178E+03 -0.22289248293E+03  0.33660191781E+03  0.91699745510E+02 0.  0.
        254    2    1    2    0    0 -0.23968508727E+02  0.23374443178E+03  0.51152350236E+03  0.10521369771E+04  0.88888974364E+03 0.  0.
        -24    2    4    4    0    0  0.35554874183E+03  0.18149824496E+03  0.52041349872E+03  0.66079786613E+03  0.80418216229E+02 0.  0.
         24    2    4    4    0    0 -0.37951725055E+03  0.52246186815E+02 -0.88899963530E+01  0.39133911099E+03  0.79399371829E+02 0.  0.
         11    1    3    3    0    0 -0.27416010064E+02 -0.26720536488E+02 -0.42941862940E+02  0.57529368767E+02  0.00000000000E+00 0. -1.
        -11    1    3    3    0    0  0.51384518791E+02 -0.20702389529E+03 -0.17995061999E+03  0.27907254904E+03  0.00000000000E+00 0.  1.
          2    1    6    6  502    0 -0.25915354435E+03  0.20801045255E+02 -0.40148338241E+02  0.26306868323E+03  0.00000000000E+00 0. -1.
          3    1    5    5  503    0  0.22686766346E+03  0.71654207971E+02  0.31175424227E+03  0.39216574279E+03  0.00000000000E+00 0. -1.
         -4    1    5    5    0  503  0.12868107837E+03  0.10984403699E+03  0.20865925645E+03  0.26863212335E+03  0.00000000000E+00 0.  1.
         -1    1    6    6    0  502 -0.12036370620E+03  0.31445141561E+02  0.31258341888E+02  0.12827042775E+03  0.00000000000E+00 0.  1.
<mgrwt>
<rscale>  0 0.13584137E+04</rscale>
<asrwt>0</asrwt>
<pdfrwt beam="1">  1        2 0.12902845E+00 0.13584137E+04</pdfrwt>
<pdfrwt beam="2">  1       -2 0.84623683E-01 0.13584137E+04</pdfrwt>
<totfact> 0.38420725E+01</totfact>
</mgrwt>
</event>
<event>
12    1  0.1506149E-007  0.1213162E+04  0.7818608E-02  0.9101414E-01
         -2   -1    0    0    0  501 -0.00000000000E+00  0.00000000000E+00  0.19068150050E+03  0.19068150050E+03  0.00000000000E+00 0.  1.
          2   -1    0    0  501    0  0.00000000000E+00 -0.00000000000E+00 -0.19296064933E+04  0.19296064933E+04  0.00000000000E+00 0. -1.
         23    2    1    2    0    0  0.30662213973E+02 -0.10707012481E+03  0.14923164888E+02  0.14280036436E+03  0.88119579097E+02 0.  0.
        254    2    1    2    0    0 -0.30662213973E+02  0.10707012481E+03 -0.17538481577E+04  0.19774876294E+04  0.90668063913E+03 0.  0.
        -24    2    4    4    0    0 -0.25549742767E+03  0.27138116865E+03 -0.27352236900E+03  0.46906236311E+03  0.79235976073E+02 0.  0.
         24    2    4    4    0    0  0.22483521370E+03 -0.16431104384E+03 -0.14803257887E+04  0.15084252663E+04  0.80208172834E+02 0.  0.
         11    1    3    3    0    0 -0.83599311484E+01 -0.89293744149E+02  0.33941004521E+02  0.95891881725E+02  0.00000000000E+00 0.  1.
        -11    1    3    3    0    0  0.39022145121E+02 -0.17776380659E+02 -0.19017839633E+02  0.46908482639E+02  0.00000000000E+00 0. -1.
          2    1    6    6  502    0  0.12897183673E+03 -0.80546477734E+02 -0.10009506198E+04  0.10124344982E+04  0.00000000000E+00 0. -1.
          3    1    5    5  503    0 -0.66824190430E+02  0.78764992378E+02 -0.34962757097E+02  0.10904948801E+03  0.00000000000E+00 0. -1.
         -4    1    5    5    0  503 -0.18867323724E+03  0.19261617627E+03 -0.23855961190E+03  0.36001287511E+03  0.00000000000E+00 0.  1.
         -1    1    6    6    0  502  0.95863376971E+02 -0.83764566105E+02 -0.47937516882E+03  0.49599076812E+03  0.00000000000E+00 0.  1.
<mgrwt>
<rscale>  0 0.12131616E+04</rscale>
<asrwt>0</asrwt>
<pdfrwt beam="1">  1        2 0.29686255E+00 0.12131616E+04</pdfrwt>
<pdfrwt beam="2">  1       -2 0.29335614E-01 0.12131616E+04</pdfrwt>
<totfact> 0.77134591E+01</totfact>
</mgrwt>
</event>
<event>
12    1  0.1506149E-007  0.1583763E+04  0.7818608E-02  0.8830586E-01
         -2   -1    0    0    0  501 -0.00000000000E+00  0.00000000000E+00  0.21717595476E+04  0.21717595476E+04  0.00000000000E+00 0.  1.
          2   -1    0    0  501    0  0.00000000000E+00 -0.00000000000E+00 -0.28874114409E+03  0.28874114409E+03  0.00000000000E+00 0. -1.
         23    2    1    2    0    0 -0.53335860167E+03  0.61635976961E+02  0.60183629086E+03  0.81277158501E+03  0.10059988449E+03 0.  0.
        254    2    1    2    0    0  0.53335860167E+03 -0.61635976961E+02  0.12811821126E+04  0.16477291067E+04  0.88617899523E+03 0.  0.
        -24    2    4    4    0    0  0.22117083778E+03  0.26774482147E+02 -0.75135980900E+02  0.25073108895E+03  0.87104827424E+02 0.  0.
         24    2    4    4    0    0  0.31218776390E+03 -0.88410459108E+02  0.13563180935E+04  0.13969980177E+04  0.82018787206E+02 0.  0.
         11    1    3    3    0    0 -0.12749739340E+03  0.35539220371E+02  0.20862567697E+03  0.24706941251E+03  0.00000000000E+00 0. -1.
        -11    1    3    3    0    0 -0.40586120828E+03  0.26096756590E+02  0.39321061390E+03  0.56570217250E+03  0.00000000000E+00 0.  1.
          4    1    6    6  502    0  0.79395685934E+02  0.11718744313E+02  0.28210499678E+03  0.29329888019E+03  0.00000000000E+00 0. -1.
          3    1    5    5  503    0  0.72934334563E+02 -0.26024703803E+02 -0.47835319656E+02  0.91021536862E+02  0.00000000000E+00 0. -1.
         -4    1    5    5    0  503  0.14823650322E+03  0.52799185949E+02 -0.27300661244E+02  0.15970955208E+03  0.00000000000E+00 0.  1.
         -3    1    6    6    0  502  0.23279207796E+03 -0.10012920342E+03  0.10742130968E+04  0.11036991375E+04  0.00000000000E+00 0.  1.
<mgrwt>
<rscale>  0 0.15837630E+04</rscale>
<asrwt>0</asrwt>
<pdfrwt beam="1">  1        2 0.44421716E-01 0.15837630E+04</pdfrwt>
<pdfrwt beam="2">  1       -2 0.33411684E+00 0.15837630E+04</pdfrwt>
<totfact> 0.21637192E+00</totfact>
</mgrwt>
</event>
<event>
12    1  0.1506149E-007  0.1598670E+04  0.7818608E-02  0.8821366E-01
         -1   -1    0    0    0  501 -0.00000000000E+00  0.00000000000E+00  0.26824350439E+03  0.26824350439E+03  0.00000000000E+00 0.  1.
          1   -1    0    0  501    0  0.00000000000E+00 -0.00000000000E+00 -0.23819257511E+04  0.23819257511E+04  0.00000000000E+00 0. -1.
         23    2    1    2    0    0 -0.19724009611E+02  0.28360856088E+03 -0.16341614019E+04  0.16612168929E+04  0.91297456347E+02 0.  0.
        254    2    1    2    0    0  0.19724009611E+02 -0.28360856088E+03 -0.47952084486E+03  0.98895236261E+03  0.81686209515E+03 0.  0.
        -24    2    4    4    0    0  0.12760004084E+02  0.22228215496E+03 -0.40816585320E+03  0.47181820768E+03  0.80255113589E+02 0.  0.
         24    2    4    4    0    0  0.69640055278E+01 -0.50589071584E+03 -0.71354991658E+02  0.51713415493E+03  0.79763936786E+02 0.  0.
         11    1    3    3    0    0  0.56038337594E+00  0.25723263289E+03 -0.15403155624E+04  0.15616468785E+04  0.00000000000E+00 0. -1.
        -11    1    3    3    0    0 -0.20284392987E+02  0.26375927984E+02 -0.93845839514E+02  0.99570014411E+02  0.00000000000E+00 0.  1.
          4    1    6    6  502    0 -0.63885268358E+01 -0.22724781242E+03 -0.71015405250E+02  0.23817130244E+03  0.00000000000E+00 0. -1.
          3    1    5    5  503    0  0.41293676650E+02  0.92407588785E+02 -0.14320135876E+03  0.17535951457E+03  0.00000000000E+00 0. -1.
         -4    1    5    5    0  503 -0.28533672567E+02  0.12987456618E+03 -0.26496449444E+03  0.29645869311E+03  0.00000000000E+00 0.  1.
         -3    1    6    6    0  502  0.13352532364E+02 -0.27864290342E+03 -0.33958640821E+00  0.27896285249E+03  0.00000000000E+00 0.  1.
<mgrwt>
<rscale>  0 0.15986696E+04</rscale>
<asrwt>0</asrwt>
<pdfrwt beam="1">  1        1 0.36645011E+00 0.15986696E+04</pdfrwt>
<pdfrwt beam="2">  1       -1 0.41268232E-01 0.15986696E+04</pdfrwt>
<totfact> 0.90372637E+00</totfact>
</mgrwt>
</event>
<event>
12    1  0.1506149E-007  0.1862803E+04  0.7818608E-02  0.8673596E-01
          1   -1    0    0  501    0  0.00000000000E+00  0.00000000000E+00  0.11319683454E+04  0.11319683454E+04  0.00000000000E+00 0. -1.
         -1   -1    0    0    0  501 -0.00000000000E+00 -0.00000000000E+00 -0.76637225454E+03  0.76637225454E+03  0.00000000000E+00 0.  1.
         23    2    1    2    0    0 -0.67555624744E+03 -0.11599161991E+03  0.33540621329E+03  0.76832504184E+03  0.89418916612E+02 0.  0.
        254    2    1    2    0    0  0.67555624744E+03  0.11599161991E+03  0.30189877577E+02  0.11300155581E+04  0.89788275042E+03 0.  0.
        -24    2    4    4    0    0  0.32417272513E+03  0.37390385219E+03 -0.29414260747E+03  0.58132663400E+03  0.80800590809E+02 0.  0.
         24    2    4    4    0    0  0.35138352232E+03 -0.25791223228E+03  0.32433248505E+03  0.54868892410E+03  0.76673823808E+02 0.  0.
         13    1    3    3    0    0 -0.40554964551E+03 -0.73395768161E+02  0.15258671616E+03  0.43947714355E+03  0.00000000000E+00 0. -1.
        -13    1    3    3    0    0 -0.27000660194E+03 -0.42595851745E+02  0.18281949713E+03  0.32884789828E+03  0.00000000000E+00 0.  1.
          2    1    6    6  502    0  0.31189135601E+03 -0.23445527444E+03  0.31579707307E+03  0.50196940647E+03  0.00000000000E+00 0. -1.
          1    1    5    5  503    0  0.24644770591E+03  0.22950214416E+03 -0.21175076475E+03  0.39780157402E+03  0.00000000000E+00 0. -1.
         -2    1    5    5    0  503  0.77725019212E+02  0.14440170803E+03 -0.82391842721E+02  0.18352505998E+03  0.00000000000E+00 0.  1.
         -1    1    6    6    0  502  0.39492166305E+02 -0.23456957843E+02  0.85354119828E+01  0.46719517639E+02  0.00000000000E+00 0.  1.
<mgrwt>
<rscale>  0 0.18628034E+04</rscale>
<asrwt>0</asrwt>
<pdfrwt beam="1">  1        1 0.17414898E+00 0.18628034E+04</pdfrwt>
<pdfrwt beam="2">  1       -1 0.11790342E+00 0.18628034E+04</pdfrwt>
<totfact> 0.72788793E+00</totfact>
</mgrwt>
</event>
<event>
12    1  0.1506149E-007  0.1600060E+04  0.7818608E-02  0.8820511E-01
          1   -1    0    0  501    0  0.00000000000E+00  0.00000000000E+00  0.64805109457E+03  0.64805109457E+03  0.00000000000E+00 0. -1.
         -1   -1    0    0    0  501 -0.00000000000E+00 -0.00000000000E+00 -0.98765009817E+03  0.98765009817E+03  0.00000000000E+00 0.  1.
         23    2    1    2    0    0  0.33014359760E+03 -0.65190400655E+02 -0.54965799316E+03  0.65074578642E+03  0.90008809158E+02 0.  0.
        254    2    1    2    0    0 -0.33014359760E+03  0.65190400655E+02  0.21005898956E+03  0.98495540633E+03  0.90153634978E+03 0.  0.
        -24    2    4    4    0    0  0.28497790427E+03  0.93925301760E+02  0.18841626389E+03  0.36348627645E+03  0.81161668539E+02 0.  0.
         24    2    4    4    0    0 -0.61512150187E+03 -0.28734901106E+02  0.21642725666E+02  0.62146912987E+03  0.80964901095E+02 0.  0.
         13    1    3    3    0    0  0.33511364330E+03 -0.59330943011E+02 -0.53275038334E+03  0.63217425262E+03  0.00000000000E+00 0.  1.
        -13    1    3    3    0    0 -0.49700456946E+01 -0.58594576438E+01 -0.16907609813E+02  0.18571533799E+02  0.00000000000E+00 0. -1.
          4    1    6    6  502    0 -0.21636965222E+02 -0.84469646467E+01 -0.13019121032E+02  0.26627185134E+02  0.00000000000E+00 0. -1.
          3    1    5    5  503    0  0.76435926503E+02  0.64058470296E+02  0.69672257084E+02  0.12165591594E+03  0.00000000000E+00 0. -1.
         -4    1    5    5    0  503  0.20854197776E+03  0.29866831464E+02  0.11874400681E+03  0.24183036051E+03  0.00000000000E+00 0.  1.
         -3    1    6    6    0  502 -0.59348453665E+03 -0.20287936459E+02  0.34661846698E+02  0.59484194474E+03  0.00000000000E+00 0.  1.
<mgrwt>
<rscale>  0 0.16000597E+04</rscale>
<asrwt>0</asrwt>
<pdfrwt beam="1">  1        1 0.99700169E-01 0.16000597E+04</pdfrwt>
<pdfrwt beam="2">  1       -1 0.15194617E+00 0.16000597E+04</pdfrwt>
<totfact> 0.98909911E+00</totfact>
</mgrwt>
</event>
<event>
12    1  0.1506149E-007  0.1904032E+04  0.7818608E-02  0.8652852E-01
         -1   -1    0    0    0  501 -0.00000000000E+00  0.00000000000E+00  0.45036534055E+03  0.45036534055E+03  0.00000000000E+00 0.  1.
          1   -1    0    0  501    0  0.00000000000E+00 -0.00000000000E+00 -0.20124424353E+04  0.20124424353E+04  0.00000000000E+00 0. -1.
         23    2    1    2    0    0 -0.70593730438E+03  0.67797842879E+02 -0.83407539346E+03  0.10986425942E+04  0.91595647110E+02 0.  0.
        254    2    1    2    0    0  0.70593730438E+03 -0.67797842879E+02 -0.72800170129E+03  0.13641651817E+04  0.90995392223E+03 0.  0.
        -24    2    4    4    0    0  0.20638662730E+03  0.40301778661E+03 -0.25174571254E+03  0.52450382139E+03  0.81912017591E+02 0.  0.
         24    2    4    4    0    0  0.49955067708E+03 -0.47081562949E+03 -0.47625598876E+03  0.83966136028E+03  0.83625338143E+02 0.  0.
         13    1    3    3    0    0 -0.45355648254E+03  0.10598952273E+02 -0.48513502427E+03  0.66421518532E+03  0.00000000000E+00 0.  1.
        -13    1    3    3    0    0 -0.25238082184E+03  0.57198890606E+02 -0.34894036919E+03  0.43442740886E+03  0.00000000000E+00 0. -1.
          4    1    6    6  502    0  0.47773225164E+03 -0.46898347474E+03 -0.46437757384E+03  0.81475157866E+03  0.00000000000E+00 0. -1.
          3    1    5    5  503    0  0.16432623101E+03  0.37548252409E+03 -0.22383170845E+03  0.46700200192E+03  0.00000000000E+00 0. -1.
         -4    1    5    5    0  503  0.42060396293E+02  0.27535262520E+02 -0.27914004088E+02  0.57501819472E+02  0.00000000000E+00 0.  1.
         -3    1    6    6    0  502  0.21818425437E+02 -0.18321547493E+01 -0.11878414912E+02  0.24909781621E+02  0.00000000000E+00 0.  1.
<mgrwt>
<rscale>  0 0.19040319E+04</rscale>
<asrwt>0</asrwt>
<pdfrwt beam="1">  1        1 0.30960653E+00 0.19040319E+04</pdfrwt>
<pdfrwt beam="2">  1       -1 0.69286976E-01 0.19040319E+04</pdfrwt>
<totfact> 0.57597854E+00</totfact>
</mgrwt>
</event>
<event>
12    1  0.1506149E-007  0.1141912E+04  0.7818608E-02  0.9165277E-01
         -2   -1    0    0    0  501 -0.00000000000E+00  0.00000000000E+00  0.14475610402E+03  0.14475610402E+03  0.00000000000E+00 0.  1.
          2   -1    0    0  501    0  0.00000000000E+00 -0.00000000000E+00 -0.22520016460E+04  0.22520016460E+04  0.00000000000E+00 0. -1.
         23    2    1    2    0    0 -0.15044849448E+02  0.16436515290E+03 -0.62083738602E+03  0.64870571363E+03  0.90209711437E+02 0.  0.
        254    2    1    2    0    0  0.15044849448E+02 -0.16436515290E+03 -0.14864081559E+04  0.17480520364E+04  0.90500522916E+03 0.  0.
        -24    2    4    4    0    0  0.24194892547E+03 -0.45856898474E+03 -0.70853594699E+03  0.88228893822E+03  0.87096417933E+02 0.  0.
         24    2    4    4    0    0 -0.22690407602E+03  0.29420383185E+03 -0.77787220895E+03  0.86576309815E+03  0.80119999209E+02 0.  0.
         13    1    3    3    0    0  0.31990209994E+02  0.11502089001E+03 -0.37108748318E+03  0.38981931564E+03  0.00000000000E+00 0.  1.
        -13    1    3    3    0    0 -0.47035059441E+02  0.49344262891E+02 -0.24974990285E+03  0.25888639800E+03  0.00000000000E+00 0. -1.
          4    1    6    6  502    0 -0.13609834680E+03  0.15557183605E+03 -0.34408944834E+03  0.40140117667E+03  0.00000000000E+00 0. -1.
          3    1    5    5  503    0  0.23238828175E+03 -0.41038712149E+03 -0.67240745084E+03  0.82131217142E+03  0.00000000000E+00 0. -1.
         -4    1    5    5    0  503  0.95606437176E+01 -0.48181863251E+02 -0.36128496156E+02  0.60976766798E+02  0.00000000000E+00 0.  1.
         -3    1    6    6    0  502 -0.90805729226E+02  0.13863199579E+03 -0.43378276061E+03  0.46436192148E+03  0.00000000000E+00 0.  1.
<mgrwt>
<rscale>  0 0.11419124E+04</rscale>
<asrwt>0</asrwt>
<pdfrwt beam="1">  1        2 0.34646179E+00 0.11419124E+04</pdfrwt>
<pdfrwt beam="2">  1       -2 0.22270170E-01 0.11419124E+04</pdfrwt>
<totfact> 0.84812939E+01</totfact>
</mgrwt>
</event>
<event>
12    1  0.1506149E-007  0.1503062E+04  0.7818608E-02  0.8882419E-01
         -1   -1    0    0    0  501 -0.00000000000E+00  0.00000000000E+00  0.24930921870E+03  0.24930921870E+03  0.00000000000E+00 0.  1.
          1   -1    0    0  501    0  0.00000000000E+00 -0.00000000000E+00 -0.22654563220E+04  0.22654563220E+04  0.00000000000E+00 0. -1.
         23    2    1    2    0    0  0.36666851371E+03  0.62188713404E+02 -0.11111545256E+04  0.11752915909E+04  0.91283672491E+02 0.  0.
        254    2    1    2    0    0 -0.36666851371E+03 -0.62188713404E+02 -0.90499257765E+03  0.13394739498E+04  0.91480361906E+03 0.  0.
        -24    2    4    4    0    0  0.13793793897E+03 -0.36081231946E+03 -0.33843660645E+03  0.52014392026E+03  0.82449719956E+02 0.  0.
         24    2    4    4    0    0 -0.50460645268E+03  0.29862360605E+03 -0.56655597120E+03  0.81933002950E+03  0.80698813828E+02 0.  0.
         11    1    3    3    0    0  0.73179655877E+02  0.43222722572E+01 -0.12656163669E+03  0.14625933117E+03  0.00000000000E+00 0. -1.
        -11    1    3    3    0    0  0.29348885783E+03  0.57866441146E+02 -0.98459288896E+03  0.10290322598E+04  0.00000000000E+00 0.  1.
          4    1    6    6  502    0 -0.15343310621E+03  0.60068709814E+02 -0.19373133402E+03  0.25432616413E+03  0.00000000000E+00 0. -1.
          3    1    5    5  503    0  0.18782706586E+02 -0.55091373787E+02 -0.16583487790E+02  0.60521579620E+02  0.00000000000E+00 0. -1.
         -4    1    5    5    0  503  0.11915523238E+03 -0.30572094567E+03 -0.32185311866E+03  0.45962234064E+03  0.00000000000E+00 0.  1.
         -3    1    6    6    0  502 -0.35117334646E+03  0.23855489624E+03 -0.37282463719E+03  0.56500386537E+03  0.00000000000E+00 0.  1.
<mgrwt>
<rscale>  0 0.15030624E+04</rscale>
<asrwt>0</asrwt>
<pdfrwt beam="1">  1        1 0.34853173E+00 0.15030624E+04</pdfrwt>
<pdfrwt beam="2">  1       -1 0.38355265E-01 0.15030624E+04</pdfrwt>
<totfact> 0.12518758E+01</totfact>
</mgrwt>
</event>
<event>
12    1  0.1506149E-007  0.2118017E+04  0.7818608E-02  0.8553348E-01
          3   -1    0    0  501    0  0.00000000000E+00  0.00000000000E+00  0.63695914945E+03  0.63695914945E+03  0.00000000000E+00 0. -1.
         -3   -1    0    0    0  501 -0.00000000000E+00 -0.00000000000E+00 -0.17607070981E+04  0.17607070981E+04  0.00000000000E+00 0.  1.
         23    2    1    2    0    0 -0.74317884419E+02  0.30703124808E+03 -0.13687481108E+04  0.14075645174E+04  0.89303665502E+02 0.  0.
        254    2    1    2    0    0  0.74317884419E+02 -0.30703124808E+03  0.24500016217E+03  0.99010173010E+03  0.90580628240E+03 0.  0.
        -24    2    4    4    0    0 -0.23003223697E+03  0.18424374151E+03 -0.90371620328E+02  0.31702763791E+03  0.74019639985E+02 0.  0.
         24    2    4    4    0    0  0.30435012139E+03 -0.49127498959E+03  0.33537178250E+03  0.67307409219E+03  0.81082607813E+02 0.  0.
         11    1    3    3    0    0 -0.49237937646E+01 -0.26733298873E+01 -0.54743988660E+01  0.78332292617E+01  0.00000000000E+00 0. -1.
        -11    1    3    3    0    0 -0.69394090654E+02  0.30970457796E+03 -0.13632737119E+04  0.13997312882E+04  0.00000000000E+00 0.  1.
          4    1    6    6  502    0  0.53076315220E+02 -0.14925905556E+03  0.76097819674E+02  0.17574481234E+03  0.00000000000E+00 0. -1.
          3    1    5    5  503    0 -0.51006324722E+02  0.80481815867E+02 -0.44103621334E+02  0.10499570116E+03  0.00000000000E+00 0. -1.
         -4    1    5    5    0  503 -0.17902591225E+03  0.10376192565E+03 -0.46267998994E+02  0.21203193675E+03  0.00000000000E+00 0.  1.
         -3    1    6    6    0  502  0.25127380617E+03 -0.34201593403E+03  0.25927396282E+03  0.49732927985E+03  0.00000000000E+00 0.  1.
<mgrwt>
<rscale>  0 0.21180165E+04</rscale>
<asrwt>0</asrwt>
<pdfrwt beam="1">  1        3 0.97993717E-01 0.21180165E+04</pdfrwt>
<pdfrwt beam="2">  1       -3 0.27087801E+00 0.21180165E+04</pdfrwt>
<totfact> 0.12230501E-01</totfact>
</mgrwt>
</event>
<event>
12    1  0.1506149E-007  0.1429222E+04  0.7818608E-02  0.8932934E-01
          2   -1    0    0  501    0  0.00000000000E+00  0.00000000000E+00  0.11206500446E+04  0.11206500446E+04  0.00000000000E+00 0. -1.
         -2   -1    0    0    0  501 -0.00000000000E+00 -0.00000000000E+00 -0.45568981995E+03  0.45568981995E+03  0.00000000000E+00 0.  1.
         23    2    1    2    0    0 -0.15230277507E+02  0.40663509756E+03  0.98200467624E+02  0.42837036009E+03  0.90960264039E+02 0.  0.
        254    2    1    2    0    0  0.15230277507E+02 -0.40663509756E+03  0.56675975702E+03  0.11479695045E+04  0.91161027695E+03 0.  0.
        -24    2    4    4    0    0 -0.32119878779E+03 -0.31096159143E+03  0.63518329527E+03  0.78092661846E+03  0.80763805049E+02 0.  0.
         24    2    4    4    0    0  0.33642906530E+03 -0.95673506134E+02 -0.68423538251E+02  0.36704288599E+03  0.87753996001E+02 0.  0.
         13    1    3    3    0    0 -0.42123972377E+02  0.15059390461E+03  0.62735158211E+02  0.16848932675E+03  0.00000000000E+00 0. -1.
        -13    1    3    3    0    0  0.26893694870E+02  0.25604119296E+03  0.35465309413E+02  0.25988103333E+03  0.00000000000E+00 0.  1.
          2    1    6    6  502    0  0.19113280798E+03 -0.52127854638E+02 -0.82719192566E+02  0.21468937639E+03  0.00000000000E+00 0. -1.
          3    1    5    5  503    0 -0.15086586151E+03 -0.17942688210E+03  0.38666602800E+03  0.45217820756E+03  0.00000000000E+00 0. -1.
         -4    1    5    5    0  503 -0.17033292628E+03 -0.13153470933E+03  0.24851726728E+03  0.32874841090E+03  0.00000000000E+00 0.  1.
         -1    1    6    6    0  502  0.14529625732E+03 -0.43545651496E+02  0.14295654314E+02  0.15235350960E+03  0.00000000000E+00 0.  1.
<mgrwt>
<rscale>  0 0.14292219E+04</rscale>
<asrwt>0</asrwt>
<pdfrwt beam="1">  1        2 0.17240770E+00 0.14292219E+04</pdfrwt>
<pdfrwt beam="2">  1       -2 0.70106127E-01 0.14292219E+04</pdfrwt>
<totfact> 0.38078620E+01</totfact>
</mgrwt>
</event>
<event>
12    1  0.1506149E-007  0.1951623E+04  0.7818608E-02  0.8629579E-01
          2   -1    0    0  501    0  0.00000000000E+00  0.00000000000E+00  0.91245064661E+03  0.91245064661E+03  0.00000000000E+00 0. -1.
         -2   -1    0    0    0  501 -0.00000000000E+00 -0.00000000000E+00 -0.10435721538E+04  0.10435721538E+04  0.00000000000E+00 0.  1.
         23    2    1    2    0    0  0.61049775589E+02 -0.38388873761E+03 -0.70672669737E+03  0.81205353726E+03  0.94184312042E+02 0.  0.
        254    2    1    2    0    0 -0.61049775589E+02  0.38388873761E+03  0.57560519022E+03  0.11439692631E+04  0.90898113400E+03 0.  0.
        -24    2    4    4    0    0 -0.15217411641E+03  0.30241988475E+03  0.80169370767E+03  0.87420311923E+03  0.83087570385E+02 0.  0.
         24    2    4    4    0    0  0.91124340817E+02  0.81468852856E+02 -0.22608851745E+03  0.26976614388E+03  0.81956910551E+02 0.  0.
         13    1    3    3    0    0  0.61895127445E+02 -0.29928072062E+03 -0.61807205680E+03  0.68950201155E+03  0.00000000000E+00 0.  1.
        -13    1    3    3    0    0 -0.84535185642E+00 -0.84608016989E+02 -0.88654640576E+02  0.12255152571E+03  0.00000000000E+00 0. -1.
          2    1    6    6  502    0  0.83752254130E+02  0.26095284894E+02 -0.16579224982E+03  0.18756991780E+03  0.00000000000E+00 0. -1.
          1    1    5    5  503    0 -0.11913519504E+03  0.20452284282E+03  0.46137601534E+03  0.51854663769E+03  0.00000000000E+00 0. -1.
         -2    1    5    5    0  503 -0.33038921364E+02  0.97897041930E+02  0.34031769233E+03  0.35565648153E+03  0.00000000000E+00 0.  1.
         -1    1    6    6    0  502  0.73720866871E+01  0.55373567962E+02 -0.60296267633E+02  0.82196226078E+02  0.00000000000E+00 0.  1.
<mgrwt>
<rscale>  0 0.19516230E+04</rscale>
<asrwt>0</asrwt>
<pdfrwt beam="1">  1        2 0.14037702E+00 0.19516230E+04</pdfrwt>
<pdfrwt beam="2">  1       -2 0.16054956E+00 0.19516230E+04</pdfrwt>
<totfact> 0.66919221E+00</totfact>
</mgrwt>
</event>
<event>
12    1  0.1506149E-007  0.3647233E+04  0.7818608E-02  0.8079757E-01
         -1   -1    0    0    0  501 -0.00000000000E+00  0.00000000000E+00  0.13809680035E+04  0.13809680035E+04  0.00000000000E+00 0.  1.
          1   -1    0    0  501    0  0.00000000000E+00 -0.00000000000E+00 -0.24081494323E+04  0.24081494323E+04  0.00000000000E+00 0. -1.
         23    2    1    2    0    0  0.48372711292E+03 -0.86579662907E+03  0.96859197802E+03  0.13892596157E+04  0.90973278207E+02 0.  0.
        254    2    1    2    0    0 -0.48372711292E+03  0.86579662907E+03 -0.19957734068E+04  0.23998578201E+04  0.89028666317E+03 0.  0.
        -24    2    4    4    0    0  0.16539303721E+03  0.59771110933E+03 -0.90500348645E+03  0.11001744564E+04  0.82092003150E+02 0.  0.
         24    2    4    4    0    0 -0.64912015013E+03  0.26808551974E+03 -0.10907699203E+04  0.12996833637E+04  0.78555786376E+02 0.  0.
         13    1    3    3    0    0  0.48258221811E+03 -0.86543481572E+03  0.95689690895E+03  0.13775030714E+04  0.00000000000E+00 0.  1.
        -13    1    3    3    0    0  0.11448948119E+01 -0.36181334985E+00  0.11695069067E+02  0.11756544285E+02  0.00000000000E+00 0. -1.
          4    1    6    6  502    0 -0.53092146921E+03  0.18635558082E+03 -0.88383419016E+03  0.10477446658E+04  0.00000000000E+00 0. -1.
          3    1    5    5  503    0  0.17387607532E+03  0.56697511541E+03 -0.84681549565E+03  0.10338230771E+04  0.00000000000E+00 0. -1.
         -4    1    5    5    0  503 -0.84830381104E+01  0.30735993921E+02 -0.58187990799E+02  0.66351379271E+02  0.00000000000E+00 0.  1.
         -3    1    6    6    0  502 -0.11819868092E+03  0.81729938927E+02 -0.20693573016E+03  0.25193869791E+03  0.00000000000E+00 0.  1.
<mgrwt>
<rscale>  0 0.36472331E+04</rscale>
<asrwt>0</asrwt>
<pdfrwt beam="1">  1        1 0.37048453E+00 0.36472331E+04</pdfrwt>
<pdfrwt beam="2">  1       -1 0.21245662E+00 0.36472331E+04</pdfrwt>
<totfact> 0.15635304E-01</totfact>
</mgrwt>
</event>
<event>
12    1  0.1506149E-007  0.2298073E+04  0.7818608E-02  0.8478681E-01
         -2   -1    0    0    0  501 -0.00000000000E+00  0.00000000000E+00  0.34702900074E+03  0.34702900074E+03  0.00000000000E+00 0.  1.
          2   -1    0    0  501    0  0.00000000000E+00 -0.00000000000E+00 -0.38045384527E+04  0.38045384527E+04  0.00000000000E+00 0. -1.
         23    2    1    2    0    0  0.82407215172E+03 -0.19893867955E+03 -0.23274634216E+04  0.24786215487E+04  0.88358890593E+02 0.  0.
        254    2    1    2    0    0 -0.82407215172E+03  0.19893867955E+03 -0.11300460304E+04  0.16729459047E+04  0.89614310233E+03 0.  0.
        -24    2    4    4    0    0 -0.29548836815E+01  0.20250994436E+03 -0.71830813660E+03  0.75059698741E+03  0.80064033747E+02 0.  0.
         24    2    4    4    0    0 -0.82111726804E+03 -0.35712648183E+01 -0.41173789376E+03  0.92234891729E+03  0.83385311985E+02 0.  0.
         13    1    3    3    0    0  0.60648551216E+03 -0.17286387760E+03 -0.18078369075E+04  0.19146751371E+04  0.00000000000E+00 0. -1.
        -13    1    3    3    0    0  0.21758663956E+03 -0.26074801943E+02 -0.51962651413E+03  0.56394641164E+03  0.00000000000E+00 0.  1.
          4    1    6    6  502    0 -0.28726962235E+02  0.10785802156E+02 -0.29110566255E+02  0.42296535970E+02  0.00000000000E+00 0. -1.
          1    1    5    5  503    0  0.13111535008E+01  0.74305592617E+02 -0.14296363790E+03  0.16112616789E+03  0.00000000000E+00 0. -1.
         -2    1    5    5    0  503 -0.42660371823E+01  0.12820435175E+03 -0.57534449870E+03  0.58947081952E+03  0.00000000000E+00 0.  1.
         -3    1    6    6    0  502 -0.79239030581E+03 -0.14357066974E+02 -0.38262732750E+03  0.88005238132E+03  0.00000000000E+00 0.  1.
<mgrwt>
<rscale>  0 0.22980733E+04</rscale>
<asrwt>0</asrwt>
<pdfrwt beam="1">  1        2 0.58531358E+00 0.22980733E+04</pdfrwt>
<pdfrwt beam="2">  1       -2 0.53389079E-01 0.22980733E+04</pdfrwt>
<totfact> 0.14674877E+00</totfact>
</mgrwt>
</event>
<event>
12    1  0.1506149E-007  0.2582980E+04  0.7818608E-02  0.8374006E-01
         -2   -1    0    0    0  501 -0.00000000000E+00  0.00000000000E+00  0.15663413920E+04  0.15663413920E+04  0.00000000000E+00 0.  1.
          2   -1    0    0  501    0  0.00000000000E+00 -0.00000000000E+00 -0.10648673753E+04  0.10648673753E+04  0.00000000000E+00 0. -1.
         23    2    1    2    0    0 -0.84173312057E+03 -0.61803268001E+03  0.67181973149E+03  0.12450708011E+04  0.91545116420E+02 0.  0.
        254    2    1    2    0    0  0.84173312057E+03  0.61803268001E+03 -0.17034571485E+03  0.13861379662E+04  0.89547850832E+03 0.  0.
        -24    2    4    4    0    0  0.94004577146E+03  0.70950800165E+03 -0.37586644864E+02  0.11809969819E+04  0.79078812896E+02 0.  0.
         24    2    4    4    0    0 -0.98312650894E+02 -0.91475321639E+02 -0.13275906999E+03  0.20514098422E+03  0.80154481776E+02 0.  0.
         13    1    3    3    0    0 -0.72186084642E+02 -0.23889985950E+02  0.47308320725E+02  0.89552439690E+02  0.00000000000E+00 0. -1.
        -13    1    3    3    0    0 -0.76954703593E+03 -0.59414269406E+03  0.62451141076E+03  0.11555183614E+04  0.00000000000E+00 0.  1.
          2    1    6    6  502    0 -0.88311270224E+02 -0.89396505711E+02 -0.14321140523E+03  0.19052590971E+03  0.00000000000E+00 0. -1.
          1    1    5    5  503    0  0.56507011778E+03  0.43039585513E+03 -0.61238660921E+02  0.71294810731E+03  0.00000000000E+00 0. -1.
         -2    1    5    5    0  503  0.37497565368E+03  0.27911214652E+03  0.23652016057E+02  0.46804887464E+03  0.00000000000E+00 0.  1.
         -1    1    6    6    0  502 -0.10001380670E+02 -0.20788159273E+01  0.10452335244E+02  0.14615074513E+02  0.00000000000E+00 0.  1.
<mgrwt>
<rscale>  0 0.25829796E+04</rscale>
<asrwt>0</asrwt>
<pdfrwt beam="1">  1        2 0.16382575E+00 0.25829796E+04</pdfrwt>
<pdfrwt beam="2">  1       -2 0.24097560E+00 0.25829796E+04</pdfrwt>
<totfact> 0.14823914E+00</totfact>
</mgrwt>
</event>
<event>
12    1  0.1506149E-007  0.2264135E+04  0.7818608E-02  0.8492198E-01
         -1   -1    0    0    0  501 -0.00000000000E+00  0.00000000000E+00  0.89854041990E+03  0.89854041990E+03  0.00000000000E+00 0.  1.
          1   -1    0    0  501    0  0.00000000000E+00 -0.00000000000E+00 -0.14262877233E+04  0.14262877233E+04  0.00000000000E+00 0. -1.
         23    2    1    2    0    0  0.75267032255E+03 -0.56694389665E+03 -0.70924446364E+02  0.94952726797E+03  0.92918023724E+02 0.  0.
        254    2    1    2    0    0 -0.75267032255E+03  0.56694389665E+03 -0.45682285704E+03  0.13753008752E+04  0.89153091832E+03 0.  0.
        -24    2    4    4    0    0  0.11507920577E+03  0.34303014649E+03 -0.99052726212E+01  0.37058831515E+03  0.79527856138E+02 0.  0.
         24    2    4    4    0    0 -0.86774952831E+03  0.22391375015E+03 -0.44691758442E+03  0.10047125601E+04  0.81150414191E+02 0.  0.
         11    1    3    3    0    0  0.32224864860E+03 -0.22135511910E+03  0.13140977461E+02  0.39117127395E+03  0.00000000000E+00 0. -1.
        -11    1    3    3    0    0  0.43042167394E+03 -0.34558877755E+03 -0.84065423825E+02  0.55835599401E+03  0.00000000000E+00 0.  1.
          4    1    6    6  502    0 -0.85031248235E+03  0.22647460434E+03 -0.42689882863E+03  0.97804124347E+03  0.00000000000E+00 0. -1.
          1    1    5    5  503    0  0.89185675395E+02  0.20446690065E+03 -0.39530976305E+02  0.22654689635E+03  0.00000000000E+00 0. -1.
         -2    1    5    5    0  503  0.25893530370E+02  0.13856324584E+03  0.29625703684E+02  0.14404141881E+03  0.00000000000E+00 0.  1.
         -3    1    6    6    0  502 -0.17437045966E+02 -0.25608541833E+01 -0.20018755797E+02  0.26671316612E+02  0.00000000000E+00 0.  1.
<mgrwt>
<rscale>  0 0.22641353E+04</rscale>
<asrwt>0</asrwt>
<pdfrwt beam="1">  1        1 0.21942888E+00 0.22641353E+04</pdfrwt>
<pdfrwt beam="2">  1       -1 0.13823699E+00 0.22641353E+04</pdfrwt>
<totfact> 0.28927074E+00</totfact>
</mgrwt>
</event>
<event>
12    1  0.1506149E-007  0.2938088E+04  0.7818608E-02  0.8261635E-01
          1   -1    0    0  501    0  0.00000000000E+00  0.00000000000E+00  0.35648251249E+04  0.35648251249E+04  0.00000000000E+00 0. -1.
         -1   -1    0    0    0  501 -0.00000000000E+00 -0.00000000000E+00 -0.60538449323E+03  0.60538449323E+03  0.00000000000E+00 0.  1.
         23    2    1    2    0    0  0.11238684864E+04  0.29768505558E+03  0.22609393279E+04  0.25439530866E+04  0.90298921346E+02 0.  0.
        254    2    1    2    0    0 -0.11238684864E+04 -0.29768505558E+03  0.69850130371E+03  0.16262565315E+04  0.89727892425E+03 0.  0.
        -24    2    4    4    0    0 -0.12327122974E+04 -0.28799656745E+03  0.45537666935E+03  0.13476546138E+04  0.79268001930E+02 0.  0.
         24    2    4    4    0    0  0.10884381100E+03 -0.96884881309E+01  0.24312463437E+03  0.27860191768E+03  0.81046891996E+02 0.  0.
         13    1    3    3    0    0  0.10699815082E+04  0.26641884544E+03  0.21122097325E+04  0.23827021180E+04  0.00000000000E+00 0. -1.
        -13    1    3    3    0    0  0.53886978238E+02  0.31266210132E+02  0.14872959543E+03  0.16125096861E+03  0.00000000000E+00 0.  1.
          4    1    6    6  502    0  0.66734881234E+02  0.32571968479E+02  0.15882471307E+03  0.17532759904E+03  0.00000000000E+00 0. -1.
          1    1    5    5  503    0 -0.77544033440E+03 -0.21402841406E+03  0.26680262887E+03  0.84752552588E+03  0.00000000000E+00 0. -1.
         -2    1    5    5    0  503 -0.45727196300E+03 -0.73968153389E+02  0.18857404048E+03  0.50012908794E+03  0.00000000000E+00 0.  1.
         -3    1    6    6    0  502  0.42108929767E+02 -0.42260456610E+02  0.84299921293E+02  0.10327431863E+03  0.00000000000E+00 0.  1.
<mgrwt>
<rscale>  0 0.29380877E+04</rscale>
<asrwt>0</asrwt>
<pdfrwt beam="1">  1        1 0.54843462E+00 0.29380877E+04</pdfrwt>
<pdfrwt beam="2">  1       -1 0.93136078E-01 0.29380877E+04</pdfrwt>
<totfact> 0.21244097E-01</totfact>
</mgrwt>
</event>
<event>
12    1  0.1506149E-007  0.1746954E+04  0.7818608E-02  0.8735029E-01
          1   -1    0    0  501    0  0.00000000000E+00  0.00000000000E+00  0.17038106602E+04  0.17038106602E+04  0.00000000000E+00 0. -1.
         -1   -1    0    0    0  501 -0.00000000000E+00 -0.00000000000E+00 -0.44779744454E+03  0.44779744454E+03  0.00000000000E+00 0.  1.
         23    2    1    2    0    0  0.55804162881E+03 -0.21460295649E+03  0.20323138243E+03  0.63814389921E+03  0.91976914862E+02 0.  0.
        254    2    1    2    0    0 -0.55804162881E+03  0.21460295649E+03  0.10527818332E+04  0.15134642055E+04  0.90816266417E+03 0.  0.
        -24    2    4    4    0    0 -0.85520839378E+02  0.49876787368E+03  0.64068738022E+03  0.82044434945E+03  0.81027190452E+02 0.  0.
         24    2    4    4    0    0 -0.47252078944E+03 -0.28416491719E+03  0.41209445301E+03  0.69301985607E+03  0.80181582021E+02 0.  0.
         13    1    3    3    0    0  0.13659087951E+03 -0.96463686937E+02  0.55466312930E+02  0.17617838441E+03  0.00000000000E+00 0. -1.
        -13    1    3    3    0    0  0.42145074930E+03 -0.11813926956E+03  0.14776506950E+03  0.46196551480E+03  0.00000000000E+00 0.  1.
          2    1    6    6  502    0 -0.38914955847E+03 -0.23608951760E+03  0.29932578661E+03  0.54476744186E+03  0.00000000000E+00 0. -1.
          3    1    5    5  503    0 -0.94453685414E+02  0.45662784452E+03  0.55777721656E+03  0.72701163016E+03  0.00000000000E+00 0. -1.
         -4    1    5    5    0  503  0.89328460359E+01  0.42140029164E+02  0.82910163656E+02  0.93432719289E+02  0.00000000000E+00 0.  1.
         -1    1    6    6    0  502 -0.83371230970E+02 -0.48075399590E+02  0.11276866640E+03  0.14825241422E+03  0.00000000000E+00 0.  1.
<mgrwt>
<rscale>  0 0.17469540E+04</rscale>
<asrwt>0</asrwt>
<pdfrwt beam="1">  1        1 0.26212471E+00 0.17469540E+04</pdfrwt>
<pdfrwt beam="2">  1       -1 0.68891915E-01 0.17469540E+04</pdfrwt>
<totfact> 0.95731520E+00</totfact>
</mgrwt>
</event>
<event>
12    1  0.1580570E-007  0.1674234E+04  0.7818608E-02  0.8776198E-01
         -1   -1    0    0    0  501 -0.00000000000E+00  0.00000000000E+00  0.46035237975E+03  0.46035237975E+03  0.00000000000E+00 0.  1.
          1   -1    0    0  501    0  0.00000000000E+00 -0.00000000000E+00 -0.15222351178E+04  0.15222351178E+04  0.00000000000E+00 0. -1.
         23    2    1    2    0    0  0.11988992735E+03 -0.57775081423E+03 -0.35230978013E+03  0.69417725707E+03  0.97930000640E+02 0.  0.
        254    2    1    2    0    0 -0.11988992735E+03  0.57775081423E+03 -0.70957295789E+03  0.12884102404E+04  0.89907595179E+03 0.  0.
        -24    2    4    4    0    0 -0.44340967922E+03  0.45618582416E+03 -0.67710529297E+03  0.93256699872E+03  0.80572821315E+02 0.  0.
         24    2    4    4    0    0  0.32351975187E+03  0.12156499007E+03 -0.32467664917E+02  0.35584324173E+03  0.78276348645E+02 0.  0.
         13    1    3    3    0    0  0.73521300937E+02 -0.30704453534E+03 -0.24368259504E+03  0.39882694931E+03  0.00000000000E+00 0. -1.
        -13    1    3    3    0    0  0.46368626413E+02 -0.27070627890E+03 -0.10862718508E+03  0.29535030775E+03  0.00000000000E+00 0.  1.
          2    1    6    6  502    0  0.25359348003E+03  0.84681075663E+02  0.70663515108E+01  0.26745181063E+03  0.00000000000E+00 0. -1.
          1    1    5    5  503    0 -0.31184176313E+03  0.33106181922E+03 -0.53368461273E+03  0.70118933195E+03  0.00000000000E+00 0. -1.
         -2    1    5    5    0  503 -0.13156791609E+03  0.12512400495E+03 -0.14342068024E+03  0.23137766677E+03  0.00000000000E+00 0.  1.
         -1    1    6    6    0  502  0.69926271843E+02  0.36883914407E+02 -0.39534016428E+02  0.88391431093E+02  0.00000000000E+00 0.  1.
<mgrwt>
<rscale>  0 0.16742336E+04</rscale>
<asrwt>0</asrwt>
<pdfrwt beam="1">  1        1 0.23419001E+00 0.16742336E+04</pdfrwt>
<pdfrwt beam="2">  1       -1 0.70823444E-01 0.16742336E+04</pdfrwt>
<totfact> 0.12126490E+01</totfact>
</mgrwt>
</event>
<event>
12    1  0.1506149E-007  0.1199568E+04  0.7818608E-02  0.9113234E-01
         -2   -1    0    0    0  501 -0.00000000000E+00  0.00000000000E+00  0.29717872431E+03  0.29717872431E+03  0.00000000000E+00 0.  1.
          2   -1    0    0  501    0  0.00000000000E+00 -0.00000000000E+00 -0.12105210067E+04  0.12105210067E+04  0.00000000000E+00 0. -1.
         23    2    1    2    0    0  0.11458917572E+03  0.45796215023E+02 -0.47342974800E+03  0.49776516741E+03  0.91686766185E+02 0.  0.
        254    2    1    2    0    0 -0.11458917572E+03 -0.45796215023E+02 -0.43991253439E+03  0.10099345636E+04  0.90067575315E+03 0.  0.
        -24    2    4    4    0    0  0.25110323659E+03 -0.26071392884E+03  0.30317025199E+02  0.37173484022E+03  0.79013171664E+02 0.  0.
         24    2    4    4    0    0 -0.36569241231E+03  0.21491771382E+03 -0.47022955959E+03  0.63819972338E+03  0.79135858327E+02 0.  0.
         11    1    3    3    0    0  0.38285680335E+02  0.23736914914E+02 -0.33621640942E+03  0.33922073701E+03  0.00000000000E+00 0. -1.
        -11    1    3    3    0    0  0.76303495387E+02  0.22059300109E+02 -0.13721333857E+03  0.15854443040E+03  0.00000000000E+00 0.  1.
          4    1    6    6  502    0 -0.10464734586E+03  0.10499961886E+03 -0.16033725088E+03  0.21836671215E+03  0.00000000000E+00 0. -1.
          1    1    5    5  503    0  0.29519664138E+02 -0.69943008785E+02  0.22721785969E+02  0.79244650333E+02  0.00000000000E+00 0. -1.
         -2    1    5    5    0  503  0.22158357245E+03 -0.19077092006E+03  0.75952392300E+01  0.29249018988E+03  0.00000000000E+00 0.  1.
         -3    1    6    6    0  502 -0.26104506645E+03  0.10991809496E+03 -0.30989230871E+03  0.41983301123E+03  0.00000000000E+00 0.  1.
<mgrwt>
<rscale>  0 0.11995684E+04</rscale>
<asrwt>0</asrwt>
<pdfrwt beam="1">  1        2 0.18623400E+00 0.11995684E+04</pdfrwt>
<pdfrwt beam="2">  1       -2 0.45719805E-01 0.11995684E+04</pdfrwt>
<totfact> 0.83532045E+01</totfact>
</mgrwt>
</event>
<event>
12    1  0.1506149E-007  0.3265570E+04  0.7818608E-02  0.8171712E-01
          2   -1    0    0  501    0  0.00000000000E+00  0.00000000000E+00  0.20538658760E+04  0.20538658760E+04  0.00000000000E+00 0. -1.
         -2   -1    0    0    0  501 -0.00000000000E+00 -0.00000000000E+00 -0.12980334046E+04  0.12980334046E+04  0.00000000000E+00 0.  1.
         23    2    1    2    0    0  0.56200409544E+03 -0.15023054478E+03 -0.10774353250E+04  0.12277378457E+04  0.89752539188E+02 0.  0.
        254    2    1    2    0    0 -0.56200409544E+03  0.15023054478E+03  0.18332677964E+04  0.21241614349E+04  0.90153933254E+03 0.  0.
        -24    2    4    4    0    0 -0.67818210964E+03 -0.16264437390E+02  0.17700629968E+04  0.18972559135E+04  0.79129531417E+02 0.  0.
         24    2    4    4    0    0  0.11617801420E+03  0.16649498217E+03  0.63204799567E+02  0.22690552136E+03  0.79204538168E+02 0.  0.
         11    1    3    3    0    0  0.70986824060E+02 -0.11820677682E+02 -0.81349171744E+02  0.10861190245E+03  0.00000000000E+00 0. -1.
        -11    1    3    3    0    0  0.49101727138E+03 -0.13840986709E+03 -0.99608615330E+03  0.11191259433E+04  0.00000000000E+00 0.  1.
          4    1    6    6  502    0  0.58838917758E+02  0.14139659532E+03  0.59173128109E+02  0.16418426996E+03  0.00000000000E+00 0. -1.
          3    1    5    5  503    0 -0.53786976672E+03 -0.44706124625E+02  0.14111116945E+04  0.15108073133E+04  0.00000000000E+00 0. -1.
         -4    1    5    5    0  503 -0.14031234292E+03  0.28441687235E+02  0.35895130230E+03  0.38644860017E+03  0.00000000000E+00 0.  1.
         -3    1    6    6    0  502  0.57339096443E+02  0.25098386846E+02  0.40316714579E+01  0.62721251406E+02  0.00000000000E+00 0.  1.
<mgrwt>
<rscale>  0 0.32655698E+04</rscale>
<asrwt>0</asrwt>
<pdfrwt beam="1">  1        2 0.31597937E+00 0.32655698E+04</pdfrwt>
<pdfrwt beam="2">  1       -2 0.19969745E+00 0.32655698E+04</pdfrwt>
<totfact> 0.69777966E-01</totfact>
</mgrwt>
</event>
<event>
12    1  0.1506149E-007  0.1493014E+04  0.7818608E-02  0.8889112E-01
         -2   -1    0    0    0  501 -0.00000000000E+00  0.00000000000E+00  0.29884864853E+03  0.29884864853E+03  0.00000000000E+00 0.  1.
          2   -1    0    0  501    0  0.00000000000E+00 -0.00000000000E+00 -0.18647314796E+04  0.18647314796E+04  0.00000000000E+00 0. -1.
         23    2    1    2    0    0 -0.32611628540E+03  0.36766617064E+02 -0.98370721492E+03  0.10421568560E+04  0.10347662563E+03 0.  0.
        254    2    1    2    0    0  0.32611628540E+03 -0.36766617064E+02 -0.58217561617E+03  0.11214232722E+04  0.90053211579E+03 0.  0.
        -24    2    4    4    0    0 -0.27680064459E+03  0.11837615624E+03 -0.30369453965E+03  0.43492504674E+03  0.79359382924E+02 0.  0.
         24    2    4    4    0    0  0.60291692999E+03 -0.15514277330E+03 -0.27848107653E+03  0.68649822544E+03  0.78421929109E+02 0.  0.
         11    1    3    3    0    0 -0.93295318569E+02 -0.99825914987E+01 -0.16617649423E+03  0.19083578238E+03  0.00000000000E+00 0.  1.
        -11    1    3    3    0    0 -0.23282096683E+03  0.46749208563E+02 -0.81753072069E+03  0.85132107361E+03  0.00000000000E+00 0. -1.
          2    1    6    6  502    0  0.76248313931E+02 -0.68977074834E+01 -0.60342793918E+02  0.97481467591E+02  0.00000000000E+00 0. -1.
          1    1    5    5  503    0 -0.16460324934E+02  0.39804768839E+01  0.24234432972E+01  0.17107295829E+02  0.00000000000E+00 0. -1.
         -2    1    5    5    0  503 -0.26034031965E+03  0.11439567936E+03 -0.30611798295E+03  0.41781775091E+03  0.00000000000E+00 0.  1.
         -1    1    6    6    0  502  0.52666861606E+03 -0.14824506582E+03 -0.21813828261E+03  0.58901675785E+03  0.00000000000E+00 0.  1.
<mgrwt>
<rscale>  0 0.14930137E+04</rscale>
<asrwt>0</asrwt>
<pdfrwt beam="1">  1        2 0.28688177E+00 0.14930137E+04</pdfrwt>
<pdfrwt beam="2">  1       -2 0.45976715E-01 0.14930137E+04</pdfrwt>
<totfact> 0.34448408E+01</totfact>
</mgrwt>
</event>
<event>
12    1  0.1506149E-007  0.1753652E+04  0.7818608E-02  0.8731343E-01
          2   -1    0    0  501    0  0.00000000000E+00  0.00000000000E+00  0.85457476409E+03  0.85457476409E+03  0.00000000000E+00 0.  1.
         -2   -1    0    0    0  501 -0.00000000000E+00 -0.00000000000E+00 -0.89965633943E+03  0.89965633943E+03  0.00000000000E+00 0. -1.
         23    2    1    2    0    0  0.13698156110E+01  0.63848123810E+03 -0.86037016566E+02  0.65081962230E+03  0.92215208935E+02 0.  0.
        254    2    1    2    0    0 -0.13698156110E+01 -0.63848123810E+03  0.40955441223E+02  0.11034114812E+04  0.89898797596E+03 0.  0.
        -24    2    4    4    0    0  0.17087026521E+03  0.12250432677E+03  0.20245799320E+03  0.30266664537E+03  0.80086837859E+02 0.  0.
         24    2    4    4    0    0 -0.17224008082E+03 -0.76098556487E+03 -0.16150255198E+03  0.80074483585E+03  0.79646358739E+02 0.  0.
         11    1    3    3    0    0 -0.20201611122E+02  0.26324766690E+03  0.51154414658E+01  0.26407121570E+03  0.00000000000E+00 0. -1.
        -11    1    3    3    0    0  0.21571426733E+02  0.37523357119E+03 -0.91152458032E+02  0.38674840660E+03  0.00000000000E+00 0.  1.
          2    1    6    6  502    0 -0.35372467993E+01 -0.42417413951E+02 -0.27217445822E+02  0.50522653120E+02  0.00000000000E+00 0. -1.
          1    1    5    5  503    0  0.13249475585E+03  0.11764024437E+03  0.19462758817E+03  0.26319951652E+03  0.00000000000E+00 0. -1.
         -2    1    5    5    0  503  0.38375509362E+02  0.48640824009E+01  0.78304050332E+01  0.39467128846E+02  0.00000000000E+00 0.  1.
         -1    1    6    6    0  502 -0.16870283402E+03 -0.71856815092E+03 -0.13428510616E+03  0.75022218273E+03  0.00000000000E+00 0.  1.
<mgrwt>
<rscale>  0 0.17536517E+04</rscale>
<asrwt>0</asrwt>
<pdfrwt beam="1">  1        2 0.13147304E+00 0.17536517E+04</pdfrwt>
<pdfrwt beam="2">  1       -2 0.13840867E+00 0.17536517E+04</pdfrwt>
<totfact> 0.11042946E+01</totfact>
</mgrwt>
</event>
<event>
12    1  0.1506149E-007  0.2751231E+04  0.7818608E-02  0.8318571E-01
         -2   -1    0    0    0  501 -0.00000000000E+00  0.00000000000E+00  0.99247580461E+03  0.99247580461E+03  0.00000000000E+00 0.  1.
          2   -1    0    0  501    0  0.00000000000E+00 -0.00000000000E+00 -0.19066640803E+04  0.19066640803E+04  0.00000000000E+00 0. -1.
         23    2    1    2    0    0  0.34499641875E+03 -0.10480081282E+04  0.14207367874E+03  0.11162532321E+04  0.92156292464E+02 0.  0.
        254    2    1    2    0    0 -0.34499641875E+03  0.10480081282E+04 -0.10562619544E+04  0.17828866527E+04  0.91959335275E+03 0.  0.
        -24    2    4    4    0    0 -0.25372971941E+03  0.10531524805E+04 -0.11838424062E+04  0.16065391046E+04  0.77305459940E+02 0.  0.
         24    2    4    4    0    0 -0.91266699338E+02 -0.51443522983E+01  0.12758045179E+03  0.17634754814E+03  0.80409024919E+02 0.  0.
         11    1    3    3    0    0  0.14137935547E+03 -0.37238729697E+03  0.92215721906E+02  0.40885713943E+03  0.00000000000E+00 0. -1.
        -11    1    3    3    0    0  0.20361706329E+03 -0.67562083127E+03  0.49857956839E+02  0.70739609270E+03  0.00000000000E+00 0.  1.
          4    1    6    6  502    0 -0.24929769321E+02  0.28680040307E+02  0.78358843412E+02  0.87087005065E+02  0.00000000000E+00 0. -1.
          1    1    5    5  503    0 -0.20719606738E+03  0.77597008600E+03 -0.91679927330E+03  0.12188439983E+04  0.00000000000E+00 0. -1.
         -2    1    5    5    0  503 -0.46533652036E+02  0.27718239454E+03 -0.26704313289E+03  0.38769510629E+03  0.00000000000E+00 0.  1.
         -3    1    6    6    0  502 -0.66336930017E+02 -0.33824392605E+02  0.49221608380E+02  0.89260543078E+02  0.00000000000E+00 0.  1.
<mgrwt>
<rscale>  0 0.27512310E+04</rscale>
<asrwt>0</asrwt>
<pdfrwt beam="1">  1        2 0.29333293E+00 0.27512310E+04</pdfrwt>
<pdfrwt beam="2">  1       -2 0.15268859E+00 0.27512310E+04</pdfrwt>
<totfact> 0.18799749E+00</totfact>
</mgrwt>
</event>
<event>
12    1  0.1506149E-007  0.2800017E+04  0.7818608E-02  0.8303263E-01
         -1   -1    0    0    0  501 -0.00000000000E+00  0.00000000000E+00  0.47190165268E+03  0.47190165268E+03  0.00000000000E+00 0.  1.
          1   -1    0    0  501    0  0.00000000000E+00 -0.00000000000E+00 -0.41534576452E+04  0.41534576452E+04  0.00000000000E+00 0. -1.
         23    2    1    2    0    0  0.68694232029E+03  0.97676573895E+03 -0.22776469149E+04  0.25733320334E+04  0.91658197235E+02 0.  0.
        254    2    1    2    0    0 -0.68694232029E+03 -0.97676573895E+03 -0.14039090776E+04  0.20520272645E+04  0.90216081473E+03 0.  0.
        -24    2    4    4    0    0 -0.78788507583E+03 -0.41658405963E+03 -0.10385649760E+04  0.13707930975E+04  0.78430450202E+02 0.  0.
         24    2    4    4    0    0  0.10094275554E+03 -0.56018167932E+03 -0.36534410168E+03  0.68123416692E+03  0.81306357729E+02 0.  0.
         13    1    3    3    0    0  0.46671747922E+03  0.62424217733E+03 -0.15641734792E+04  0.17476104184E+04  0.00000000000E+00 0. -1.
        -13    1    3    3    0    0  0.22022484107E+03  0.35252356162E+03 -0.71347343568E+03  0.82572161504E+03  0.00000000000E+00 0.  1.
          2    1    6    6  502    0  0.55910424351E+02 -0.23334369517E+03 -0.10959972510E+03  0.26379415340E+03  0.00000000000E+00 0. -1.
          3    1    5    5  503    0 -0.90577751518E+01 -0.13284613816E+02 -0.31396935409E+02  0.35274520663E+02  0.00000000000E+00 0. -1.
         -4    1    5    5    0  503 -0.77882730068E+03 -0.40329944581E+03 -0.10071680406E+04  0.13355185769E+04  0.00000000000E+00 0.  1.
         -1    1    6    6    0  502  0.45032331188E+02 -0.32683798415E+03 -0.25574437658E+03  0.41744001352E+03  0.00000000000E+00 0.  1.
<mgrwt>
<rscale>  0 0.28000168E+04</rscale>
<asrwt>0</asrwt>
<pdfrwt beam="1">  1        1 0.63899346E+00 0.28000168E+04</pdfrwt>
<pdfrwt beam="2">  1       -1 0.72600257E-01 0.28000168E+04</pdfrwt>
<totfact> 0.11575576E-01</totfact>
</mgrwt>
</event>
<event>
12    1  0.1506149E-007  0.1151308E+04  0.7818608E-02  0.9156578E-01
         -1   -1    0    0    0  501 -0.00000000000E+00  0.00000000000E+00  0.26024654222E+04  0.26024654222E+04  0.00000000000E+00 0.  1.
          1   -1    0    0  501    0  0.00000000000E+00 -0.00000000000E+00 -0.12733212009E+03  0.12733212009E+03  0.00000000000E+00 0. -1.
         23    2    1    2    0    0  0.14017592633E+03  0.12861730809E+03  0.28303584231E+03  0.35305152557E+03  0.91347629472E+02 0.  0.
        254    2    1    2    0    0 -0.14017592633E+03 -0.12861730809E+03  0.21920974598E+04  0.23767460167E+04  0.89857590247E+03 0.  0.
        -24    2    4    4    0    0  0.23323397412E+03 -0.31074120745E+03  0.53325739933E+03  0.66469250455E+03  0.80588379850E+02 0.  0.
         24    2    4    4    0    0 -0.37340990046E+03  0.18212389937E+03  0.16588400605E+04  0.17120535122E+04  0.82297107241E+02 0.  0.
         11    1    3    3    0    0  0.12194304847E+03  0.75990698991E+02  0.24985142303E+03  0.28821940773E+03  0.00000000000E+00 0.  1.
        -11    1    3    3    0    0  0.18232877866E+02  0.52626609095E+02  0.33184419280E+02  0.64832117835E+02  0.00000000000E+00 0. -1.
          4    1    6    6  502    0 -0.27912338412E+03  0.13951197282E+03  0.13744030014E+04  0.14093818022E+04  0.00000000000E+00 0. -1.
          3    1    5    5  503    0  0.43837499268E+02 -0.10606163037E+03  0.11903972117E+03  0.16535190048E+03  0.00000000000E+00 0. -1.
         -4    1    5    5    0  503  0.18939647486E+03 -0.20467957709E+03  0.41421767817E+03  0.49934060407E+03  0.00000000000E+00 0.  1.
         -3    1    6    6    0  502 -0.94286516341E+02  0.42611926546E+02  0.28443705909E+03  0.30267171000E+03  0.00000000000E+00 0.  1.
<mgrwt>
<rscale>  0 0.11513078E+04</rscale>
<asrwt>0</asrwt>
<pdfrwt beam="1">  1        1 0.19589559E-01 0.11513078E+04</pdfrwt>
<pdfrwt beam="2">  1       -1 0.40037925E+00 0.11513078E+04</pdfrwt>
<totfact> 0.19383269E+00</totfact>
</mgrwt>
</event>
<event>
12    1  0.1506149E-007  0.1259274E+04  0.7818608E-02  0.9062500E-01
         -2   -1    0    0    0  501 -0.00000000000E+00  0.00000000000E+00  0.24887692285E+03  0.24887692285E+03  0.00000000000E+00 0.  1.
          2   -1    0    0  501    0  0.00000000000E+00 -0.00000000000E+00 -0.15929262854E+04  0.15929262854E+04  0.00000000000E+00 0. -1.
         23    2    1    2    0    0 -0.26376365015E+03  0.93386708705E+02 -0.20317887660E+03  0.35854589651E+03  0.94769000739E+02 0.  0.
        254    2    1    2    0    0  0.26376365015E+03 -0.93386708705E+02 -0.11408704860E+04  0.14832573118E+04  0.90563483075E+03 0.  0.
        -24    2    4    4    0    0  0.48396577768E+03 -0.33284556790E+03 -0.58061633881E+03  0.83055640658E+03  0.87747168529E+02 0.  0.
         24    2    4    4    0    0 -0.22020212753E+03  0.23945885919E+03 -0.56025414715E+03  0.65270090519E+03  0.79399244434E+02 0.  0.
         11    1    3    3    0    0 -0.23346830968E+03  0.45198673600E+02 -0.17337962199E+03  0.29429723927E+03  0.00000000000E+00 0.  1.
        -11    1    3    3    0    0 -0.30295340474E+02  0.48188035105E+02 -0.29799254613E+02  0.64248657241E+02  0.00000000000E+00 0. -1.
          4    1    6    6  502    0 -0.21580597169E+03  0.19954394672E+03 -0.47733551958E+03  0.56057042586E+03  0.00000000000E+00 0. -1.
          3    1    5    5  503    0  0.38848067769E+03 -0.27620077101E+03 -0.41996782957E+03  0.63527716843E+03  0.00000000000E+00 0. -1.
         -4    1    5    5    0  503  0.95485099987E+02 -0.56644796888E+02 -0.16064850924E+03  0.19527923816E+03  0.00000000000E+00 0.  1.
         -3    1    6    6    0  502 -0.43961558414E+01  0.39914912472E+02 -0.82918627567E+02  0.92130479329E+02  0.00000000000E+00 0.  1.
<mgrwt>
<rscale>  0 0.12592737E+04</rscale>
<asrwt>0</asrwt>
<pdfrwt beam="1">  1        2 0.24506557E+00 0.12592737E+04</pdfrwt>
<pdfrwt beam="2">  1       -2 0.38288759E-01 0.12592737E+04</pdfrwt>
<totfact> 0.71225687E+01</totfact>
</mgrwt>
</event>
<event>
12    1  0.1506149E-007  0.2295396E+04  0.7818608E-02  0.8479739E-01
          2   -1    0    0  501    0  0.00000000000E+00  0.00000000000E+00  0.16367138674E+04  0.16367138674E+04  0.00000000000E+00 0. -1.
         -2   -1    0    0    0  501 -0.00000000000E+00 -0.00000000000E+00 -0.80478965441E+03  0.80478965441E+03  0.00000000000E+00 0.  1.
         23    2    1    2    0    0 -0.32277793796E+03 -0.15541177050E+02 -0.59544299102E+03  0.68373322071E+03  0.92258528779E+02 0.  0.
        254    2    1    2    0    0  0.32277793796E+03  0.15541177050E+02  0.14273672040E+04  0.17577703011E+04  0.97362835359E+03 0.  0.
        -24    2    4    4    0    0  0.20836728262E+03 -0.46960675148E+03  0.76947424050E+03  0.92855384301E+03  0.78576122847E+02 0.  0.
         24    2    4    4    0    0  0.11441065534E+03  0.48514792853E+03  0.65789296354E+03  0.82921645811E+03  0.79488818796E+02 0.  0.
         11    1    3    3    0    0 -0.22819015283E+03  0.29783427400E+01 -0.32906392772E+03  0.40045309950E+03  0.00000000000E+00 0. -1.
        -11    1    3    3    0    0 -0.94587785136E+02 -0.18519519791E+02 -0.26637906330E+03  0.28328012121E+03  0.00000000000E+00 0.  1.
          4    1    6    6  502    0  0.17153783460E+02  0.32139536074E+02  0.84526324122E+02  0.92042933110E+02  0.00000000000E+00 0. -1.
          3    1    5    5  503    0  0.61362888349E+02 -0.77584255895E+02  0.18215025142E+03  0.20727622855E+03  0.00000000000E+00 0. -1.
         -4    1    5    5    0  503  0.14700439427E+03 -0.39202249558E+03  0.58732398908E+03  0.72127761447E+03  0.00000000000E+00 0.  1.
         -3    1    6    6    0  502  0.97256871885E+02  0.45300839245E+03  0.57336663942E+03  0.73717352500E+03  0.00000000000E+00 0.  1.
<mgrwt>
<rscale>  0 0.22953957E+04</rscale>
<asrwt>0</asrwt>
<pdfrwt beam="1">  1        2 0.25180213E+00 0.22953957E+04</pdfrwt>
<pdfrwt beam="2">  1       -2 0.12381379E+00 0.22953957E+04</pdfrwt>
<totfact> 0.47383537E+00</totfact>
</mgrwt>
</event>
<event>
12    1  0.1506149E-007  0.1395771E+04  0.7818608E-02  0.8956886E-01
         -1   -1    0    0    0  501 -0.00000000000E+00  0.00000000000E+00  0.86352141752E+03  0.86352141752E+03  0.00000000000E+00 0.  1.
          1   -1    0    0  501    0  0.00000000000E+00 -0.00000000000E+00 -0.56402076151E+03  0.56402076151E+03  0.00000000000E+00 0. -1.
         23    2    1    2    0    0  0.14904133501E+03  0.25985797389E+03  0.31895393916E+03  0.44704645324E+03  0.91539226080E+02 0.  0.
        254    2    1    2    0    0 -0.14904133501E+03 -0.25985797389E+03 -0.19453283155E+02  0.98049572579E+03  0.93340985207E+03 0.  0.
        -24    2    4    4    0    0 -0.49695134255E+03 -0.12190085005E+03  0.18143520781E+03  0.54806599266E+03  0.75080913443E+02 0.  0.
         24    2    4    4    0    0  0.34791000754E+03 -0.13795712384E+03 -0.20088849096E+03  0.43242973314E+03  0.81029296762E+02 0.  0.
         11    1    3    3    0    0  0.37164657861E+00  0.64707723520E+02  0.42415569754E+02  0.77371236011E+02  0.00000000000E+00 0. -1.
        -11    1    3    3    0    0  0.14866968843E+03  0.19515025037E+03  0.27653836941E+03  0.36967521723E+03  0.00000000000E+00 0.  1.
          2    1    6    6  502    0  0.25975476891E+03 -0.12980442602E+03 -0.17939270319E+03  0.34132604785E+03  0.00000000000E+00 0. -1.
          3    1    5    5  503    0 -0.12813945464E+03  0.12479710039E+01  0.51399516597E+02  0.13806950269E+03  0.00000000000E+00 0. -1.
         -4    1    5    5    0  503 -0.36881188791E+03 -0.12314882105E+03  0.13003569121E+03  0.40999648996E+03  0.00000000000E+00 0.  1.
         -1    1    6    6    0  502  0.88155238636E+02 -0.81526978184E+01 -0.21495787773E+02  0.91103685286E+02  0.00000000000E+00 0.  1.
<mgrwt>
<rscale>  0 0.13957708E+04</rscale>
<asrwt>0</asrwt>
<pdfrwt beam="1">  1        1 0.86772424E-01 0.13957708E+04</pdfrwt>
<pdfrwt beam="2">  1       -1 0.13284945E+00 0.13957708E+04</pdfrwt>
<totfact> 0.17526717E+01</totfact>
</mgrwt>
</event>
<event>
12    1  0.1506149E-007  0.2370346E+04  0.7818608E-02  0.8450690E-01
         -2   -1    0    0    0  501 -0.00000000000E+00  0.00000000000E+00  0.35722191476E+03  0.35722191476E+03  0.00000000000E+00 0.  1.
          2   -1    0    0  501    0  0.00000000000E+00 -0.00000000000E+00 -0.39321089065E+04  0.39321089065E+04  0.00000000000E+00 0. -1.
         23    2    1    2    0    0 -0.52319728161E+02  0.71022619241E+03 -0.23165966074E+03  0.75429711686E+03  0.90218311608E+02 0.  0.
        254    2    1    2    0    0  0.52319728161E+02 -0.71022619241E+03 -0.33432273310E+04  0.35350337044E+04  0.90118572236E+03 0.  0.
        -24    2    4    4    0    0 -0.78894598463E+01  0.13533259847E+03 -0.11071976079E+03  0.19217750278E+03  0.79348417513E+02 0.  0.
         24    2    4    4    0    0  0.60209188007E+02 -0.84555879088E+03 -0.32325075702E+04  0.33428562017E+04  0.83591734603E+02 0.  0.
         11    1    3    3    0    0 -0.37848605890E+02  0.51127904806E+03 -0.20861713815E+03  0.55349787016E+03  0.00000000000E+00 0.  1.
        -11    1    3    3    0    0 -0.14471122271E+02  0.19894714435E+03 -0.23042522599E+02  0.20079924669E+03  0.00000000000E+00 0. -1.
          4    1    6    6  502    0 -0.81189090060E+01 -0.45894565672E+03 -0.17071309736E+04  0.17677650278E+04  0.00000000000E+00 0. -1.
          3    1    5    5  503    0 -0.23567609131E+02  0.12202893777E+03 -0.61151170708E+02  0.13851339117E+03  0.00000000000E+00 0. -1.
         -4    1    5    5    0  503  0.15678149285E+02  0.13303660700E+02 -0.49568590084E+02  0.53664111620E+02  0.00000000000E+00 0.  1.
         -3    1    6    6    0  502  0.68328097013E+02 -0.38661313416E+03 -0.15253765967E+04  0.15750911739E+04  0.00000000000E+00 0.  1.
<mgrwt>
<rscale>  0 0.23703464E+04</rscale>
<asrwt>0</asrwt>
<pdfrwt beam="1">  1        2 0.60493980E+00 0.23703464E+04</pdfrwt>
<pdfrwt beam="2">  1       -2 0.54957221E-01 0.23703464E+04</pdfrwt>
<totfact> 0.10934405E+00</totfact>
</mgrwt>
</event>
<event>
12    1  0.1506149E-007  0.1555481E+04  0.7818608E-02  0.8848374E-01
         -2   -1    0    0    0  501 -0.00000000000E+00  0.00000000000E+00  0.35705248186E+03  0.35705248186E+03  0.00000000000E+00 0. -1.
          2   -1    0    0  501    0  0.00000000000E+00 -0.00000000000E+00 -0.16940935554E+04  0.16940935554E+04  0.00000000000E+00 0.  1.
         23    2    1    2    0    0 -0.11989868500E+03 -0.48041932968E+03 -0.28340194407E+03  0.57754544085E+03  0.89797813728E+02 0.  0.
        254    2    1    2    0    0  0.11989868500E+03  0.48041932968E+03 -0.10536391294E+04  0.14736005964E+04  0.90341843881E+03 0.  0.
        -24    2    4    4    0    0 -0.35053456013E+03  0.22525772298E+03 -0.21469974225E+03  0.47537238679E+03  0.79166957715E+02 0.  0.
         24    2    4    4    0    0  0.47043324513E+03  0.25516160670E+03 -0.83893938719E+03  0.99822820959E+03  0.78901073413E+02 0.  0.
         11    1    3    3    0    0 -0.43711613450E+02 -0.10595493055E+03 -0.10646116481E+03  0.15643251603E+03  0.00000000000E+00 0. -1.
        -11    1    3    3    0    0 -0.76187071549E+02 -0.37446439913E+03 -0.17694077926E+03  0.42111292482E+03  0.00000000000E+00 0.  1.
          2    1    6    6  502    0  0.44898526839E+02  0.10915401425E+02 -0.42461840939E+02  0.62753738028E+02  0.00000000000E+00 0. -1.
          1    1    5    5  503    0 -0.50840021874E+01  0.22185841850E+02 -0.58730734330E+01  0.23506417175E+02  0.00000000000E+00 0. -1.
         -2    1    5    5    0  503 -0.34545055794E+03  0.20307188113E+03 -0.20882666882E+03  0.45186596962E+03  0.00000000000E+00 0.  1.
         -1    1    6    6    0  502  0.42553471829E+03  0.24424620527E+03 -0.79647754625E+03  0.93547447156E+03  0.00000000000E+00 0.  1.
<mgrwt>
<rscale>  0 0.15554810E+04</rscale>
<asrwt>0</asrwt>
<pdfrwt beam="1">  1        2 0.26062978E+00 0.15554810E+04</pdfrwt>
<pdfrwt beam="2">  1       -2 0.54931151E-01 0.15554810E+04</pdfrwt>
<totfact> 0.29632674E+01</totfact>
</mgrwt>
</event>
<event>
12    1  0.1506149E-007  0.1724086E+04  0.7818608E-02  0.8747745E-01
          2   -1    0    0  501    0  0.00000000000E+00  0.00000000000E+00  0.15642757347E+04  0.15642757347E+04  0.00000000000E+00 0.  1.
         -2   -1    0    0    0  501 -0.00000000000E+00 -0.00000000000E+00 -0.47505554744E+03  0.47505554744E+03  0.00000000000E+00 0. -1.
         23    2    1    2    0    0  0.44991721684E+03 -0.14446788728E+03  0.94965071642E+03  0.10645546102E+04  0.90241689009E+02 0.  0.
        254    2    1    2    0    0 -0.44991721684E+03  0.14446788728E+03  0.13956947084E+03  0.97477667193E+03  0.84107874215E+03 0.  0.
        -24    2    4    4    0    0  0.72319607826E+02 -0.27158712080E+03  0.24490857720E+02  0.29256119811E+03  0.77476207093E+02 0.  0.
         24    2    4    4    0    0 -0.52223682466E+03  0.41605500809E+03  0.11507861312E+03  0.68221547382E+03  0.79635386216E+02 0.  0.
         13    1    3    3    0    0  0.23590155559E+03 -0.30160475150E+02  0.49734401116E+03  0.55128056707E+03  0.00000000000E+00 0.  1.
        -13    1    3    3    0    0  0.21401566125E+03 -0.11430741213E+03  0.45230670526E+03  0.51327404313E+03  0.00000000000E+00 0. -1.
          4    1    6    6  502    0 -0.21961591871E+03  0.12576770354E+03  0.45924683326E+02  0.25721147631E+03  0.00000000000E+00 0. -1.
          3    1    5    5  503    0  0.19599390210E+02 -0.63616749629E+01  0.62467235097E+01  0.21532035658E+02  0.00000000000E+00 0. -1.
         -4    1    5    5    0  503  0.52720217616E+02 -0.26522544584E+03  0.18244134211E+02  0.27102916245E+03  0.00000000000E+00 0.  1.
         -3    1    6    6    0  502 -0.30262090596E+03  0.29028730454E+03  0.69153929795E+02  0.42500399752E+03  0.00000000000E+00 0.  1.
<mgrwt>
<rscale>  0 0.17240857E+04</rscale>
<asrwt>0</asrwt>
<pdfrwt beam="1">  1        2 0.24065780E+00 0.17240857E+04</pdfrwt>
<pdfrwt beam="2">  1       -2 0.73085469E-01 0.17240857E+04</pdfrwt>
<totfact> 0.18753082E+01</totfact>
</mgrwt>
</event>
<event>
12    1  0.1506149E-007  0.2124265E+04  0.7818608E-02  0.8550629E-01
         -1   -1    0    0    0  501 -0.00000000000E+00  0.00000000000E+00  0.89347355658E+03  0.89347355658E+03  0.00000000000E+00 0.  1.
          1   -1    0    0  501    0  0.00000000000E+00 -0.00000000000E+00 -0.12626288699E+04  0.12626288699E+04  0.00000000000E+00 0. -1.
         23    2    1    2    0    0 -0.37001882781E+03  0.44488029397E+03  0.50246050150E+03  0.77176525240E+03  0.91228506227E+02 0.  0.
        254    2    1    2    0    0  0.37001882781E+03 -0.44488029397E+03 -0.87161581485E+03  0.13843371741E+04  0.90655549971E+03 0.  0.
        -24    2    4    4    0    0 -0.33772749741E+02 -0.15125823633E+02  0.16729573231E+03  0.18705669821E+03  0.75053028802E+02 0.  0.
         24    2    4    4    0    0  0.40379157755E+03 -0.42975447034E+03 -0.10389115472E+04  0.11972804759E+04  0.80042440594E+02 0.  0.
         11    1    3    3    0    0 -0.23413363148E+03  0.21038881636E+03  0.27120591227E+03  0.41549327106E+03  0.00000000000E+00 0.  1.
        -11    1    3    3    0    0 -0.13588519632E+03  0.23449147761E+03  0.23125458922E+03  0.35627198134E+03  0.00000000000E+00 0. -1.
          4    1    6    6  502    0  0.37546867824E+03 -0.41917478017E+03 -0.10051525984E+04  0.11519617923E+04  0.00000000000E+00 0. -1.
          1    1    5    5  503    0 -0.23543251550E+02  0.28962203926E+02  0.60795709684E+02  0.71338715055E+02  0.00000000000E+00 0. -1.
         -2    1    5    5    0  503 -0.10229498191E+02 -0.44088027559E+02  0.10650002262E+03  0.11571798316E+03  0.00000000000E+00 0.  1.
         -3    1    6    6    0  502  0.28322899310E+02 -0.10579690173E+02 -0.33758948722E+02  0.45318683656E+02  0.00000000000E+00 0.  1.
<mgrwt>
<rscale>  0 0.21242651E+04</rscale>
<asrwt>0</asrwt>
<pdfrwt beam="1">  1        1 0.19425060E+00 0.21242651E+04</pdfrwt>
<pdfrwt beam="2">  1       -1 0.13745747E+00 0.21242651E+04</pdfrwt>
<totfact> 0.38832291E+00</totfact>
</mgrwt>
</event>
<event>
12    1  0.1506149E-007  0.3272388E+04  0.7818608E-02  0.8169957E-01
         -1   -1    0    0    0  501 -0.00000000000E+00  0.00000000000E+00  0.11746793398E+04  0.11746793398E+04  0.00000000000E+00 0.  1.
          1   -1    0    0  501    0  0.00000000000E+00 -0.00000000000E+00 -0.22790306320E+04  0.22790306320E+04  0.00000000000E+00 0. -1.
         23    2    1    2    0    0 -0.62059455712E+03 -0.97299082858E+03  0.51881189021E+03  0.12686161935E+04  0.91501432759E+02 0.  0.
        254    2    1    2    0    0  0.62059455712E+03  0.97299082858E+03 -0.16231631825E+04  0.21850937783E+04  0.89895903470E+03 0.  0.
        -24    2    4    4    0    0  0.78482985534E+03  0.56734591887E+03 -0.83808144029E+03  0.12831350651E+04  0.78840353435E+02 0.  0.
         24    2    4    4    0    0 -0.16423529822E+03  0.40564490972E+03 -0.78508174218E+03  0.90195871313E+03  0.75200746937E+02 0.  0.
         13    1    3    3    0    0  0.12024173167E+01 -0.35446507697E+01  0.77360869629E+01  0.85940326960E+01  0.00000000000E+00 0. -1.
        -13    1    3    3    0    0 -0.62179697444E+03 -0.96944617781E+03  0.51107580325E+03  0.12600221608E+04  0.00000000000E+00 0.  1.
          2    1    6    6  502    0 -0.16688338790E+03  0.35158013060E+03 -0.67116863690E+03  0.77583889600E+03  0.00000000000E+00 0. -1.
          3    1    5    5  503    0  0.71294584472E+03  0.50091164250E+03 -0.72438872269E+03  0.11331122066E+04  0.00000000000E+00 0. -1.
         -4    1    5    5    0  503  0.71884010619E+02  0.66434276362E+02 -0.11369271760E+03  0.15002285857E+03  0.00000000000E+00 0.  1.
         -1    1    6    6    0  502  0.26480896834E+01  0.54064779117E+02 -0.11391310528E+03  0.12611981713E+03  0.00000000000E+00 0.  1.
<mgrwt>
<rscale>  0 0.32723876E+04</rscale>
<asrwt>0</asrwt>
<pdfrwt beam="1">  1        1 0.35062010E+00 0.32723876E+04</pdfrwt>
<pdfrwt beam="2">  1       -1 0.18071990E+00 0.32723876E+04</pdfrwt>
<totfact> 0.32893883E-01</totfact>
</mgrwt>
</event>
<event>
12    1  0.1506149E-007  0.1740562E+04  0.7818608E-02  0.8738563E-01
          2   -1    0    0  501    0  0.00000000000E+00  0.00000000000E+00  0.15250582189E+04  0.15250582189E+04  0.00000000000E+00 0. -1.
         -2   -1    0    0    0  501 -0.00000000000E+00 -0.00000000000E+00 -0.49662930046E+03  0.49662930046E+03  0.00000000000E+00 0.  1.
         23    2    1    2    0    0  0.50211336119E+03  0.38106500033E+03  0.43367246560E+03  0.77066790824E+03  0.92351802429E+02 0.  0.
        254    2    1    2    0    0 -0.50211336119E+03 -0.38106500033E+03  0.59475645282E+03  0.12510196111E+04  0.90221198575E+03 0.  0.
        -24    2    4    4    0    0 -0.63679475335E+03 -0.55749089453E+03  0.54592252030E+03  0.10102838166E+04  0.79613670599E+02 0.  0.
         24    2    4    4    0    0  0.13468139216E+03  0.17642589420E+03  0.48833932515E+02  0.24073579450E+03  0.79396449835E+02 0.  0.
         13    1    3    3    0    0  0.35805699260E+03  0.28825651839E+03  0.36122110421E+03  0.58461723929E+03  0.00000000000E+00 0.  1.
        -13    1    3    3    0    0  0.14405636859E+03  0.92808481935E+02  0.72451361392E+02  0.18605066896E+03  0.00000000000E+00 0. -1.
          4    1    6    6  502    0  0.65197589795E+02  0.97472123754E+02  0.65389928181E+02  0.13426609152E+03  0.00000000000E+00 0. -1.
          3    1    5    5  503    0 -0.68446386377E+02 -0.90595843265E+02  0.56747530022E+02  0.12693619180E+03  0.00000000000E+00 0. -1.
         -4    1    5    5    0  503 -0.56834836698E+03 -0.46689505126E+03  0.48917499028E+03  0.88334762481E+03  0.00000000000E+00 0.  1.
         -3    1    6    6    0  502  0.69483802366E+02  0.78953770449E+02 -0.16555995666E+02  0.10646970298E+03  0.00000000000E+00 0.  1.
<mgrwt>
<rscale>  0 0.17405615E+04</rscale>
<asrwt>0</asrwt>
<pdfrwt beam="1">  1        2 0.23462434E+00 0.17405615E+04</pdfrwt>
<pdfrwt beam="2">  1       -2 0.76404509E-01 0.17405615E+04</pdfrwt>
<totfact> 0.17857136E+01</totfact>
</mgrwt>
</event>
<event>
12    1  0.1506149E-007  0.1216385E+04  0.7818608E-02  0.9098635E-01
         -1   -1    0    0    0  501 -0.00000000000E+00  0.00000000000E+00  0.72297959549E+03  0.72297959549E+03  0.00000000000E+00 0.  1.
          1   -1    0    0  501    0  0.00000000000E+00 -0.00000000000E+00 -0.51162993917E+03  0.51162993917E+03  0.00000000000E+00 0. -1.
         23    2    1    2    0    0 -0.19436430670E+03  0.52702774934E+02  0.21519302247E+03  0.30738700772E+03  0.87313626599E+02 0.  0.
        254    2    1    2    0    0  0.19436430670E+03 -0.52702774934E+02 -0.38433661496E+01  0.92722252695E+03  0.90508108853E+03 0.  0.
        -24    2    4    4    0    0 -0.11719813065E+03 -0.39993259733E+03 -0.11732341293E+03  0.44040600935E+03  0.80691917922E+02 0.  0.
         24    2    4    4    0    0  0.31156243735E+03  0.34722982239E+03  0.11348004678E+03  0.48681651760E+03  0.80454327782E+02 0.  0.
         11    1    3    3    0    0 -0.14492070225E+03  0.15696999550E+02  0.19278115916E+03  0.24168777599E+03  0.00000000000E+00 0.  1.
        -11    1    3    3    0    0 -0.49443604448E+02  0.37005775384E+02  0.22411863307E+02  0.65699231727E+02  0.00000000000E+00 0. -1.
          4    1    6    6  502    0  0.18325377514E+02  0.56453043294E+02  0.34864776118E+01  0.59455202332E+02  0.00000000000E+00 0. -1.
          3    1    5    5  503    0 -0.37538657585E+02 -0.72942531502E+02  0.53085482250E+01  0.82206717483E+02  0.00000000000E+00 0. -1.
         -4    1    5    5    0  503 -0.79659473065E+02 -0.32699006583E+03 -0.12263196115E+03  0.35819929187E+03  0.00000000000E+00 0.  1.
         -3    1    6    6    0  502  0.29323705984E+03  0.29077677910E+03  0.10999356917E+03  0.42736131526E+03  0.00000000000E+00 0.  1.
<mgrwt>
<rscale>  0 0.12163848E+04</rscale>
<asrwt>0</asrwt>
<pdfrwt beam="1">  1        1 0.78712298E-01 0.12163848E+04</pdfrwt>
<pdfrwt beam="2">  1       -1 0.11122763E+00 0.12163848E+04</pdfrwt>
<totfact> 0.31563205E+01</totfact>
</mgrwt>
</event>
<event>
12    1  0.1506149E-007  0.2281750E+04  0.7818608E-02  0.8485152E-01
         -4   -1    0    0    0  501 -0.00000000000E+00  0.00000000000E+00  0.74994988855E+03  0.74994988855E+03  0.00000000000E+00 0.  1.
          4   -1    0    0  501    0  0.00000000000E+00 -0.00000000000E+00 -0.17355773005E+04  0.17355773005E+04  0.00000000000E+00 0. -1.
         23    2    1    2    0    0  0.49047157102E+01  0.60965819113E+03  0.39369852203E+03  0.73137400426E+03  0.90566227781E+02 0.  0.
        254    2    1    2    0    0 -0.49047157102E+01 -0.60965819113E+03 -0.13793259340E+04  0.17541531848E+04  0.89599452974E+03 0.  0.
        -24    2    4    4    0    0  0.19252540312E+03  0.16108383369E+03 -0.50272441818E+03  0.56748303656E+03  0.79316604962E+02 0.  0.
         24    2    4    4    0    0 -0.19743011883E+03 -0.77074202482E+03 -0.87660151582E+03  0.11866701483E+04  0.82060359362E+02 0.  0.
         11    1    3    3    0    0  0.24381214911E+02  0.58073643243E+03  0.37611010162E+03  0.69232077546E+03  0.00000000000E+00 0.  1.
        -11    1    3    3    0    0 -0.19476499201E+02  0.28921758698E+02  0.17588420409E+02  0.39053228801E+02  0.00000000000E+00 0. -1.
          4    1    6    6  502    0 -0.19704194132E+03 -0.66584568620E+03 -0.74608181819E+03  0.10192222937E+04  0.00000000000E+00 0. -1.
          3    1    5    5  503    0  0.15297379680E+03  0.11501742923E+03 -0.29990850783E+03  0.35577395155E+03  0.00000000000E+00 0. -1.
         -4    1    5    5    0  503  0.39551606318E+02  0.46066404464E+02 -0.20281591036E+03  0.21170908501E+03  0.00000000000E+00 0.  1.
         -3    1    6    6    0  502 -0.38817751021E+00 -0.10489633862E+03 -0.13051969762E+03  0.16744785458E+03  0.00000000000E+00 0.  1.
<mgrwt>
<rscale>  0 0.22817502E+04</rscale>
<asrwt>0</asrwt>
<pdfrwt beam="1">  1        4 0.26701189E+00 0.22817502E+04</pdfrwt>
<pdfrwt beam="2">  1       -4 0.11537691E+00 0.22817502E+04</pdfrwt>
<totfact> 0.52423819E-02</totfact>
</mgrwt>
</event>
<event>
12    1  0.1506149E-007  0.2087054E+04  0.7818608E-02  0.8566968E-01
          2   -1    0    0  501    0  0.00000000000E+00  0.00000000000E+00  0.60281282236E+03  0.60281282236E+03  0.00000000000E+00 0. -1.
         -2   -1    0    0    0  501 -0.00000000000E+00 -0.00000000000E+00 -0.18064461888E+04  0.18064461888E+04  0.00000000000E+00 0.  1.
         23    2    1    2    0    0  0.33725003765E+03 -0.22732605291E+03 -0.13120839051E+04  0.13767262440E+04  0.91631078686E+02 0.  0.
        254    2    1    2    0    0 -0.33725003765E+03  0.22732605291E+03  0.10845053862E+03  0.10325327672E+04  0.94284021650E+03 0.  0.
        -24    2    4    4    0    0 -0.65789881113E+02 -0.10338887529E+03 -0.36258772937E+03  0.39096466306E+03  0.79786830240E+02 0.  0.
         24    2    4    4    0    0 -0.27146015653E+03  0.33071492820E+03  0.47103826799E+03  0.64156810417E+03  0.81667631573E+02 0.  0.
         13    1    3    3    0    0  0.65643697628E+02 -0.42545500135E+02 -0.39272902996E+03  0.40044388570E+03  0.00000000000E+00 0. -1.
        -13    1    3    3    0    0  0.27160634002E+03 -0.18478055277E+03 -0.91935487512E+03  0.97628235825E+03  0.00000000000E+00 0.  1.
          4    1    6    6  502    0 -0.26017838558E+03  0.27459554787E+03  0.40544435249E+03  0.55450935989E+03  0.00000000000E+00 0. -1.
          1    1    5    5  503    0 -0.76566816178E+02 -0.10908892700E+03 -0.34180573976E+03  0.36687059717E+03  0.00000000000E+00 0. -1.
         -2    1    5    5    0  503  0.10776935065E+02  0.57000517112E+01 -0.20781989606E+02  0.24094065886E+02  0.00000000000E+00 0.  1.
         -3    1    6    6    0  502 -0.11281770955E+02  0.56119380335E+02  0.65593915500E+02  0.87058744280E+02  0.00000000000E+00 0.  1.
<mgrwt>
<rscale>  0 0.20870543E+04</rscale>
<asrwt>0</asrwt>
<pdfrwt beam="1">  1        2 0.92740435E-01 0.20870543E+04</pdfrwt>
<pdfrwt beam="2">  1       -2 0.27791480E+00 0.20870543E+04</pdfrwt>
<totfact> 0.19734391E+00</totfact>
</mgrwt>
</event>
<event>
12    1  0.1506149E-007  0.1598420E+04  0.7818608E-02  0.8821519E-01
         -2   -1    0    0    0  501 -0.00000000000E+00  0.00000000000E+00  0.10403794104E+04  0.10403794104E+04  0.00000000000E+00 0.  1.
          2   -1    0    0  501    0  0.00000000000E+00 -0.00000000000E+00 -0.61394573737E+03  0.61394573737E+03  0.00000000000E+00 0. -1.
         23    2    1    2    0    0  0.89003845602E+02 -0.47283232585E+03  0.40248899463E+03  0.63403997724E+03  0.92288726451E+02 0.  0.
        254    2    1    2    0    0 -0.89003845602E+02  0.47283232585E+03  0.23944678412E+02  0.10202851706E+04  0.89939779226E+03 0.  0.
        -24    2    4    4    0    0 -0.27880298514E+03  0.67169374003E+03 -0.10440316290E+02  0.73177769058E+03  0.80535726928E+02 0.  0.
         24    2    4    4    0    0  0.18979913954E+03 -0.19886141418E+03  0.34384994702E+02  0.28850747997E+03  0.80527403512E+02 0.  0.
         13    1    3    3    0    0  0.48038419265E+02 -0.36170170622E+03  0.34590028417E+03  0.50277511930E+03  0.00000000000E+00 0. -1.
        -13    1    3    3    0    0  0.40965426337E+02 -0.11113061963E+03  0.56588710468E+02  0.13126485793E+03  0.00000000000E+00 0.  1.
          4    1    6    6  502    0  0.18181356927E+03 -0.18153078136E+03  0.94344464086E+01  0.25709649421E+03  0.00000000000E+00 0. -1.
          3    1    5    5  503    0 -0.23508434429E+03  0.61179471977E+03 -0.26341156948E+02  0.65593542717E+03  0.00000000000E+00 0. -1.
         -4    1    5    5    0  503 -0.43718640847E+02  0.59899020260E+02  0.15900840658E+02  0.75842263411E+02  0.00000000000E+00 0.  1.
         -3    1    6    6    0  502  0.79855702661E+01 -0.17330632819E+02  0.24950548293E+02  0.31410985761E+02  0.00000000000E+00 0.  1.
<mgrwt>
<rscale>  0 0.15984199E+04</rscale>
<asrwt>0</asrwt>
<pdfrwt beam="1">  1        2 0.94453191E-01 0.15984199E+04</pdfrwt>
<pdfrwt beam="2">  1       -2 0.16005837E+00 0.15984199E+04</pdfrwt>
<totfact> 0.11630255E+01</totfact>
</mgrwt>
</event>
<event>
12    1  0.1506149E-007  0.1330916E+04  0.7818608E-02  0.9005401E-01
         -1   -1    0    0    0  501 -0.00000000000E+00  0.00000000000E+00  0.44250763246E+03  0.44250763246E+03  0.00000000000E+00 0.  1.
          1   -1    0    0  501    0  0.00000000000E+00 -0.00000000000E+00 -0.10007384929E+04  0.10007384929E+04  0.00000000000E+00 0. -1.
         23    2    1    2    0    0  0.28711706906E+03  0.17085477175E+03 -0.22714931669E+03  0.41419931024E+03  0.91305488107E+02 0.  0.
        254    2    1    2    0    0 -0.28711706906E+03 -0.17085477175E+03 -0.33108154374E+03  0.10290468151E+04  0.91525668242E+03 0.  0.
        -24    2    4    4    0    0 -0.51165699032E+03 -0.37354540158E+03 -0.32507841477E+03  0.71625073194E+03  0.77524786149E+02 0.  0.
         24    2    4    4    0    0  0.22453992126E+03  0.20269062983E+03 -0.60031289712E+01  0.31279608317E+03  0.79395745650E+02 0.  0.
         13    1    3    3    0    0  0.18287727813E+02  0.71054522642E+01  0.81036509969E+01  0.21227284327E+02  0.00000000000E+00 0.  1.
        -13    1    3    3    0    0  0.26882934125E+03  0.16374931948E+03 -0.23525296769E+03  0.39297202592E+03  0.00000000000E+00 0. -1.
          4    1    6    6  502    0  0.62635511523E+02  0.30186632871E+02  0.25642261560E+02  0.74107797739E+02  0.00000000000E+00 0. -1.
          1    1    5    5  503    0 -0.13729407997E+03 -0.12062860726E+03 -0.59587851488E+02  0.19222808674E+03  0.00000000000E+00 0. -1.
         -2    1    5    5    0  503 -0.37436291035E+03 -0.25291679432E+03 -0.26549056328E+03  0.52402264520E+03  0.00000000000E+00 0.  1.
         -3    1    6    6    0  502  0.16190440974E+03  0.17250399696E+03 -0.31645390531E+02  0.23868828543E+03  0.00000000000E+00 0.  1.
<mgrwt>
<rscale>  0 0.13309161E+04</rscale>
<asrwt>0</asrwt>
<pdfrwt beam="1">  1        1 0.15395977E+00 0.13309161E+04</pdfrwt>
<pdfrwt beam="2">  1       -1 0.68078098E-01 0.13309161E+04</pdfrwt>
<totfact> 0.32361231E+01</totfact>
</mgrwt>
</event>
<event>
12    1  0.1506149E-007  0.2107177E+04  0.7818608E-02  0.8558088E-01
          2   -1    0    0  501    0  0.00000000000E+00  0.00000000000E+00  0.20652863901E+04  0.20652863901E+04  0.00000000000E+00 0. -1.
         -2   -1    0    0    0  501 -0.00000000000E+00 -0.00000000000E+00 -0.53747934001E+03  0.53747934001E+03  0.00000000000E+00 0.  1.
         23    2    1    2    0    0  0.50461683385E+03 -0.30754290926E+03  0.13957476288E+04  0.15186518572E+04  0.94716575888E+02 0.  0.
        254    2    1    2    0    0 -0.50461683385E+03  0.30754290926E+03  0.13205942124E+03  0.10841138730E+04  0.89924546637E+03 0.  0.
        -24    2    4    4    0    0  0.61811945406E+02  0.11285327543E+03 -0.30333221151E+03  0.33954190099E+03  0.81985935479E+02 0.  0.
         24    2    4    4    0    0 -0.56642877925E+03  0.19468963383E+03  0.43539163275E+03  0.74457197198E+03  0.77948265541E+02 0.  0.
         11    1    3    3    0    0  0.19113185630E+03 -0.88499017227E+02  0.40156039688E+03  0.45344703647E+03  0.00000000000E+00 0.  1.
        -11    1    3    3    0    0  0.31348497755E+03 -0.21904389203E+03  0.99418723197E+03  0.10652048207E+04  0.00000000000E+00 0. -1.
          4    1    6    6  502    0 -0.88998062733E+02  0.27278616671E+02  0.35273232536E+02  0.99543854814E+02  0.00000000000E+00 0. -1.
          3    1    5    5  503    0  0.60322922427E+02  0.77151004089E+02 -0.13109425176E+03  0.16363628952E+03  0.00000000000E+00 0. -1.
         -4    1    5    5    0  503  0.14890229793E+01  0.35702271339E+02 -0.17223795975E+03  0.17590561147E+03  0.00000000000E+00 0.  1.
         -1    1    6    6    0  502 -0.47743071652E+03  0.16741101716E+03  0.40011840022E+03  0.64502811717E+03  0.00000000000E+00 0.  1.
<mgrwt>
<rscale>  0 0.21071770E+04</rscale>
<asrwt>0</asrwt>
<pdfrwt beam="1">  1        2 0.31773636E+00 0.21071770E+04</pdfrwt>
<pdfrwt beam="2">  1       -2 0.82689130E-01 0.21071770E+04</pdfrwt>
<totfact> 0.72585558E+00</totfact>
</mgrwt>
</event>
<event>
12    1  0.1506149E-007  0.2042509E+04  0.7818608E-02  0.8587000E-01
          1   -1    0    0  501    0  0.00000000000E+00  0.00000000000E+00  0.17020998574E+04  0.17020998574E+04  0.00000000000E+00 0. -1.
         -1   -1    0    0    0  501 -0.00000000000E+00 -0.00000000000E+00 -0.61274930074E+03  0.61274930074E+03  0.00000000000E+00 0.  1.
         23    2    1    2    0    0  0.12070342421E+03  0.38307893869E+03 -0.37370088579E+03  0.55477128710E+03  0.82462349415E+02 0.  0.
        254    2    1    2    0    0 -0.12070342421E+03 -0.38307893869E+03  0.14630514425E+04  0.17600778711E+04  0.89220838317E+03 0.  0.
        -24    2    4    4    0    0 -0.29578882085E+03  0.17490084180E+03  0.78982301467E+03  0.86514757962E+03  0.81108624732E+02 0.  0.
         24    2    4    4    0    0  0.17508539664E+03 -0.55797978049E+03  0.67322842780E+03  0.89493029145E+03  0.75281996530E+02 0.  0.
         11    1    3    3    0    0  0.53262150104E+02  0.10916630403E+03 -0.15994213263E+03  0.20083730819E+03  0.00000000000E+00 0.  1.
        -11    1    3    3    0    0  0.67441274104E+02  0.27391263466E+03 -0.21375875316E+03  0.35393397892E+03  0.00000000000E+00 0. -1.
          2    1    6    6  502    0  0.11329523472E+03 -0.27001908009E+03  0.29625192606E+03  0.41654689714E+03  0.00000000000E+00 0. -1.
          3    1    5    5  503    0 -0.12612007503E+03  0.65552316468E+02  0.42590934807E+03  0.44900128317E+03  0.00000000000E+00 0. -1.
         -4    1    5    5    0  503 -0.16966874582E+03  0.10934852533E+03  0.36391366661E+03  0.41614629644E+03  0.00000000000E+00 0.  1.
         -1    1    6    6    0  502  0.61790161918E+02 -0.28796070040E+03  0.37697650175E+03  0.47838339431E+03  0.00000000000E+00 0.  1.
<mgrwt>
<rscale>  0 0.20425087E+04</rscale>
<asrwt>0</asrwt>
<pdfrwt beam="1">  1        1 0.26186152E+00 0.20425087E+04</pdfrwt>
<pdfrwt beam="2">  1       -1 0.94269124E-01 0.20425087E+04</pdfrwt>
<totfact> 0.47829577E+00</totfact>
</mgrwt>
</event>
<event>
12    1  0.1506149E-007  0.1450051E+04  0.7818608E-02  0.8918365E-01
         -1   -1    0    0    0  501 -0.00000000000E+00  0.00000000000E+00  0.21033344768E+03  0.21033344768E+03  0.00000000000E+00 0.  1.
          1   -1    0    0  501    0  0.00000000000E+00 -0.00000000000E+00 -0.24991851400E+04  0.24991851400E+04  0.00000000000E+00 0. -1.
         23    2    1    2    0    0  0.23078073348E+03 -0.16366734650E+03 -0.74509719744E+02  0.30424132532E+03  0.83452611940E+02 0.  0.
        254    2    1    2    0    0 -0.23078073348E+03  0.16366734650E+03 -0.22143419725E+04  0.24052772623E+04  0.89554541487E+03 0.  0.
        -24    2    4    4    0    0 -0.34819262934E+03  0.34909572004E+03 -0.63044824468E+03  0.80430424979E+03  0.79588994998E+02 0.  0.
         24    2    4    4    0    0  0.11741189587E+03 -0.18542837354E+03 -0.15838937279E+04  0.16009730125E+04  0.78905074280E+02 0.  0.
         13    1    3    3    0    0  0.96842477872E+02 -0.21068398422E+02 -0.19379447818E+02  0.10098468166E+03  0.00000000000E+00 0. -1.
        -13    1    3    3    0    0  0.13393825561E+03 -0.14259894808E+03 -0.55130271926E+02  0.20325664366E+03  0.00000000000E+00 0.  1.
          4    1    6    6  502    0  0.16222647855E+02 -0.22936442405E+02 -0.46298564065E+03  0.46383721082E+03  0.00000000000E+00 0. -1.
          1    1    5    5  503    0 -0.24306893757E+03  0.25798414424E+03 -0.50501980165E+03  0.61699540286E+03  0.00000000000E+00 0. -1.
         -4    1    5    5    0  503 -0.10512369177E+03  0.91111575798E+02 -0.12542844304E+03  0.18730884693E+03  0.00000000000E+00 0.  1.
         -3    1    6    6    0  502  0.10118924801E+03 -0.16249193113E+03 -0.11209080872E+04  0.11371358017E+04  0.00000000000E+00 0.  1.
<mgrwt>
<rscale>  0 0.14500513E+04</rscale>
<asrwt>0</asrwt>
<pdfrwt beam="1">  1        1 0.38449003E+00 0.14500513E+04</pdfrwt>
<pdfrwt beam="2">  1       -1 0.32358992E-01 0.14500513E+04</pdfrwt>
<totfact> 0.11796503E+01</totfact>
</mgrwt>
</event>
<event>
12    1  0.1506149E-007  0.1605171E+04  0.7818608E-02  0.8817378E-01
          1   -1    0    0  501    0  0.00000000000E+00  0.00000000000E+00  0.54539283135E+03  0.54539283135E+03  0.00000000000E+00 0. -1.
         -1   -1    0    0    0  501 -0.00000000000E+00 -0.00000000000E+00 -0.11810633008E+04  0.11810633008E+04  0.00000000000E+00 0.  1.
         23    2    1    2    0    0 -0.48012357418E+02  0.53720652126E+03 -0.29134882265E+03  0.61981504222E+03  0.91599766115E+02 0.  0.
        254    2    1    2    0    0  0.48012357418E+02 -0.53720652126E+03 -0.34432164677E+03  0.11066410899E+04  0.90288486114E+03 0.  0.
        -24    2    4    4    0    0  0.28705162173E+03 -0.96703863366E+02  0.19219180397E+03  0.36797505018E+03  0.81961437971E+02 0.  0.
         24    2    4    4    0    0 -0.23903926431E+03 -0.44050265789E+03 -0.53651345075E+03  0.73866603972E+03  0.81230991079E+02 0.  0.
         11    1    3    3    0    0 -0.66134355132E+02  0.34159672796E+03 -0.21527600919E+03  0.40915258476E+03  0.00000000000E+00 0.  1.
        -11    1    3    3    0    0  0.18121997715E+02  0.19560979329E+03 -0.76072813465E+02  0.21066245746E+03  0.00000000000E+00 0. -1.
          2    1    6    6  502    0 -0.21095427505E+03 -0.39710759957E+03 -0.43967836782E+03  0.62889841702E+03  0.00000000000E+00 0. -1.
          1    1    5    5  503    0  0.27986635734E+03 -0.10749520815E+03  0.18968979805E+03  0.35477121815E+03  0.00000000000E+00 0. -1.
         -2    1    5    5    0  503  0.71852643865E+01  0.10791344784E+02  0.25020059258E+01  0.13203832027E+02  0.00000000000E+00 0.  1.
         -1    1    6    6    0  502 -0.28084989265E+02 -0.43395058321E+02 -0.96835082923E+02  0.10976762270E+03  0.00000000000E+00 0.  1.
<mgrwt>
<rscale>  0 0.16051710E+04</rscale>
<asrwt>0</asrwt>
<pdfrwt beam="1">  1        1 0.83906591E-01 0.16051710E+04</pdfrwt>
<pdfrwt beam="2">  1       -1 0.18170204E+00 0.16051710E+04</pdfrwt>
<totfact> 0.76170541E+00</totfact>
</mgrwt>
</event>
<event>
12    1  0.1506149E-007  0.1464190E+04  0.7818608E-02  0.8908622E-01
         -1   -1    0    0    0  501 -0.00000000000E+00  0.00000000000E+00  0.90837129244E+03  0.90837129244E+03  0.00000000000E+00 0.  1.
          1   -1    0    0  501    0  0.00000000000E+00 -0.00000000000E+00 -0.59002655437E+03  0.59002655437E+03  0.00000000000E+00 0. -1.
         23    2    1    2    0    0 -0.48633852497E+02 -0.32362482581E+03  0.30435406815E+03  0.45623270796E+03  0.91752959191E+02 0.  0.
        254    2    1    2    0    0  0.48633852497E+02  0.32362482581E+03  0.13990669930E+02  0.10421651389E+04  0.98935037186E+03 0.  0.
        -24    2    4    4    0    0  0.26921451723E+03  0.57231801912E+03  0.18072122263E+03  0.66184220213E+03  0.73147583060E+02 0.  0.
         24    2    4    4    0    0 -0.22058066474E+03 -0.24869319331E+03 -0.16673055270E+03  0.38032293673E+03  0.79638715096E+02 0.  0.
         13    1    3    3    0    0  0.24156978023E+01 -0.12600144515E+03  0.65440570919E+02  0.14200235244E+03  0.00000000000E+00 0. -1.
        -13    1    3    3    0    0 -0.51049550300E+02 -0.19762338066E+03  0.23891349723E+03  0.31423035551E+03  0.00000000000E+00 0.  1.
          2    1    6    6  502    0 -0.20848102963E+03 -0.25015660267E+03 -0.14734823250E+03  0.35742714949E+03  0.00000000000E+00 0. -1.
          3    1    5    5  503    0  0.25780696097E+03  0.51082087182E+03  0.17799456603E+03  0.59923656243E+03  0.00000000000E+00 0. -1.
         -4    1    5    5    0  503  0.11407556261E+02  0.61497147301E+02  0.27266565987E+01  0.62605639700E+02  0.00000000000E+00 0.  1.
         -1    1    6    6    0  502 -0.12099635110E+02  0.14634093593E+01 -0.19382320200E+02  0.22895787234E+02  0.00000000000E+00 0.  1.
<mgrwt>
<rscale>  0 0.14641901E+04</rscale>
<asrwt>0</asrwt>
<pdfrwt beam="1">  1        1 0.90773316E-01 0.14641901E+04</pdfrwt>
<pdfrwt beam="2">  1       -1 0.13974943E+00 0.14641901E+04</pdfrwt>
<totfact> 0.14337790E+01</totfact>
</mgrwt>
</event>
<event>
12    1  0.1506149E-007  0.1240870E+04  0.7818608E-02  0.9077817E-01
          2   -1    0    0  501    0  0.00000000000E+00  0.00000000000E+00  0.79927814895E+03  0.79927814895E+03  0.00000000000E+00 0. -1.
         -2   -1    0    0    0  501 -0.00000000000E+00 -0.00000000000E+00 -0.48160873519E+03  0.48160873519E+03  0.00000000000E+00 0.  1.
         23    2    1    2    0    0  0.17012715877E+03 -0.22678256894E+03  0.67650129961E+02  0.30524353982E+03  0.90683486861E+02 0.  0.
        254    2    1    2    0    0 -0.17012715877E+03  0.22678256894E+03  0.25001928380E+03  0.97564334432E+03  0.89944244358E+03 0.  0.
        -24    2    4    4    0    0 -0.28425799653E+03  0.52933819833E+03  0.12529510906E+03  0.61956608187E+03  0.84626997172E+02 0.  0.
         24    2    4    4    0    0  0.11413083775E+03 -0.30255562939E+03  0.12472417474E+03  0.35607726245E+03  0.81664803112E+02 0.  0.
         13    1    3    3    0    0  0.69491270118E+02 -0.69326517009E+02  0.66150781297E+02  0.11836861260E+03  0.00000000000E+00 0. -1.
        -13    1    3    3    0    0  0.10063588866E+03 -0.15745605193E+03  0.14993486644E+01  0.18687492722E+03  0.00000000000E+00 0.  1.
          2    1    6    6  502    0  0.74658770761E+02 -0.27158291967E+03  0.92548457900E+02  0.29647332320E+03  0.00000000000E+00 0. -1.
          1    1    5    5  503    0 -0.25770504524E+03  0.51210060131E+03  0.10759747953E+03  0.58329763741E+03  0.00000000000E+00 0. -1.
         -2    1    5    5    0  503 -0.26552951282E+02  0.17237597021E+02  0.17697629525E+02  0.36268444461E+02  0.00000000000E+00 0.  1.
         -1    1    6    6    0  502  0.39472066991E+02 -0.30972709714E+02  0.32175716839E+02  0.59603939246E+02  0.00000000000E+00 0.  1.
<mgrwt>
<rscale>  0 0.12408696E+04</rscale>
<asrwt>0</asrwt>
<pdfrwt beam="1">  1        2 0.12296587E+00 0.12408696E+04</pdfrwt>
<pdfrwt beam="2">  1       -2 0.74093651E-01 0.12408696E+04</pdfrwt>
<totfact> 0.55699716E+01</totfact>
</mgrwt>
</event>
<event>
12    1  0.1506149E-007  0.1874344E+04  0.7818608E-02  0.8667733E-01
          2   -1    0    0  501    0  0.00000000000E+00  0.00000000000E+00  0.22294404100E+04  0.22294404100E+04  0.00000000000E+00 0. -1.
         -2   -1    0    0    0  501 -0.00000000000E+00 -0.00000000000E+00 -0.39395149718E+03  0.39395149718E+03  0.00000000000E+00 0.  1.
         23    2    1    2    0    0  0.76419103633E+02 -0.68214516486E+03  0.43829445388E+03  0.81954958787E+03  0.91638383512E+02 0.  0.
        254    2    1    2    0    0 -0.76419103633E+02  0.68214516486E+03  0.13971944590E+04  0.18038423193E+04  0.91133575125E+03 0.  0.
        -24    2    4    4    0    0  0.24125498493E+03 -0.10511075321E+03  0.45174488472E+03  0.53052347779E+03  0.90163636893E+02 0.  0.
         24    2    4    4    0    0 -0.31767408857E+03  0.78725591808E+03  0.94544957424E+03  0.12733188415E+04  0.82324162340E+02 0.  0.
         13    1    3    3    0    0  0.21637583084E+02 -0.30376153759E+03  0.14285532329E+03  0.33637315605E+03  0.00000000000E+00 0. -1.
        -13    1    3    3    0    0  0.54781520549E+02 -0.37838362728E+03  0.29543913059E+03  0.48317643182E+03  0.00000000000E+00 0.  1.
          2    1    6    6  502    0 -0.42721061594E+02  0.16584341390E+03  0.22787646873E+03  0.28505580513E+03  0.00000000000E+00 0. -1.
          1    1    5    5  503    0  0.44149796316E+02  0.74973033032E+01  0.12402010709E+03  0.13185750276E+03  0.00000000000E+00 0. -1.
         -2    1    5    5    0  503  0.19710518862E+03 -0.11260805652E+03  0.32772477763E+03  0.39866597502E+03  0.00000000000E+00 0.  1.
         -1    1    6    6    0  502 -0.27495302697E+03  0.62141250418E+03  0.71757310551E+03  0.98826303641E+03  0.00000000000E+00 0.  1.
<mgrwt>
<rscale>  0 0.18743440E+04</rscale>
<asrwt>0</asrwt>
<pdfrwt beam="1">  1        2 0.34299082E+00 0.18743440E+04</pdfrwt>
<pdfrwt beam="2">  1       -2 0.60607924E-01 0.18743440E+04</pdfrwt>
<totfact> 0.11828004E+01</totfact>
</mgrwt>
</event>
<event>
12    1  0.2506421E-007  0.1617596E+04  0.7818608E-02  0.8809811E-01
         -2   -1    0    0    0  501 -0.00000000000E+00  0.00000000000E+00  0.81739451097E+03  0.81739451097E+03  0.00000000000E+00 0.  1.
          2   -1    0    0  501    0  0.00000000000E+00 -0.00000000000E+00 -0.80029170581E+03  0.80029170581E+03  0.00000000000E+00 0. -1.
         23    2    1    2    0    0 -0.43170368061E+03  0.77722101151E+02  0.33877743217E+03  0.56168975214E+03  0.91194496841E+02 0.  0.
        254    2    1    2    0    0  0.43170368061E+03 -0.77722101151E+02 -0.32167462700E+03  0.10559964646E+04  0.90512163537E+03 0.  0.
        -24    2    4    4    0    0  0.33211243482E+03 -0.12177559549E+03  0.26893046513E+03  0.45006165870E+03  0.71441840269E+02 0.  0.
         24    2    4    4    0    0  0.99591245789E+02  0.44053494340E+02 -0.59060509213E+03  0.60593480594E+03  0.80520106793E+02 0.  0.
         13    1    3    3    0    0 -0.74063947056E+02  0.30736283247E+01  0.10287828226E+03  0.12680243060E+03  0.00000000000E+00 0. -1.
        -13    1    3    3    0    0 -0.35763973355E+03  0.74648472826E+02  0.23589914991E+03  0.43488732154E+03  0.00000000000E+00 0.  1.
          4    1    6    6  502    0 -0.27742535052E+01  0.99461175737E+00  0.16366319621E+01  0.33710976311E+01  0.00000000000E+00 0. -1.
          3    1    5    5  503    0  0.30160035594E+02  0.35115556261E+01  0.70037770568E+01  0.31161060043E+02  0.00000000000E+00 0. -1.
         -4    1    5    5    0  503  0.30195239922E+03 -0.12528715112E+03  0.26192668807E+03  0.41890059866E+03  0.00000000000E+00 0.  1.
         -3    1    6    6    0  502  0.10236549929E+03  0.43058882582E+02 -0.59224172409E+03  0.60256370831E+03  0.00000000000E+00 0.  1.
<mgrwt>
<rscale>  0 0.16175958E+04</rscale>
<asrwt>0</asrwt>
<pdfrwt beam="1">  1        2 0.12312180E+00 0.16175958E+04</pdfrwt>
<pdfrwt beam="2">  1       -2 0.12575300E+00 0.16175958E+04</pdfrwt>
<totfact> 0.15570037E+01</totfact>
</mgrwt>
</event>
<event>
12    1  0.1506149E-007  0.2583432E+04  0.7818608E-02  0.8373851E-01
          1   -1    0    0  501    0  0.00000000000E+00  0.00000000000E+00  0.27815592988E+04  0.27815592988E+04  0.00000000000E+00 0. -1.
         -1   -1    0    0    0  501 -0.00000000000E+00 -0.00000000000E+00 -0.59985433254E+03  0.59985433254E+03  0.00000000000E+00 0.  1.
         23    2    1    2    0    0  0.92258584712E+03 -0.63875484281E+03  0.76558009097E+03  0.13614573469E+04  0.90999106201E+02 0.  0.
        254    2    1    2    0    0 -0.92258584712E+03  0.63875484281E+03  0.14161248753E+04  0.20199562844E+04  0.90312863646E+03 0.  0.
        -24    2    4    4    0    0 -0.38572610469E+03 -0.10706920870E+03  0.83601923820E+03  0.93028936538E+03  0.79130862501E+02 0.  0.
         24    2    4    4    0    0 -0.53685974243E+03  0.74582405151E+03  0.58010563713E+03  0.10896669191E+04  0.79872056486E+02 0.  0.
         13    1    3    3    0    0  0.63737344537E+03 -0.42520932561E+03  0.47306032204E+03  0.90046318511E+03  0.00000000000E+00 0. -1.
        -13    1    3    3    0    0  0.28521240176E+03 -0.21354551720E+03  0.29251976893E+03  0.46099416184E+03  0.00000000000E+00 0.  1.
          4    1    6    6  502    0 -0.26399354584E+03  0.30856181780E+03  0.23158956142E+03  0.46747910393E+03  0.00000000000E+00 0. -1.
          1    1    5    5  503    0 -0.11955663483E+02  0.86085984983E+01  0.52247840953E+02  0.54285198182E+02  0.00000000000E+00 0. -1.
         -2    1    5    5    0  503 -0.37377044121E+03 -0.11567780720E+03  0.78377139725E+03  0.87600416720E+03  0.00000000000E+00 0.  1.
         -3    1    6    6    0  502 -0.27286619659E+03  0.43726223371E+03  0.34851607571E+03  0.62218781513E+03  0.00000000000E+00 0.  1.
<mgrwt>
<rscale>  0 0.25834321E+04</rscale>
<asrwt>0</asrwt>
<pdfrwt beam="1">  1        1 0.42793219E+00 0.25834321E+04</pdfrwt>
<pdfrwt beam="2">  1       -1 0.92285284E-01 0.25834321E+04</pdfrwt>
<totfact> 0.86535465E-01</totfact>
</mgrwt>
</event>
<event>
12    1  0.1506149E-007  0.2519913E+04  0.7818608E-02  0.8395925E-01
         -2   -1    0    0    0  501 -0.00000000000E+00  0.00000000000E+00  0.63068946181E+03  0.63068946181E+03  0.00000000000E+00 0. -1.
          2   -1    0    0  501    0  0.00000000000E+00 -0.00000000000E+00 -0.25170722084E+04  0.25170722084E+04  0.00000000000E+00 0.  1.
         23    2    1    2    0    0  0.29440804814E+03 -0.10117626832E+04 -0.47860652895E+03  0.11608761262E+04  0.90715736522E+02 0.  0.
        254    2    1    2    0    0 -0.29440804814E+03  0.10117626832E+04 -0.14077762176E+04  0.19868855440E+04  0.92495430170E+03 0.  0.
        -24    2    4    4    0    0 -0.54572129868E+03  0.98969185758E+03 -0.12008126273E+04  0.16511530141E+04  0.83985720690E+02 0.  0.
         24    2    4    4    0    0  0.25131325054E+03  0.22070825613E+02 -0.20696359037E+03  0.33573252996E+03  0.78974253370E+02 0.  0.
         13    1    3    3    0    0  0.14160747062E+03 -0.45682063534E+03 -0.26608300062E+03  0.54730058636E+03  0.00000000000E+00 0. -1.
        -13    1    3    3    0    0  0.15280057752E+03 -0.55494204785E+03 -0.21252352833E+03  0.61357553981E+03  0.00000000000E+00 0.  1.
          2    1    6    6  502    0  0.15267374666E+03 -0.18717958844E+02 -0.93754200409E+02  0.18013740588E+03  0.00000000000E+00 0. -1.
          3    1    5    5  503    0 -0.23982912303E+03  0.50714770659E+03 -0.56084073849E+03  0.79325855716E+03  0.00000000000E+00 0. -1.
         -2    1    5    5    0  503 -0.30589217565E+03  0.48254415099E+03 -0.63997188879E+03  0.85789445692E+03  0.00000000000E+00 0.  1.
         -1    1    6    6    0  502  0.98639503883E+02  0.40788784456E+02 -0.11320938996E+03  0.15559512408E+03  0.00000000000E+00 0.  1.
<mgrwt>
<rscale>  0 0.25199134E+04</rscale>
<asrwt>0</asrwt>
<pdfrwt beam="1">  1        2 0.38724187E+00 0.25199134E+04</pdfrwt>
<pdfrwt beam="2">  1       -2 0.97029150E-01 0.25199134E+04</pdfrwt>
<totfact> 0.26866755E+00</totfact>
</mgrwt>
</event>
<event>
12    1  0.1506149E-007  0.2167027E+04  0.7818608E-02  0.8532279E-01
          2   -1    0    0  501    0  0.00000000000E+00  0.00000000000E+00  0.26985318686E+04  0.26985318686E+04  0.00000000000E+00 0. -1.
         -2   -1    0    0    0  501 -0.00000000000E+00 -0.00000000000E+00 -0.43505191615E+03  0.43505191615E+03  0.00000000000E+00 0.  1.
         23    2    1    2    0    0  0.79529965079E+03 -0.14037099574E+02  0.15340425491E+04  0.17302214929E+04  0.87643009751E+02 0.  0.
        254    2    1    2    0    0 -0.79529965079E+03  0.14037099574E+02  0.72943740331E+03  0.14033622919E+04  0.89702186269E+03 0.  0.
        -24    2    4    4    0    0 -0.26920473978E+03  0.33918587068E+03 -0.39418753829E+01  0.44055576979E+03  0.80966666752E+02 0.  0.
         24    2    4    4    0    0 -0.52609491101E+03 -0.32514877111E+03  0.73337927869E+03  0.96280652206E+03  0.81569931763E+02 0.  0.
         11    1    3    3    0    0  0.52572880196E+02 -0.19527601099E+02  0.83675324777E+02  0.10073130056E+03  0.00000000000E+00 0.  1.
        -11    1    3    3    0    0  0.74272677060E+03  0.54905015251E+01  0.14503672243E+04  0.16294901923E+04  0.00000000000E+00 0. -1.
          2    1    6    6  502    0 -0.49686012635E+03 -0.29135085259E+03  0.65209191495E+03  0.87004549881E+03  0.00000000000E+00 0. -1.
          1    1    5    5  503    0 -0.19745825801E+03  0.29678196142E+03  0.67531584406E+01  0.35653176777E+03  0.00000000000E+00 0. -1.
         -2    1    5    5    0  503 -0.71746481771E+02  0.42403909260E+02 -0.10695033823E+02  0.84024002020E+02  0.00000000000E+00 0.  1.
         -1    1    6    6    0  502 -0.29234784660E+02 -0.33797918519E+02  0.81287363739E+02  0.92761023248E+02  0.00000000000E+00 0.  1.
<mgrwt>
<rscale>  0 0.21670270E+04</rscale>
<asrwt>0</asrwt>
<pdfrwt beam="1">  1        2 0.41515874E+00 0.21670270E+04</pdfrwt>
<pdfrwt beam="2">  1       -2 0.66931066E-01 0.21670270E+04</pdfrwt>
<totfact> 0.50006295E+00</totfact>
</mgrwt>
</event>
<event>
12    1  0.1506149E-007  0.2489302E+04  0.7818608E-02  0.8406807E-01
         -1   -1    0    0    0  501 -0.00000000000E+00  0.00000000000E+00  0.44437447975E+03  0.44437447975E+03  0.00000000000E+00 0.  1.
          1   -1    0    0  501    0  0.00000000000E+00 -0.00000000000E+00 -0.34861486672E+04  0.34861486672E+04  0.00000000000E+00 0. -1.
         23    2    1    2    0    0  0.61285754056E+03  0.88296207782E+03 -0.13933365875E+04  0.17626143089E+04  0.10102455175E+03 0.  0.
        254    2    1    2    0    0 -0.61285754056E+03 -0.88296207782E+03 -0.16484376000E+04  0.21679088380E+04  0.90954154008E+03 0.  0.
        -24    2    4    4    0    0 -0.72139024832E+03 -0.96019187381E+03 -0.12262414603E+04  0.17182489031E+04  0.79616891388E+02 0.  0.
         24    2    4    4    0    0  0.10853270776E+03  0.77229795982E+02 -0.42219613969E+03  0.44965993488E+03  0.78744438675E+02 0.  0.
         11    1    3    3    0    0  0.18843134047E+03  0.26305564000E+03 -0.34654117900E+03  0.47412596274E+03  0.00000000000E+00 0. -1.
        -11    1    3    3    0    0  0.42442620010E+03  0.61990643783E+03 -0.10467954085E+04  0.12884883462E+04  0.00000000000E+00 0.  1.
          2    1    6    6  502    0  0.58540555076E+02 -0.47357838023E+01 -0.16041168371E+03  0.17082544455E+03  0.00000000000E+00 0. -1.
          3    1    5    5  503    0 -0.33533248561E+03 -0.38111127124E+03 -0.52186461059E+03  0.72803595293E+03  0.00000000000E+00 0. -1.
         -4    1    5    5    0  503 -0.38605776270E+03 -0.57908060257E+03 -0.70437684967E+03  0.99021295021E+03  0.00000000000E+00 0.  1.
         -1    1    6    6    0  502  0.49992152680E+02  0.81965579785E+02 -0.26178445599E+03  0.27883449033E+03  0.00000000000E+00 0.  1.
<mgrwt>
<rscale>  0 0.24893015E+04</rscale>
<asrwt>0</asrwt>
<pdfrwt beam="1">  1        1 0.53633056E+00 0.24893015E+04</pdfrwt>
<pdfrwt beam="2">  1       -1 0.68365305E-01 0.24893015E+04</pdfrwt>
<totfact> 0.49396259E-01</totfact>
</mgrwt>
</event>
<event>
12    1  0.1506149E-007  0.2258307E+04  0.7818608E-02  0.8494544E-01
         -2   -1    0    0    0  501 -0.00000000000E+00  0.00000000000E+00  0.13084139186E+04  0.13084139186E+04  0.00000000000E+00 0.  1.
          2   -1    0    0  501    0  0.00000000000E+00 -0.00000000000E+00 -0.97445310162E+03  0.97445310162E+03  0.00000000000E+00 0. -1.
         23    2    1    2    0    0 -0.13506176195E+03 -0.55451027499E+03 -0.62267974928E+03  0.84949653464E+03  0.90503964530E+02 0.  0.
        254    2    1    2    0    0  0.13506176195E+03  0.55451027499E+03  0.95664056628E+03  0.14333704856E+04  0.90203461757E+03 0.  0.
        -24    2    4    4    0    0 -0.49290512139E+02  0.67956805474E+02  0.89590542210E+03  0.90325554933E+03  0.78589948759E+02 0.  0.
         24    2    4    4    0    0  0.18435227409E+03  0.48655346952E+03  0.60735144180E+02  0.53011493626E+03  0.81320650789E+02 0.  0.
         11    1    3    3    0    0 -0.45066669529E+02 -0.34196066452E+03 -0.40821423316E+03  0.53442208125E+03  0.00000000000E+00 0.  1.
        -11    1    3    3    0    0 -0.89995092425E+02 -0.21254961047E+03 -0.21446551612E+03  0.31507445339E+03  0.00000000000E+00 0. -1.
          2    1    6    6  502    0  0.11866320634E+02  0.43545672636E+02  0.29015396803E+02  0.53655646695E+02  0.00000000000E+00 0. -1.
          3    1    5    5  503    0 -0.13292865571E+02 -0.31504208296E+01  0.45497137134E+03  0.45517642093E+03  0.00000000000E+00 0. -1.
         -4    1    5    5    0  503 -0.35997646568E+02  0.71107226304E+02  0.44093405076E+03  0.44807912840E+03  0.00000000000E+00 0.  1.
         -1    1    6    6    0  502  0.17248595346E+03  0.44300779688E+03  0.31719747378E+02  0.47645928957E+03  0.00000000000E+00 0.  1.
<mgrwt>
<rscale>  0 0.22583073E+04</rscale>
<asrwt>0</asrwt>
<pdfrwt beam="1">  1        2 0.14991586E+00 0.22583073E+04</pdfrwt>
<pdfrwt beam="2">  1       -2 0.20129445E+00 0.22583073E+04</pdfrwt>
<totfact> 0.31037383E+00</totfact>
</mgrwt>
</event>
<event>
12    1  0.1506149E-007  0.1903370E+04  0.7818608E-02  0.8653181E-01
         -2   -1    0    0    0  501 -0.00000000000E+00  0.00000000000E+00  0.58341063135E+03  0.58341063135E+03  0.00000000000E+00 0.  1.
          2   -1    0    0  501    0  0.00000000000E+00 -0.00000000000E+00 -0.15524306889E+04  0.15524306889E+04  0.00000000000E+00 0. -1.
         23    2    1    2    0    0  0.20265034770E+03  0.70638200095E+03 -0.42601177332E+03  0.85422837242E+03  0.90428903331E+02 0.  0.
        254    2    1    2    0    0 -0.20265034770E+03 -0.70638200095E+03 -0.54300828421E+03  0.12816129478E+04  0.89868295665E+03 0.  0.
        -24    2    4    4    0    0  0.23649133567E+03 -0.59695661411E+03 -0.12265770703E+03  0.65874343343E+03  0.81318183795E+02 0.  0.
         24    2    4    4    0    0 -0.43914168337E+03 -0.10942538683E+03 -0.42035057718E+03  0.62286951438E+03  0.80327397882E+02 0.  0.
         13    1    3    3    0    0  0.12748389579E+03  0.57541744300E+03 -0.34295327963E+03  0.68189026199E+03  0.00000000000E+00 0. -1.
        -13    1    3    3    0    0  0.75166451914E+02  0.13096455795E+03 -0.83058493687E+02  0.17233811043E+03  0.00000000000E+00 0.  1.
          2    1    6    6  502    0 -0.96570012148E+02 -0.49525616700E+02 -0.69553502394E+02  0.12890400945E+03  0.00000000000E+00 0. -1.
          3    1    5    5  503    0  0.81765231234E+02 -0.14413335821E+03 -0.59484097827E+02  0.17606344278E+03  0.00000000000E+00 0. -1.
         -4    1    5    5    0  503  0.15472610443E+03 -0.45282325590E+03 -0.63173609203E+02  0.48267999065E+03  0.00000000000E+00 0.  1.
         -1    1    6    6    0  502 -0.34257167122E+03 -0.59899770134E+02 -0.35079707479E+03  0.49396550493E+03  0.00000000000E+00 0.  1.
<mgrwt>
<rscale>  0 0.19033702E+04</rscale>
<asrwt>0</asrwt>
<pdfrwt beam="1">  1        2 0.23883549E+00 0.19033702E+04</pdfrwt>
<pdfrwt beam="2">  1       -2 0.89755482E-01 0.19033702E+04</pdfrwt>
<totfact> 0.11808582E+01</totfact>
</mgrwt>
</event>
<event>
12    1  0.1506149E-007  0.1772379E+04  0.7818608E-02  0.8721127E-01
         -2   -1    0    0    0  501 -0.00000000000E+00  0.00000000000E+00  0.13395485888E+04  0.13395485888E+04  0.00000000000E+00 0.  1.
          2   -1    0    0  501    0  0.00000000000E+00 -0.00000000000E+00 -0.58626623732E+03  0.58626623732E+03  0.00000000000E+00 0. -1.
         23    2    1    2    0    0  0.38629093584E+03  0.25228762706E+03  0.82683440713E+03  0.95094719840E+03  0.88179949294E+02 0.  0.
        254    2    1    2    0    0 -0.38629093584E+03 -0.25228762706E+03 -0.73552055654E+02  0.97486762772E+03  0.85562097497E+03 0.  0.
        -24    2    4    4    0    0  0.13789286925E+03 -0.32270249386E+03  0.15604268432E+03  0.39296933054E+03  0.83211973194E+02 0.  0.
         24    2    4    4    0    0 -0.52418380508E+03  0.70414866802E+02 -0.22959473997E+03  0.58189829718E+03  0.78517314382E+02 0.  0.
         13    1    3    3    0    0  0.99415001160E+02  0.98253905109E+02  0.31059317588E+03  0.34059549796E+03  0.00000000000E+00 0. -1.
        -13    1    3    3    0    0  0.28687593468E+03  0.15403372195E+03  0.51624123125E+03  0.61035170045E+03  0.00000000000E+00 0.  1.
          2    1    6    6  502    0 -0.23111994799E+02  0.89309268807E+01 -0.30331421333E+02  0.39165301972E+02  0.00000000000E+00 0. -1.
          1    1    5    5  503    0  0.36339957692E+02 -0.58309364688E+02  0.67275479031E+02  0.96159058930E+02  0.00000000000E+00 0. -1.
         -2    1    5    5    0  503  0.10155291156E+03 -0.26439312917E+03  0.88767205288E+02  0.29681027161E+03  0.00000000000E+00 0.  1.
         -1    1    6    6    0  502 -0.50107181029E+03  0.61483939922E+02 -0.19926331864E+03  0.54273299521E+03  0.00000000000E+00 0.  1.
<mgrwt>
<rscale>  0 0.17723793E+04</rscale>
<asrwt>0</asrwt>
<pdfrwt beam="1">  1        2 0.90194806E-01 0.17723793E+04</pdfrwt>
<pdfrwt beam="2">  1       -2 0.20608440E+00 0.17723793E+04</pdfrwt>
<totfact> 0.58524444E+00</totfact>
</mgrwt>
</event>
<event>
12    1  0.1506149E-007  0.1540482E+04  0.7818608E-02  0.8857970E-01
          1   -1    0    0  501    0  0.00000000000E+00  0.00000000000E+00  0.60408813836E+03  0.60408813836E+03  0.00000000000E+00 0. -1.
         -1   -1    0    0    0  501 -0.00000000000E+00 -0.00000000000E+00 -0.98209419886E+03  0.98209419886E+03  0.00000000000E+00 0.  1.
         23    2    1    2    0    0  0.70943207002E+02 -0.22523940135E+03  0.32476948277E+03  0.41508670019E+03  0.10514763525E+03 0.  0.
        254    2    1    2    0    0 -0.70943207002E+02  0.22523940135E+03 -0.70277554327E+03  0.11710956370E+04  0.90653505190E+03 0.  0.
        -24    2    4    4    0    0  0.35125366448E+03 -0.12173859058E+03 -0.23478896803E+03  0.44718288494E+03  0.81530680275E+02 0.  0.
         24    2    4    4    0    0 -0.42219687148E+03  0.34697799193E+03 -0.46798657524E+03  0.72391275210E+03  0.79964447501E+02 0.  0.
         13    1    3    3    0    0 -0.58966968260E+01  0.35912843667E+01 -0.34040559432E+01  0.76977888854E+01  0.00000000000E+00 0.  1.
        -13    1    3    3    0    0  0.76839903828E+02 -0.22883068572E+03  0.32817353871E+03  0.40738891131E+03  0.00000000000E+00 0. -1.
          2    1    6    6  502    0 -0.20018562807E+03  0.13191215123E+03 -0.16463830499E+03  0.29082790925E+03  0.00000000000E+00 0. -1.
          3    1    5    5  503    0  0.42493139374E+02 -0.26747528210E+02 -0.44028659738E+01  0.50403198192E+02  0.00000000000E+00 0. -1.
         -4    1    5    5    0  503  0.30876052511E+03 -0.94991062375E+02 -0.23038610206E+03  0.39677968675E+03  0.00000000000E+00 0.  1.
         -1    1    6    6    0  502 -0.22201124341E+03  0.21506584070E+03 -0.30334827026E+03  0.43308484285E+03  0.00000000000E+00 0.  1.
<mgrwt>
<rscale>  0 0.15404823E+04</rscale>
<asrwt>0</asrwt>
<pdfrwt beam="1">  1        1 0.92936637E-01 0.15404823E+04</pdfrwt>
<pdfrwt beam="2">  1       -1 0.15109142E+00 0.15404823E+04</pdfrwt>
<totfact> 0.11187714E+01</totfact>
</mgrwt>
</event>
<event>
12    1  0.1506149E-007  0.2473176E+04  0.7818608E-02  0.8412605E-01
          2   -1    0    0  501    0  0.00000000000E+00  0.00000000000E+00  0.15474547457E+04  0.15474547457E+04  0.00000000000E+00 0. -1.
         -2   -1    0    0    0  501 -0.00000000000E+00 -0.00000000000E+00 -0.98817085550E+03  0.98817085550E+03  0.00000000000E+00 0.  1.
         23    2    1    2    0    0  0.36648026234E+03  0.44443278225E+03 -0.68477826595E+03  0.89940928826E+03  0.90484880868E+02 0.  0.
        254    2    1    2    0    0 -0.36648026234E+03 -0.44443278225E+03  0.12440621562E+04  0.16362163130E+04  0.89313206962E+03 0.  0.
        -24    2    4    4    0    0  0.22081088103E+02 -0.45221203139E+03  0.16905231717E+03  0.49040765262E+03  0.83292760932E+02 0.  0.
         24    2    4    4    0    0 -0.38856135045E+03  0.77792491370E+01  0.10750098390E+04  0.11458086603E+04  0.78682224222E+02 0.  0.
         11    1    3    3    0    0  0.33149287463E+03  0.35769136455E+03 -0.54635162689E+03  0.73234605099E+03  0.00000000000E+00 0.  1.
        -11    1    3    3    0    0  0.34987387711E+02  0.86741417699E+02 -0.13842663906E+03  0.16706323726E+03  0.00000000000E+00 0. -1.
          4    1    6    6  502    0 -0.33067813826E+03 -0.15957390364E+02  0.94970147515E+03  0.10057512423E+04  0.00000000000E+00 0. -1.
          3    1    5    5  503    0  0.49782431150E+02 -0.37555345566E+03  0.13906183931E+03  0.40355530434E+03  0.00000000000E+00 0. -1.
         -4    1    5    5    0  503 -0.27701343047E+02 -0.76658575725E+02  0.29990477858E+02  0.86852348275E+02  0.00000000000E+00 0.  1.
         -3    1    6    6    0  502 -0.57883212186E+02  0.23736639501E+02  0.12530836385E+03  0.14005741807E+03  0.00000000000E+00 0.  1.
<mgrwt>
<rscale>  0 0.24731758E+04</rscale>
<asrwt>0</asrwt>
<pdfrwt beam="1">  1        2 0.23806996E+00 0.24731758E+04</pdfrwt>
<pdfrwt beam="2">  1       -2 0.15202629E+00 0.24731758E+04</pdfrwt>
<totfact> 0.30849236E+00</totfact>
</mgrwt>
</event>
<event>
12    1  0.1506149E-007  0.2122750E+04  0.7818608E-02  0.8551287E-01
         -1   -1    0    0    0  501 -0.00000000000E+00  0.00000000000E+00  0.11479061359E+04  0.11479061359E+04  0.00000000000E+00 0.  1.
          1   -1    0    0  501    0  0.00000000000E+00 -0.00000000000E+00 -0.98136680366E+03  0.98136680366E+03  0.00000000000E+00 0. -1.
         23    2    1    2    0    0  0.80113808791E+02  0.69294928727E+03  0.58974619873E+03  0.91976614829E+03  0.10757439998E+03 0.  0.
        254    2    1    2    0    0 -0.80113808791E+02 -0.69294928727E+03 -0.42320686652E+03  0.12095067912E+04  0.89286375730E+03 0.  0.
        -24    2    4    4    0    0 -0.19730934754E+03 -0.87282891905E+03 -0.28101671505E+03  0.94108471478E+03  0.76868365970E+02 0.  0.
         24    2    4    4    0    0  0.11719553875E+03  0.17987963178E+03 -0.14219015148E+03  0.26842207646E+03  0.75768698835E+02 0.  0.
         13    1    3    3    0    0  0.77308095535E+02  0.49153227492E+03  0.47520729869E+03  0.68804251006E+03  0.00000000000E+00 0. -1.
        -13    1    3    3    0    0  0.28057132551E+01  0.20141701235E+03  0.11453890005E+03  0.23172363823E+03  0.00000000000E+00 0.  1.
          4    1    6    6  502    0  0.12759836661E+03  0.15605325783E+03 -0.12349820435E+03  0.23640171091E+03  0.00000000000E+00 0. -1.
          1    1    5    5  503    0 -0.13882185127E+03 -0.73187175304E+03 -0.24621759579E+03  0.78455775680E+03  0.00000000000E+00 0. -1.
         -2    1    5    5    0  503 -0.58487496271E+02 -0.14095716602E+03 -0.34799119262E+02  0.15652695798E+03  0.00000000000E+00 0.  1.
         -3    1    6    6    0  502 -0.10402827859E+02  0.23826373952E+02 -0.18691947124E+02  0.32020365558E+02  0.00000000000E+00 0.  1.
<mgrwt>
<rscale>  0 0.21227501E+04</rscale>
<asrwt>0</asrwt>
<pdfrwt beam="1">  1        1 0.15097951E+00 0.21227501E+04</pdfrwt>
<pdfrwt beam="2">  1       -1 0.17660094E+00 0.21227501E+04</pdfrwt>
<totfact> 0.31632636E+00</totfact>
</mgrwt>
</event>
<event>
12    1  0.1506149E-007  0.2061527E+04  0.7818608E-02  0.8578383E-01
          2   -1    0    0  501    0  0.00000000000E+00  0.00000000000E+00  0.20282777835E+04  0.20282777835E+04  0.00000000000E+00 0. -1.
         -2   -1    0    0    0  501 -0.00000000000E+00 -0.00000000000E+00 -0.52383036552E+03  0.52383036552E+03  0.00000000000E+00 0.  1.
         23    2    1    2    0    0 -0.36157291302E+03 -0.95750166497E+02 -0.30111697745E+03  0.48856333795E+03  0.90109018776E+02 0.  0.
        254    2    1    2    0    0  0.36157291302E+03  0.95750166497E+02  0.18055643954E+04  0.20635448111E+04  0.92641855308E+03 0.  0.
        -24    2    4    4    0    0  0.90519787222E+02 -0.23286882330E+03  0.64942861004E+02  0.26998073391E+03  0.79058843539E+02 0.  0.
         24    2    4    4    0    0  0.27105312580E+03  0.32861898980E+03  0.17406215344E+04  0.17935640772E+04  0.75156738668E+02 0.  0.
         13    1    3    3    0    0 -0.11399649756E+03 -0.13861062541E+02 -0.14376352541E+03  0.18399804822E+03  0.00000000000E+00 0. -1.
        -13    1    3    3    0    0 -0.24757641546E+03 -0.81889103956E+02 -0.15735345204E+03  0.30456528973E+03  0.00000000000E+00 0.  1.
          4    1    6    6  502    0  0.13101462707E+03  0.21156934483E+03  0.93754535123E+03  0.97000912666E+03  0.00000000000E+00 0. -1.
          1    1    5    5  503    0  0.99299371649E+02 -0.16015486603E+03  0.53171470615E+02  0.19579875283E+03  0.00000000000E+00 0. -1.
         -2    1    5    5    0  503 -0.87795844269E+01 -0.72713957272E+02  0.11771390388E+02  0.74181981077E+02  0.00000000000E+00 0.  1.
         -3    1    6    6    0  502  0.14003849873E+03  0.11704964497E+03  0.80307618319E+03  0.82355495052E+03  0.00000000000E+00 0.  1.
<mgrwt>
<rscale>  0 0.20615271E+04</rscale>
<asrwt>0</asrwt>
<pdfrwt beam="1">  1        2 0.31204273E+00 0.20615271E+04</pdfrwt>
<pdfrwt beam="2">  1       -2 0.80589288E-01 0.20615271E+04</pdfrwt>
<totfact> 0.80978065E+00</totfact>
</mgrwt>
</event>
<event>
12    1  0.1506149E-007  0.1899426E+04  0.7818608E-02  0.8655142E-01
          1   -1    0    0  501    0  0.00000000000E+00  0.00000000000E+00  0.11362167526E+04  0.11362167526E+04  0.00000000000E+00 0. -1.
         -1   -1    0    0    0  501 -0.00000000000E+00 -0.00000000000E+00 -0.79382285106E+03  0.79382285106E+03  0.00000000000E+00 0.  1.
         23    2    1    2    0    0  0.56152036155E+03 -0.35801987799E+03 -0.18119283109E+03  0.69646364470E+03  0.93527626278E+02 0.  0.
        254    2    1    2    0    0 -0.56152036155E+03  0.35801987799E+03  0.52358673265E+03  0.12335759590E+04  0.89670688104E+03 0.  0.
        -24    2    4    4    0    0 -0.27969289274E+03 -0.27863187401E+03  0.28199392162E+03  0.49243645020E+03  0.84316369656E+02 0.  0.
         24    2    4    4    0    0 -0.28182746881E+03  0.63665175201E+03  0.24159281102E+03  0.74113950878E+03  0.78539860106E+02 0.  0.
         11    1    3    3    0    0  0.32226535223E+02 -0.80655363617E+01 -0.28634309351E+02  0.43858022314E+02  0.00000000000E+00 0. -1.
        -11    1    3    3    0    0  0.52929382633E+03 -0.34995434163E+03 -0.15255852173E+03  0.65260562239E+03  0.00000000000E+00 0.  1.
          2    1    6    6  502    0 -0.19608328097E+03  0.50193450820E+03  0.21003683885E+03  0.57836180482E+03  0.00000000000E+00 0. -1.
          3    1    5    5  503    0 -0.27182491684E+03 -0.26370687090E+03  0.24307367113E+03  0.45001656500E+03  0.00000000000E+00 0. -1.
         -4    1    5    5    0  503 -0.78679759029E+01 -0.14925003112E+02  0.38920250491E+02  0.42419885207E+02  0.00000000000E+00 0.  1.
         -1    1    6    6    0  502 -0.85744187840E+02  0.13471724380E+03  0.31555972177E+02  0.16277770396E+03  0.00000000000E+00 0.  1.
<mgrwt>
<rscale>  0 0.18994260E+04</rscale>
<asrwt>0</asrwt>
<pdfrwt beam="1">  1        1 0.17480258E+00 0.18994260E+04</pdfrwt>
<pdfrwt beam="2">  1       -1 0.12212659E+00 0.18994260E+04</pdfrwt>
<totfact> 0.66077817E+00</totfact>
</mgrwt>
</event>
<event>
12    1  0.1506149E-007  0.2144173E+04  0.7818608E-02  0.8542031E-01
          1   -1    0    0  501    0  0.00000000000E+00  0.00000000000E+00  0.82712116267E+03  0.82712116267E+03  0.00000000000E+00 0. -1.
         -1   -1    0    0    0  501 -0.00000000000E+00 -0.00000000000E+00 -0.13896023120E+04  0.13896023120E+04  0.00000000000E+00 0.  1.
         23    2    1    2    0    0 -0.51533339587E+03  0.69350583937E+03 -0.42573366630E+02  0.86976713278E+03  0.90352175315E+02 0.  0.
        254    2    1    2    0    0  0.51533339587E+03 -0.69350583937E+03 -0.51990778266E+03  0.13469563418E+04  0.89301087687E+03 0.  0.
        -24    2    4    4    0    0 -0.18710351974E+03 -0.22447299383E+03 -0.38080838666E+03  0.48708803483E+03  0.82727711590E+02 0.  0.
         24    2    4    4    0    0  0.70243691561E+03 -0.46903284553E+03 -0.13909939599E+03  0.85986830700E+03  0.81335311091E+02 0.  0.
         11    1    3    3    0    0 -0.49795327773E+03  0.63087768301E+03 -0.38257040167E+02  0.80462893240E+03  0.00000000000E+00 0. -1.
        -11    1    3    3    0    0 -0.17380118135E+02  0.62628156360E+02 -0.43163264629E+01  0.65138200387E+02  0.00000000000E+00 0.  1.
          2    1    6    6  502    0  0.13704452917E+02  0.23244911363E+01 -0.35741762595E+01  0.14352352585E+02  0.00000000000E+00 0. -1.
          1    1    5    5  503    0 -0.61919088196E+02 -0.41807501002E+02 -0.53440854965E+02  0.91857311100E+02  0.00000000000E+00 0. -1.
         -2    1    5    5    0  503 -0.12518443154E+03 -0.18266549283E+03 -0.32736753170E+03  0.39523072373E+03  0.00000000000E+00 0.  1.
         -1    1    6    6    0  502  0.68873246269E+03 -0.47135733667E+03 -0.13552521973E+03  0.84551595442E+03  0.00000000000E+00 0.  1.
<mgrwt>
<rscale>  0 0.21441730E+04</rscale>
<asrwt>0</asrwt>
<pdfrwt beam="1">  1        1 0.12724941E+00 0.21441730E+04</pdfrwt>
<pdfrwt beam="2">  1       -1 0.21378497E+00 0.21441730E+04</pdfrwt>
<totfact> 0.23252983E+00</totfact>
</mgrwt>
</event>
<event>
12    1  0.1506149E-007  0.1781357E+04  0.7818608E-02  0.8716277E-01
          2   -1    0    0  501    0  0.00000000000E+00  0.00000000000E+00  0.64896674356E+03  0.64896674356E+03  0.00000000000E+00 0. -1.
         -2   -1    0    0    0  501 -0.00000000000E+00 -0.00000000000E+00 -0.12224175805E+04  0.12224175805E+04  0.00000000000E+00 0.  1.
         23    2    1    2    0    0  0.35672775696E+03  0.33868569243E+03  0.24494558887E+03  0.55700024760E+03  0.91039790630E+02 0.  0.
        254    2    1    2    0    0 -0.35672775696E+03 -0.33868569243E+03 -0.81839642585E+03  0.13143840765E+04  0.90325527944E+03 0.  0.
        -24    2    4    4    0    0 -0.79022441493E+02  0.88515598939E+01 -0.85375419481E+03  0.86103017923E+03  0.78446465916E+02 0.  0.
         24    2    4    4    0    0 -0.27770531547E+03 -0.34753725233E+03  0.35357768963E+02  0.45335389726E+03  0.79857374995E+02 0.  0.
         13    1    3    3    0    0  0.78604215814E+02  0.89111334615E+02  0.19046907292E+02  0.12034216791E+03  0.00000000000E+00 0.  1.
        -13    1    3    3    0    0  0.27812354114E+03  0.24957435782E+03  0.22589868158E+03  0.43665807969E+03  0.00000000000E+00 0. -1.
          4    1    6    6  502    0 -0.86249191251E+02 -0.67484983277E+02  0.32011758109E+02  0.11409600614E+03  0.00000000000E+00 0. -1.
          1    1    5    5  503    0 -0.79499454019E+02 -0.18282383043E+02 -0.71570273550E+03  0.72033659793E+03  0.00000000000E+00 0. -1.
         -2    1    5    5    0  503  0.47701252549E+00  0.27133942937E+02 -0.13805145931E+03  0.14069358129E+03  0.00000000000E+00 0.  1.
         -3    1    6    6    0  502 -0.19145612421E+03 -0.28005226905E+03  0.33460108538E+01  0.33925789112E+03  0.00000000000E+00 0.  1.
<mgrwt>
<rscale>  0 0.17813572E+04</rscale>
<asrwt>0</asrwt>
<pdfrwt beam="1">  1        2 0.99841038E-01 0.17813572E+04</pdfrwt>
<pdfrwt beam="2">  1       -2 0.18806424E+00 0.17813572E+04</pdfrwt>
<totfact> 0.67978063E+00</totfact>
</mgrwt>
</event>
<event>
12    1  0.1506149E-007  0.1233102E+04  0.7818608E-02  0.9084366E-01
         -2   -1    0    0    0  501 -0.00000000000E+00  0.00000000000E+00  0.17131645224E+03  0.17131645224E+03  0.00000000000E+00 0.  1.
          2   -1    0    0  501    0  0.00000000000E+00 -0.00000000000E+00 -0.22189059288E+04  0.22189059288E+04  0.00000000000E+00 0. -1.
         23    2    1    2    0    0  0.29714315531E+03 -0.78125423135E+02 -0.53068290929E+03  0.61997200185E+03  0.91341646483E+02 0.  0.
        254    2    1    2    0    0 -0.29714315531E+03  0.78125423135E+02 -0.15169065672E+04  0.17702503792E+04  0.85929228712E+03 0.  0.
        -24    2    4    4    0    0 -0.44186663312E+03  0.33749819540E+03 -0.12182610741E+04  0.13414230692E+04  0.78132277244E+02 0.  0.
         24    2    4    4    0    0  0.14472347782E+03 -0.25937277226E+03 -0.29864549318E+03  0.42882730992E+03  0.80527083146E+02 0.  0.
         11    1    3    3    0    0  0.24127542368E+03 -0.88450330345E+02 -0.47694878085E+03  0.54177248967E+03  0.00000000000E+00 0. -1.
        -11    1    3    3    0    0  0.55867731628E+02  0.10324907211E+02 -0.53734128438E+02  0.78199512180E+02  0.00000000000E+00 0.  1.
          2    1    6    6  502    0  0.34250296989E+02 -0.52174228354E+02 -0.11456872994E+03  0.13046542388E+03  0.00000000000E+00 0. -1.
          3    1    5    5  503    0 -0.20438393128E+03  0.11501717616E+03 -0.46187786361E+03  0.51800859362E+03  0.00000000000E+00 0. -1.
         -4    1    5    5    0  503 -0.23748270184E+03  0.22248101923E+03 -0.75638321045E+03  0.82341447561E+03  0.00000000000E+00 0.  1.
         -1    1    6    6    0  502  0.11047318083E+03 -0.20719854391E+03 -0.18407676323E+03  0.29836188604E+03  0.00000000000E+00 0.  1.
<mgrwt>
<rscale>  0 0.12331019E+04</rscale>
<asrwt>0</asrwt>
<pdfrwt beam="1">  1        2 0.34137011E+00 0.12331019E+04</pdfrwt>
<pdfrwt beam="2">  1       -2 0.26356379E-01 0.12331019E+04</pdfrwt>
<totfact> 0.64820172E+01</totfact>
</mgrwt>
</event>
<event>
12    1  0.1506149E-007  0.2775513E+04  0.7818608E-02  0.8310911E-01
         -2   -1    0    0    0  501 -0.00000000000E+00  0.00000000000E+00  0.66778269476E+03  0.66778269476E+03  0.00000000000E+00 0.  1.
          2   -1    0    0  501    0  0.00000000000E+00 -0.00000000000E+00 -0.28839741753E+04  0.28839741753E+04  0.00000000000E+00 0. -1.
         23    2    1    2    0    0 -0.25501204081E+03  0.83600796392E+03 -0.21196501186E+04  0.22944395416E+04  0.87153472062E+02 0.  0.
        254    2    1    2    0    0  0.25501204081E+03 -0.83600796392E+03 -0.96541361878E+02  0.12573173285E+04  0.89865798461E+03 0.  0.
        -24    2    4    4    0    0  0.54492811368E+02  0.14119579277E+03 -0.18549991982E+03  0.25261992612E+03  0.80628087108E+02 0.  0.
         24    2    4    4    0    0  0.20051922944E+03 -0.97720375669E+03  0.88958557946E+02  0.10046974024E+04  0.79800387543E+02 0.  0.
         13    1    3    3    0    0 -0.40519166596E+02  0.11006873743E+03 -0.21559270833E+03  0.24543256856E+03  0.00000000000E+00 0.  1.
        -13    1    3    3    0    0 -0.21449287421E+03  0.72593922648E+03 -0.19040574103E+04  0.20490069730E+04  0.00000000000E+00 0. -1.
          4    1    6    6  502    0  0.78856578311E+02 -0.24647336476E+03  0.44465896481E+02  0.26257321918E+03  0.00000000000E+00 0. -1.
          3    1    5    5  503    0  0.49979279654E+01  0.91538119405E+02 -0.14529470419E+03  0.17179859619E+03  0.00000000000E+00 0. -1.
         -4    1    5    5    0  503  0.49494883402E+02  0.49657673368E+02 -0.40205215639E+02  0.80821329932E+02  0.00000000000E+00 0.  1.
         -3    1    6    6    0  502  0.12166265113E+03 -0.73073039193E+03  0.44492661465E+02  0.74212418320E+03  0.00000000000E+00 0.  1.
<mgrwt>
<rscale>  0 0.27755130E+04</rscale>
<asrwt>0</asrwt>
<pdfrwt beam="1">  1        2 0.44368833E+00 0.27755130E+04</pdfrwt>
<pdfrwt beam="2">  1       -2 0.10273580E+00 0.27755130E+04</pdfrwt>
<totfact> 0.13873549E+00</totfact>
</mgrwt>
</event>
<event>
12    1  0.1506149E-007  0.2360721E+04  0.7818608E-02  0.8454357E-01
          3   -1    0    0  501    0  0.00000000000E+00  0.00000000000E+00  0.86466606078E+03  0.86466606078E+03  0.00000000000E+00 0. -1.
         -3   -1    0    0    0  501 -0.00000000000E+00 -0.00000000000E+00 -0.16113173422E+04  0.16113173422E+04  0.00000000000E+00 0.  1.
         23    2    1    2    0    0 -0.72308180449E+03  0.29771857977E+03 -0.98392384896E+03  0.12591535993E+04  0.76668097949E+02 0.  0.
        254    2    1    2    0    0  0.72308180449E+03 -0.29771857977E+03  0.23727256755E+03  0.12168298037E+04  0.90160570717E+03 0.  0.
        -24    2    4    4    0    0  0.59578672148E+00  0.12800589698E+03 -0.21334598738E+03  0.26150913854E+03  0.80527353048E+02 0.  0.
         24    2    4    4    0    0  0.72248601776E+03 -0.42572447675E+03  0.45061855493E+03  0.95532066518E+03  0.79706432031E+02 0.  0.
         11    1    3    3    0    0 -0.60248516448E+03  0.26125291210E+03 -0.86379080455E+03  0.10850695883E+04  0.00000000000E+00 0.  1.
        -11    1    3    3    0    0 -0.12059664001E+03  0.36465667674E+02 -0.12013304442E+03  0.17408401093E+03  0.00000000000E+00 0. -1.
          4    1    6    6  502    0  0.81334481564E+02 -0.79280995670E+02  0.58550525152E+02  0.12778473368E+03  0.00000000000E+00 0. -1.
          3    1    5    5  503    0  0.55385404523E+01  0.28015246640E+02 -0.12425707183E+03  0.12749646809E+03  0.00000000000E+00 0. -1.
         -2    1    5    5    0  503 -0.49427537308E+01  0.99990650341E+02 -0.89088915545E+02  0.13401267046E+03  0.00000000000E+00 0.  1.
         -3    1    6    6    0  502  0.64115153620E+03 -0.34644348108E+03  0.39206802978E+03  0.82753593150E+03  0.00000000000E+00 0.  1.
<mgrwt>
<rscale>  0 0.23607214E+04</rscale>
<asrwt>0</asrwt>
<pdfrwt beam="1">  1        3 0.13302555E+00 0.23607214E+04</pdfrwt>
<pdfrwt beam="2">  1       -3 0.24789497E+00 0.23607214E+04</pdfrwt>
<totfact> 0.77689578E-02</totfact>
</mgrwt>
</event>
<event>
12    1  0.1506149E-007  0.2674960E+04  0.7818608E-02  0.8343176E-01
          1   -1    0    0  501    0  0.00000000000E+00  0.00000000000E+00  0.36063557495E+04  0.36063557495E+04  0.00000000000E+00 0. -1.
         -1   -1    0    0    0  501 -0.00000000000E+00 -0.00000000000E+00 -0.49602764972E+03  0.49602764972E+03  0.00000000000E+00 0.  1.
         23    2    1    2    0    0  0.57760820180E+03  0.39776314292E+03 -0.80177185312E+02  0.71167631602E+03  0.90598262048E+02 0.  0.
        254    2    1    2    0    0 -0.57760820180E+03 -0.39776314292E+03  0.31905052851E+04  0.33907070832E+04  0.90869345614E+03 0.  0.
        -24    2    4    4    0    0 -0.37609010902E+03 -0.45416662300E+03  0.30877322692E+04  0.31445151043E+04  0.78572152147E+02 0.  0.
         24    2    4    4    0    0 -0.20151809279E+03  0.56403480086E+02  0.10277301583E+03  0.24619197889E+03  0.79103118778E+02 0.  0.
         11    1    3    3    0    0  0.49771738606E+03  0.30313605031E+03 -0.76657647884E+02  0.58778436212E+03  0.00000000000E+00 0.  1.
        -11    1    3    3    0    0  0.79890815747E+02  0.94627092611E+02 -0.35195374279E+01  0.12389195390E+03  0.00000000000E+00 0. -1.
          2    1    6    6  502    0  0.24618024556E+01  0.14664091324E+02  0.11780818731E+02  0.18970601880E+02  0.00000000000E+00 0. -1.
          3    1    5    5  503    0 -0.15073004120E+03 -0.12649906899E+03  0.96727454571E+03  0.98708743612E+03  0.00000000000E+00 0. -1.
         -4    1    5    5    0  503 -0.22536006782E+03 -0.32766755401E+03  0.21204577235E+04  0.21574276682E+04  0.00000000000E+00 0.  1.
         -1    1    6    6    0  502 -0.20397989524E+03  0.41739388762E+02  0.90992197102E+02  0.22722137701E+03  0.00000000000E+00 0.  1.
<mgrwt>
<rscale>  0 0.26749596E+04</rscale>
<asrwt>0</asrwt>
<pdfrwt beam="1">  1        1 0.55482395E+00 0.26749596E+04</pdfrwt>
<pdfrwt beam="2">  1       -1 0.76311948E-01 0.26749596E+04</pdfrwt>
<totfact> 0.31021214E-01</totfact>
</mgrwt>
</event>
<event>
12    1  0.1506149E-007  0.1470615E+04  0.7818608E-02  0.8904232E-01
          2   -1    0    0  501    0  0.00000000000E+00  0.00000000000E+00  0.41339038314E+03  0.41339038314E+03  0.00000000000E+00 0.  1.
         -2   -1    0    0    0  501 -0.00000000000E+00 -0.00000000000E+00 -0.13079084787E+04  0.13079084787E+04  0.00000000000E+00 0. -1.
         23    2    1    2    0    0 -0.48798849116E+02 -0.12409229313E+01 -0.80075961056E+03  0.80915719988E+03  0.10552986616E+03 0.  0.
        254    2    1    2    0    0  0.48798849116E+02  0.12409229313E+01 -0.93758485012E+02  0.91214166197E+03  0.90599607639E+03 0.  0.
        -24    2    4    4    0    0 -0.33838427652E+03 -0.21053211021E+03 -0.19729744836E+03  0.45174225272E+03  0.79480134220E+02 0.  0.
         24    2    4    4    0    0  0.38718312564E+03  0.21177303314E+03  0.10353896335E+03  0.46039940925E+03  0.80552521745E+02 0.  0.
         13    1    3    3    0    0 -0.74770523962E+02 -0.93841231092E+01 -0.37319968186E+03  0.38073178954E+03  0.00000000000E+00 0.  1.
        -13    1    3    3    0    0  0.25971674846E+02  0.81432001778E+01 -0.42755992870E+03  0.42842541035E+03  0.00000000000E+00 0. -1.
          2    1    6    6  502    0  0.34568804806E+03  0.21477955224E+03  0.92525791199E+02  0.41736255782E+03  0.00000000000E+00 0. -1.
          1    1    5    5  503    0 -0.29492847235E+03 -0.20928467861E+03 -0.18673091765E+03  0.40700284534E+03  0.00000000000E+00 0. -1.
         -2    1    5    5    0  503 -0.43455804172E+02 -0.12474315979E+01 -0.10566530710E+02  0.44739407384E+02  0.00000000000E+00 0.  1.
         -1    1    6    6    0  502  0.41495077581E+02 -0.30065190944E+01  0.11013172152E+02  0.43036851434E+02  0.00000000000E+00 0.  1.
<mgrwt>
<rscale>  0 0.14706145E+04</rscale>
<asrwt>0</asrwt>
<pdfrwt beam="1">  1        2 0.63598521E-01 0.14706145E+04</pdfrwt>
<pdfrwt beam="2">  1       -2 0.20121669E+00 0.14706145E+04</pdfrwt>
<totfact> 0.96768165E+00</totfact>
</mgrwt>
</event>
<event>
12    1  0.1506149E-007  0.3004460E+04  0.7818608E-02  0.8242458E-01
         -1   -1    0    0    0  501 -0.00000000000E+00  0.00000000000E+00  0.10181678633E+04  0.10181678633E+04  0.00000000000E+00 0.  1.
          1   -1    0    0  501    0  0.00000000000E+00 -0.00000000000E+00 -0.22164274898E+04  0.22164274898E+04  0.00000000000E+00 0. -1.
         23    2    1    2    0    0  0.12425310869E+04 -0.13335652777E+03  0.34549896600E+02  0.12533031040E+04  0.88924179237E+02 0.  0.
        254    2    1    2    0    0 -0.12425310869E+04  0.13335652777E+03 -0.12328095231E+04  0.19812922492E+04  0.91871224607E+03 0.  0.
        -24    2    4    4    0    0 -0.88684317927E+03  0.50801937785E+03 -0.86541552049E+03  0.13415939157E+04  0.79722636282E+02 0.  0.
         24    2    4    4    0    0 -0.35568790761E+03 -0.37466285008E+03 -0.36739400260E+03  0.63969833345E+03  0.85729025526E+02 0.  0.
         11    1    3    3    0    0  0.84549691613E+03 -0.10536298390E+03  0.62341082715E+02  0.85431423033E+03  0.00000000000E+00 0.  1.
        -11    1    3    3    0    0  0.39703417075E+03 -0.27993543875E+02 -0.27791186115E+02  0.39898887362E+03  0.00000000000E+00 0. -1.
          2    1    6    6  502    0 -0.69712424290E+02 -0.31707629216E+02 -0.64410448376E+02  0.10006948441E+03  0.00000000000E+00 0. -1.
          1    1    5    5  503    0 -0.46329878997E+03  0.28999440603E+03 -0.41836614772E+03  0.68831152676E+03  0.00000000000E+00 0. -1.
         -2    1    5    5    0  503 -0.42354438930E+03  0.21802497183E+03 -0.44704937276E+03  0.65328238897E+03  0.00000000000E+00 0.  1.
         -1    1    6    6    0  502 -0.28597548332E+03 -0.34295522086E+03 -0.30298355422E+03  0.53962884903E+03  0.00000000000E+00 0.  1.
<mgrwt>
<rscale>  0 0.30044602E+04</rscale>
<asrwt>0</asrwt>
<pdfrwt beam="1">  1        1 0.34098884E+00 0.30044602E+04</pdfrwt>
<pdfrwt beam="2">  1       -1 0.15664121E+00 0.30044602E+04</pdfrwt>
<totfact> 0.55979336E-01</totfact>
</mgrwt>
</event>
<event>
12    1  0.1506149E-007  0.1662448E+04  0.7818608E-02  0.8783076E-01
         -2   -1    0    0    0  501 -0.00000000000E+00  0.00000000000E+00  0.48401442181E+03  0.48401442181E+03  0.00000000000E+00 0.  1.
          2   -1    0    0  501    0  0.00000000000E+00 -0.00000000000E+00 -0.14275060669E+04  0.14275060669E+04  0.00000000000E+00 0. -1.
         23    2    1    2    0    0 -0.44508281940E+03  0.28289099840E+03 -0.42719929391E+02  0.53698978092E+03  0.91689690515E+02 0.  0.
        254    2    1    2    0    0  0.44508281940E+03 -0.28289099840E+03 -0.90077171573E+03  0.13745307078E+04  0.89432597514E+03 0.  0.
        -24    2    4    4    0    0 -0.26530272426E+03 -0.32226314163E+02 -0.21004007932E+03  0.34935756086E+03  0.80683329053E+02 0.  0.
         24    2    4    4    0    0  0.71038554365E+03 -0.25066468423E+03 -0.69073163642E+03  0.10251731470E+04  0.79933617263E+02 0.  0.
         13    1    3    3    0    0 -0.16843527707E+03  0.13861956435E+03 -0.54192119223E+02  0.22477235588E+03  0.00000000000E+00 0. -1.
        -13    1    3    3    0    0 -0.27664754233E+03  0.14427143405E+03  0.11472189832E+02  0.31221742504E+03  0.00000000000E+00 0.  1.
          4    1    6    6  502    0  0.23561294306E+01 -0.86095035645E+01 -0.50447555901E+01  0.10253021822E+02  0.00000000000E+00 0. -1.
          3    1    5    5  503    0 -0.55497029165E+02 -0.36512596878E+02 -0.73117795444E+02  0.98789179506E+02  0.00000000000E+00 0. -1.
         -4    1    5    5    0  503 -0.20980569509E+03  0.42862827155E+01 -0.13692228387E+03  0.25056838135E+03  0.00000000000E+00 0.  1.
         -3    1    6    6    0  502  0.70802941422E+03 -0.24205518067E+03 -0.68568688083E+03  0.10149201251E+04  0.00000000000E+00 0.  1.
<mgrwt>
<rscale>  0 0.16624482E+04</rscale>
<asrwt>0</asrwt>
<pdfrwt beam="1">  1        2 0.21961632E+00 0.16624482E+04</pdfrwt>
<pdfrwt beam="2">  1       -2 0.74463758E-01 0.16624482E+04</pdfrwt>
<totfact> 0.21608166E+01</totfact>
</mgrwt>
</event>
<event>
12    1  0.1506149E-007  0.1251370E+04  0.7818608E-02  0.9069043E-01
         -1   -1    0    0    0  501 -0.00000000000E+00  0.00000000000E+00  0.19222278260E+03  0.19222278260E+03  0.00000000000E+00 0.  1.
          1   -1    0    0  501    0  0.00000000000E+00 -0.00000000000E+00 -0.20366057332E+04  0.20366057332E+04  0.00000000000E+00 0. -1.
         23    2    1    2    0    0 -0.22344199178E+03 -0.49972672178E+02 -0.13251666959E+03  0.27970240388E+03  0.90824971043E+02 0.  0.
        254    2    1    2    0    0  0.22344199178E+03  0.49972672178E+02 -0.17118662810E+04  0.19491261120E+04  0.90342838371E+03 0.  0.
        -24    2    4    4    0    0  0.69401846368E+02 -0.36258022301E+03 -0.34698719832E+03  0.51278949724E+03  0.79195443593E+02 0.  0.
         24    2    4    4    0    0  0.15404014541E+03  0.41255289518E+03 -0.13648790827E+04  0.14363366147E+04  0.78991788283E+02 0.  0.
         13    1    3    3    0    0 -0.65733291187E+02 -0.58997674871E+02 -0.45612869429E+02  0.99408878215E+02  0.00000000000E+00 0. -1.
        -13    1    3    3    0    0 -0.15770870059E+03  0.90250026932E+01 -0.86903800162E+02  0.18029352567E+03  0.00000000000E+00 0.  1.
          2    1    6    6  502    0  0.40231072155E+02  0.20568897669E+03 -0.57951365521E+03  0.61624878976E+03  0.00000000000E+00 0. -1.
          1    1    5    5  503    0  0.64213781885E+02 -0.13490940504E+03 -0.14937146561E+03  0.21127184406E+03  0.00000000000E+00 0. -1.
         -2    1    5    5    0  503  0.51880644831E+01 -0.22767081797E+03 -0.19761573271E+03  0.30151765318E+03  0.00000000000E+00 0.  1.
         -1    1    6    6    0  502  0.11380907325E+03  0.20686391850E+03 -0.78536542751E+03  0.82008782497E+03  0.00000000000E+00 0.  1.
<mgrwt>
<rscale>  0 0.12513705E+04</rscale>
<asrwt>0</asrwt>
<pdfrwt beam="1">  1        1 0.31332396E+00 0.12513705E+04</pdfrwt>
<pdfrwt beam="2">  1       -1 0.29572736E-01 0.12513705E+04</pdfrwt>
<totfact> 0.29088807E+01</totfact>
</mgrwt>
</event>
<event>
12    1  0.1506149E-007  0.1701014E+04  0.7818608E-02  0.8760786E-01
          2   -1    0    0  501    0  0.00000000000E+00  0.00000000000E+00  0.31573849974E+04  0.31573849974E+04  0.00000000000E+00 0. -1.
         -2   -1    0    0    0  501 -0.00000000000E+00 -0.00000000000E+00 -0.22910168469E+03  0.22910168469E+03  0.00000000000E+00 0.  1.
         23    2    1    2    0    0  0.19951420846E+03  0.35465300805E+03  0.15262747702E+03  0.44379867275E+03  0.89874577588E+02 0.  0.
        254    2    1    2    0    0 -0.19951420846E+03 -0.35465300805E+03  0.27756558357E+04  0.29426880093E+04  0.88857342224E+03 0.  0.
        -24    2    4    4    0    0  0.73754821094E+02 -0.58478645523E+03  0.14470544257E+04  0.15645547187E+04  0.80311800464E+02 0.  0.
         24    2    4    4    0    0 -0.27326902955E+03  0.23013344719E+03  0.13286014100E+04  0.13781332906E+04  0.80201582953E+02 0.  0.
         11    1    3    3    0    0  0.63967780600E+02  0.17935565649E+03  0.37472453737E+02  0.19407347387E+03  0.00000000000E+00 0. -1.
        -11    1    3    3    0    0  0.13554642786E+03  0.17529735156E+03  0.11515502329E+03  0.24972519888E+03  0.00000000000E+00 0.  1.
          4    1    6    6  502    0 -0.20784784182E+03  0.21492094273E+03  0.10874075120E+04  0.11277618694E+04  0.00000000000E+00 0. -1.
          3    1    5    5  503    0  0.82461319460E+02 -0.56861082588E+03  0.14201810128E+04  0.15320026924E+04  0.00000000000E+00 0. -1.
         -4    1    5    5    0  503 -0.87064983660E+01 -0.16175629357E+02  0.26873412888E+02  0.32552026345E+02  0.00000000000E+00 0.  1.
         -3    1    6    6    0  502 -0.65421187730E+02  0.15212504454E+02  0.24119389806E+03  0.25037142121E+03  0.00000000000E+00 0.  1.
<mgrwt>
<rscale>  0 0.17010141E+04</rscale>
<asrwt>0</asrwt>
<pdfrwt beam="1">  1        2 0.48575151E+00 0.17010141E+04</pdfrwt>
<pdfrwt beam="2">  1       -2 0.35246415E-01 0.17010141E+04</pdfrwt>
<totfact> 0.10002391E+01</totfact>
</mgrwt>
</event>
<event>
12    1  0.1506149E-007  0.1093732E+04  0.7818608E-02  0.9211323E-01
         -2   -1    0    0    0  501 -0.00000000000E+00  0.00000000000E+00  0.15963971015E+03  0.15963971015E+03  0.00000000000E+00 0.  1.
          2   -1    0    0  501    0  0.00000000000E+00 -0.00000000000E+00 -0.18733573791E+04  0.18733573791E+04  0.00000000000E+00 0. -1.
         23    2    1    2    0    0  0.53680533416E+02  0.79120450242E+02 -0.16510076093E+02  0.13229161437E+03  0.89926877555E+02 0.  0.
        254    2    1    2    0    0 -0.53680533416E+02 -0.79120450242E+02 -0.16972075928E+04  0.19007054748E+04  0.85030938113E+03 0.  0.
        -24    2    4    4    0    0  0.33970039915E+03  0.82295320829E+02 -0.42032954839E+03  0.55247224711E+03  0.79873484750E+02 0.  0.
         24    2    4    4    0    0 -0.39338093256E+03 -0.16141577107E+03 -0.12768780444E+04  0.13482332277E+04  0.80695023082E+02 0.  0.
         11    1    3    3    0    0 -0.17641639660E+02  0.36638201424E+02  0.15219210475E+02  0.43419000690E+02  0.00000000000E+00 0. -1.
        -11    1    3    3    0    0  0.71322173075E+02  0.42482248818E+02 -0.31729286568E+02  0.88872613684E+02  0.00000000000E+00 0.  1.
          4    1    6    6  502    0 -0.12929330317E+03 -0.19636822305E+02 -0.45418954728E+03  0.47264205049E+03  0.00000000000E+00 0. -1.
          1    1    5    5  503    0  0.37574431983E+02  0.32386340409E+02 -0.84558916609E+02  0.98035316912E+02  0.00000000000E+00 0. -1.
         -4    1    5    5    0  503  0.30212596716E+03  0.49908980421E+02 -0.33577063178E+03  0.45443693020E+03  0.00000000000E+00 0.  1.
         -3    1    6    6    0  502 -0.26408762940E+03 -0.14177894877E+03 -0.82268849713E+03  0.87559117722E+03  0.00000000000E+00 0.  1.
<mgrwt>
<rscale>  0 0.10937316E+04</rscale>
<asrwt>0</asrwt>
<pdfrwt beam="1">  1        2 0.28820886E+00 0.10937316E+04</pdfrwt>
<pdfrwt beam="2">  1       -2 0.24559953E-01 0.10937316E+04</pdfrwt>
<totfact> 0.11574191E+02</totfact>
</mgrwt>
</event>
<event>
12    1  0.1506149E-007  0.1355089E+04  0.7818608E-02  0.8986984E-01
          1   -1    0    0  501    0  0.00000000000E+00  0.00000000000E+00  0.93903035071E+03  0.93903035071E+03  0.00000000000E+00 0. -1.
         -1   -1    0    0    0  501 -0.00000000000E+00 -0.00000000000E+00 -0.48887327489E+03  0.48887327489E+03  0.00000000000E+00 0.  1.
         23    2    1    2    0    0  0.20370503484E+03 -0.17723984750E+03 -0.14589002465E+03  0.32002334287E+03  0.90671582784E+02 0.  0.
        254    2    1    2    0    0 -0.20370503484E+03  0.17723984750E+03  0.59604710047E+03  0.11078802827E+04  0.89398930091E+03 0.  0.
        -24    2    4    4    0    0 -0.98389666683E+02  0.52867161718E+03  0.44151242912E+03  0.70044216257E+03  0.80695679644E+02 0.  0.
         24    2    4    4    0    0 -0.10531536816E+03 -0.35143176968E+03  0.15453467135E+03  0.40743812017E+03  0.86771202658E+02 0.  0.
         13    1    3    3    0    0  0.12164311819E+03 -0.14035175930E+03 -0.58826117019E+02  0.19482344978E+03  0.00000000000E+00 0.  1.
        -13    1    3    3    0    0  0.82061916652E+02 -0.36888088201E+02 -0.87063907635E+02  0.12519989308E+03  0.00000000000E+00 0. -1.
          4    1    6    6  502    0 -0.84845257944E+02 -0.27755429965E+03  0.15846686319E+03  0.33067635806E+03  0.00000000000E+00 0. -1.
          1    1    5    5  503    0 -0.95501905308E+02  0.36929510040E+03  0.27730811375E+03  0.47159227628E+03  0.00000000000E+00 0. -1.
         -2    1    5    5    0  503 -0.28877613744E+01  0.15937651678E+03  0.16420431538E+03  0.22884988629E+03  0.00000000000E+00 0.  1.
         -3    1    6    6    0  502 -0.20470110212E+02 -0.73877470022E+02 -0.39321918431E+01  0.76761762106E+02  0.00000000000E+00 0.  1.
<mgrwt>
<rscale>  0 0.13550894E+04</rscale>
<asrwt>0</asrwt>
<pdfrwt beam="1">  1        1 0.14446621E+00 0.13550894E+04</pdfrwt>
<pdfrwt beam="2">  1       -1 0.75211273E-01 0.13550894E+04</pdfrwt>
<totfact> 0.29423094E+01</totfact>
</mgrwt>
</event>
<event>
12    1  0.1506149E-007  0.2635620E+04  0.7818608E-02  0.8356202E-01
         -2   -1    0    0    0  501 -0.00000000000E+00  0.00000000000E+00  0.96080211290E+03  0.96080211290E+03  0.00000000000E+00 0. -1.
          2   -1    0    0  501    0  0.00000000000E+00 -0.00000000000E+00 -0.18074724282E+04  0.18074724282E+04  0.00000000000E+00 0.  1.
         23    2    1    2    0    0  0.18984960112E+03 -0.11267379622E+04 -0.15022719826E+03  0.11561258688E+04  0.92073377285E+02 0.  0.
        254    2    1    2    0    0 -0.18984960112E+03  0.11267379622E+04 -0.69644311701E+03  0.16121486723E+04  0.89911568757E+03 0.  0.
        -24    2    4    4    0    0  0.11162917758E+03  0.87053595341E+03 -0.80494801579E+03  0.11940771913E+04  0.87092544325E+02 0.  0.
         24    2    4    4    0    0 -0.30147877871E+03  0.25620200884E+03  0.10850489879E+03  0.41807148093E+03  0.80507929804E+02 0.  0.
         11    1    3    3    0    0  0.11427156048E+03 -0.73945838671E+03 -0.14117072248E+03  0.76143671313E+03  0.00000000000E+00 0.  1.
        -11    1    3    3    0    0  0.75578040648E+02 -0.38727957554E+03 -0.90564757758E+01  0.39468915568E+03  0.00000000000E+00 0. -1.
          2    1    6    6  502    0 -0.61586296599E+02  0.90058966243E+02  0.51923429968E+02  0.12082852275E+03  0.00000000000E+00 0. -1.
          1    1    5    5  503    0  0.47411420884E+02  0.31896975408E+03 -0.35292676462E+03  0.47806573610E+03  0.00000000000E+00 0. -1.
         -2    1    5    5    0  503  0.64217756699E+02  0.55156619933E+03 -0.45202125117E+03  0.71601145523E+03  0.00000000000E+00 0.  1.
         -1    1    6    6    0  502 -0.23989248211E+03  0.16614304260E+03  0.56581468818E+02  0.29724295818E+03  0.00000000000E+00 0.  1.
<mgrwt>
<rscale>  0 0.26356201E+04</rscale>
<asrwt>0</asrwt>
<pdfrwt beam="1">  1        2 0.27807268E+00 0.26356201E+04</pdfrwt>
<pdfrwt beam="2">  1       -2 0.14781571E+00 0.26356201E+04</pdfrwt>
<totfact> 0.23482728E+00</totfact>
</mgrwt>
</event>
<event>
12    1  0.1506149E-007  0.2540203E+04  0.7818608E-02  0.8388801E-01
         -2   -1    0    0    0  501 -0.00000000000E+00  0.00000000000E+00  0.71114028318E+03  0.71114028318E+03  0.00000000000E+00 0.  1.
          2   -1    0    0  501    0  0.00000000000E+00 -0.00000000000E+00 -0.22684096337E+04  0.22684096337E+04  0.00000000000E+00 0. -1.
         23    2    1    2    0    0 -0.68467253776E+03  0.83611448918E+03 -0.97327797785E+03  0.14570567999E+04  0.88772592136E+02 0.  0.
        254    2    1    2    0    0  0.68467253776E+03 -0.83611448918E+03 -0.58399137268E+03  0.15224931169E+04  0.89948621156E+03 0.  0.
        -24    2    4    4    0    0  0.35700498144E+03 -0.95831431545E+03 -0.31128964069E+03  0.10720130122E+04  0.80571545557E+02 0.  0.
         24    2    4    4    0    0  0.32766755632E+03  0.12219982626E+03 -0.27270173198E+03  0.45048010475E+03  0.79166060521E+02 0.  0.
         13    1    3    3    0    0 -0.10792402577E+03  0.13510161474E+03 -0.11417126853E+03  0.20720791539E+03  0.00000000000E+00 0.  1.
        -13    1    3    3    0    0 -0.57674851199E+03  0.70101287444E+03 -0.85910670933E+03  0.12498488846E+04  0.00000000000E+00 0. -1.
          2    1    6    6  502    0  0.21871390859E+03  0.11320848358E+03 -0.21469653486E+03  0.32672088492E+03  0.00000000000E+00 0. -1.
          1    1    5    5  503    0  0.35046965758E+03 -0.89592844650E+03 -0.28025151795E+03  0.10020267838E+04  0.00000000000E+00 0. -1.
         -2    1    5    5    0  503  0.65353238559E+01 -0.62385868942E+02 -0.31038122741E+02  0.69986228395E+02  0.00000000000E+00 0.  1.
         -1    1    6    6    0  502  0.10895364773E+03  0.89913426864E+01 -0.58005197128E+02  0.12375921982E+03  0.00000000000E+00 0.  1.
<mgrwt>
<rscale>  0 0.25402027E+04</rscale>
<asrwt>0</asrwt>
<pdfrwt beam="1">  1        2 0.34898610E+00 0.25402027E+04</pdfrwt>
<pdfrwt beam="2">  1       -2 0.10940620E+00 0.25402027E+04</pdfrwt>
<totfact> 0.27953220E+00</totfact>
</mgrwt>
</event>
<event>
12    1  0.1506149E-007  0.2349765E+04  0.7818608E-02  0.8458554E-01
          2   -1    0    0  501    0  0.00000000000E+00  0.00000000000E+00  0.28921096865E+04  0.28921096865E+04  0.00000000000E+00 0.  1.
         -2   -1    0    0    0  501 -0.00000000000E+00 -0.00000000000E+00 -0.47728101993E+03  0.47728101993E+03  0.00000000000E+00 0. -1.
         23    2    1    2    0    0 -0.40940234231E+03  0.66641396768E+03  0.19098366169E+04  0.20657752399E+04  0.90739101584E+02 0.  0.
        254    2    1    2    0    0  0.40940234231E+03 -0.66641396768E+03  0.50499204971E+03  0.13036154665E+04  0.91251216982E+03 0.  0.
        -24    2    4    4    0    0  0.17419922338E+03 -0.73603149740E+03  0.65524327142E+03  0.10040073197E+04  0.81235574835E+02 0.  0.
         24    2    4    4    0    0  0.23520311893E+03  0.69617529714E+02 -0.15025122171E+03  0.29960814685E+03  0.83800384459E+02 0.  0.
         11    1    3    3    0    0 -0.10618516594E+02  0.18222184790E+02  0.10414685386E+03  0.10626084925E+03  0.00000000000E+00 0. -1.
        -11    1    3    3    0    0 -0.39878382572E+03  0.64819178289E+03  0.18056897630E+04  0.19595143907E+04  0.00000000000E+00 0.  1.
          2    1    6    6  502    0  0.11690819258E+03  0.74539272646E+02 -0.61692854318E+02  0.15175518750E+03  0.00000000000E+00 0. -1.
          1    1    5    5  503    0  0.12665035133E+03 -0.45053414955E+03  0.44951342459E+03  0.64890958560E+03  0.00000000000E+00 0. -1.
         -2    1    5    5    0  503  0.47548872056E+02 -0.28549734784E+03  0.20572984683E+03  0.35509773406E+03  0.00000000000E+00 0.  1.
         -1    1    6    6    0  502  0.11829492635E+03 -0.49217429323E+01 -0.88558367392E+02  0.14785295935E+03  0.00000000000E+00 0.  1.
<mgrwt>
<rscale>  0 0.23497651E+04</rscale>
<asrwt>0</asrwt>
<pdfrwt beam="1">  1        2 0.44493994E+00 0.23497651E+04</pdfrwt>
<pdfrwt beam="2">  1       -2 0.73427851E-01 0.23497651E+04</pdfrwt>
<totfact> 0.30712126E+00</totfact>
</mgrwt>
</event>
<event>
12    1  0.1506149E-007  0.1662991E+04  0.7818608E-02  0.8782758E-01
         -1   -1    0    0    0  501 -0.00000000000E+00  0.00000000000E+00  0.26513751796E+03  0.26513751796E+03  0.00000000000E+00 0.  1.
          1   -1    0    0  501    0  0.00000000000E+00 -0.00000000000E+00 -0.26076458741E+04  0.26076458741E+04  0.00000000000E+00 0. -1.
         23    2    1    2    0    0  0.23806286610E+03 -0.28923303969E+03 -0.58714152886E+02  0.38994928900E+03  0.91013278016E+02 0.  0.
        254    2    1    2    0    0 -0.23806286610E+03  0.28923303969E+03 -0.22837942032E+04  0.24828341030E+04  0.89912153855E+03 0.  0.
        -24    2    4    4    0    0 -0.45566416816E+02 -0.79882805059E+01 -0.20472856618E+04  0.20494519952E+04  0.82065758551E+02 0.  0.
         24    2    4    4    0    0 -0.19249644929E+03  0.29722132020E+03 -0.23650854141E+03  0.43338210781E+03  0.80550388221E+02 0.  0.
         11    1    3    3    0    0  0.25177255969E+02 -0.48349791744E+02 -0.40592390333E+02  0.67965717334E+02  0.00000000000E+00 0. -1.
        -11    1    3    3    0    0  0.21288561013E+03 -0.24088324795E+03 -0.18121762553E+02  0.32198357166E+03  0.00000000000E+00 0.  1.
          2    1    6    6  502    0 -0.10178886413E+03  0.13608955784E+03 -0.15952782359E+03  0.23308896823E+03  0.00000000000E+00 0. -1.
          3    1    5    5  503    0  0.15041620045E+02 -0.26458227628E+02 -0.57777093662E+03  0.57857198631E+03  0.00000000000E+00 0. -1.
         -4    1    5    5    0  503 -0.60608036860E+02  0.18469947122E+02 -0.14695147252E+04  0.14708800089E+04  0.00000000000E+00 0.  1.
         -1    1    6    6    0  502 -0.90707585159E+02  0.16113176235E+03 -0.76980717824E+02  0.20029313958E+03  0.00000000000E+00 0.  1.
<mgrwt>
<rscale>  0 0.16629910E+04</rscale>
<asrwt>0</asrwt>
<pdfrwt beam="1">  1        1 0.40117629E+00 0.16629910E+04</pdfrwt>
<pdfrwt beam="2">  1       -1 0.40790387E-01 0.16629910E+04</pdfrwt>
<totfact> 0.64063568E+00</totfact>
</mgrwt>
</event>
<event>
12    1  0.1506149E-007  0.1359271E+04  0.7818608E-02  0.8983839E-01
         -1   -1    0    0    0  501 -0.00000000000E+00  0.00000000000E+00  0.31732197357E+03  0.31732197357E+03  0.00000000000E+00 0.  1.
          1   -1    0    0  501    0  0.00000000000E+00 -0.00000000000E+00 -0.14556338086E+04  0.14556338086E+04  0.00000000000E+00 0. -1.
         23    2    1    2    0    0  0.29613512747E+03 -0.87294134571E+02 -0.61415245787E+03  0.69381613587E+03  0.94240698392E+02 0.  0.
        254    2    1    2    0    0 -0.29613512747E+03  0.87294134571E+02 -0.52415937713E+03  0.10791396463E+04  0.89133778327E+03 0.  0.
        -24    2    4    4    0    0 -0.37576733208E+03  0.42363301867E+03 -0.41878846041E+03  0.70898730196E+03  0.81321567914E+02 0.  0.
         24    2    4    4    0    0  0.79632204611E+02 -0.33633888410E+03 -0.10537091671E+03  0.37015234432E+03  0.80278234579E+02 0.  0.
         11    1    3    3    0    0  0.17001539441E+03 -0.97974586541E+02 -0.37383120803E+03  0.42220140459E+03  0.00000000000E+00 0. -1.
        -11    1    3    3    0    0  0.12611973305E+03  0.10680451970E+02 -0.24032124985E+03  0.27161473128E+03  0.00000000000E+00 0.  1.
          4    1    6    6  502    0 -0.10902978479E+02 -0.21228252373E+02  0.46747208704E+01  0.24318031453E+02  0.00000000000E+00 0. -1.
          1    1    5    5  503    0 -0.27404751226E+03  0.26644060289E+03 -0.31234953511E+03  0.49361408603E+03  0.00000000000E+00 0. -1.
         -4    1    5    5    0  503 -0.10171981981E+03  0.15719241578E+03 -0.10643892531E+03  0.21537321593E+03  0.00000000000E+00 0.  1.
         -3    1    6    6    0  502  0.90535183090E+02 -0.31511063172E+03 -0.11004563758E+03  0.34583431286E+03  0.00000000000E+00 0.  1.
<mgrwt>
<rscale>  0 0.13592713E+04</rscale>
<asrwt>0</asrwt>
<pdfrwt beam="1">  1        1 0.22394366E+00 0.13592713E+04</pdfrwt>
<pdfrwt beam="2">  1       -1 0.48818765E-01 0.13592713E+04</pdfrwt>
<totfact> 0.28855008E+01</totfact>
</mgrwt>
</event>
<event>
12    1  0.1971554E-007  0.1991996E+04  0.7818608E-02  0.8610372E-01
          1   -1    0    0  501    0  0.00000000000E+00  0.00000000000E+00  0.11429304341E+04  0.11429304341E+04  0.00000000000E+00 0. -1.
         -1   -1    0    0    0  501 -0.00000000000E+00 -0.00000000000E+00 -0.86795521641E+03  0.86795521641E+03  0.00000000000E+00 0.  1.
         23    2    1    2    0    0 -0.13313531886E+03 -0.62026952921E+03 -0.38602805180E+03  0.74819823980E+03  0.91234024734E+02 0.  0.
        254    2    1    2    0    0  0.13313531886E+03  0.62026952921E+03  0.66100326953E+03  0.12626874108E+04  0.86890440956E+03 0.  0.
        -24    2    4    4    0    0  0.46330425760E+03  0.29806455768E+03  0.16510714341E+03  0.58063810750E+03  0.79918254585E+02 0.  0.
         24    2    4    4    0    0 -0.33016893874E+03  0.32220497153E+03  0.49589612612E+03  0.68204930326E+03  0.80316327031E+02 0.  0.
         11    1    3    3    0    0 -0.71801443285E+01 -0.11584040079E+03 -0.10834328419E+03  0.15877285712E+03  0.00000000000E+00 0. -1.
        -11    1    3    3    0    0 -0.12595517453E+03 -0.50442912842E+03 -0.27768476761E+03  0.58942538268E+03  0.00000000000E+00 0.  1.
          2    1    6    6  502    0 -0.28558786726E+02  0.45451798082E+02  0.28612790911E+02  0.60828957347E+02  0.00000000000E+00 0. -1.
          3    1    5    5  503    0  0.57154963204E+02  0.61211921794E+02  0.46298040383E+02  0.95692725595E+02  0.00000000000E+00 0. -1.
         -4    1    5    5    0  503  0.40614929440E+03  0.23685263588E+03  0.11880910303E+03  0.48494538190E+03  0.00000000000E+00 0.  1.
         -1    1    6    6    0  502 -0.30161015201E+03  0.27675317345E+03  0.46728333521E+03  0.62122034591E+03  0.00000000000E+00 0.  1.
<mgrwt>
<rscale>  0 0.19919964E+04</rscale>
<asrwt>0</asrwt>
<pdfrwt beam="1">  1        1 0.17583545E+00 0.19919964E+04</pdfrwt>
<pdfrwt beam="2">  1       -1 0.13353157E+00 0.19919964E+04</pdfrwt>
<totfact> 0.51782044E+00</totfact>
</mgrwt>
</event>
<event>
12    1  0.1506149E-007  0.3712767E+04  0.7818608E-02  0.8065138E-01
         -2   -1    0    0    0  501 -0.00000000000E+00  0.00000000000E+00  0.14470749377E+04  0.14470749377E+04  0.00000000000E+00 0.  1.
          2   -1    0    0  501    0  0.00000000000E+00 -0.00000000000E+00 -0.23814660128E+04  0.23814660128E+04  0.00000000000E+00 0. -1.
         23    2    1    2    0    0 -0.44764078057E+03 -0.11027274614E+04 -0.17565800797E+04  0.21237177072E+04  0.90626711448E+02 0.  0.
        254    2    1    2    0    0  0.44764078057E+03  0.11027274614E+04  0.82218900464E+03  0.17048232433E+04  0.90224021692E+03 0.  0.
        -24    2    4    4    0    0  0.19764522250E+03  0.11931989179E+04  0.62442882322E+03  0.13637805170E+04  0.84844866665E+02 0.  0.
         24    2    4    4    0    0  0.24999555807E+03 -0.90471456519E+02  0.19776018141E+03  0.34104272637E+03  0.80735298080E+02 0.  0.
         13    1    3    3    0    0 -0.41361878649E+03 -0.93484474590E+03 -0.15078434268E+04  0.18217044215E+04  0.00000000000E+00 0. -1.
        -13    1    3    3    0    0 -0.34021994076E+02 -0.16788271553E+03 -0.24873665286E+03  0.30201328568E+03  0.00000000000E+00 0.  1.
          4    1    6    6  502    0  0.16164483488E+03 -0.94487350264E+02  0.15366090457E+03  0.24221598955E+03  0.00000000000E+00 0. -1.
          3    1    5    5  503    0  0.10397322469E+03  0.42623167797E+03  0.19923317655E+03  0.48184824727E+03  0.00000000000E+00 0. -1.
         -4    1    5    5    0  503  0.93671997809E+02  0.76696723998E+03  0.42519564668E+03  0.88193226969E+03  0.00000000000E+00 0.  1.
         -3    1    6    6    0  502  0.88350723192E+02  0.40158937442E+01  0.44099276847E+02  0.98826736815E+02  0.00000000000E+00 0.  1.
<mgrwt>
<rscale>  0 0.37127670E+04</rscale>
<asrwt>0</asrwt>
<pdfrwt beam="1">  1        2 0.36637938E+00 0.37127670E+04</pdfrwt>
<pdfrwt beam="2">  1       -2 0.22262691E+00 0.37127670E+04</pdfrwt>
<totfact> 0.31295111E-01</totfact>
</mgrwt>
</event>
<event>
12    1  0.1556686E-007  0.1625901E+04  0.7818608E-02  0.8804792E-01
         -2   -1    0    0    0  501 -0.00000000000E+00  0.00000000000E+00  0.23911977823E+03  0.23911977823E+03  0.00000000000E+00 0.  1.
          2   -1    0    0  501    0  0.00000000000E+00 -0.00000000000E+00 -0.27638393039E+04  0.27638393039E+04  0.00000000000E+00 0. -1.
         23    2    1    2    0    0 -0.89306361403E+02  0.38787868123E+03 -0.15913681654E+03  0.44069101329E+03  0.10226702927E+03 0.  0.
        254    2    1    2    0    0  0.89306361403E+02 -0.38787868123E+03 -0.23655827091E+04  0.25622680688E+04  0.90045022367E+03 0.  0.
        -24    2    4    4    0    0  0.25488522804E+03 -0.62540322537E+03 -0.15522919593E+04  0.16947620581E+04  0.80699644773E+02 0.  0.
         24    2    4    4    0    0 -0.16557886664E+03  0.23752454414E+03 -0.81329074981E+03  0.86750601078E+03  0.85384804712E+02 0.  0.
         13    1    3    3    0    0 -0.10605498179E+03  0.34759055229E+03 -0.12183783673E+03  0.38329011162E+03  0.00000000000E+00 0.  1.
        -13    1    3    3    0    0  0.16748620386E+02  0.40288128938E+02 -0.37298979802E+02  0.57400901670E+02  0.00000000000E+00 0. -1.
          4    1    6    6  502    0 -0.24041920012E+02  0.39042619699E+02 -0.58518564577E+02  0.74342198454E+02  0.00000000000E+00 0. -1.
          3    1    5    5  503    0  0.81400718694E+02 -0.20761106828E+03 -0.61058917641E+03  0.65003659515E+03  0.00000000000E+00 0. -1.
         -4    1    5    5    0  503  0.17348450935E+03 -0.41779215709E+03 -0.94170278292E+03  0.10447254629E+04  0.00000000000E+00 0.  1.
         -3    1    6    6    0  502 -0.14153694663E+03  0.19848192444E+03 -0.75477218523E+03  0.79316381233E+03  0.00000000000E+00 0.  1.
<mgrwt>
<rscale>  0 0.16259012E+04</rscale>
<asrwt>0</asrwt>
<pdfrwt beam="1">  1        2 0.42520603E+00 0.16259012E+04</pdfrwt>
<pdfrwt beam="2">  1       -2 0.36787660E-01 0.16259012E+04</pdfrwt>
<totfact> 0.16258885E+01</totfact>
</mgrwt>
</event>
<event>
12    1  0.1506149E-007  0.1785312E+04  0.7818608E-02  0.8714150E-01
          2   -1    0    0  501    0  0.00000000000E+00  0.00000000000E+00  0.13847475642E+04  0.13847475642E+04  0.00000000000E+00 0. -1.
         -2   -1    0    0    0  501 -0.00000000000E+00 -0.00000000000E+00 -0.57543684024E+03  0.57543684024E+03  0.00000000000E+00 0.  1.
         23    2    1    2    0    0 -0.15434529601E+03  0.30239417260E+03  0.92836792848E+03  0.99265452123E+03  0.90726412161E+02 0.  0.
        254    2    1    2    0    0  0.15434529601E+03 -0.30239417260E+03 -0.11905720456E+03  0.96752988317E+03  0.89815073949E+03 0.  0.
        -24    2    4    4    0    0  0.12141564063E+03 -0.49305779987E+03  0.22794274409E+03  0.56247834324E+03  0.81094020909E+02 0.  0.
         24    2    4    4    0    0  0.32929655379E+02  0.19066362727E+03 -0.34699994864E+03  0.40505153993E+03  0.78872077931E+02 0.  0.
         13    1    3    3    0    0 -0.84105116387E+02  0.24233877142E+03  0.73153984760E+03  0.77521113212E+03  0.00000000000E+00 0.  1.
        -13    1    3    3    0    0 -0.70240179624E+02  0.60055401180E+02  0.19682808088E+03  0.21744338911E+03  0.00000000000E+00 0. -1.
          2    1    6    6  502    0  0.44202885465E+02  0.49677309839E+02 -0.92988988914E+02  0.11431833735E+03  0.00000000000E+00 0. -1.
          3    1    5    5  503    0  0.39668127640E+02 -0.20387448165E+03  0.51477125688E+02  0.21398191299E+03  0.00000000000E+00 0. -1.
         -4    1    5    5    0  503  0.81747512992E+02 -0.28918331821E+03  0.17646561840E+03  0.34849643024E+03  0.00000000000E+00 0.  1.
         -1    1    6    6    0  502 -0.11273230086E+02  0.14098631743E+03 -0.25401095973E+03  0.29073320258E+03  0.00000000000E+00 0.  1.
<mgrwt>
<rscale>  0 0.17853120E+04</rscale>
<asrwt>0</asrwt>
<pdfrwt beam="1">  1        2 0.21303809E+00 0.17853120E+04</pdfrwt>
<pdfrwt beam="2">  1       -2 0.88528745E-01 0.17853120E+04</pdfrwt>
<totfact> 0.15320914E+01</totfact>
</mgrwt>
</event>
<event>
12    1  0.1506149E-007  0.4052719E+04  0.7818608E-02  0.7993995E-01
          2   -1    0    0  501    0  0.00000000000E+00  0.00000000000E+00  0.30912267569E+04  0.30912267569E+04  0.00000000000E+00 0.  1.
         -2   -1    0    0    0  501 -0.00000000000E+00 -0.00000000000E+00 -0.13283183099E+04  0.13283183099E+04  0.00000000000E+00 0. -1.
         23    2    1    2    0    0 -0.36277414958E+03 -0.16454202808E+04 -0.18046326105E+03  0.16974971841E+04  0.99582716649E+02 0.  0.
        254    2    1    2    0    0  0.36277414958E+03  0.16454202808E+04  0.19433717081E+04  0.27220478826E+04  0.89097592301E+03 0.  0.
        -24    2    4    4    0    0  0.53847549003E+03  0.73144006473E+03  0.62245510762E+03  0.11042374381E+04  0.83243841277E+02 0.  0.
         24    2    4    4    0    0 -0.17570134045E+03  0.91398021608E+03  0.13209166005E+04  0.16178104445E+04  0.79114932165E+02 0.  0.
         13    1    3    3    0    0 -0.12062283697E+03 -0.37093450456E+03 -0.59799796037E+02  0.39461156987E+03  0.00000000000E+00 0.  1.
        -13    1    3    3    0    0 -0.24215131261E+03 -0.12744857763E+04 -0.12066346501E+03  0.13028856143E+04  0.00000000000E+00 0. -1.
          4    1    6    6  502    0 -0.44644974209E+02  0.10396241249E+03  0.17548082884E+03  0.20879386539E+03  0.00000000000E+00 0. -1.
          3    1    5    5  503    0  0.34527720623E+03  0.46663861333E+03  0.44548504489E+03  0.73172731930E+03  0.00000000000E+00 0. -1.
         -4    1    5    5    0  503  0.19319828380E+03  0.26480145140E+03  0.17697006274E+03  0.37251011884E+03  0.00000000000E+00 0.  1.
         -3    1    6    6    0  502 -0.13105636624E+03  0.81001780360E+03  0.11454357716E+04  0.14090165791E+04  0.00000000000E+00 0.  1.
<mgrwt>
<rscale>  0 0.40527191E+04</rscale>
<asrwt>0</asrwt>
<pdfrwt beam="1">  1        2 0.47557335E+00 0.40527191E+04</pdfrwt>
<pdfrwt beam="2">  1       -2 0.20435666E+00 0.40527191E+04</pdfrwt>
<totfact> 0.14903652E-01</totfact>
</mgrwt>
</event>
<event>
12    1  0.1506149E-007  0.2967975E+04  0.7818608E-02  0.8252935E-01
         -1   -1    0    0    0  501 -0.00000000000E+00  0.00000000000E+00  0.68599946355E+03  0.68599946355E+03  0.00000000000E+00 0.  1.
          1   -1    0    0  501    0  0.00000000000E+00 -0.00000000000E+00 -0.32102333634E+04  0.32102333634E+04  0.00000000000E+00 0. -1.
         23    2    1    2    0    0 -0.95993665037E+03 -0.22412640166E+03  0.44365280440E+02  0.99099350433E+03  0.91590561083E+02 0.  0.
        254    2    1    2    0    0  0.95993665037E+03  0.22412640166E+03 -0.25685991803E+04  0.29052393226E+04  0.93327528420E+03 0.  0.
        -24    2    4    4    0    0  0.60484003973E+03 -0.11141342128E+03 -0.55685845753E+03  0.83341357236E+03  0.79008966386E+02 0.  0.
         24    2    4    4    0    0  0.35509661064E+03  0.33553982293E+03 -0.20117407228E+04  0.20718257503E+04  0.81735109859E+02 0.  0.
         13    1    3    3    0    0 -0.16502321431E+03 -0.63904757660E+02 -0.16975907625E+02  0.17777699725E+03  0.00000000000E+00 0. -1.
        -13    1    3    3    0    0 -0.79491343606E+03 -0.16022164400E+03  0.61341188065E+02  0.81321650708E+03  0.00000000000E+00 0.  1.
          4    1    6    6  502    0  0.54958788188E+02  0.31501791713E+02 -0.37133878101E+03  0.37670322744E+03  0.00000000000E+00 0. -1.
          1    1    5    5  503    0  0.54659135466E+03 -0.75879915876E+02 -0.49665931529E+03  0.74242194613E+03  0.00000000000E+00 0. -1.
         -2    1    5    5    0  503  0.58248685071E+02 -0.35533505403E+02 -0.60199142231E+02  0.90991626230E+02  0.00000000000E+00 0.  1.
         -3    1    6    6    0  502  0.30013782245E+03  0.30403803122E+03 -0.16404019417E+04  0.16951225228E+04  0.00000000000E+00 0.  1.
<mgrwt>
<rscale>  0 0.29679746E+04</rscale>
<asrwt>0</asrwt>
<pdfrwt beam="1">  1        1 0.49388206E+00 0.29679746E+04</pdfrwt>
<pdfrwt beam="2">  1       -1 0.10553838E+00 0.29679746E+04</pdfrwt>
<totfact> 0.29957410E-01</totfact>
</mgrwt>
</event>
<event>
12    1  0.1506149E-007  0.2549178E+04  0.7818608E-02  0.8385672E-01
         -2   -1    0    0    0  501 -0.00000000000E+00  0.00000000000E+00  0.64614460478E+03  0.64614460478E+03  0.00000000000E+00 0.  1.
          2   -1    0    0  501    0  0.00000000000E+00 -0.00000000000E+00 -0.25142630898E+04  0.25142630898E+04  0.00000000000E+00 0. -1.
         23    2    1    2    0    0 -0.46145103146E+03 -0.53009850055E+03 -0.18926962222E+04  0.20210007355E+04  0.90573223256E+02 0.  0.
        254    2    1    2    0    0  0.46145103146E+03  0.53009850055E+03  0.24577737189E+02  0.11394069590E+04  0.89649466168E+03 0.  0.
        -24    2    4    4    0    0  0.53879449084E+03  0.70397003561E+03  0.14222717120E+03  0.90148959680E+03  0.81127125667E+02 0.  0.
         24    2    4    4    0    0 -0.77343459377E+02 -0.17387153505E+03 -0.11764943402E+03  0.23791736224E+03  0.80931826376E+02 0.  0.
         13    1    3    3    0    0 -0.33556711576E+03 -0.36586185871E+03 -0.14421214754E+04  0.15251801659E+04  0.00000000000E+00 0. -1.
        -13    1    3    3    0    0 -0.12588391570E+03 -0.16423664184E+03 -0.45057474682E+03  0.49582056959E+03  0.00000000000E+00 0.  1.
          4    1    6    6  502    0 -0.92261749735E+02 -0.13264152563E+03 -0.10334389829E+03  0.19179667906E+03  0.00000000000E+00 0. -1.
          3    1    5    5  503    0  0.23478553512E+03  0.36740953448E+03  0.52586480042E+02  0.43918031765E+03  0.00000000000E+00 0. -1.
         -4    1    5    5    0  503  0.30400895571E+03  0.33656050113E+03  0.89640691163E+02  0.46230927915E+03  0.00000000000E+00 0.  1.
         -3    1    6    6    0  502  0.14918290358E+02 -0.41230009423E+02 -0.14305535724E+02  0.46120683176E+02  0.00000000000E+00 0.  1.
<mgrwt>
<rscale>  0 0.25491783E+04</rscale>
<asrwt>0</asrwt>
<pdfrwt beam="1">  1        2 0.38680970E+00 0.25491783E+04</pdfrwt>
<pdfrwt beam="2">  1       -2 0.99406863E-01 0.25491783E+04</pdfrwt>
<totfact> 0.25409984E+00</totfact>
</mgrwt>
</event>
<event>
12    1  0.1506149E-007  0.1165210E+04  0.7818608E-02  0.9143866E-01
          1   -1    0    0  501    0  0.00000000000E+00  0.00000000000E+00  0.10651376990E+04  0.10651376990E+04  0.00000000000E+00 0. -1.
         -1   -1    0    0    0  501 -0.00000000000E+00 -0.00000000000E+00 -0.31867092222E+03  0.31867092222E+03  0.00000000000E+00 0.  1.
         23    2    1    2    0    0  0.48181533983E+02 -0.18204584634E+03 -0.89058819644E+01  0.21127468908E+03  0.95370483524E+02 0.  0.
        254    2    1    2    0    0 -0.48181533983E+02  0.18204584634E+03  0.75537265873E+03  0.11725339321E+04  0.87680432141E+03 0.  0.
        -24    2    4    4    0    0  0.38721192124E+03  0.18570478476E+03  0.26250240972E+03  0.51014160720E+03  0.83172142343E+02 0.  0.
         24    2    4    4    0    0 -0.43539345522E+03 -0.36589384199E+01  0.49287024901E+03  0.66239232492E+03  0.79130658249E+02 0.  0.
         11    1    3    3    0    0  0.20128673857E+02 -0.99044276116E+02  0.42558269948E+02  0.10966375191E+03  0.00000000000E+00 0. -1.
        -11    1    3    3    0    0  0.28052860126E+02 -0.83001570220E+02 -0.51464151912E+02  0.10161093717E+03  0.00000000000E+00 0.  1.
          2    1    6    6  502    0 -0.33859825034E+03 -0.35661353693E+02  0.38576294732E+03  0.51452265140E+03  0.00000000000E+00 0. -1.
          1    1    5    5  503    0  0.31995107455E+03  0.11692469147E+03  0.19368149481E+03  0.39185787604E+03  0.00000000000E+00 0. -1.
         -2    1    5    5    0  503  0.67260846684E+02  0.68780093281E+02  0.68820914911E+02  0.11828373116E+03  0.00000000000E+00 0.  1.
         -1    1    6    6    0  502 -0.96795204881E+02  0.32002415273E+02  0.10710730169E+03  0.14786967352E+03  0.00000000000E+00 0.  1.
<mgrwt>
<rscale>  0 0.11652097E+04</rscale>
<asrwt>0</asrwt>
<pdfrwt beam="1">  1        1 0.16386734E+00 0.11652097E+04</pdfrwt>
<pdfrwt beam="2">  1       -1 0.49026296E-01 0.11652097E+04</pdfrwt>
<totfact> 0.55688364E+01</totfact>
</mgrwt>
</event>
<event>
12    1  0.1506149E-007  0.2777205E+04  0.7818608E-02  0.8310380E-01
          2   -1    0    0  501    0  0.00000000000E+00  0.00000000000E+00  0.76674134855E+03  0.76674134855E+03  0.00000000000E+00 0. -1.
         -2   -1    0    0    0  501 -0.00000000000E+00 -0.00000000000E+00 -0.25148214522E+04  0.25148214522E+04  0.00000000000E+00 0.  1.
         23    2    1    2    0    0 -0.87608792065E+02  0.12340481512E+04 -0.89870939425E+03  0.15323573993E+04  0.99450911621E+02 0.  0.
        254    2    1    2    0    0  0.87608792065E+02 -0.12340481512E+04 -0.84937070939E+03  0.17492054015E+04  0.89874289688E+03 0.  0.
        -24    2    4    4    0    0 -0.30751012511E+03 -0.96718804375E+03 -0.41622687028E+03  0.11004374691E+04  0.87764609909E+02 0.  0.
         24    2    4    4    0    0  0.39511891717E+03 -0.26686010745E+03 -0.43314383911E+03  0.64876793242E+03  0.77155486686E+02 0.  0.
         13    1    3    3    0    0 -0.63806469294E+02  0.91730571138E+03 -0.61290072758E+03  0.11050648558E+04  0.00000000000E+00 0. -1.
        -13    1    3    3    0    0 -0.23802322771E+02  0.31674243982E+03 -0.28580866667E+03  0.42729254346E+03  0.00000000000E+00 0.  1.
          2    1    6    6  502    0  0.15574357248E+03 -0.11593562669E+03 -0.12771873227E+03  0.23239880481E+03  0.00000000000E+00 0. -1.
          3    1    5    5  503    0 -0.12022425760E+02 -0.13302472463E+03 -0.61313018709E+02  0.14696735130E+03  0.00000000000E+00 0. -1.
         -4    1    5    5    0  503 -0.29548769935E+03 -0.83416331913E+03 -0.35491385157E+03  0.95347011777E+03  0.00000000000E+00 0.  1.
         -1    1    6    6    0  502  0.23937534469E+03 -0.15092448075E+03 -0.30542510684E+03  0.41636912761E+03  0.00000000000E+00 0.  1.
<mgrwt>
<rscale>  0 0.27772055E+04</rscale>
<asrwt>0</asrwt>
<pdfrwt beam="1">  1        2 0.11796021E+00 0.27772055E+04</pdfrwt>
<pdfrwt beam="2">  1       -2 0.38689561E+00 0.27772055E+04</pdfrwt>
<totfact> 0.28690115E-01</totfact>
</mgrwt>
</event>
<event>
12    1  0.1506149E-007  0.1911975E+04  0.7818608E-02  0.8648919E-01
          1   -1    0    0  501    0  0.00000000000E+00  0.00000000000E+00  0.77551373501E+03  0.77551373501E+03  0.00000000000E+00 0. -1.
         -1   -1    0    0    0  501 -0.00000000000E+00 -0.00000000000E+00 -0.11784601494E+04  0.11784601494E+04  0.00000000000E+00 0.  1.
         23    2    1    2    0    0 -0.46553571393E+03 -0.30336591477E+03  0.33467649015E+03  0.65949735030E+03  0.11905470513E+03 0.  0.
        254    2    1    2    0    0  0.46553571393E+03  0.30336591477E+03 -0.73762290453E+03  0.12944765341E+04  0.90709843394E+03 0.  0.
        -24    2    4    4    0    0 -0.35302656063E+01 -0.29067344645E+03 -0.22477480203E+03  0.37647232964E+03  0.81879106653E+02 0.  0.
         24    2    4    4    0    0  0.46906597954E+03  0.59403936122E+03 -0.51284810249E+03  0.91800420446E+03  0.82540216501E+02 0.  0.
         13    1    3    3    0    0 -0.45514036303E+02  0.43520163703E+01  0.42593003261E+02  0.62487050449E+02  0.00000000000E+00 0.  1.
        -13    1    3    3    0    0 -0.42002167763E+03 -0.30771793114E+03  0.29208348688E+03  0.59701029985E+03  0.00000000000E+00 0. -1.
          4    1    6    6  502    0  0.37000241679E+03  0.40917452731E+03 -0.37098550138E+03  0.66479758157E+03  0.00000000000E+00 0. -1.
          3    1    5    5  503    0 -0.12281596372E+02 -0.66704518869E+02 -0.14966520524E+02  0.69457376740E+02  0.00000000000E+00 0. -1.
         -2    1    5    5    0  503  0.87513307656E+01 -0.22396892758E+03 -0.20980828151E+03  0.30701495290E+03  0.00000000000E+00 0.  1.
         -3    1    6    6    0  502  0.99063562750E+02  0.18486483391E+03 -0.14186260111E+03  0.25320662289E+03  0.00000000000E+00 0.  1.
<mgrwt>
<rscale>  0 0.19119749E+04</rscale>
<asrwt>0</asrwt>
<pdfrwt beam="1">  1        1 0.11930981E+00 0.19119749E+04</pdfrwt>
<pdfrwt beam="2">  1       -1 0.18130156E+00 0.19119749E+04</pdfrwt>
<totfact> 0.44231016E+00</totfact>
</mgrwt>
</event>
<event>
12    1  0.1506149E-007  0.3429067E+04  0.7818608E-02  0.8130809E-01
          1   -1    0    0  501    0  0.00000000000E+00  0.00000000000E+00  0.20698798049E+04  0.20698798049E+04  0.00000000000E+00 0. -1.
         -1   -1    0    0    0  501 -0.00000000000E+00 -0.00000000000E+00 -0.14201911587E+04  0.14201911587E+04  0.00000000000E+00 0.  1.
         23    2    1    2    0    0  0.59575509773E+03 -0.20046346420E+03  0.17932192267E+04  0.19024012259E+04  0.91572334485E+02 0.  0.
        254    2    1    2    0    0 -0.59575509773E+03  0.20046346420E+03 -0.11435305805E+04  0.15876697377E+04  0.90439110486E+03 0.  0.
        -24    2    4    4    0    0 -0.76120248076E+03  0.25057564090E+03 -0.11424524466E+04  0.13977028286E+04  0.78474426488E+02 0.  0.
         24    2    4    4    0    0  0.16544738303E+03 -0.50112176701E+02 -0.10781338748E+01  0.18996690916E+03  0.78754030984E+02 0.  0.
         13    1    3    3    0    0  0.51237392470E+03 -0.15549627571E+03  0.15997915286E+04  0.16870207661E+04  0.00000000000E+00 0. -1.
        -13    1    3    3    0    0  0.83381173027E+02 -0.44967188487E+02  0.19342769809E+03  0.21538045975E+03  0.00000000000E+00 0.  1.
          4    1    6    6  502    0  0.10438958535E+03 -0.58041542881E+02  0.26750683852E+02  0.12239936812E+03  0.00000000000E+00 0. -1.
          1    1    5    5  503    0 -0.42103985975E+03  0.98106312275E+02 -0.60098658342E+03  0.74032714759E+03  0.00000000000E+00 0. -1.
         -2    1    5    5    0  503 -0.34016262101E+03  0.15246932863E+03 -0.54146586322E+03  0.65737568098E+03  0.00000000000E+00 0.  1.
         -3    1    6    6    0  502  0.61057797686E+02  0.79293661800E+01 -0.27828817726E+02  0.67567541041E+02  0.00000000000E+00 0.  1.
<mgrwt>
<rscale>  0 0.34290669E+04</rscale>
<asrwt>0</asrwt>
<pdfrwt beam="1">  1        1 0.31844305E+00 0.34290669E+04</pdfrwt>
<pdfrwt beam="2">  1       -1 0.21849095E+00 0.34290669E+04</pdfrwt>
<totfact> 0.24699328E-01</totfact>
</mgrwt>
</event>
<event>
12    1  0.1506149E-007  0.1605265E+04  0.7818608E-02  0.8817320E-01
          2   -1    0    0  501    0  0.00000000000E+00  0.00000000000E+00  0.83742193910E+03  0.83742193910E+03  0.00000000000E+00 0. -1.
         -2   -1    0    0    0  501 -0.00000000000E+00 -0.00000000000E+00 -0.76928869582E+03  0.76928869582E+03  0.00000000000E+00 0.  1.
         23    2    1    2    0    0  0.12849454411E+03  0.46201485736E+03  0.32292877233E+03  0.58544141230E+03  0.92141624454E+02 0.  0.
        254    2    1    2    0    0 -0.12849454411E+03 -0.46201485736E+03 -0.25479552906E+03  0.10212692226E+04  0.86492860234E+03 0.  0.
        -24    2    4    4    0    0  0.18481051732E+03 -0.14003278071E+03 -0.45956109738E+03  0.52104327890E+03  0.80781119556E+02 0.  0.
         24    2    4    4    0    0 -0.31330506143E+03 -0.32198207665E+03  0.20476556833E+03  0.50022594371E+03  0.80402348181E+02 0.  0.
         11    1    3    3    0    0  0.11082431909E+02 -0.53613547780E+00  0.78019987809E+01  0.13563883045E+02  0.00000000000E+00 0.  1.
        -11    1    3    3    0    0  0.11741211220E+03  0.46255099283E+03  0.31512677355E+03  0.57187752926E+03  0.00000000000E+00 0. -1.
          4    1    6    6  502    0 -0.30305150904E+03 -0.29566436629E+03  0.20813419394E+03  0.47178117524E+03  0.00000000000E+00 0. -1.
          3    1    5    5  503    0  0.17857642459E+03 -0.13730977054E+03 -0.46185719951E+03  0.51386339161E+03  0.00000000000E+00 0. -1.
         -4    1    5    5    0  503  0.62340927258E+01 -0.27230101703E+01  0.22961021235E+01  0.71798872876E+01  0.00000000000E+00 0.  1.
         -3    1    6    6    0  502 -0.10253552389E+02 -0.26317710355E+02 -0.33686256106E+01  0.28444768472E+02  0.00000000000E+00 0.  1.
<mgrwt>
<rscale>  0 0.16052654E+04</rscale>
<asrwt>0</asrwt>
<pdfrwt beam="1">  1        2 0.12883414E+00 0.16052654E+04</pdfrwt>
<pdfrwt beam="2">  1       -2 0.11835211E+00 0.16052654E+04</pdfrwt>
<totfact> 0.17062135E+01</totfact>
</mgrwt>
</event>
<event>
12    1  0.1506149E-007  0.1666784E+04  0.7818608E-02  0.8780539E-01
          1   -1    0    0  501    0  0.00000000000E+00  0.00000000000E+00  0.17801998752E+04  0.17801998752E+04  0.00000000000E+00 0. -1.
         -1   -1    0    0    0  501 -0.00000000000E+00 -0.00000000000E+00 -0.39014837288E+03  0.39014837288E+03  0.00000000000E+00 0.  1.
         23    2    1    2    0    0 -0.43452161417E+03 -0.33531860034E+03  0.76428337691E+03  0.94499752319E+03  0.87427922854E+02 0.  0.
        254    2    1    2    0    0  0.43452161417E+03  0.33531860034E+03  0.62576812546E+03  0.12253507249E+04  0.89925027404E+03 0.  0.
        -24    2    4    4    0    0  0.63474261729E+03  0.18772180329E+03  0.15036421688E+03  0.68278316694E+03  0.73795594049E+02 0.  0.
         24    2    4    4    0    0 -0.20022100312E+03  0.14759679705E+03  0.47540390858E+03  0.54256755800E+03  0.80606538885E+02 0.  0.
         11    1    3    3    0    0 -0.38358839759E+03 -0.27686659673E+03  0.60635713742E+03  0.76906706421E+03  0.00000000000E+00 0.  1.
        -11    1    3    3    0    0 -0.50933216581E+02 -0.58452003609E+02  0.15792623949E+03  0.17593045898E+03  0.00000000000E+00 0. -1.
          2    1    6    6  502    0 -0.10910162306E+02 -0.10256757043E+02  0.28623426966E+02  0.32303765691E+02  0.00000000000E+00 0. -1.
          3    1    5    5  503    0  0.38111920996E+02  0.29084325264E+02  0.19195766970E+02  0.51641978735E+02  0.00000000000E+00 0. -1.
         -4    1    5    5    0  503  0.59663069630E+03  0.15863747803E+03  0.13116844991E+03  0.63114118821E+03  0.00000000000E+00 0.  1.
         -1    1    6    6    0  502 -0.18931084082E+03  0.15785355409E+03  0.44678048161E+03  0.51026379231E+03  0.00000000000E+00 0.  1.
<mgrwt>
<rscale>  0 0.16667838E+04</rscale>
<asrwt>0</asrwt>
<pdfrwt beam="1">  1        1 0.27387690E+00 0.16667838E+04</pdfrwt>
<pdfrwt beam="2">  1       -1 0.60022828E-01 0.16667838E+04</pdfrwt>
<totfact> 0.11286596E+01</totfact>
</mgrwt>
</event>
<event>
12    1  0.1506149E-007  0.1689545E+04  0.7818608E-02  0.8767350E-01
         -2   -1    0    0    0  501 -0.00000000000E+00  0.00000000000E+00  0.29584572285E+03  0.29584572285E+03  0.00000000000E+00 0. -1.
          2   -1    0    0  501    0  0.00000000000E+00 -0.00000000000E+00 -0.24122051457E+04  0.24122051457E+04  0.00000000000E+00 0.  1.
         23    2    1    2    0    0 -0.25472833864E+03  0.51998409449E+03 -0.53680857086E+03  0.79524513890E+03  0.94770270485E+02 0.  0.
        254    2    1    2    0    0  0.25472833864E+03 -0.51998409449E+03 -0.15795508520E+04  0.19128057296E+04  0.91026088584E+03 0.  0.
        -24    2    4    4    0    0  0.43341325663E+03 -0.34025647966E+03 -0.35659018674E+03  0.66118281931E+03  0.79903919210E+02 0.  0.
         24    2    4    4    0    0 -0.17868491799E+03 -0.17972761483E+03 -0.12229606653E+04  0.12516229103E+04  0.81834011513E+02 0.  0.
         11    1    3    3    0    0 -0.12790232746E+03  0.35849022042E+03 -0.36784845418E+03  0.52932667488E+03  0.00000000000E+00 0. -1.
        -11    1    3    3    0    0 -0.12682601118E+03  0.16149387407E+03 -0.16896011668E+03  0.26591846402E+03  0.00000000000E+00 0.  1.
          2    1    6    6  502    0 -0.30926960088E+02 -0.83907384496E+02 -0.45853723436E+03  0.46717589978E+03  0.00000000000E+00 0. -1.
          1    1    5    5  503    0  0.36198007977E+03 -0.28099098424E+03 -0.32977947846E+03  0.56457064730E+03  0.00000000000E+00 0. -1.
         -4    1    5    5    0  503  0.71433176863E+02 -0.59265495418E+02 -0.26810708276E+02  0.96612172018E+02  0.00000000000E+00 0.  1.
         -1    1    6    6    0  502 -0.14775795790E+03 -0.95820230334E+02 -0.76442343090E+03  0.78444701056E+03  0.00000000000E+00 0.  1.
<mgrwt>
<rscale>  0 0.16895450E+04</rscale>
<asrwt>0</asrwt>
<pdfrwt beam="1">  1        2 0.37110848E+00 0.16895450E+04</pdfrwt>
<pdfrwt beam="2">  1       -2 0.45514727E-01 0.16895450E+04</pdfrwt>
<totfact> 0.17075347E+01</totfact>
</mgrwt>
</event>
<event>
12    1  0.1506149E-007  0.2458586E+04  0.7818608E-02  0.8417890E-01
         -1   -1    0    0    0  501 -0.00000000000E+00  0.00000000000E+00  0.28073810450E+04  0.28073810450E+04  0.00000000000E+00 0.  1.
          1   -1    0    0  501    0  0.00000000000E+00 -0.00000000000E+00 -0.53828133983E+03  0.53828133983E+03  0.00000000000E+00 0. -1.
         23    2    1    2    0    0 -0.23256606870E+03 -0.21283390766E+03  0.23545936373E+04  0.23771661548E+04  0.86153829307E+02 0.  0.
        254    2    1    2    0    0  0.23256606870E+03  0.21283390766E+03 -0.85493932145E+02  0.96849622999E+03  0.91175132931E+03 0.  0.
        -24    2    4    4    0    0  0.17522961234E+03  0.55314599538E+03 -0.16079083455E+03  0.60636112133E+03  0.71723132570E+02 0.  0.
         24    2    4    4    0    0  0.57336456365E+02 -0.34031208771E+03  0.75296902405E+02  0.36213510865E+03  0.79827483587E+02 0.  0.
         11    1    3    3    0    0 -0.79437626862E+02 -0.12590848228E+03  0.12060555116E+04  0.12152091093E+04  0.00000000000E+00 0. -1.
        -11    1    3    3    0    0 -0.15312844184E+03 -0.86925425379E+02  0.11485381257E+04  0.11619570455E+04  0.00000000000E+00 0.  1.
          2    1    6    6  502    0  0.16722820295E+02 -0.24384435662E+03  0.24059016833E+02  0.24559836983E+03  0.00000000000E+00 0. -1.
          3    1    5    5  503    0  0.93415672551E+02  0.26533340054E+03 -0.41944121240E+02  0.28440747288E+03  0.00000000000E+00 0. -1.
         -4    1    5    5    0  503  0.81813939787E+02  0.28781259483E+03 -0.11884671331E+03  0.32195364845E+03  0.00000000000E+00 0.  1.
         -1    1    6    6    0  502  0.40613636070E+02 -0.96467731098E+02  0.51237885572E+02  0.11653673882E+03  0.00000000000E+00 0.  1.
<mgrwt>
<rscale>  0 0.24585856E+04</rscale>
<asrwt>0</asrwt>
<pdfrwt beam="1">  1        1 0.82812516E-01 0.24585856E+04</pdfrwt>
<pdfrwt beam="2">  1       -1 0.43190477E+00 0.24585856E+04</pdfrwt>
<totfact> 0.15379635E-01</totfact>
</mgrwt>
</event>
<event>
12    1  0.1506149E-007  0.2408201E+04  0.7818608E-02  0.8436440E-01
          1   -1    0    0  501    0  0.00000000000E+00  0.00000000000E+00  0.14774868939E+04  0.14774868939E+04  0.00000000000E+00 0. -1.
         -1   -1    0    0    0  501 -0.00000000000E+00 -0.00000000000E+00 -0.98129995268E+03  0.98129995268E+03  0.00000000000E+00 0.  1.
         23    2    1    2    0    0 -0.19024564981E+03  0.88036840754E+03 -0.28089285603E+03  0.94796007086E+03  0.92117094499E+02 0.  0.
        254    2    1    2    0    0  0.19024564981E+03 -0.88036840754E+03  0.77707979727E+03  0.15108267757E+04  0.93139819343E+03 0.  0.
        -24    2    4    4    0    0  0.35273469591E+03 -0.55900304950E+03  0.90232313808E+03  0.11212894639E+04  0.78720018855E+02 0.  0.
         24    2    4    4    0    0 -0.16248904609E+03 -0.32136535804E+03 -0.12524334081E+03  0.38953731181E+03  0.79843844026E+02 0.  0.
         11    1    3    3    0    0 -0.80891519964E+02  0.43954688627E+03 -0.93311240562E+02  0.45656531937E+03  0.00000000000E+00 0.  1.
        -11    1    3    3    0    0 -0.10935412985E+03  0.44082152127E+03 -0.18758161547E+03  0.49139475149E+03  0.00000000000E+00 0. -1.
          2    1    6    6  502    0 -0.17202424786E+02 -0.68688190316E+02  0.35120857295E+01  0.70896584216E+02  0.00000000000E+00 0. -1.
          3    1    5    5  503    0  0.25407740859E+03 -0.42393571920E+03  0.72587066976E+03  0.87816003825E+03  0.00000000000E+00 0. -1.
         -2    1    5    5    0  503  0.98657287315E+02 -0.13506733030E+03  0.17645246832E+03  0.24312942568E+03  0.00000000000E+00 0.  1.
         -1    1    6    6    0  502 -0.14528662131E+03 -0.25267716773E+03 -0.12875542654E+03  0.31864072760E+03  0.00000000000E+00 0.  1.
<mgrwt>
<rscale>  0 0.24082008E+04</rscale>
<asrwt>0</asrwt>
<pdfrwt beam="1">  1        1 0.22730568E+00 0.24082008E+04</pdfrwt>
<pdfrwt beam="2">  1       -1 0.15096922E+00 0.24082008E+04</pdfrwt>
<totfact> 0.20823250E+00</totfact>
</mgrwt>
</event>
<event>
12    1  0.1506149E-007  0.2238976E+04  0.7818608E-02  0.8502378E-01
         -1   -1    0    0    0  501 -0.00000000000E+00  0.00000000000E+00  0.72993717591E+03  0.72993717591E+03  0.00000000000E+00 0.  1.
          1   -1    0    0  501    0  0.00000000000E+00 -0.00000000000E+00 -0.17169336474E+04  0.17169336474E+04  0.00000000000E+00 0. -1.
         23    2    1    2    0    0  0.85835350882E+03  0.23006380541E+03 -0.91679043209E+02  0.89817312560E+03  0.92789093773E+02 0.  0.
        254    2    1    2    0    0 -0.85835350882E+03 -0.23006380541E+03 -0.89531742828E+03  0.15486976977E+04  0.89842704815E+03 0.  0.
        -24    2    4    4    0    0 -0.71259732630E+03  0.63765641895E+02 -0.96559735737E+03  0.12041012461E+04  0.74970311741E+02 0.  0.
         24    2    4    4    0    0 -0.14575618252E+03 -0.29382944730E+03  0.70279929088E+02  0.34459645166E+03  0.78910311225E+02 0.  0.
         13    1    3    3    0    0  0.27223124104E+03  0.50303535197E+02 -0.65833996411E+02  0.28456002765E+03  0.00000000000E+00 0. -1.
        -13    1    3    3    0    0  0.58612226778E+03  0.17976027021E+03 -0.25845046798E+02  0.61361309795E+03  0.00000000000E+00 0.  1.
          4    1    6    6  502    0 -0.13475916468E+03 -0.29105441914E+03  0.54767545050E+02  0.32538007215E+03  0.00000000000E+00 0. -1.
          1    1    5    5  503    0 -0.52929970485E+03  0.14242175701E+02 -0.70999841439E+03  0.88569676840E+03  0.00000000000E+00 0. -1.
         -2    1    5    5    0  503 -0.18329762145E+03  0.49523466194E+02 -0.25559894298E+03  0.31840447765E+03  0.00000000000E+00 0.  1.
         -3    1    6    6    0  502 -0.10997017842E+02 -0.27750281665E+01  0.15512384038E+02  0.19216379505E+02  0.00000000000E+00 0.  1.
<mgrwt>
<rscale>  0 0.22389763E+04</rscale>
<asrwt>0</asrwt>
<pdfrwt beam="1">  1        1 0.26414363E+00 0.22389763E+04</pdfrwt>
<pdfrwt beam="2">  1       -1 0.11229803E+00 0.22389763E+04</pdfrwt>
<totfact> 0.30636671E+00</totfact>
</mgrwt>
</event>
<event>
12    1  0.1506149E-007  0.1498215E+04  0.7818608E-02  0.8885641E-01
          1   -1    0    0  501    0  0.00000000000E+00  0.00000000000E+00  0.11990578982E+04  0.11990578982E+04  0.00000000000E+00 0. -1.
         -1   -1    0    0    0  501 -0.00000000000E+00 -0.00000000000E+00 -0.46800222617E+03  0.46800222617E+03  0.00000000000E+00 0.  1.
         23    2    1    2    0    0 -0.18142999791E+03 -0.32512102793E+03 -0.88481846492E+02  0.39398805405E+03  0.93685765357E+02 0.  0.
        254    2    1    2    0    0  0.18142999791E+03  0.32512102793E+03  0.81953751851E+03  0.12730720703E+04  0.90025009025E+03 0.  0.
        -24    2    4    4    0    0  0.44432565123E+03  0.69062793524E+02  0.76779704725E+03  0.89344841213E+03  0.80887610824E+02 0.  0.
         24    2    4    4    0    0 -0.26289565331E+03  0.25605823441E+03  0.51740471256E+02  0.37962365817E+03  0.82201590844E+02 0.  0.
         13    1    3    3    0    0 -0.89792624036E+02 -0.15264860467E+03 -0.90044741694E+02  0.19867653950E+03  0.00000000000E+00 0.  1.
        -13    1    3    3    0    0 -0.91637373877E+02 -0.17247242326E+03  0.15628952026E+01  0.19531151456E+03  0.00000000000E+00 0. -1.
          2    1    6    6  502    0 -0.86524535379E+02  0.13101036194E+03  0.44959566137E+02  0.16331433723E+03  0.00000000000E+00 0. -1.
          3    1    5    5  503    0  0.27346230495E+01 -0.78334858241E+00  0.34441237189E+02  0.34558510057E+02  0.00000000000E+00 0. -1.
         -4    1    5    5    0  503  0.44159102818E+03  0.69846142107E+02  0.73335581006E+03  0.85888990207E+03  0.00000000000E+00 0.  1.
         -1    1    6    6    0  502 -0.17637111793E+03  0.12504787246E+03  0.67809051193E+01  0.21630932094E+03  0.00000000000E+00 0.  1.
<mgrwt>
<rscale>  0 0.14982146E+04</rscale>
<asrwt>0</asrwt>
<pdfrwt beam="1">  1        1 0.18447045E+00 0.14982146E+04</pdfrwt>
<pdfrwt beam="2">  1       -1 0.72000343E-01 0.14982146E+04</pdfrwt>
<totfact> 0.20157936E+01</totfact>
</mgrwt>
</event>
<event>
12    1  0.1506149E-007  0.2177220E+04  0.7818608E-02  0.8527970E-01
         -2   -1    0    0    0  501 -0.00000000000E+00  0.00000000000E+00  0.39009893745E+03  0.39009893745E+03  0.00000000000E+00 0.  1.
          2   -1    0    0  501    0  0.00000000000E+00 -0.00000000000E+00 -0.30378757463E+04  0.30378757463E+04  0.00000000000E+00 0. -1.
         23    2    1    2    0    0  0.11587484541E+03 -0.49146902305E+03  0.68576188690E+02  0.51825263901E+03  0.94415696648E+02 0.  0.
        254    2    1    2    0    0 -0.11587484541E+03  0.49146902305E+03 -0.27163529976E+04  0.29097220447E+04  0.91265546069E+03 0.  0.
        -24    2    4    4    0    0  0.29707506209E+03  0.40853316634E+03 -0.83012098421E+03  0.97537453310E+03  0.84271530609E+02 0.  0.
         24    2    4    4    0    0 -0.41294990751E+03  0.82935856711E+02 -0.18862320133E+04  0.19343475116E+04  0.80144277478E+02 0.  0.
         13    1    3    3    0    0  0.21837524534E+02 -0.23285636194E+03  0.66187243430E+02  0.24306318925E+03  0.00000000000E+00 0.  1.
        -13    1    3    3    0    0  0.94037320881E+02 -0.25861266111E+03  0.23889452606E+01  0.27518944977E+03  0.00000000000E+00 0. -1.
          2    1    6    6  502    0 -0.24730410878E+03  0.93041279483E+01 -0.10879324164E+04  0.11157252492E+04  0.00000000000E+00 0. -1.
          3    1    5    5  503    0  0.26981223094E+03  0.40086791404E+03 -0.77270958847E+03  0.91135823505E+03  0.00000000000E+00 0. -1.
         -4    1    5    5    0  503  0.27262831156E+02  0.76652522975E+01 -0.57411395739E+02  0.64016298051E+02  0.00000000000E+00 0.  1.
         -1    1    6    6    0  502 -0.16564579873E+03  0.73631728762E+02 -0.79829959694E+03  0.81862226245E+03  0.00000000000E+00 0.  1.
<mgrwt>
<rscale>  0 0.21772203E+04</rscale>
<asrwt>0</asrwt>
<pdfrwt beam="1">  1        2 0.46736548E+00 0.21772203E+04</pdfrwt>
<pdfrwt beam="2">  1       -2 0.60015223E-01 0.21772203E+04</pdfrwt>
<totfact> 0.39126558E+00</totfact>
</mgrwt>
</event>
<event>
12    1  0.1506149E-007  0.1899012E+04  0.7818608E-02  0.8655348E-01
          1   -1    0    0  501    0  0.00000000000E+00  0.00000000000E+00  0.16623323437E+04  0.16623323437E+04  0.00000000000E+00 0. -1.
         -1   -1    0    0    0  501 -0.00000000000E+00 -0.00000000000E+00 -0.54234726366E+03  0.54234726366E+03  0.00000000000E+00 0.  1.
         23    2    1    2    0    0 -0.44217400273E+03  0.19211031628E+03  0.10781729389E+04  0.11843259678E+04  0.88016417214E+02 0.  0.
        254    2    1    2    0    0  0.44217400273E+03 -0.19211031628E+03  0.41812141176E+02  0.10203536395E+04  0.89830344106E+03 0.  0.
        -24    2    4    4    0    0 -0.57618311341E+02  0.16628770219E+03 -0.26528266172E+03  0.32767389546E+03  0.77613281431E+02 0.  0.
         24    2    4    4    0    0  0.49979231407E+03 -0.35839801847E+03  0.30709480290E+03  0.69267974406E+03  0.85185169031E+02 0.  0.
         13    1    3    3    0    0 -0.17464396210E+03  0.59525867554E+02  0.31853337085E+03  0.36811323088E+03  0.00000000000E+00 0.  1.
        -13    1    3    3    0    0 -0.26753004062E+03  0.13258444872E+03  0.75963956802E+03  0.81621273696E+03  0.00000000000E+00 0. -1.
          4    1    6    6  502    0  0.28585624412E+02 -0.44610623145E+02  0.12271932838E+02  0.54386082374E+02  0.00000000000E+00 0. -1.
          1    1    5    5  503    0 -0.65860947646E+01  0.86987555141E+02 -0.73943418770E+02  0.11435838654E+03  0.00000000000E+00 0. -1.
         -2    1    5    5    0  503 -0.51032216577E+02  0.79300147050E+02 -0.19133924295E+03  0.21331550891E+03  0.00000000000E+00 0.  1.
         -3    1    6    6    0  502  0.47120668966E+03 -0.31378739532E+03  0.29482287006E+03  0.63829366169E+03  0.00000000000E+00 0.  1.
<mgrwt>
<rscale>  0 0.18990117E+04</rscale>
<asrwt>0</asrwt>
<pdfrwt beam="1">  1        1 0.25574343E+00 0.18990117E+04</pdfrwt>
<pdfrwt beam="2">  1       -1 0.83438042E-01 0.18990117E+04</pdfrwt>
<totfact> 0.67433206E+00</totfact>
</mgrwt>
</event>
<event>
12    1  0.1506149E-007  0.1336296E+04  0.7818608E-02  0.9001267E-01
         -2   -1    0    0    0  501 -0.00000000000E+00  0.00000000000E+00  0.40538841110E+03  0.40538841110E+03  0.00000000000E+00 0. -1.
          2   -1    0    0  501    0  0.00000000000E+00 -0.00000000000E+00 -0.11012199289E+04  0.11012199289E+04  0.00000000000E+00 0.  1.
         23    2    1    2    0    0  0.19302130287E+03  0.27884647694E+03 -0.44497913476E+02  0.35463737289E+03  0.93675081466E+02 0.  0.
        254    2    1    2    0    0 -0.19302130287E+03 -0.27884647694E+03 -0.65133360436E+03  0.11519709671E+04  0.88757482158E+03 0.  0.
        -24    2    4    4    0    0 -0.45622263634E+03 -0.38739886437E+03 -0.25001515605E+03  0.65352784488E+03  0.79837909222E+02 0.  0.
         24    2    4    4    0    0  0.26320133348E+03  0.10855238743E+03 -0.40131844831E+03  0.49844312227E+03  0.79564353943E+02 0.  0.
         11    1    3    3    0    0  0.15640851335E+03  0.24823822845E+03 -0.62347294114E+01  0.29347012278E+03  0.00000000000E+00 0. -1.
        -11    1    3    3    0    0  0.36612789517E+02  0.30608248482E+02 -0.38263184064E+02  0.61167250110E+02  0.00000000000E+00 0.  1.
          4    1    6    6  502    0  0.12701810305E+03  0.82298684399E+02 -0.16095632516E+03  0.22093802426E+03  0.00000000000E+00 0. -1.
          3    1    5    5  503    0 -0.26610351805E+03 -0.25974324206E+03 -0.18581649535E+03  0.41569869384E+03  0.00000000000E+00 0. -1.
         -4    1    5    5    0  503 -0.19011911830E+03 -0.12765562231E+03 -0.64198660698E+02  0.23782915104E+03  0.00000000000E+00 0.  1.
         -3    1    6    6    0  502  0.13618323043E+03  0.26253703033E+02 -0.24036212315E+03  0.27750509800E+03  0.00000000000E+00 0.  1.
<mgrwt>
<rscale>  0 0.13362961E+04</rscale>
<asrwt>0</asrwt>
<pdfrwt beam="1">  1        2 0.16941845E+00 0.13362961E+04</pdfrwt>
<pdfrwt beam="2">  1       -2 0.62367448E-01 0.13362961E+04</pdfrwt>
<totfact> 0.50727267E+01</totfact>
</mgrwt>
</event>
<event>
12    1  0.1506149E-007  0.1193083E+04  0.7818608E-02  0.9118932E-01
          2   -1    0    0  501    0  0.00000000000E+00  0.00000000000E+00  0.39498155409E+03  0.39498155409E+03  0.00000000000E+00 0. -1.
         -2   -1    0    0    0  501 -0.00000000000E+00 -0.00000000000E+00 -0.90095866558E+03  0.90095866558E+03  0.00000000000E+00 0.  1.
         23    2    1    2    0    0 -0.18027161551E+01 -0.21266650149E+03  0.80741945850E+01  0.23157176530E+03  0.91268829407E+02 0.  0.
        254    2    1    2    0    0  0.18027161551E+01  0.21266650149E+03 -0.51405130607E+03  0.10643684544E+04  0.90741455287E+03 0.  0.
        -24    2    4    4    0    0  0.44439711257E+03  0.15892524843E+03 -0.23263122414E+03  0.53181943392E+03  0.77256686481E+02 0.  0.
         24    2    4    4    0    0 -0.44259439641E+03  0.53741253059E+02 -0.28142008194E+03  0.53254902046E+03  0.75055144127E+02 0.  0.
         13    1    3    3    0    0 -0.28735772676E+02 -0.15972581072E+02  0.23383891608E+01  0.32959612274E+02  0.00000000000E+00 0.  1.
        -13    1    3    3    0    0  0.26933056521E+02 -0.19669392042E+03  0.57358054242E+01  0.19861215302E+03  0.00000000000E+00 0. -1.
          2    1    6    6  502    0 -0.43452800627E+02  0.15491706414E+02 -0.69878667974E+01  0.46658001804E+02  0.00000000000E+00 0. -1.
          3    1    5    5  503    0  0.16340930960E+03  0.44495619142E+02 -0.12264715856E+03  0.20910472995E+03  0.00000000000E+00 0. -1.
         -4    1    5    5    0  503  0.28098780297E+03  0.11442962929E+03 -0.10998406558E+03  0.32271470397E+03  0.00000000000E+00 0.  1.
         -1    1    6    6    0  502 -0.39914159578E+03  0.38249546645E+02 -0.27443221514E+03  0.48589101865E+03  0.00000000000E+00 0.  1.
<mgrwt>
<rscale>  0 0.11930835E+04</rscale>
<asrwt>0</asrwt>
<pdfrwt beam="1">  1        2 0.60766392E-01 0.11930835E+04</pdfrwt>
<pdfrwt beam="2">  1       -2 0.13860903E+00 0.11930835E+04</pdfrwt>
<totfact> 0.29325162E+01</totfact>
</mgrwt>
</event>
<event>
12    1  0.1506149E-007  0.2505511E+04  0.7818608E-02  0.8401025E-01
          1   -1    0    0  501    0  0.00000000000E+00  0.00000000000E+00  0.11595996520E+04  0.11595996520E+04  0.00000000000E+00 0. -1.
         -1   -1    0    0    0  501 -0.00000000000E+00 -0.00000000000E+00 -0.13533952443E+04  0.13533952443E+04  0.00000000000E+00 0.  1.
         23    2    1    2    0    0 -0.34009500496E+03 -0.10286291505E+04  0.31146947774E+01  0.10874407877E+04  0.93676164004E+02 0.  0.
        254    2    1    2    0    0  0.34009500496E+03  0.10286291505E+04 -0.19691028711E+03  0.14255541086E+04  0.90536639746E+03 0.  0.
        -24    2    4    4    0    0  0.16816530573E+03  0.27923600542E+03  0.34567110490E+03  0.48154519714E+03  0.78389714588E+02 0.  0.
         24    2    4    4    0    0  0.17192969923E+03  0.74939314509E+03 -0.54258139201E+03  0.94400891144E+03  0.74888921372E+02 0.  0.
         13    1    3    3    0    0 -0.29197621176E+03 -0.87248053046E+03  0.36111105969E+02  0.92074773757E+03  0.00000000000E+00 0. -1.
        -13    1    3    3    0    0 -0.48118793202E+02 -0.15614862004E+03 -0.32996411192E+02  0.16669305010E+03  0.00000000000E+00 0.  1.
          2    1    6    6  502    0  0.32123879288E+02  0.78630077622E+02 -0.84473412499E+02  0.11979311394E+03  0.00000000000E+00 0. -1.
          1    1    5    5  503    0  0.41544818919E+00  0.53743065579E+02  0.46489515069E+02  0.71061696478E+02  0.00000000000E+00 0. -1.
         -2    1    5    5    0  503  0.16774985754E+03  0.22549293984E+03  0.29918158983E+03  0.41048350066E+03  0.00000000000E+00 0.  1.
         -1    1    6    6    0  502  0.13980581995E+03  0.67076306746E+03 -0.45810797951E+03  0.82421579750E+03  0.00000000000E+00 0.  1.
<mgrwt>
<rscale>  0 0.25055112E+04</rscale>
<asrwt>0</asrwt>
<pdfrwt beam="1">  1        1 0.17839995E+00 0.25055112E+04</pdfrwt>
<pdfrwt beam="2">  1       -1 0.20821465E+00 0.25055112E+04</pdfrwt>
<totfact> 0.13433690E+00</totfact>
</mgrwt>
</event>
<event>
12    1  0.1506149E-007  0.1366445E+04  0.7818608E-02  0.8978472E-01
         -2   -1    0    0    0  501 -0.00000000000E+00  0.00000000000E+00  0.41054234028E+03  0.41054234028E+03  0.00000000000E+00 0.  1.
          2   -1    0    0  501    0  0.00000000000E+00 -0.00000000000E+00 -0.11370155178E+04  0.11370155178E+04  0.00000000000E+00 0. -1.
         23    2    1    2    0    0  0.20016028180E+03  0.10863113734E+03 -0.51443426777E+03  0.56991098447E+03  0.91055213760E+02 0.  0.
        254    2    1    2    0    0 -0.20016028180E+03 -0.10863113734E+03 -0.21203890976E+03  0.97764687363E+03  0.92680529123E+03 0.  0.
        -24    2    4    4    0    0 -0.19815122915E+03 -0.30767081520E+03 -0.49601316975E+03  0.62148989357E+03  0.79343450336E+02 0.  0.
         24    2    4    4    0    0 -0.20090526543E+01  0.19903967786E+03  0.28397425999E+03  0.35615698005E+03  0.81151613965E+02 0.  0.
         11    1    3    3    0    0  0.19106831087E+03  0.66769861107E+02 -0.42109834066E+03  0.46721421883E+03  0.00000000000E+00 0. -1.
        -11    1    3    3    0    0  0.90919709306E+01  0.41861276232E+02 -0.93335927116E+02  0.10269676564E+03  0.00000000000E+00 0.  1.
          2    1    6    6  502    0 -0.32123211414E+02  0.16927806660E+03  0.23542121511E+03  0.29173637598E+03  0.00000000000E+00 0. -1.
          3    1    5    5  503    0 -0.94987564866E+02 -0.21604054345E+03 -0.32800314686E+03  0.40408194496E+03  0.00000000000E+00 0. -1.
         -4    1    5    5    0  503 -0.10316366428E+03 -0.91630271751E+02 -0.16801002289E+03  0.21740794861E+03  0.00000000000E+00 0.  1.
         -3    1    6    6    0  502  0.30114158760E+02  0.29761611256E+02  0.48553044873E+02  0.64420604070E+02  0.00000000000E+00 0.  1.
<mgrwt>
<rscale>  0 0.13664450E+04</rscale>
<asrwt>0</asrwt>
<pdfrwt beam="1">  1        2 0.17492546E+00 0.13664450E+04</pdfrwt>
<pdfrwt beam="2">  1       -2 0.63160360E-01 0.13664450E+04</pdfrwt>
<totfact> 0.46839879E+01</totfact>
</mgrwt>
</event>
<event>
12    1  0.1506149E-007  0.1100899E+04  0.7818608E-02  0.9204316E-01
         -4   -1    0    0    0  501 -0.00000000000E+00  0.00000000000E+00  0.92007966063E+03  0.92007966063E+03  0.00000000000E+00 0.  1.
          4   -1    0    0  501    0  0.00000000000E+00 -0.00000000000E+00 -0.32931375006E+03  0.32931375006E+03  0.00000000000E+00 0. -1.
         23    2    1    2    0    0  0.37934874592E+02  0.53848724901E+02 -0.67812223818E+02  0.12941368310E+03  0.88377959866E+02 0.  0.
        254    2    1    2    0    0 -0.37934874592E+02 -0.53848724901E+02  0.65857813439E+03  0.11199797276E+04  0.90348806923E+03 0.  0.
        -24    2    4    4    0    0  0.31547149892E+02  0.13839467407E+03 -0.18603273759E+03  0.24734766825E+03  0.80152236738E+02 0.  0.
         24    2    4    4    0    0 -0.69482024484E+02 -0.19224339897E+03  0.84461087199E+03  0.87263205934E+03  0.79585863980E+02 0.  0.
         13    1    3    3    0    0  0.17499514864E+02  0.75407549068E+02 -0.61921489622E+02  0.99130229264E+02  0.00000000000E+00 0. -1.
        -13    1    3    3    0    0  0.20435359729E+02 -0.21558824168E+02 -0.58907341963E+01  0.30283453834E+02  0.00000000000E+00 0.  1.
          4    1    6    6  502    0 -0.22094949075E+02 -0.10435101155E+03  0.28761786557E+03  0.30675944481E+03  0.00000000000E+00 0. -1.
          1    1    5    5  503    0 -0.16124515502E+02  0.31352088465E+01 -0.37183744995E+02  0.40650466498E+02  0.00000000000E+00 0. -1.
         -2    1    5    5    0  503  0.47671665393E+02  0.13525946522E+03 -0.14884899260E+03  0.20669720175E+03  0.00000000000E+00 0.  1.
         -3    1    6    6    0  502 -0.47387075409E+02 -0.87892387419E+02  0.55699300642E+03  0.56587261453E+03  0.00000000000E+00 0.  1.
<mgrwt>
<rscale>  0 0.11008994E+04</rscale>
<asrwt>0</asrwt>
<pdfrwt beam="1">  1        4 0.50663654E-01 0.11008994E+04</pdfrwt>
<pdfrwt beam="2">  1       -4 0.14155072E+00 0.11008994E+04</pdfrwt>
<totfact> 0.25773840E+00</totfact>
</mgrwt>
</event>
<event>
12    1  0.1506149E-007  0.2806158E+04  0.7818608E-02  0.8301359E-01
         -2   -1    0    0    0  501 -0.00000000000E+00  0.00000000000E+00  0.20328916428E+04  0.20328916428E+04  0.00000000000E+00 0.  1.
          2   -1    0    0  501    0  0.00000000000E+00 -0.00000000000E+00 -0.96838936160E+03  0.96838936160E+03  0.00000000000E+00 0. -1.
         23    2    1    2    0    0  0.58699052589E+03 -0.10688120272E+04  0.15614990239E+03  0.12327784673E+04  0.91885420371E+02 0.  0.
        254    2    1    2    0    0 -0.58699052589E+03  0.10688120272E+04  0.90835237884E+03  0.17685025371E+04  0.90309476397E+03 0.  0.
        -24    2    4    4    0    0 -0.77491561758E+03  0.57803536756E+03  0.46357597188E+03  0.10755097159E+04  0.84849082920E+02 0.  0.
         24    2    4    4    0    0  0.18792509169E+03  0.49077665963E+03  0.44477640696E+03  0.69299282118E+03  0.78964728110E+02 0.  0.
         13    1    3    3    0    0  0.32826000619E+03 -0.54167687783E+03  0.43564022319E+02  0.63487502367E+03  0.00000000000E+00 0.  1.
        -13    1    3    3    0    0  0.25873051969E+03 -0.52713514937E+03  0.11258588007E+03  0.59790344363E+03  0.00000000000E+00 0. -1.
          4    1    6    6  502    0  0.19145467574E+03  0.45966335104E+03  0.40188827378E+03  0.63989020445E+03  0.00000000000E+00 0. -1.
          1    1    5    5  503    0 -0.75076479835E+03  0.56904095985E+03  0.43693927391E+03  0.10384465925E+04  0.00000000000E+00 0. -1.
         -2    1    5    5    0  503 -0.24150819234E+02  0.89944077084E+01  0.26636697969E+02  0.37063123430E+02  0.00000000000E+00 0.  1.
         -3    1    6    6    0  502 -0.35295840507E+01  0.31113308593E+02  0.42888133180E+02  0.53102616723E+02  0.00000000000E+00 0.  1.
<mgrwt>
<rscale>  0 0.28061580E+04</rscale>
<asrwt>0</asrwt>
<pdfrwt beam="1">  1        2 0.14898298E+00 0.28061580E+04</pdfrwt>
<pdfrwt beam="2">  1       -2 0.31275256E+00 0.28061580E+04</pdfrwt>
<totfact> 0.60949386E-01</totfact>
</mgrwt>
</event>
<event>
12    1  0.1506149E-007  0.2409668E+04  0.7818608E-02  0.8435893E-01
         -2   -1    0    0    0  501 -0.00000000000E+00  0.00000000000E+00  0.55558215110E+03  0.55558215110E+03  0.00000000000E+00 0.  1.
          2   -1    0    0  501    0  0.00000000000E+00 -0.00000000000E+00 -0.26127991491E+04  0.26127991491E+04  0.00000000000E+00 0. -1.
         23    2    1    2    0    0  0.14077040629E+03  0.10213987290E+04 -0.77378858760E+03  0.12923345959E+04  0.91149649777E+02 0.  0.
        254    2    1    2    0    0 -0.14077040629E+03 -0.10213987290E+04 -0.12834284104E+04  0.18760467043E+04  0.89960607006E+03 0.  0.
        -24    2    4    4    0    0 -0.24071632969E+03 -0.87093278222E+02  0.18249850916E+02  0.26857604917E+03  0.79186151801E+02 0.  0.
         24    2    4    4    0    0  0.99945923400E+02 -0.93430545074E+03 -0.13016782613E+04  0.16074706551E+04  0.81729726910E+02 0.  0.
         13    1    3    3    0    0  0.10580346656E+03  0.85240767431E+03 -0.68262290913E+03  0.10971632754E+04  0.00000000000E+00 0.  1.
        -13    1    3    3    0    0  0.34966939728E+02  0.16899105465E+03 -0.91165678473E+02  0.19517132053E+03  0.00000000000E+00 0. -1.
          2    1    6    6  502    0  0.66270336770E+02 -0.55556661576E+03 -0.84147973969E+03  0.10105118378E+04  0.00000000000E+00 0. -1.
          1    1    5    5  503    0 -0.17472816030E+03 -0.80976150825E+02  0.43889485969E+02  0.19751798394E+03  0.00000000000E+00 0. -1.
         -2    1    5    5    0  503 -0.65988169391E+02 -0.61171273967E+01 -0.25639635054E+02  0.71058065221E+02  0.00000000000E+00 0.  1.
         -1    1    6    6    0  502  0.33675586630E+02 -0.37873883498E+03 -0.46019852162E+03  0.59695881730E+03  0.00000000000E+00 0.  1.
<mgrwt>
<rscale>  0 0.24096677E+04</rscale>
<asrwt>0</asrwt>
<pdfrwt beam="1">  1        2 0.40196910E+00 0.24096677E+04</pdfrwt>
<pdfrwt beam="2">  1       -2 0.85474177E-01 0.24096677E+04</pdfrwt>
<totfact> 0.31970673E+00</totfact>
</mgrwt>
</event>
<event>
12    1  0.1506149E-007  0.2227643E+04  0.7818608E-02  0.8507010E-01
         -1   -1    0    0    0  501 -0.00000000000E+00  0.00000000000E+00  0.15539133357E+04  0.15539133357E+04  0.00000000000E+00 0.  1.
          1   -1    0    0  501    0  0.00000000000E+00 -0.00000000000E+00 -0.79837069497E+03  0.79837069497E+03  0.00000000000E+00 0. -1.
         23    2    1    2    0    0  0.53247295950E+03 -0.74172852848E+03  0.51300725588E+03  0.10503849892E+04  0.80271529212E+02 0.  0.
        254    2    1    2    0    0 -0.53247295950E+03  0.74172852848E+03  0.24253538489E+03  0.13018990415E+04  0.89578403579E+03 0.  0.
        -24    2    4    4    0    0  0.21130320432E+03  0.37958367231E+03  0.22534270897E+02  0.44213343706E+03  0.79002369349E+02 0.  0.
         24    2    4    4    0    0 -0.74377616382E+03  0.36214485617E+03  0.22000111400E+03  0.85976560444E+03  0.80277803354E+02 0.  0.
         11    1    3    3    0    0  0.32385217923E+02 -0.76123832448E+02  0.63206515182E+02  0.10410909551E+03  0.00000000000E+00 0. -1.
        -11    1    3    3    0    0  0.50008774158E+03 -0.66560469603E+03  0.44980074070E+03  0.94627589369E+03  0.00000000000E+00 0.  1.
          2    1    6    6  502    0 -0.37628739005E+03  0.22108092892E+03  0.93768196123E+02  0.44638710963E+03  0.00000000000E+00 0. -1.
          1    1    5    5  503    0  0.91233819607E+01  0.54097235138E+02 -0.15696312115E+02  0.57062432142E+02  0.00000000000E+00 0. -1.
         -2    1    5    5    0  503  0.20217982236E+03  0.32548643717E+03  0.38230583012E+02  0.38507100492E+03  0.00000000000E+00 0.  1.
         -3    1    6    6    0  502 -0.36748877377E+03  0.14106392725E+03  0.12623291787E+03  0.41337849481E+03  0.00000000000E+00 0.  1.
<mgrwt>
<rscale>  0 0.22276435E+04</rscale>
<asrwt>0</asrwt>
<pdfrwt beam="1">  1        1 0.12282626E+00 0.22276435E+04</pdfrwt>
<pdfrwt beam="2">  1       -1 0.23906359E+00 0.22276435E+04</pdfrwt>
<totfact> 0.16589314E+00</totfact>
</mgrwt>
</event>
<event>
12    1  0.1506149E-007  0.1935003E+04  0.7818608E-02  0.8637626E-01
         -2   -1    0    0    0  501 -0.00000000000E+00  0.00000000000E+00  0.72425799946E+03  0.72425799946E+03  0.00000000000E+00 0.  1.
          2   -1    0    0  501    0  0.00000000000E+00 -0.00000000000E+00 -0.12924393287E+04  0.12924393287E+04  0.00000000000E+00 0. -1.
         23    2    1    2    0    0 -0.80063259587E+02  0.11760455187E+03 -0.10085081750E+04  0.10228234429E+04  0.94011170579E+02 0.  0.
        254    2    1    2    0    0  0.80063259587E+02 -0.11760455187E+03  0.44032684576E+03  0.99387388523E+03  0.87957751932E+03 0.  0.
        -24    2    4    4    0    0  0.13579624513E+03  0.32425580066E+03  0.40206676044E+03  0.53993901972E+03  0.79334864395E+02 0.  0.
         24    2    4    4    0    0 -0.55732985540E+02 -0.44186035253E+03  0.38260085319E+02  0.45393486552E+03  0.79033481442E+02 0.  0.
         11    1    3    3    0    0 -0.11518290184E+02  0.10403512534E+01 -0.10266897776E+02  0.15464880518E+02  0.00000000000E+00 0.  1.
        -11    1    3    3    0    0 -0.68544969403E+02  0.11656420062E+03 -0.99824127718E+03  0.10073585624E+04  0.00000000000E+00 0. -1.
          2    1    6    6  502    0 -0.33819253498E+02 -0.28330585788E+03  0.62405340351E+02  0.29206228363E+03  0.00000000000E+00 0. -1.
          1    1    5    5  503    0  0.28053462321E+02  0.54281500019E+02  0.30828669757E+02  0.68438913431E+02  0.00000000000E+00 0. -1.
         -2    1    5    5    0  503  0.10774278281E+03  0.26997430064E+03  0.37123809068E+03  0.47150010629E+03  0.00000000000E+00 0.  1.
         -1    1    6    6    0  502 -0.21913732043E+02 -0.15855449465E+03 -0.24145255031E+02  0.16187258189E+03  0.00000000000E+00 0.  1.
<mgrwt>
<rscale>  0 0.19350034E+04</rscale>
<asrwt>0</asrwt>
<pdfrwt beam="1">  1        2 0.19883682E+00 0.19350034E+04</pdfrwt>
<pdfrwt beam="2">  1       -2 0.11142431E+00 0.19350034E+04</pdfrwt>
<totfact> 0.99344452E+00</totfact>
</mgrwt>
</event>
<event>
12    1  0.1506149E-007  0.1970639E+04  0.7818608E-02  0.8620472E-01
         -1   -1    0    0    0  501 -0.00000000000E+00  0.00000000000E+00  0.70710400942E+03  0.70710400942E+03  0.00000000000E+00 0.  1.
          1   -1    0    0  501    0  0.00000000000E+00 -0.00000000000E+00 -0.13730014380E+04  0.13730014380E+04  0.00000000000E+00 0. -1.
         23    2    1    2    0    0  0.72787243203E+03  0.26730397961E+03 -0.18855773776E+03  0.80314151531E+03  0.90733556725E+02 0.  0.
        254    2    1    2    0    0 -0.72787243203E+03 -0.26730397961E+03 -0.47733969078E+03  0.12769639321E+04  0.89528431720E+03 0.  0.
        -24    2    4    4    0    0 -0.14534258655E+03 -0.51192822302E+03 -0.14307376109E+03  0.55771823756E+03  0.85933453325E+02 0.  0.
         24    2    4    4    0    0 -0.58252984547E+03  0.24462424341E+03 -0.33426592969E+03  0.71924569452E+03  0.79991349563E+02 0.  0.
         13    1    3    3    0    0  0.59031108866E+03  0.17776123274E+03 -0.15299781006E+03  0.63519647917E+03  0.00000000000E+00 0.  1.
        -13    1    3    3    0    0  0.13756134337E+03  0.89542746870E+02 -0.35559927698E+02  0.16794503614E+03  0.00000000000E+00 0. -1.
          2    1    6    6  502    0 -0.54744596867E+03  0.23921947721E+03 -0.29493845491E+03  0.66626701785E+03  0.00000000000E+00 0. -1.
          3    1    5    5  503    0 -0.43524442605E+02 -0.29100237418E+03 -0.99357445276E+02  0.31056184701E+03  0.00000000000E+00 0. -1.
         -4    1    5    5    0  503 -0.10181814395E+03 -0.22092584884E+03 -0.43716315811E+02  0.24715639055E+03  0.00000000000E+00 0.  1.
         -1    1    6    6    0  502 -0.35083876804E+02  0.54047661979E+01 -0.39327474781E+02  0.52978676672E+02  0.00000000000E+00 0.  1.
<mgrwt>
<rscale>  0 0.19706393E+04</rscale>
<asrwt>0</asrwt>
<pdfrwt beam="1">  1        1 0.21123099E+00 0.19706393E+04</pdfrwt>
<pdfrwt beam="2">  1       -1 0.10878523E+00 0.19706393E+04</pdfrwt>
<totfact> 0.58487648E+00</totfact>
</mgrwt>
</event>
<event>
12    1  0.1506149E-007  0.1601494E+04  0.7818608E-02  0.8819631E-01
          1   -1    0    0  501    0  0.00000000000E+00  0.00000000000E+00  0.22452440770E+04  0.22452440770E+04  0.00000000000E+00 0. -1.
         -1   -1    0    0    0  501 -0.00000000000E+00 -0.00000000000E+00 -0.28557965795E+03  0.28557965795E+03  0.00000000000E+00 0.  1.
         23    2    1    2    0    0 -0.54060059649E+03 -0.56483622541E+02  0.67296343442E+03  0.86978441597E+03  0.90585548884E+02 0.  0.
        254    2    1    2    0    0  0.54060059649E+03  0.56483622541E+02  0.12867009846E+04  0.16610393190E+04  0.89889531696E+03 0.  0.
        -24    2    4    4    0    0 -0.18602033908E+03 -0.12503011845E+03  0.58413735816E+03  0.63107103479E+03  0.82450595416E+02 0.  0.
         24    2    4    4    0    0  0.72662093556E+03  0.18151374099E+03  0.70256362649E+03  0.10299682842E+04  0.79459392452E+02 0.  0.
         11    1    3    3    0    0 -0.28077902841E+02 -0.30057490263E+01  0.96759366176E+01  0.29850073778E+02  0.00000000000E+00 0. -1.
        -11    1    3    3    0    0 -0.51252269365E+03 -0.53477873515E+02  0.66328749780E+03  0.83993434219E+03  0.00000000000E+00 0.  1.
          4    1    6    6  502    0  0.67365083276E+03  0.14712586317E+03  0.63315712653E+03  0.93613001820E+03  0.00000000000E+00 0. -1.
          1    1    5    5  503    0 -0.97369525548E+02 -0.17124567862E+02  0.22659879130E+03  0.24722679375E+03  0.00000000000E+00 0. -1.
         -2    1    5    5    0  503 -0.88650813530E+02 -0.10790555059E+03  0.35753856686E+03  0.38384424104E+03  0.00000000000E+00 0.  1.
         -3    1    6    6    0  502  0.52970102801E+02  0.34387877823E+02  0.69406499965E+02  0.93838266019E+02  0.00000000000E+00 0.  1.
<mgrwt>
<rscale>  0 0.16014943E+04</rscale>
<asrwt>0</asrwt>
<pdfrwt beam="1">  1        1 0.34542215E+00 0.16014943E+04</pdfrwt>
<pdfrwt beam="2">  1       -1 0.43935333E-01 0.16014943E+04</pdfrwt>
<totfact> 0.99794313E+00</totfact>
</mgrwt>
</event>
<event>
12    1  0.1506149E-007  0.1611793E+04  0.7818608E-02  0.8813336E-01
         -2   -1    0    0    0  501 -0.00000000000E+00  0.00000000000E+00  0.64872309981E+03  0.64872309981E+03  0.00000000000E+00 0.  1.
          2   -1    0    0  501    0  0.00000000000E+00 -0.00000000000E+00 -0.10011501512E+04  0.10011501512E+04  0.00000000000E+00 0. -1.
         23    2    1    2    0    0  0.26130756114E+03 -0.22919517572E+03 -0.55946785424E+03  0.66461208592E+03  0.88841852427E+02 0.  0.
        254    2    1    2    0    0 -0.26130756114E+03  0.22919517572E+03  0.20704080288E+03  0.98526116505E+03  0.89836607194E+03 0.  0.
        -24    2    4    4    0    0 -0.14941250103E+03 -0.33909281030E+03  0.64347726290E+02  0.38338631126E+03  0.74407017946E+02 0.  0.
         24    2    4    4    0    0 -0.11189506011E+03  0.56828798603E+03  0.14269307659E+03  0.60187485379E+03  0.80126687063E+02 0.  0.
         13    1    3    3    0    0  0.22123181834E+03 -0.22466014358E+03 -0.52036440956E+03  0.60843636997E+03  0.00000000000E+00 0. -1.
        -13    1    3    3    0    0  0.40075742801E+02 -0.45350321461E+01 -0.39103444677E+02  0.56175715956E+02  0.00000000000E+00 0.  1.
          4    1    6    6  502    0 -0.92415001007E+02  0.53698498601E+03  0.14800996371E+03  0.56462408465E+03  0.00000000000E+00 0. -1.
          3    1    5    5  503    0 -0.11999957248E+03 -0.29090149594E+03  0.27308626235E+02  0.31586284808E+03  0.00000000000E+00 0. -1.
         -4    1    5    5    0  503 -0.29412928556E+02 -0.48191314368E+02  0.37039100055E+02  0.67523463179E+02  0.00000000000E+00 0.  1.
         -3    1    6    6    0  502 -0.19480059101E+02  0.31303000014E+02 -0.53168871245E+01  0.37250769135E+02  0.00000000000E+00 0.  1.
<mgrwt>
<rscale>  0 0.16117931E+04</rscale>
<asrwt>0</asrwt>
<pdfrwt beam="1">  1        2 0.15402310E+00 0.16117931E+04</pdfrwt>
<pdfrwt beam="2">  1       -2 0.99803554E-01 0.16117931E+04</pdfrwt>
<totfact> 0.19996425E+01</totfact>
</mgrwt>
</event>
<event>
12    1  0.1506149E-007  0.2255830E+04  0.7818608E-02  0.8495543E-01
          2   -1    0    0  501    0  0.00000000000E+00  0.00000000000E+00  0.31078325699E+04  0.31078325699E+04  0.00000000000E+00 0. -1.
         -2   -1    0    0    0  501 -0.00000000000E+00 -0.00000000000E+00 -0.40935026182E+03  0.40935026182E+03  0.00000000000E+00 0.  1.
         23    2    1    2    0    0  0.88340214974E+03 -0.13606723479E+03  0.76739188413E+03  0.11813595316E+04  0.88353768925E+02 0.  0.
        254    2    1    2    0    0 -0.88340214974E+03  0.13606723479E+03  0.19310904240E+04  0.23358233002E+04  0.96335175997E+03 0.  0.
        -24    2    4    4    0    0 -0.48391261614E+03 -0.40507252216E+03  0.96252308891E+03  0.11538504284E+04  0.81639121803E+02 0.  0.
         24    2    4    4    0    0 -0.39948953360E+03  0.54113975696E+03  0.96856733507E+03  0.11819728717E+04  0.80703549784E+02 0.  0.
         13    1    3    3    0    0  0.11056092002E+03 -0.43178613387E+02  0.82566113242E+02  0.14458655797E+03  0.00000000000E+00 0. -1.
        -13    1    3    3    0    0  0.77284122972E+03 -0.92888621407E+02  0.68482577089E+03  0.10367729736E+04  0.00000000000E+00 0.  1.
          2    1    6    6  502    0 -0.15803288860E+03  0.21963100480E+03  0.32211822494E+03  0.42068078514E+03  0.00000000000E+00 0. -1.
          1    1    5    5  503    0 -0.25415570211E+03 -0.21476614924E+03  0.58092612171E+03  0.66947350856E+03  0.00000000000E+00 0. -1.
         -2    1    5    5    0  503 -0.22975691403E+03 -0.19030637292E+03  0.38159696720E+03  0.48437691986E+03  0.00000000000E+00 0.  1.
         -1    1    6    6    0  502 -0.24145664499E+03  0.32150875216E+03  0.64644911013E+03  0.76129208660E+03  0.00000000000E+00 0.  1.
<mgrwt>
<rscale>  0 0.22558298E+04</rscale>
<asrwt>0</asrwt>
<pdfrwt beam="1">  1        2 0.47812807E+00 0.22558298E+04</pdfrwt>
<pdfrwt beam="2">  1       -2 0.62976965E-01 0.22558298E+04</pdfrwt>
<totfact> 0.31665296E+00</totfact>
</mgrwt>
</event>
<event>
12    1  0.1506149E-007  0.3489879E+04  0.7818608E-02  0.8116193E-01
         -1   -1    0    0    0  501 -0.00000000000E+00  0.00000000000E+00  0.93758491186E+03  0.93758491186E+03  0.00000000000E+00 0.  1.
          1   -1    0    0  501    0  0.00000000000E+00 -0.00000000000E+00 -0.32475069677E+04  0.32475069677E+04  0.00000000000E+00 0. -1.
         23    2    1    2    0    0  0.13563257211E+04  0.46311919471E+03 -0.20178949628E+04  0.24767377844E+04  0.90725528483E+02 0.  0.
        254    2    1    2    0    0 -0.13563257211E+04 -0.46311919471E+03 -0.29202709307E+03  0.17083540952E+04  0.88266360605E+03 0.  0.
        -24    2    4    4    0    0 -0.12618525861E+04 -0.62497484509E+03 -0.41630517629E+03  0.14702987247E+04  0.74852080848E+02 0.  0.
         24    2    4    4    0    0 -0.94473134991E+02  0.16185565038E+03  0.12427808323E+03  0.23805537054E+03  0.78121013045E+02 0.  0.
         11    1    3    3    0    0  0.72643567447E+03  0.26602064554E+03 -0.11608852241E+04  0.13950377330E+04  0.00000000000E+00 0. -1.
        -11    1    3    3    0    0  0.62989004659E+03  0.19709854917E+03 -0.85700973866E+03  0.10817000513E+04  0.00000000000E+00 0.  1.
          4    1    6    6  502    0 -0.13496966645E+02  0.51035886701E+01  0.40008637986E+02  0.42531233693E+02  0.00000000000E+00 0. -1.
          3    1    5    5  503    0 -0.35899934882E+03 -0.17378253322E+03 -0.83190832830E+02  0.40743295887E+03  0.00000000000E+00 0. -1.
         -4    1    5    5    0  503 -0.90285323725E+03 -0.45119231186E+03 -0.33311434346E+03  0.10628657658E+04  0.00000000000E+00 0.  1.
         -3    1    6    6    0  502 -0.80976168346E+02  0.15675206171E+03  0.84269445242E+02  0.19552413685E+03  0.00000000000E+00 0.  1.
<mgrwt>
<rscale>  0 0.34898788E+04</rscale>
<asrwt>0</asrwt>
<pdfrwt beam="1">  1        1 0.49961646E+00 0.34898788E+04</pdfrwt>
<pdfrwt beam="2">  1       -1 0.14424383E+00 0.34898788E+04</pdfrwt>
<totfact> 0.12369383E-01</totfact>
</mgrwt>
</event>
<event>
12    1  0.1506149E-007  0.2047112E+04  0.7818608E-02  0.8584906E-01
         -2   -1    0    0    0  501 -0.00000000000E+00  0.00000000000E+00  0.11457619445E+04  0.11457619445E+04  0.00000000000E+00 0. -1.
          2   -1    0    0  501    0  0.00000000000E+00 -0.00000000000E+00 -0.91438447397E+03  0.91438447397E+03  0.00000000000E+00 0.  1.
         23    2    1    2    0    0 -0.17294853803E+03 -0.26557114508E+02  0.90073764717E+03  0.92204125926E+03  0.90638278979E+02 0.  0.
        254    2    1    2    0    0  0.17294853803E+03  0.26557114508E+02 -0.66936017663E+03  0.11381051592E+04  0.90367241313E+03 0.  0.
        -24    2    4    4    0    0  0.85885897988E+01  0.45073594591E+03 -0.35265399197E+03  0.57795046912E+03  0.80157656503E+02 0.  0.
         24    2    4    4    0    0  0.16435994823E+03 -0.42417883141E+03 -0.31670618466E+03  0.56015469010E+03  0.80799726749E+02 0.  0.
         13    1    3    3    0    0 -0.10347570138E+03  0.29124881202E+02  0.45887762929E+03  0.47130049665E+03  0.00000000000E+00 0.  1.
        -13    1    3    3    0    0 -0.69472836646E+02 -0.55681995710E+02  0.44186001788E+03  0.45074076261E+03  0.00000000000E+00 0. -1.
          2    1    6    6  502    0  0.93500229258E+01 -0.10752750489E+03 -0.94167277987E+02  0.14323778650E+03  0.00000000000E+00 0. -1.
          3    1    5    5  503    0  0.31501157524E+02  0.36430830392E+03 -0.25657511004E+03  0.44670308967E+03  0.00000000000E+00 0. -1.
         -4    1    5    5    0  503 -0.22912567725E+02  0.86427641994E+02 -0.96078881930E+02  0.13124737945E+03  0.00000000000E+00 0.  1.
         -1    1    6    6    0  502  0.15500992531E+03 -0.31665132651E+03 -0.22253890668E+03  0.41691690360E+03  0.00000000000E+00 0.  1.
<mgrwt>
<rscale>  0 0.20471120E+04</rscale>
<asrwt>0</asrwt>
<pdfrwt beam="1">  1        2 0.14067453E+00 0.20471120E+04</pdfrwt>
<pdfrwt beam="2">  1       -2 0.17627107E+00 0.20471120E+04</pdfrwt>
<totfact> 0.51065475E+00</totfact>
</mgrwt>
</event>
<event>
12    1  0.1506149E-007  0.1247651E+04  0.7818608E-02  0.9072141E-01
          2   -1    0    0  501    0  0.00000000000E+00  0.00000000000E+00  0.46008658431E+04  0.46008658431E+04  0.00000000000E+00 0. -1.
         -2   -1    0    0    0  501 -0.00000000000E+00 -0.00000000000E+00 -0.84583659398E+02  0.84583659398E+02  0.00000000000E+00 0.  1.
         23    2    1    2    0    0 -0.21195550939E+03 -0.15216657010E+02  0.18183524181E+04  0.18330371328E+04  0.91994179207E+02 0.  0.
        254    2    1    2    0    0  0.21195550939E+03  0.15216657010E+02  0.26979297655E+04  0.28524123697E+04  0.90126279317E+03 0.  0.
        -24    2    4    4    0    0  0.83175027163E+02 -0.11802464283E+02  0.26965467446E+04  0.26990503650E+04  0.80319010996E+02 0.  0.
         24    2    4    4    0    0  0.12878048223E+03  0.27019121294E+02  0.13830208943E+01  0.15336200467E+03  0.78762593994E+02 0.  0.
         11    1    3    3    0    0 -0.66508388874E+02  0.46863929521E+01  0.95226555239E+03  0.95459677893E+03  0.00000000000E+00 0. -1.
        -11    1    3    3    0    0 -0.14544712051E+03 -0.19903049962E+02  0.86608686574E+03  0.87844035385E+03  0.00000000000E+00 0.  1.
          4    1    6    6  502    0  0.81173518758E+02  0.23111612090E+02 -0.36932606771E+02  0.92126566222E+02  0.00000000000E+00 0. -1.
          1    1    5    5  503    0 -0.86679226968E+01 -0.11709785196E+02  0.93297853887E+03  0.93309228158E+03  0.00000000000E+00 0. -1.
         -2    1    5    5    0  503  0.91842949860E+02 -0.92679087415E-01  0.17635682058E+04  0.17659580834E+04  0.00000000000E+00 0.  1.
         -3    1    6    6    0  502  0.47606963467E+02  0.39075092035E+01  0.38315627666E+02  0.61235438450E+02  0.00000000000E+00 0.  1.
<mgrwt>
<rscale>  0 0.12476507E+04</rscale>
<asrwt>0</asrwt>
<pdfrwt beam="1">  1        2 0.70782532E+00 0.12476507E+04</pdfrwt>
<pdfrwt beam="2">  1       -2 0.13012874E-01 0.12476507E+04</pdfrwt>
<totfact> 0.45292291E+00</totfact>
</mgrwt>
</event>
<event>
12    1  0.1506149E-007  0.2291680E+04  0.7818608E-02  0.8481209E-01
         -1   -1    0    0    0  501 -0.00000000000E+00  0.00000000000E+00  0.10747898359E+04  0.10747898359E+04  0.00000000000E+00 0.  1.
          1   -1    0    0  501    0  0.00000000000E+00 -0.00000000000E+00 -0.12215866690E+04  0.12215866690E+04  0.00000000000E+00 0. -1.
         23    2    1    2    0    0 -0.74572353868E+03  0.29528252816E+03 -0.60111917110E+03  0.10074708299E+04  0.10177351131E+03 0.  0.
        254    2    1    2    0    0  0.74572353868E+03 -0.29528252816E+03  0.45432233800E+03  0.12889056751E+04  0.90087384520E+03 0.  0.
        -24    2    4    4    0    0  0.22511075037E+02 -0.37757886924E+03 -0.64039678537E+02  0.39241209849E+03  0.82544676543E+02 0.  0.
         24    2    4    4    0    0  0.72321246364E+03  0.82296341073E+02  0.51836201653E+03  0.89649357662E+03  0.72059679595E+02 0.  0.
         11    1    3    3    0    0 -0.41317391326E+03  0.15952328342E+03 -0.26853920029E+03  0.51795140955E+03  0.00000000000E+00 0.  1.
        -11    1    3    3    0    0 -0.33254962541E+03  0.13575924474E+03 -0.33257997081E+03  0.48951942033E+03  0.00000000000E+00 0. -1.
          4    1    6    6  502    0  0.71431411262E+03  0.77916483264E+02  0.49926563983E+03  0.87497531906E+03  0.00000000000E+00 0. -1.
          3    1    5    5  503    0  0.10437824548E+02 -0.32998218548E+03 -0.27667600069E+02  0.33130452307E+03  0.00000000000E+00 0. -1.
         -4    1    5    5    0  503  0.12073250490E+02 -0.47596683760E+02 -0.36372078468E+02  0.61107575425E+02  0.00000000000E+00 0.  1.
         -3    1    6    6    0  502  0.88983510245E+01  0.43798578086E+01  0.19096376707E+02  0.21518257567E+02  0.00000000000E+00 0.  1.
<mgrwt>
<rscale>  0 0.22916797E+04</rscale>
<asrwt>0</asrwt>
<pdfrwt beam="1">  1        1 0.18793641E+00 0.22916797E+04</pdfrwt>
<pdfrwt beam="2">  1       -1 0.16535228E+00 0.22916797E+04</pdfrwt>
<totfact> 0.24829913E+00</totfact>
</mgrwt>
</event>
<event>
12    1  0.1506149E-007  0.1497163E+04  0.7818608E-02  0.8886341E-01
          2   -1    0    0  501    0  0.00000000000E+00  0.00000000000E+00  0.46335450753E+03  0.46335450753E+03  0.00000000000E+00 0.  1.
         -2   -1    0    0    0  501 -0.00000000000E+00 -0.00000000000E+00 -0.12093862862E+04  0.12093862862E+04  0.00000000000E+00 0. -1.
         23    2    1    2    0    0  0.30118923534E+03 -0.24072899149E+03  0.50595646706E+02  0.40093355805E+03  0.97582763198E+02 0.  0.
        254    2    1    2    0    0 -0.30118923534E+03  0.24072899149E+03 -0.79662742533E+03  0.12718072356E+04  0.91335260826E+03 0.  0.
        -24    2    4    4    0    0 -0.36997169675E+02  0.53097057602E+03 -0.24820684864E+03  0.59270933879E+03  0.79994858695E+02 0.  0.
         24    2    4    4    0    0 -0.26419206567E+03 -0.29024158453E+03 -0.54842057669E+03  0.67909789685E+03  0.79819794654E+02 0.  0.
         11    1    3    3    0    0 -0.19718660935E+00 -0.22357206704E+02  0.15276540972E+02  0.27078705254E+02  0.00000000000E+00 0. -1.
        -11    1    3    3    0    0  0.30138642195E+03 -0.21837178479E+03  0.35319105734E+02  0.37385485280E+03  0.00000000000E+00 0.  1.
          4    1    6    6  502    0 -0.21139167993E+03 -0.22471549628E+03 -0.48019736662E+03  0.57076528233E+03  0.00000000000E+00 0. -1.
          3    1    5    5  503    0 -0.59901116998E+02  0.44856794115E+03 -0.20342927140E+03  0.49617014230E+03  0.00000000000E+00 0. -1.
         -4    1    5    5    0  503  0.22903947323E+02  0.82402634866E+02 -0.44777577241E+02  0.96539196492E+02  0.00000000000E+00 0.  1.
         -3    1    6    6    0  502 -0.52800385738E+02 -0.65526088250E+02 -0.68223210072E+02  0.10833261452E+03  0.00000000000E+00 0.  1.
<mgrwt>
<rscale>  0 0.14971634E+04</rscale>
<asrwt>0</asrwt>
<pdfrwt beam="1">  1        2 0.71285310E-01 0.14971634E+04</pdfrwt>
<pdfrwt beam="2">  1       -2 0.18605943E+00 0.14971634E+04</pdfrwt>
<totfact> 0.10698415E+01</totfact>
</mgrwt>
</event>
<event>
12    1  0.1506149E-007  0.2353157E+04  0.7818608E-02  0.8457252E-01
         -2   -1    0    0    0  501 -0.00000000000E+00  0.00000000000E+00  0.11866556186E+04  0.11866556186E+04  0.00000000000E+00 0.  1.
          2   -1    0    0  501    0  0.00000000000E+00 -0.00000000000E+00 -0.11665868243E+04  0.11665868243E+04  0.00000000000E+00 0. -1.
         23    2    1    2    0    0  0.58999786374E+02  0.99113792578E+03  0.14635225966E+03  0.10074827329E+04  0.88131211698E+02 0.  0.
        254    2    1    2    0    0 -0.58999786374E+02 -0.99113792578E+03 -0.12628346541E+03  0.13457597101E+04  0.89960342421E+03 0.  0.
        -24    2    4    4    0    0  0.32527176654E+02 -0.11213267936E+03  0.32175151417E+03  0.35167928509E+03  0.80762167462E+02 0.  0.
         24    2    4    4    0    0 -0.91526963028E+02 -0.87900524642E+03 -0.44803497957E+03  0.99408042496E+03  0.80206858637E+02 0.  0.
         13    1    3    3    0    0  0.17499943729E+02  0.19889888988E+03 -0.55557837360E+01  0.19974454475E+03  0.00000000000E+00 0. -1.
        -13    1    3    3    0    0  0.41499842645E+02  0.79223903590E+03  0.15190804340E+03  0.80773818815E+03  0.00000000000E+00 0.  1.
          2    1    6    6  502    0 -0.27169140666E+02 -0.20270251103E+03 -0.14196475929E+03  0.24895875775E+03  0.00000000000E+00 0. -1.
          1    1    5    5  503    0 -0.45012785241E+01 -0.59449837933E+02  0.70610703444E+02  0.92414372147E+02  0.00000000000E+00 0. -1.
         -2    1    5    5    0  503  0.37028455178E+02 -0.52682841425E+02  0.25114081072E+03  0.25926491294E+03  0.00000000000E+00 0.  1.
         -1    1    6    6    0  502 -0.64357822363E+02 -0.67630273539E+03 -0.30607022029E+03  0.74512166721E+03  0.00000000000E+00 0.  1.
<mgrwt>
<rscale>  0 0.23531569E+04</rscale>
<asrwt>0</asrwt>
<pdfrwt beam="1">  1        2 0.17947490E+00 0.23531569E+04</pdfrwt>
<pdfrwt beam="2">  1       -2 0.18256240E+00 0.23531569E+04</pdfrwt>
<totfact> 0.31176849E+00</totfact>
</mgrwt>
</event>
<event>
12    1  0.1506149E-007  0.1056557E+04  0.7818608E-02  0.9248600E-01
         -2   -1    0    0    0  501 -0.00000000000E+00  0.00000000000E+00  0.12782638511E+03  0.12782638511E+03  0.00000000000E+00 0. -1.
          2   -1    0    0  501    0  0.00000000000E+00 -0.00000000000E+00 -0.21832601149E+04  0.21832601149E+04  0.00000000000E+00 0.  1.
         23    2    1    2    0    0  0.42139513080E+02  0.35086584743E+02 -0.47801548874E+03  0.48890873201E+03  0.86753292560E+02 0.  0.
        254    2    1    2    0    0 -0.42139513080E+02 -0.35086584743E+02 -0.15774182410E+04  0.18221777680E+04  0.91053649239E+03 0.  0.
        -24    2    4    4    0    0  0.36392402661E+03 -0.19317916801E+03 -0.10643024977E+04  0.11445488282E+04  0.86563995774E+02 0.  0.
         24    2    4    4    0    0 -0.40606353969E+03  0.15809258327E+03 -0.51311574329E+03  0.67762893977E+03  0.77539350341E+02 0.  0.
         13    1    3    3    0    0  0.46859428611E+02  0.18045238439E+02 -0.11526746656E+03  0.12572997068E+03  0.00000000000E+00 0. -1.
        -13    1    3    3    0    0 -0.47199155311E+01  0.17041346304E+02 -0.36274802218E+03  0.36317876133E+03  0.00000000000E+00 0.  1.
          2    1    6    6  502    0 -0.20739232557E+03  0.70303562599E+02 -0.31503297828E+03  0.38366645022E+03  0.00000000000E+00 0. -1.
          1    1    5    5  503    0  0.77627789781E+02 -0.23178808628E+02 -0.13555282361E+03  0.15791738000E+03  0.00000000000E+00 0. -1.
         -4    1    5    5    0  503  0.28629623683E+03 -0.17000035938E+03 -0.92874967410E+03  0.98663144819E+03  0.00000000000E+00 0.  1.
         -1    1    6    6    0  502 -0.19867121411E+03  0.87789020666E+02 -0.19808276502E+03  0.29396248955E+03  0.00000000000E+00 0.  1.
<mgrwt>
<rscale>  0 0.10565571E+04</rscale>
<asrwt>0</asrwt>
<pdfrwt beam="1">  1        2 0.33588620E+00 0.10565571E+04</pdfrwt>
<pdfrwt beam="2">  1       -2 0.19665596E-01 0.10565571E+04</pdfrwt>
<totfact> 0.11622686E+02</totfact>
</mgrwt>
</event>
<event>
12    1  0.1506149E-007  0.1425230E+04  0.7818608E-02  0.8935756E-01
         -2   -1    0    0    0  501 -0.00000000000E+00  0.00000000000E+00  0.27458271253E+03  0.27458271253E+03  0.00000000000E+00 0.  1.
          2   -1    0    0  501    0  0.00000000000E+00 -0.00000000000E+00 -0.18494239944E+04  0.18494239944E+04  0.00000000000E+00 0. -1.
         23    2    1    2    0    0 -0.55515528160E+02 -0.62323762961E+02  0.14699010341E+03  0.19823579266E+03  0.10356212480E+03 0.  0.
        254    2    1    2    0    0  0.55515528160E+02  0.62323762961E+02 -0.17218313853E+04  0.19257709143E+04  0.85844281675E+03 0.  0.
        -24    2    4    4    0    0  0.20959041277E+03  0.38777872353E+03 -0.62711777042E+03  0.77064011618E+03  0.79429283901E+02 0.  0.
         24    2    4    4    0    0 -0.15407488461E+03 -0.32545496057E+03 -0.10947136148E+04  0.11551307981E+04  0.79178663332E+02 0.  0.
         13    1    3    3    0    0  0.10043652366E+02 -0.66555571513E+02  0.73613788245E+02  0.99747224884E+02  0.00000000000E+00 0.  1.
        -13    1    3    3    0    0 -0.65559180526E+02  0.42318085517E+01  0.73376315163E+02  0.98488567772E+02  0.00000000000E+00 0. -1.
          4    1    6    6  502    0 -0.12379050536E+03 -0.16992414050E+03 -0.62378485598E+03  0.65825971265E+03  0.00000000000E+00 0. -1.
          3    1    5    5  503    0  0.61520269810E+02  0.50936021313E+02 -0.11726670414E+03  0.14188270424E+03  0.00000000000E+00 0. -1.
         -4    1    5    5    0  503  0.14807014296E+03  0.33684270221E+03 -0.50985106629E+03  0.62875741194E+03  0.00000000000E+00 0.  1.
         -3    1    6    6    0  502 -0.30284379250E+02 -0.15553082007E+03 -0.47092875885E+03  0.49687108543E+03  0.00000000000E+00 0.  1.
<mgrwt>
<rscale>  0 0.14252296E+04</rscale>
<asrwt>0</asrwt>
<pdfrwt beam="1">  1        2 0.28452677E+00 0.14252296E+04</pdfrwt>
<pdfrwt beam="2">  1       -2 0.42243494E-01 0.14252296E+04</pdfrwt>
<totfact> 0.41805385E+01</totfact>
</mgrwt>
</event>
<event>
12    1  0.1506149E-007  0.1858839E+04  0.7818608E-02  0.8675621E-01
          3   -1    0    0  501    0  0.00000000000E+00  0.00000000000E+00  0.96802665512E+03  0.96802665512E+03  0.00000000000E+00 0. -1.
         -3   -1    0    0    0  501 -0.00000000000E+00 -0.00000000000E+00 -0.89235196963E+03  0.89235196963E+03  0.00000000000E+00 0.  1.
         23    2    1    2    0    0  0.15272963304E+03 -0.48188833967E+03  0.51102079993E+03  0.72455639728E+03  0.91087881591E+02 0.  0.
        254    2    1    2    0    0 -0.15272963304E+03  0.48188833967E+03 -0.43534611443E+03  0.11358222275E+04  0.91925142389E+03 0.  0.
        -24    2    4    4    0    0 -0.47154884069E+03  0.10685067344E+03 -0.40633167629E+03  0.63641570740E+03  0.78384602412E+02 0.  0.
         24    2    4    4    0    0  0.31881920765E+03  0.37503766623E+03 -0.29014438143E+02  0.49940652007E+03  0.79158678627E+02 0.  0.
         13    1    3    3    0    0  0.13412811465E+03 -0.37749570434E+03  0.44887780181E+03  0.60165159261E+03  0.00000000000E+00 0. -1.
        -13    1    3    3    0    0  0.18601518391E+02 -0.10439263533E+03  0.62142998119E+02  0.12290480467E+03  0.00000000000E+00 0.  1.
          2    1    6    6  502    0  0.88001335558E+02  0.89378186695E+02 -0.40977625459E+02  0.13195401133E+03  0.00000000000E+00 0. -1.
          1    1    5    5  503    0 -0.34068076245E+03  0.50319177421E+02 -0.25497382422E+03  0.42849393527E+03  0.00000000000E+00 0. -1.
         -2    1    5    5    0  503 -0.13086807824E+03  0.56531496014E+02 -0.15135785207E+03  0.20792177213E+03  0.00000000000E+00 0.  1.
         -1    1    6    6    0  502  0.23081787210E+03  0.28565947954E+03  0.11963187316E+02  0.36745250874E+03  0.00000000000E+00 0.  1.
<mgrwt>
<rscale>  0 0.18588389E+04</rscale>
<asrwt>0</asrwt>
<pdfrwt beam="1">  1        3 0.14892718E+00 0.18588389E+04</pdfrwt>
<pdfrwt beam="2">  1       -3 0.13728492E+00 0.18588389E+04</pdfrwt>
<totfact> 0.32787399E-01</totfact>
</mgrwt>
</event>
<event>
12    1  0.1506149E-007  0.1040079E+04  0.7818608E-02  0.9265647E-01
          2   -1    0    0  501    0  0.00000000000E+00  0.00000000000E+00  0.39906057824E+04  0.39906057824E+04  0.00000000000E+00 0. -1.
         -2   -1    0    0    0  501 -0.00000000000E+00 -0.00000000000E+00 -0.67769392641E+02  0.67769392641E+02  0.00000000000E+00 0.  1.
         23    2    1    2    0    0 -0.18875599763E+02 -0.26763960237E+02  0.17084222047E+03  0.19603374929E+03  0.90385666627E+02 0.  0.
        254    2    1    2    0    0  0.18875599763E+02  0.26763960237E+02  0.37519941693E+04  0.38623414257E+04  0.91605045977E+03 0.  0.
        -24    2    4    4    0    0  0.21995024939E+03  0.40937145511E+03  0.17308392062E+04  0.17938866369E+04  0.79131584402E+02 0.  0.
         24    2    4    4    0    0 -0.20107464963E+03 -0.38260749487E+03  0.20211549630E+04  0.20684547888E+04  0.81353052139E+02 0.  0.
         13    1    3    3    0    0 -0.23883339119E+02 -0.33830877430E+02  0.17924476358E+03  0.18396637581E+03  0.00000000000E+00 0. -1.
        -13    1    3    3    0    0  0.50077393560E+01  0.70669171932E+01 -0.84025431123E+01  0.12067373485E+02  0.00000000000E+00 0.  1.
          2    1    6    6  502    0 -0.27416233873E+02 -0.13070965862E+03  0.65011874461E+03  0.66369499533E+03  0.00000000000E+00 0. -1.
          3    1    5    5  503    0  0.27936853033E+02  0.43107648717E+02  0.11471302318E+03  0.12568935843E+03  0.00000000000E+00 0. -1.
         -4    1    5    5    0  503  0.19201339636E+03  0.36626380639E+03  0.16161261831E+04  0.16681972785E+04  0.00000000000E+00 0.  1.
         -1    1    6    6    0  502 -0.17365841576E+03 -0.25189783625E+03  0.13710362184E+04  0.14047597935E+04  0.00000000000E+00 0.  1.
<mgrwt>
<rscale>  0 0.10400787E+04</rscale>
<asrwt>0</asrwt>
<pdfrwt beam="1">  1        2 0.61393917E+00 0.10400787E+04</pdfrwt>
<pdfrwt beam="2">  1       -2 0.10426064E-01 0.10400787E+04</pdfrwt>
<totfact> 0.23509291E+01</totfact>
</mgrwt>
</event>
<event>
12    1  0.1506149E-007  0.1518932E+04  0.7818608E-02  0.8871960E-01
         -1   -1    0    0    0  501 -0.00000000000E+00  0.00000000000E+00  0.14586359627E+04  0.14586359627E+04  0.00000000000E+00 0.  1.
          1   -1    0    0  501    0  0.00000000000E+00 -0.00000000000E+00 -0.39543017494E+03  0.39543017494E+03  0.00000000000E+00 0. -1.
         23    2    1    2    0    0  0.21084544228E+03 -0.10765259653E+03  0.87365348143E+03  0.90976287516E+03  0.91395849616E+02 0.  0.
        254    2    1    2    0    0 -0.21084544228E+03  0.10765259653E+03  0.18955230633E+03  0.94430326247E+03  0.89427830825E+03 0.  0.
        -24    2    4    4    0    0  0.25281779813E+03 -0.20323440919E+03  0.18627516584E+03  0.38060612993E+03  0.70295978527E+02 0.  0.
         24    2    4    4    0    0 -0.46366324041E+03  0.31088700572E+03  0.32771404891E+01  0.56369713255E+03  0.78162566206E+02 0.  0.
         13    1    3    3    0    0 -0.35420958624E+01 -0.68061358134E+01  0.44960824681E+01  0.88929570654E+01  0.00000000000E+00 0. -1.
        -13    1    3    3    0    0  0.21438753814E+03 -0.10084646072E+03  0.86915739896E+03  0.90086991809E+03  0.00000000000E+00 0.  1.
          4    1    6    6  502    0 -0.59465287525E+02  0.27847943098E+02  0.23756143890E+02  0.69828237324E+02  0.00000000000E+00 0. -1.
          1    1    5    5  503    0  0.20976005233E+02 -0.39921557601E+02  0.45265047296E+02  0.63895602849E+02  0.00000000000E+00 0. -1.
         -2    1    5    5    0  503  0.23184179290E+03 -0.16331285159E+03  0.14101011854E+03  0.31671052708E+03  0.00000000000E+00 0.  1.
         -3    1    6    6    0  502 -0.40419795289E+03  0.28303906262E+03 -0.20479003400E+02  0.49386889522E+03  0.00000000000E+00 0.  1.
<mgrwt>
<rscale>  0 0.15189321E+04</rscale>
<asrwt>0</asrwt>
<pdfrwt beam="1">  1        1 0.60835412E-01 0.15189321E+04</pdfrwt>
<pdfrwt beam="2">  1       -1 0.22440553E+00 0.15189321E+04</pdfrwt>
<totfact> 0.60514338E+00</totfact>
</mgrwt>
</event>
<event>
12    1  0.1506149E-007  0.1701426E+04  0.7818608E-02  0.8760551E-01
          2   -1    0    0  501    0  0.00000000000E+00  0.00000000000E+00  0.11363279350E+04  0.11363279350E+04  0.00000000000E+00 0. -1.
         -2   -1    0    0    0  501 -0.00000000000E+00 -0.00000000000E+00 -0.63688726100E+03  0.63688726100E+03  0.00000000000E+00 0.  1.
         23    2    1    2    0    0  0.34484126710E+03  0.38163660686E+03 -0.15401446207E+03  0.54470401968E+03  0.91760641511E+02 0.  0.
        254    2    1    2    0    0 -0.34484126710E+03 -0.38163660686E+03  0.65345513608E+03  0.12285111763E+04  0.90425333636E+03 0.  0.
        -24    2    4    4    0    0 -0.21230782717E+03  0.26876888540E+03  0.34161668718E+03  0.49081335789E+03  0.82972670737E+02 0.  0.
         24    2    4    4    0    0 -0.13253343993E+03 -0.65040549226E+03  0.31183844891E+03  0.73769781845E+03  0.79764879877E+02 0.  0.
         13    1    3    3    0    0  0.63312348877E+02  0.28715734098E+02 -0.34955985590E+02  0.77813673822E+02  0.00000000000E+00 0. -1.
        -13    1    3    3    0    0  0.28152891823E+03  0.35292087277E+03 -0.11905847648E+03  0.46689034585E+03  0.00000000000E+00 0.  1.
          2    1    6    6  502    0 -0.87616001445E+02 -0.33638196094E+03  0.12414015752E+03  0.36910725550E+03  0.00000000000E+00 0. -1.
          3    1    5    5  503    0 -0.17281900072E+03  0.20021362231E+03  0.30479532258E+03  0.40354936530E+03  0.00000000000E+00 0. -1.
         -4    1    5    5    0  503 -0.39488826451E+02  0.68555263090E+02  0.36821364595E+02  0.87263992588E+02  0.00000000000E+00 0.  1.
         -1    1    6    6    0  502 -0.44917438489E+02 -0.31402353132E+03  0.18769829138E+03  0.36859056294E+03  0.00000000000E+00 0.  1.
<mgrwt>
<rscale>  0 0.17014262E+04</rscale>
<asrwt>0</asrwt>
<pdfrwt beam="1">  1        2 0.17481968E+00 0.17014262E+04</pdfrwt>
<pdfrwt beam="2">  1       -2 0.97982656E-01 0.17014262E+04</pdfrwt>
<totfact> 0.17069983E+01</totfact>
</mgrwt>
</event>
<event>
12    1  0.1506149E-007  0.1717667E+04  0.7818608E-02  0.8751352E-01
         -1   -1    0    0    0  501 -0.00000000000E+00  0.00000000000E+00  0.20427992541E+03  0.20427992541E+03  0.00000000000E+00 0.  1.
          1   -1    0    0  501    0  0.00000000000E+00 -0.00000000000E+00 -0.36107070012E+04  0.36107070012E+04  0.00000000000E+00 0. -1.
         23    2    1    2    0    0  0.48863979354E+03  0.54892324902E+02 -0.20749612729E+04  0.21345156045E+04  0.94395797957E+02 0.  0.
        254    2    1    2    0    0 -0.48863979354E+03 -0.54892324902E+02 -0.13314658029E+04  0.16804713221E+04  0.89966697451E+03 0.  0.
        -24    2    4    4    0    0 -0.39294282778E+03  0.30457408718E+03 -0.11572776240E+04  0.12620133960E+04  0.78847145310E+02 0.  0.
         24    2    4    4    0    0 -0.95696965763E+02 -0.35946641209E+03 -0.17418817893E+03  0.41845792609E+03  0.79946879599E+02 0.  0.
         13    1    3    3    0    0  0.12568243509E+03 -0.40069479188E+01 -0.38504187301E+03  0.40505477913E+03  0.00000000000E+00 0.  1.
        -13    1    3    3    0    0  0.36295735845E+03  0.58899272821E+02 -0.16899193999E+04  0.17294608253E+04  0.00000000000E+00 0. -1.
          4    1    6    6  502    0 -0.61345253112E+01 -0.11504803206E+02  0.83125760468E+01  0.15462594160E+02  0.00000000000E+00 0. -1.
          1    1    5    5  503    0 -0.25770373713E+02  0.17944615969E+02 -0.13517120572E+03  0.13877094890E+03  0.00000000000E+00 0. -1.
         -2    1    5    5    0  503 -0.36717245407E+03  0.28662947122E+03 -0.10221064182E+04  0.11232424471E+04  0.00000000000E+00 0.  1.
         -3    1    6    6    0  502 -0.89562440452E+02 -0.34796160888E+03 -0.18250075497E+03  0.40299533193E+03  0.00000000000E+00 0.  1.
<mgrwt>
<rscale>  0 0.17176670E+04</rscale>
<asrwt>0</asrwt>
<pdfrwt beam="1">  1        1 0.55549335E+00 0.17176670E+04</pdfrwt>
<pdfrwt beam="2">  1       -1 0.31427683E-01 0.17176670E+04</pdfrwt>
<totfact> 0.18378106E+00</totfact>
</mgrwt>
</event>
<event>
12    1  0.1506149E-007  0.2047424E+04  0.7818608E-02  0.8584764E-01
          1   -1    0    0  501    0  0.00000000000E+00  0.00000000000E+00  0.81031200412E+03  0.81031200412E+03  0.00000000000E+00 0. -1.
         -1   -1    0    0    0  501 -0.00000000000E+00 -0.00000000000E+00 -0.12933121139E+04  0.12933121139E+04  0.00000000000E+00 0.  1.
         23    2    1    2    0    0 -0.68092413178E+03 -0.45281438876E+03 -0.12278587165E+03  0.83378210319E+03  0.10685355126E+03 0.  0.
        254    2    1    2    0    0  0.68092413178E+03  0.45281438876E+03 -0.36021423815E+03  0.12698420148E+04  0.90224492318E+03 0.  0.
        -24    2    4    4    0    0  0.38567368720E+03  0.57434428875E+03  0.10037970914E+03  0.70370206308E+03  0.80653286130E+02 0.  0.
         24    2    4    4    0    0  0.29525044458E+03 -0.12152989999E+03 -0.46059394729E+03  0.56613995177E+03  0.80158088121E+02 0.  0.
         13    1    3    3    0    0 -0.37722338621E+02 -0.50585689955E+02  0.92060358721E+01  0.63770196454E+02  0.00000000000E+00 0.  1.
        -13    1    3    3    0    0 -0.64320179316E+03 -0.40222869880E+03 -0.13199190752E+03  0.77001190674E+03  0.00000000000E+00 0. -1.
          4    1    6    6  502    0  0.23025426863E+03 -0.59027085143E+02 -0.35572869008E+03  0.42783656453E+03  0.00000000000E+00 0. -1.
          1    1    5    5  503    0  0.62262222194E+02  0.11872600019E+03  0.48502232417E+02  0.14256547262E+03  0.00000000000E+00 0. -1.
         -2    1    5    5    0  503  0.32341146500E+03  0.45561828855E+03  0.51877476724E+02  0.56113659046E+03  0.00000000000E+00 0.  1.
         -3    1    6    6    0  502  0.64996175952E+02 -0.62502814845E+02 -0.10486525721E+03  0.13830338724E+03  0.00000000000E+00 0.  1.
<mgrwt>
<rscale>  0 0.20474241E+04</rscale>
<asrwt>0</asrwt>
<pdfrwt beam="1">  1        1 0.12466339E+00 0.20474241E+04</pdfrwt>
<pdfrwt beam="2">  1       -1 0.19897109E+00 0.20474241E+04</pdfrwt>
<totfact> 0.30607675E+00</totfact>
</mgrwt>
</event>
<event>
12    1  0.1506149E-007  0.1403253E+04  0.7818608E-02  0.8951467E-01
         -1   -1    0    0    0  501 -0.00000000000E+00  0.00000000000E+00  0.38866506924E+03  0.38866506924E+03  0.00000000000E+00 0.  1.
          1   -1    0    0  501    0  0.00000000000E+00 -0.00000000000E+00 -0.12665914822E+04  0.12665914822E+04  0.00000000000E+00 0. -1.
         23    2    1    2    0    0  0.39277878600E+03 -0.87255193963E+02 -0.38190785810E+03  0.56286985130E+03  0.95290155925E+02 0.  0.
        254    2    1    2    0    0 -0.39277878600E+03  0.87255193963E+02 -0.49601855488E+03  0.10923867002E+04  0.88621986678E+03 0.  0.
        -24    2    4    4    0    0 -0.43443506135E+03 -0.30782908147E+03 -0.14774673564E+03  0.55827316027E+03  0.79669678425E+02 0.  0.
         24    2    4    4    0    0  0.41656275345E+02  0.39508427543E+03 -0.34827181924E+03  0.53411353989E+03  0.78467722332E+02 0.  0.
         11    1    3    3    0    0  0.10952556507E+03 -0.38539342789E+02 -0.57857286222E+02  0.12972507820E+03  0.00000000000E+00 0.  1.
        -11    1    3    3    0    0  0.28325322094E+03 -0.48715851174E+02 -0.32405057188E+03  0.43314477310E+03  0.00000000000E+00 0. -1.
          4    1    6    6  502    0  0.20111365078E+02  0.11367824584E+03 -0.57778654641E+02  0.12909524977E+03  0.00000000000E+00 0. -1.
          3    1    5    5  503    0 -0.95675335497E+02 -0.59827108352E+02 -0.65443351361E+02  0.13044494990E+03  0.00000000000E+00 0. -1.
         -4    1    5    5    0  503 -0.33875972585E+03 -0.24800197311E+03 -0.82303384283E+02  0.42782821037E+03  0.00000000000E+00 0.  1.
         -3    1    6    6    0  502  0.21544910267E+02  0.28140602959E+03 -0.29049316460E+03  0.40501829011E+03  0.00000000000E+00 0.  1.
<mgrwt>
<rscale>  0 0.14032532E+04</rscale>
<asrwt>0</asrwt>
<pdfrwt beam="1">  1        1 0.19486023E+00 0.14032532E+04</pdfrwt>
<pdfrwt beam="2">  1       -1 0.59794625E-01 0.14032532E+04</pdfrwt>
<totfact> 0.26423810E+01</totfact>
</mgrwt>
</event>
<event>
12    1  0.1506149E-007  0.2027019E+04  0.7818608E-02  0.8594091E-01
         -1   -1    0    0    0  501 -0.00000000000E+00  0.00000000000E+00  0.24289092450E+04  0.24289092450E+04  0.00000000000E+00 0.  1.
          1   -1    0    0  501    0  0.00000000000E+00 -0.00000000000E+00 -0.42290667081E+03  0.42290667081E+03  0.00000000000E+00 0. -1.
         23    2    1    2    0    0 -0.92138199905E+02  0.57848932971E+03  0.22390274049E+02  0.59366594992E+03  0.93800763605E+02 0.  0.
        254    2    1    2    0    0  0.92138199905E+02 -0.57848932971E+03  0.19836123002E+04  0.22581499659E+04  0.90630246537E+03 0.  0.
        -24    2    4    4    0    0  0.44740176390E+03 -0.21108287454E+03  0.13509114451E+04  0.14409467915E+04  0.81496044554E+02 0.  0.
         24    2    4    4    0    0 -0.35526356400E+03 -0.36740645517E+03  0.63270085510E+03  0.81720317441E+03  0.79441506895E+02 0.  0.
         13    1    3    3    0    0 -0.57885667279E+02  0.45796477752E+03 -0.18173525996E+02  0.46196619462E+03  0.00000000000E+00 0. -1.
        -13    1    3    3    0    0 -0.34252532625E+02  0.12052455219E+03  0.40563800046E+02  0.13169975530E+03  0.00000000000E+00 0.  1.
          4    1    6    6  502    0 -0.67053516017E+02 -0.54587580499E+02  0.66739828696E+02  0.10922537567E+03  0.00000000000E+00 0. -1.
          3    1    5    5  503    0  0.18807552994E+03 -0.10890104486E+03  0.69733931309E+03  0.73042039957E+03  0.00000000000E+00 0. -1.
         -4    1    5    5    0  503  0.25932623396E+03 -0.10218182968E+03  0.65357213197E+03  0.71052639193E+03  0.00000000000E+00 0.  1.
         -3    1    6    6    0  502 -0.28821004798E+03 -0.31281887467E+03  0.56596102640E+03  0.70797779874E+03  0.00000000000E+00 0.  1.
<mgrwt>
<rscale>  0 0.20270194E+04</rscale>
<asrwt>0</asrwt>
<pdfrwt beam="1">  1        1 0.65062566E-01 0.20270194E+04</pdfrwt>
<pdfrwt beam="2">  1       -1 0.37367834E+00 0.20270194E+04</pdfrwt>
<totfact> 0.55719815E-01</totfact>
</mgrwt>
</event>
<event>
12    1  0.1506149E-007  0.1948776E+04  0.7818608E-02  0.8630951E-01
         -1   -1    0    0    0  501 -0.00000000000E+00  0.00000000000E+00  0.58279897800E+03  0.58279897800E+03  0.00000000000E+00 0.  1.
          1   -1    0    0  501    0  0.00000000000E+00 -0.00000000000E+00 -0.16290902887E+04  0.16290902887E+04  0.00000000000E+00 0. -1.
         23    2    1    2    0    0 -0.53590997567E+03 -0.46970739794E+03 -0.14139792982E+03  0.73220907326E+03  0.91171326147E+02 0.  0.
        254    2    1    2    0    0  0.53590997567E+03  0.46970739794E+03 -0.90489338088E+03  0.14796801934E+04  0.92886861416E+03 0.  0.
        -24    2    4    4    0    0  0.64107082695E+03  0.49663357756E+03 -0.31346648309E+03  0.87302037108E+03  0.79288188124E+02 0.  0.
         24    2    4    4    0    0 -0.10516085128E+03 -0.26926179616E+02 -0.59142689779E+03  0.60665982235E+03  0.80414804834E+02 0.  0.
         11    1    3    3    0    0 -0.36821314456E+03 -0.35517995817E+03 -0.67146107773E+02  0.51598674624E+03  0.00000000000E+00 0. -1.
        -11    1    3    3    0    0 -0.16769683111E+03 -0.11452743977E+03 -0.74251822043E+02  0.21622232702E+03  0.00000000000E+00 0.  1.
          2    1    6    6  502    0 -0.20365342206E+01  0.17197497372E+02 -0.35120940198E+02  0.39158419629E+02  0.00000000000E+00 0. -1.
          1    1    5    5  503    0  0.25233579654E+03  0.22657300827E+03 -0.98408279287E+02  0.35311877850E+03  0.00000000000E+00 0. -1.
         -2    1    5    5    0  503  0.38873503040E+03  0.27006056929E+03 -0.21505820381E+03  0.51990159258E+03  0.00000000000E+00 0.  1.
         -1    1    6    6    0  502 -0.10312431706E+03 -0.44123676988E+02 -0.55630595759E+03  0.56750140272E+03  0.00000000000E+00 0.  1.
<mgrwt>
<rscale>  0 0.19487762E+04</rscale>
<asrwt>0</asrwt>
<pdfrwt beam="1">  1        1 0.25062928E+00 0.19487762E+04</pdfrwt>
<pdfrwt beam="2">  1       -1 0.89661381E-01 0.19487762E+04</pdfrwt>
<totfact> 0.60476877E+00</totfact>
</mgrwt>
</event>
<event>
12    1  0.1506149E-007  0.1759399E+04  0.7818608E-02  0.8728193E-01
          1   -1    0    0  501    0  0.00000000000E+00  0.00000000000E+00  0.10882341228E+04  0.10882341228E+04  0.00000000000E+00 0. -1.
         -1   -1    0    0    0  501 -0.00000000000E+00 -0.00000000000E+00 -0.71112589057E+03  0.71112589057E+03  0.00000000000E+00 0.  1.
         23    2    1    2    0    0  0.42680396007E+03 -0.33679512138E+03 -0.24449088258E+03  0.60252750645E+03  0.87584417858E+02 0.  0.
        254    2    1    2    0    0 -0.42680396007E+03  0.33679512138E+03  0.62159911481E+03  0.11968325069E+04  0.86627363804E+03 0.  0.
        -24    2    4    4    0    0 -0.13959713332E+03  0.30466635146E+03 -0.14481191632E+03  0.37396571986E+03  0.81061231054E+02 0.  0.
         24    2    4    4    0    0 -0.28720682675E+03  0.32128769915E+02  0.76641103113E+03  0.82286678706E+03  0.78764594968E+02 0.  0.
         13    1    3    3    0    0  0.17302606991E+03 -0.13173545699E+03 -0.51609818811E+02  0.22350799739E+03  0.00000000000E+00 0. -1.
        -13    1    3    3    0    0  0.25377789015E+03 -0.20505966438E+03 -0.19288106377E+03  0.37901950906E+03  0.00000000000E+00 0.  1.
          2    1    6    6  502    0 -0.16619581636E+03  0.48236358757E+02  0.51674945192E+03  0.54495668795E+03  0.00000000000E+00 0. -1.
          1    1    5    5  503    0 -0.59499607607E+02  0.83268441816E+02 -0.79619348965E+02  0.12966525147E+03  0.00000000000E+00 0. -1.
         -2    1    5    5    0  503 -0.80097525711E+02  0.22139790965E+03 -0.65192567352E+02  0.24430046840E+03  0.00000000000E+00 0.  1.
         -1    1    6    6    0  502 -0.12101101039E+03 -0.16107588842E+02  0.24966157921E+03  0.27791009911E+03  0.00000000000E+00 0.  1.
<mgrwt>
<rscale>  0 0.17593993E+04</rscale>
<asrwt>0</asrwt>
<pdfrwt beam="1">  1        1 0.16742063E+00 0.17593993E+04</pdfrwt>
<pdfrwt beam="2">  1       -1 0.10940398E+00 0.17593993E+04</pdfrwt>
<totfact> 0.94740507E+00</totfact>
</mgrwt>
</event>
<event>
12    1  0.1506149E-007  0.1644972E+04  0.7818608E-02  0.8793387E-01
         -1   -1    0    0    0  501 -0.00000000000E+00  0.00000000000E+00  0.47749610616E+03  0.47749610616E+03  0.00000000000E+00 0.  1.
          1   -1    0    0  501    0  0.00000000000E+00 -0.00000000000E+00 -0.14167303856E+04  0.14167303856E+04  0.00000000000E+00 0. -1.
         23    2    1    2    0    0 -0.25073581917E+03  0.39243055111E+03 -0.71024821861E+03  0.85421541520E+03  0.91439898712E+02 0.  0.
        254    2    1    2    0    0  0.25073581917E+03 -0.39243055111E+03 -0.22898606084E+03  0.10400110766E+04  0.90128698807E+03 0.  0.
        -24    2    4    4    0    0  0.20731290806E+03  0.87112143044E+02 -0.44630262118E+03  0.50569971266E+03  0.77324009208E+02 0.  0.
         24    2    4    4    0    0  0.43422911107E+02 -0.47954269415E+03  0.21731656034E+03  0.53431136391E+03  0.80096201392E+02 0.  0.
         11    1    3    3    0    0 -0.77349493450E+02  0.57720609926E+02 -0.12210933010E+03  0.15564479254E+03  0.00000000000E+00 0.  1.
        -11    1    3    3    0    0 -0.17338632572E+03  0.33470994118E+03 -0.58813888850E+03  0.69857062266E+03  0.00000000000E+00 0. -1.
          4    1    6    6  502    0  0.24629644968E+02 -0.48208066175E+02  0.41193156494E+02  0.68025827430E+02  0.00000000000E+00 0. -1.
          1    1    5    5  503    0  0.15880141069E+02  0.28925486501E+01 -0.98853101639E+02  0.10016227544E+03  0.00000000000E+00 0. -1.
         -2    1    5    5    0  503  0.19143276699E+03  0.84219594394E+02 -0.34744951954E+03  0.40553743722E+03  0.00000000000E+00 0.  1.
         -3    1    6    6    0  502  0.18793266138E+02 -0.43133462798E+03  0.17612340385E+03  0.46628553648E+03  0.00000000000E+00 0.  1.
<mgrwt>
<rscale>  0 0.16449720E+04</rscale>
<asrwt>0</asrwt>
<pdfrwt beam="1">  1        1 0.21795852E+00 0.16449720E+04</pdfrwt>
<pdfrwt beam="2">  1       -1 0.73460939E-01 0.16449720E+04</pdfrwt>
<totfact> 0.13346610E+01</totfact>
</mgrwt>
</event>
<event>
12    1  0.1506149E-007  0.2054652E+04  0.7818608E-02  0.8581487E-01
          1   -1    0    0  501    0  0.00000000000E+00  0.00000000000E+00  0.22340037385E+04  0.22340037385E+04  0.00000000000E+00 0. -1.
         -1   -1    0    0    0  501 -0.00000000000E+00 -0.00000000000E+00 -0.47242484433E+03  0.47242484433E+03  0.00000000000E+00 0.  1.
         23    2    1    2    0    0 -0.42394147155E+03  0.36620059528E+03  0.15103430864E+04  0.16137601755E+04  0.96210280842E+02 0.  0.
        254    2    1    2    0    0  0.42394147155E+03 -0.36620059528E+03  0.25123580775E+03  0.10926684073E+04  0.90386700899E+03 0.  0.
        -24    2    4    4    0    0 -0.15799009033E+03 -0.76920452437E+02  0.37943806200E+03  0.42541135046E+03  0.78255667911E+02 0.  0.
         24    2    4    4    0    0  0.58193156187E+03 -0.28928014284E+03 -0.12820225425E+03  0.66725705684E+03  0.80428963481E+02 0.  0.
         13    1    3    3    0    0 -0.35477121434E+03  0.29097550601E+03  0.13237545689E+04  0.14010194568E+04  0.00000000000E+00 0. -1.
        -13    1    3    3    0    0 -0.69170257203E+02  0.75225089264E+02  0.18658851749E+03  0.21274071870E+03  0.00000000000E+00 0.  1.
          4    1    6    6  502    0  0.13525465134E+03 -0.62255920602E+02  0.43613519442E+01  0.14895852358E+03  0.00000000000E+00 0. -1.
          1    1    5    5  503    0 -0.14814841314E+02  0.36923265776E+01  0.42914102843E+01  0.15859665852E+02  0.00000000000E+00 0. -1.
         -2    1    5    5    0  503 -0.14317524901E+03 -0.80612779014E+02  0.37514665172E+03  0.40955168461E+03  0.00000000000E+00 0.  1.
         -3    1    6    6    0  502  0.44667691054E+03 -0.22702422224E+03 -0.13256360619E+03  0.51829853326E+03  0.00000000000E+00 0.  1.
<mgrwt>
<rscale>  0 0.20546522E+04</rscale>
<asrwt>0</asrwt>
<pdfrwt beam="1">  1        1 0.34369288E+00 0.20546522E+04</pdfrwt>
<pdfrwt beam="2">  1       -1 0.72680747E-01 0.20546522E+04</pdfrwt>
<totfact> 0.36400046E+00</totfact>
</mgrwt>
</event>
<event>
12    1  0.1506149E-007  0.1698453E+04  0.7818608E-02  0.8762247E-01
          1   -1    0    0  501    0  0.00000000000E+00  0.00000000000E+00  0.13243272544E+04  0.13243272544E+04  0.00000000000E+00 0. -1.
         -1   -1    0    0    0  501 -0.00000000000E+00 -0.00000000000E+00 -0.54456777789E+03  0.54456777789E+03  0.00000000000E+00 0.  1.
         23    2    1    2    0    0  0.17529765862E+03 -0.56990368396E+03  0.41033807811E+03  0.72947517557E+03  0.90759105986E+02 0.  0.
        254    2    1    2    0    0 -0.17529765862E+03  0.56990368396E+03  0.36942139836E+03  0.11394198567E+04  0.89793427496E+03 0.  0.
        -24    2    4    4    0    0 -0.34341783161E+03  0.15944597194E+03  0.53407082065E+03  0.65971847554E+03  0.81473925028E+02 0.  0.
         24    2    4    4    0    0  0.16812017299E+03  0.41045771202E+03 -0.16464942229E+03  0.47970138115E+03  0.79145795219E+02 0.  0.
         11    1    3    3    0    0  0.13471093784E+03 -0.45919791988E+03  0.36982650106E+03  0.60479865020E+03  0.00000000000E+00 0.  1.
        -11    1    3    3    0    0  0.40586720779E+02 -0.11070576408E+03  0.40511577052E+02  0.12467652537E+03  0.00000000000E+00 0. -1.
          2    1    6    6  502    0  0.16357279146E+03  0.35540054125E+03 -0.12170580080E+03  0.40972906264E+03  0.00000000000E+00 0. -1.
          3    1    5    5  503    0 -0.33258631031E+03  0.15488441303E+03  0.53409416411E+03  0.64796559426E+03  0.00000000000E+00 0. -1.
         -4    1    5    5    0  503 -0.10831521297E+02  0.45615589135E+01 -0.23343465507E-01  0.11752881274E+02  0.00000000000E+00 0.  1.
         -1    1    6    6    0  502  0.45473815362E+01  0.55057170765E+02 -0.42943621482E+02  0.69972318509E+02  0.00000000000E+00 0.  1.
<mgrwt>
<rscale>  0 0.16984534E+04</rscale>
<asrwt>0</asrwt>
<pdfrwt beam="1">  1        1 0.20374265E+00 0.16984534E+04</pdfrwt>
<pdfrwt beam="2">  1       -1 0.83779658E-01 0.16984534E+04</pdfrwt>
<totfact> 0.11685343E+01</totfact>
</mgrwt>
</event>
<event>
12    1  0.1506149E-007  0.2186457E+04  0.7818608E-02  0.8524086E-01
          1   -1    0    0  501    0  0.00000000000E+00  0.00000000000E+00  0.21531565509E+04  0.21531565509E+04  0.00000000000E+00 0. -1.
         -1   -1    0    0    0  501 -0.00000000000E+00 -0.00000000000E+00 -0.55506834325E+03  0.55506834325E+03  0.00000000000E+00 0.  1.
         23    2    1    2    0    0 -0.64593914784E+03 -0.62433447248E+03  0.47478707703E+03  0.10201590965E+04  0.90944473885E+02 0.  0.
        254    2    1    2    0    0  0.64593914784E+03  0.62433447248E+03  0.11233011306E+04  0.16880657976E+04  0.88358915284E+03 0.  0.
        -24    2    4    4    0    0 -0.14418678905E+03  0.35486446415E+03  0.19513181850E+03  0.43716155264E+03  0.79468097119E+02 0.  0.
         24    2    4    4    0    0  0.79012593689E+03  0.26947000833E+03  0.92816931207E+03  0.12509042450E+04  0.79687369058E+02 0.  0.
         11    1    3    3    0    0 -0.53546252145E+03 -0.49807784650E+03  0.42178765563E+03  0.84421944984E+03  0.00000000000E+00 0. -1.
        -11    1    3    3    0    0 -0.11047662639E+03 -0.12625662598E+03  0.52999421408E+02  0.17593964662E+03  0.00000000000E+00 0.  1.
          2    1    6    6  502    0  0.61139946116E+03  0.21259476036E+03  0.66800423676E+03  0.93018035539E+03  0.00000000000E+00 0. -1.
          3    1    5    5  503    0 -0.15044712946E+03  0.31702542471E+03  0.18817438172E+03  0.39818219022E+03  0.00000000000E+00 0. -1.
         -4    1    5    5    0  503  0.62603404091E+01  0.37839039440E+02  0.69574367856E+01  0.38979362416E+02  0.00000000000E+00 0.  1.
         -1    1    6    6    0  502  0.17872647573E+03  0.56875247971E+02  0.26016507531E+03  0.32072388961E+03  0.00000000000E+00 0.  1.
<mgrwt>
<rscale>  0 0.21864574E+04</rscale>
<asrwt>0</asrwt>
<pdfrwt beam="1">  1        1 0.33125485E+00 0.21864574E+04</pdfrwt>
<pdfrwt beam="2">  1       -1 0.85395131E-01 0.21864574E+04</pdfrwt>
<totfact> 0.29004240E+00</totfact>
</mgrwt>
</event>
<event>
12    1  0.1506149E-007  0.1448315E+04  0.7818608E-02  0.8919569E-01
         -2   -1    0    0    0  501 -0.00000000000E+00  0.00000000000E+00  0.35976985200E+03  0.35976985200E+03  0.00000000000E+00 0.  1.
          2   -1    0    0  501    0  0.00000000000E+00 -0.00000000000E+00 -0.14576099487E+04  0.14576099487E+04  0.00000000000E+00 0. -1.
         23    2    1    2    0    0  0.17554061376E+03 -0.18306888955E+03  0.10794805690E+03  0.29070371928E+03  0.92342536313E+02 0.  0.
        254    2    1    2    0    0 -0.17554061376E+03  0.18306888955E+03 -0.12057881536E+04  0.15266760814E+04  0.90138008675E+03 0.  0.
        -24    2    4    4    0    0 -0.33335660225E+03  0.16412272397E+03 -0.82117254554E+02  0.38903352925E+03  0.80876143546E+02 0.  0.
         24    2    4    4    0    0  0.15781598850E+03  0.18946165587E+02 -0.11236708990E+04  0.11376425521E+04  0.79557801118E+02 0.  0.
         11    1    3    3    0    0  0.99794287818E+02 -0.12780238557E+03  0.11164155679E+03  0.19686591082E+03  0.00000000000E+00 0.  1.
        -11    1    3    3    0    0  0.75746325938E+02 -0.55266503983E+02 -0.36934998879E+01  0.93837808462E+02  0.00000000000E+00 0. -1.
          4    1    6    6  502    0  0.12907899365E+03  0.19640244102E+02 -0.10570727822E+04  0.10651056251E+04  0.00000000000E+00 0. -1.
          3    1    5    5  503    0 -0.25828736515E+03  0.14440706841E+03 -0.94061132763E+02  0.31050484875E+03  0.00000000000E+00 0. -1.
         -4    1    5    5    0  503 -0.75069237107E+02  0.19715655557E+02  0.11943878209E+02  0.78528680497E+02  0.00000000000E+00 0.  1.
         -3    1    6    6    0  502  0.28736994844E+02 -0.69407851432E+00 -0.66598116813E+02  0.72536927014E+02  0.00000000000E+00 0.  1.
<mgrwt>
<rscale>  0 0.14483150E+04</rscale>
<asrwt>0</asrwt>
<pdfrwt beam="1">  1        2 0.22424768E+00 0.14483150E+04</pdfrwt>
<pdfrwt beam="2">  1       -2 0.55349209E-01 0.14483150E+04</pdfrwt>
<totfact> 0.39917353E+01</totfact>
</mgrwt>
</event>
<event>
12    1  0.1506149E-007  0.1778870E+04  0.7818608E-02  0.8717617E-01
         -3   -1    0    0    0  501 -0.00000000000E+00  0.00000000000E+00  0.85246938117E+03  0.85246938117E+03  0.00000000000E+00 0.  1.
          3   -1    0    0  501    0  0.00000000000E+00 -0.00000000000E+00 -0.92800386625E+03  0.92800386625E+03  0.00000000000E+00 0. -1.
         23    2    1    2    0    0 -0.50003482205E+03  0.36891563491E+02 -0.44676755688E+03  0.67784728844E+03  0.92086295650E+02 0.  0.
        254    2    1    2    0    0  0.50003482205E+03 -0.36891563491E+02  0.37123307179E+03  0.11026259590E+04  0.90916126244E+03 0.  0.
        -24    2    4    4    0    0  0.15335719852E+03 -0.44102058968E+03  0.50630528977E+02  0.47642941447E+03  0.80024656506E+02 0.  0.
         24    2    4    4    0    0  0.34667762353E+03  0.40412902619E+03  0.32060254282E+03  0.62619654452E+03  0.76357563105E+02 0.  0.
         13    1    3    3    0    0 -0.17547849811E+03  0.48591272448E+02 -0.19606045384E+03  0.26756964816E+03  0.00000000000E+00 0.  1.
        -13    1    3    3    0    0 -0.32455632394E+03 -0.11699708957E+02 -0.25070710304E+03  0.41027764028E+03  0.00000000000E+00 0. -1.
          2    1    6    6  502    0  0.92970496449E+02  0.11649461584E+03  0.51588436842E+02  0.15772087860E+03  0.00000000000E+00 0. -1.
          1    1    5    5  503    0  0.36847807285E+02 -0.22774709069E+03  0.24836574887E+02  0.23204170675E+03  0.00000000000E+00 0. -1.
         -2    1    5    5    0  503  0.11650939123E+03 -0.21327349899E+03  0.25793954089E+02  0.24438770772E+03  0.00000000000E+00 0.  1.
         -1    1    6    6    0  502  0.25370712708E+03  0.28763441035E+03  0.26901410597E+03  0.46847566592E+03  0.00000000000E+00 0.  1.
<mgrwt>
<rscale>  0 0.17788703E+04</rscale>
<asrwt>0</asrwt>
<pdfrwt beam="1">  1        3 0.14276983E+00 0.17788703E+04</pdfrwt>
<pdfrwt beam="2">  1       -3 0.13114914E+00 0.17788703E+04</pdfrwt>
<totfact> 0.41263256E-01</totfact>
</mgrwt>
</event>
<event>
12    1  0.1506149E-007  0.1687959E+04  0.7818608E-02  0.8768262E-01
         -2   -1    0    0    0  501 -0.00000000000E+00  0.00000000000E+00  0.43839216735E+03  0.43839216735E+03  0.00000000000E+00 0. -1.
          2   -1    0    0  501    0  0.00000000000E+00 -0.00000000000E+00 -0.16248039433E+04  0.16248039433E+04  0.00000000000E+00 0.  1.
         23    2    1    2    0    0  0.18493098331E+03 -0.56891087197E+03 -0.53316913093E+03  0.80644753575E+03  0.90715251828E+02 0.  0.
        254    2    1    2    0    0 -0.18493098331E+03  0.56891087197E+03 -0.65324264506E+03  0.12567485749E+04  0.89153349822E+03 0.  0.
        -24    2    4    4    0    0  0.21848378115E+03  0.46376328826E+03 -0.65014941312E+03  0.83188515205E+03  0.80790449029E+02 0.  0.
         24    2    4    4    0    0 -0.40341476446E+03  0.10514758371E+03 -0.30932319394E+01  0.42486342289E+03  0.81852754890E+02 0.  0.
         13    1    3    3    0    0  0.63242237005E+02 -0.29640760002E+03 -0.22510406126E+03  0.37752997800E+03  0.00000000000E+00 0.  1.
        -13    1    3    3    0    0  0.12168874630E+03 -0.27250327194E+03 -0.30806506967E+03  0.42891755775E+03  0.00000000000E+00 0. -1.
          4    1    6    6  502    0 -0.13778499766E+03  0.60655481121E+00 -0.18307404464E+02  0.13899724655E+03  0.00000000000E+00 0. -1.
          1    1    5    5  503    0 -0.13818311154E+01  0.82289833352E+00  0.19288823356E+01  0.25114151317E+01  0.00000000000E+00 0. -1.
         -2    1    5    5    0  503  0.21986561227E+03  0.46294038993E+03 -0.65207829546E+03  0.82937373692E+03  0.00000000000E+00 0.  1.
         -3    1    6    6    0  502 -0.26562976679E+03  0.10454102890E+03  0.15214172525E+02  0.28586617634E+03  0.00000000000E+00 0.  1.
<mgrwt>
<rscale>  0 0.16879589E+04</rscale>
<asrwt>0</asrwt>
<pdfrwt beam="1">  1        2 0.24996984E+00 0.16879589E+04</pdfrwt>
<pdfrwt beam="2">  1       -2 0.67444949E-01 0.16879589E+04</pdfrwt>
<totfact> 0.20734753E+01</totfact>
</mgrwt>
</event>
<event>
12    1  0.1506149E-007  0.2678670E+04  0.7818608E-02  0.8341959E-01
         -2   -1    0    0    0  501 -0.00000000000E+00  0.00000000000E+00  0.97627877379E+03  0.97627877379E+03  0.00000000000E+00 0.  1.
          2   -1    0    0  501    0  0.00000000000E+00 -0.00000000000E+00 -0.18374039243E+04  0.18374039243E+04  0.00000000000E+00 0. -1.
         23    2    1    2    0    0  0.55022135685E+03 -0.34934699514E+03 -0.14319504936E+04  0.15760900325E+04  0.93758786410E+02 0.  0.
        254    2    1    2    0    0 -0.55022135685E+03  0.34934699514E+03  0.57082534302E+03  0.12375926656E+04  0.88374609997E+03 0.  0.
        -24    2    4    4    0    0  0.20791413718E+03  0.22892634306E+03  0.22841599901E+03  0.39299692499E+03  0.81468739140E+02 0.  0.
         24    2    4    4    0    0 -0.75813549404E+03  0.12042065207E+03  0.34240934401E+03  0.84459574063E+03  0.82627147234E+02 0.  0.
         13    1    3    3    0    0  0.36301846978E+03 -0.27635563284E+03 -0.10386017525E+04  0.11343934262E+04  0.00000000000E+00 0. -1.
        -13    1    3    3    0    0  0.18720288707E+03 -0.72991362300E+02 -0.39334874109E+03  0.44169660630E+03  0.00000000000E+00 0.  1.
          2    1    6    6  502    0 -0.65790897759E+03  0.89673216245E+02  0.26800483111E+03  0.71603917351E+03  0.00000000000E+00 0. -1.
          1    1    5    5  503    0  0.19852833166E+03  0.18259152556E+03  0.17432477430E+03  0.32115773478E+03  0.00000000000E+00 0. -1.
         -2    1    5    5    0  503  0.93858055261E+01  0.46334817507E+02  0.54091224710E+02  0.71839190205E+02  0.00000000000E+00 0.  1.
         -1    1    6    6    0  502 -0.10022651644E+03  0.30747435828E+02  0.74404512900E+02  0.12855656711E+03  0.00000000000E+00 0.  1.
<mgrwt>
<rscale>  0 0.26786702E+04</rscale>
<asrwt>0</asrwt>
<pdfrwt beam="1">  1        2 0.28267753E+00 0.26786702E+04</pdfrwt>
<pdfrwt beam="2">  1       -2 0.15019674E+00 0.26786702E+04</pdfrwt>
<totfact> 0.21587617E+00</totfact>
</mgrwt>
</event>
<event>
12    1  0.1506149E-007  0.2237276E+04  0.7818608E-02  0.8503071E-01
         -1   -1    0    0    0  501 -0.00000000000E+00  0.00000000000E+00  0.54656795305E+03  0.54656795305E+03  0.00000000000E+00 0.  1.
          1   -1    0    0  501    0  0.00000000000E+00 -0.00000000000E+00 -0.22894694919E+04  0.22894694919E+04  0.00000000000E+00 0. -1.
         23    2    1    2    0    0 -0.71894234632E+03 -0.41385611174E+03 -0.12869784543E+04  0.15338751297E+04  0.91128443243E+02 0.  0.
        254    2    1    2    0    0  0.71894234632E+03  0.41385611174E+03 -0.45592308456E+03  0.13021623152E+04  0.89420683159E+03 0.  0.
        -24    2    4    4    0    0  0.81699661056E+03  0.41597387091E+03 -0.60883673360E+03  0.11033916911E+04  0.79204374039E+02 0.  0.
         24    2    4    4    0    0 -0.98054264244E+02 -0.21177591781E+01  0.15291364905E+03  0.19877062414E+03  0.80672506561E+02 0.  0.
         11    1    3    3    0    0 -0.15216373354E+03 -0.97746168405E+02 -0.21717146945E+03  0.28261557350E+03  0.00000000000E+00 0. -1.
        -11    1    3    3    0    0 -0.56677861278E+03 -0.31610994333E+03 -0.10698069848E+04  0.12512595562E+04  0.00000000000E+00 0.  1.
          2    1    6    6  502    0 -0.67870977155E+02 -0.29149591898E+02  0.13619928618E+03  0.15494003293E+03  0.00000000000E+00 0. -1.
          3    1    5    5  503    0  0.66663512326E+03  0.36697081595E+03 -0.52398472513E+03  0.92392097037E+03  0.00000000000E+00 0. -1.
         -4    1    5    5    0  503  0.15036148730E+03  0.49003054967E+02 -0.84852008470E+02  0.17947072073E+03  0.00000000000E+00 0.  1.
         -1    1    6    6    0  502 -0.30183287090E+02  0.27031832720E+02  0.16714362866E+02  0.43830591209E+02  0.00000000000E+00 0.  1.
<mgrwt>
<rscale>  0 0.22372757E+04</rscale>
<asrwt>0</asrwt>
<pdfrwt beam="1">  1        1 0.35222607E+00 0.22372757E+04</pdfrwt>
<pdfrwt beam="2">  1       -1 0.84087378E-01 0.22372757E+04</pdfrwt>
<totfact> 0.24098328E+00</totfact>
</mgrwt>
</event>
<event>
12    1  0.1506149E-007  0.2765886E+04  0.7818608E-02  0.8313938E-01
         -1   -1    0    0    0  501 -0.00000000000E+00  0.00000000000E+00  0.16010811642E+04  0.16010811642E+04  0.00000000000E+00 0.  1.
          1   -1    0    0  501    0  0.00000000000E+00 -0.00000000000E+00 -0.11945251659E+04  0.11945251659E+04  0.00000000000E+00 0. -1.
         23    2    1    2    0    0 -0.31112864405E+03  0.11884359981E+04  0.26432973362E+03  0.12601656719E+04  0.94689797746E+02 0.  0.
        254    2    1    2    0    0  0.31112864405E+03 -0.11884359981E+04  0.14222626459E+03  0.15354406582E+04  0.91003766384E+03 0.  0.
        -24    2    4    4    0    0  0.59749382383E+03 -0.78798207078E+03  0.25447481892E+03  0.10242577989E+04  0.80199698638E+02 0.  0.
         24    2    4    4    0    0 -0.28636517978E+03 -0.40045392736E+03 -0.11224855433E+03  0.51118285932E+03  0.79622946306E+02 0.  0.
         13    1    3    3    0    0 -0.54440599777E+02  0.17673592719E+03  0.74061397260E+02  0.19920958167E+03  0.00000000000E+00 0. -1.
        -13    1    3    3    0    0 -0.25668804427E+03  0.10117000710E+04  0.19026833636E+03  0.10609560903E+04  0.00000000000E+00 0.  1.
          4    1    6    6  502    0 -0.56181800840E+02 -0.14053197540E+03 -0.40159788222E+02  0.15658364999E+03  0.00000000000E+00 0. -1.
          1    1    5    5  503    0  0.31930220229E+03 -0.36055907896E+03  0.14052378470E+03  0.50170078720E+03  0.00000000000E+00 0. -1.
         -2    1    5    5    0  503  0.27819162155E+03 -0.42742299182E+03  0.11395103422E+03  0.52255701166E+03  0.00000000000E+00 0.  1.
         -3    1    6    6    0  502 -0.23018337894E+03 -0.25992195196E+03 -0.72088766110E+02  0.35459920932E+03  0.00000000000E+00 0.  1.
<mgrwt>
<rscale>  0 0.27658863E+04</rscale>
<asrwt>0</asrwt>
<pdfrwt beam="1">  1        1 0.18377310E+00 0.27658863E+04</pdfrwt>
<pdfrwt beam="2">  1       -1 0.24632018E+00 0.27658863E+04</pdfrwt>
<totfact> 0.69004119E-01</totfact>
</mgrwt>
</event>
<event>
12    1  0.1506149E-007  0.2236652E+04  0.7818608E-02  0.8503326E-01
         -2   -1    0    0    0  501 -0.00000000000E+00  0.00000000000E+00  0.54723261476E+03  0.54723261476E+03  0.00000000000E+00 0.  1.
          2   -1    0    0  501    0  0.00000000000E+00 -0.00000000000E+00 -0.22854136332E+04  0.22854136332E+04  0.00000000000E+00 0. -1.
         23    2    1    2    0    0  0.53985768198E+03  0.66418138918E+03 -0.13370894229E+04  0.15901754000E+04  0.90919984190E+02 0.  0.
        254    2    1    2    0    0 -0.53985768198E+03 -0.66418138918E+03 -0.40109159558E+03  0.12424708480E+04  0.80639699001E+03 0.  0.
        -24    2    4    4    0    0 -0.16475441042E+03 -0.73712101742E+02 -0.49476760345E+03  0.53247437302E+03  0.78463283152E+02 0.  0.
         24    2    4    4    0    0 -0.37510327155E+03 -0.59046928743E+03  0.93676007875E+02  0.70999647495E+03  0.77222770334E+02 0.  0.
         11    1    3    3    0    0  0.53542808917E+03  0.63889253800E+03 -0.13109955779E+04  0.15535688974E+04  0.00000000000E+00 0. -1.
        -11    1    3    3    0    0  0.44295928070E+01  0.25288851173E+02 -0.26093845006E+02  0.36606502610E+02  0.00000000000E+00 0.  1.
          2    1    6    6  502    0 -0.29757661236E+03 -0.51897207220E+03  0.75493500352E+02  0.60297854070E+03  0.00000000000E+00 0. -1.
          3    1    5    5  503    0 -0.81217191770E+02 -0.47619325580E+02 -0.35743367582E+03  0.36962503299E+03  0.00000000000E+00 0. -1.
         -4    1    5    5    0  503 -0.83537218652E+02 -0.26092776161E+02 -0.13733392763E+03  0.16284934003E+03  0.00000000000E+00 0.  1.
         -1    1    6    6    0  502 -0.77526659192E+02 -0.71497215234E+02  0.18182507523E+02  0.10701793425E+03  0.00000000000E+00 0.  1.
<mgrwt>
<rscale>  0 0.22366519E+04</rscale>
<asrwt>0</asrwt>
<pdfrwt beam="1">  1        2 0.35160209E+00 0.22366519E+04</pdfrwt>
<pdfrwt beam="2">  1       -2 0.84189635E-01 0.22366519E+04</pdfrwt>
<totfact> 0.51851618E+00</totfact>
</mgrwt>
</event>
<event>
12    1  0.1506149E-007  0.1951292E+04  0.7818608E-02  0.8629738E-01
          2   -1    0    0  501    0  0.00000000000E+00  0.00000000000E+00  0.24450205369E+04  0.24450205369E+04  0.00000000000E+00 0.  1.
         -2   -1    0    0    0  501 -0.00000000000E+00 -0.00000000000E+00 -0.38931585732E+03  0.38931585732E+03  0.00000000000E+00 0. -1.
         23    2    1    2    0    0 -0.46933040148E+03  0.40057741105E+03  0.15124681172E+03  0.64184428526E+03  0.91406785624E+02 0.  0.
        254    2    1    2    0    0  0.46933040148E+03 -0.40057741105E+03  0.19044578679E+04  0.21924921090E+04  0.89405178231E+03 0.  0.
        -24    2    4    4    0    0  0.61354296271E+03 -0.42035034787E+03  0.88137062714E+03  0.11559714402E+04  0.79538708799E+02 0.  0.
         24    2    4    4    0    0 -0.14421256123E+03  0.19772936821E+02  0.10230872407E+04  0.10365206688E+04  0.80494488955E+02 0.  0.
         11    1    3    3    0    0 -0.32302543912E+03  0.25154472671E+03  0.14002976141E+03  0.43269910785E+03  0.00000000000E+00 0. -1.
        -11    1    3    3    0    0 -0.14630496237E+03  0.14903268434E+03  0.11217050313E+02  0.20914517741E+03  0.00000000000E+00 0.  1.
          2    1    6    6  502    0  0.10073396200E+02  0.31023549220E+01  0.46423293188E+02  0.47604832396E+02  0.00000000000E+00 0. -1.
          1    1    5    5  503    0  0.34169252103E+03 -0.28022837685E+03  0.50695467337E+03  0.67252119890E+03  0.00000000000E+00 0. -1.
         -2    1    5    5    0  503  0.27185044168E+03 -0.14012197103E+03  0.37441595377E+03  0.48345024133E+03  0.00000000000E+00 0.  1.
         -1    1    6    6    0  502 -0.15428595743E+03  0.16670581899E+02  0.97666394755E+03  0.98891583636E+03  0.00000000000E+00 0.  1.
<mgrwt>
<rscale>  0 0.19512922E+04</rscale>
<asrwt>0</asrwt>
<pdfrwt beam="1">  1        2 0.37615700E+00 0.19512922E+04</pdfrwt>
<pdfrwt beam="2">  1       -2 0.59894749E-01 0.19512922E+04</pdfrwt>
<totfact> 0.90864963E+00</totfact>
</mgrwt>
</event>
<event>
12    1  0.1506149E-007  0.2170749E+04  0.7818608E-02  0.8530703E-01
         -1   -1    0    0    0  501 -0.00000000000E+00  0.00000000000E+00  0.10057776301E+04  0.10057776301E+04  0.00000000000E+00 0.  1.
          1   -1    0    0  501    0  0.00000000000E+00 -0.00000000000E+00 -0.11712707011E+04  0.11712707011E+04  0.00000000000E+00 0. -1.
         23    2    1    2    0    0 -0.83257350462E+03  0.95610540268E+02  0.23537038418E+03  0.87506072472E+03  0.89509989330E+02 0.  0.
        254    2    1    2    0    0  0.83257350462E+03 -0.95610540268E+02 -0.40086345521E+03  0.13019876065E+04  0.91222815225E+03 0.  0.
        -24    2    4    4    0    0  0.64241999111E+03  0.11518918719E+03 -0.64349766983E+03  0.92014042309E+03  0.81222861950E+02 0.  0.
         24    2    4    4    0    0  0.19015351351E+03 -0.21079972746E+03  0.24263421462E+03  0.38184718342E+03  0.79630556833E+02 0.  0.
         13    1    3    3    0    0 -0.34842411752E+03  0.58575238953E+02  0.14100997119E+03  0.38041324407E+03  0.00000000000E+00 0. -1.
        -13    1    3    3    0    0 -0.48414938710E+03  0.37035301315E+02  0.94360412991E+02  0.49464748065E+03  0.00000000000E+00 0.  1.
          2    1    6    6  502    0  0.24967134639E+02 -0.29021391184E+02  0.75814148844E+02  0.84931643828E+02  0.00000000000E+00 0. -1.
          3    1    5    5  503    0  0.33986706820E+02 -0.33216869318E+01 -0.14700253001E+02  0.37178317375E+02  0.00000000000E+00 0. -1.
         -4    1    5    5    0  503  0.60843328429E+03  0.11851087412E+03 -0.62879741682E+03  0.88296210571E+03  0.00000000000E+00 0.  1.
         -1    1    6    6    0  502  0.16518637887E+03 -0.18177833627E+03  0.16682006578E+03  0.29691553959E+03  0.00000000000E+00 0.  1.
<mgrwt>
<rscale>  0 0.21707491E+04</rscale>
<asrwt>0</asrwt>
<pdfrwt beam="1">  1        1 0.18019549E+00 0.21707491E+04</pdfrwt>
<pdfrwt beam="2">  1       -1 0.15473502E+00 0.21707491E+04</pdfrwt>
<totfact> 0.32879339E+00</totfact>
</mgrwt>
</event>
<event>
12    1  0.1506149E-007  0.1929942E+04  0.7818608E-02  0.8640094E-01
          2   -1    0    0  501    0  0.00000000000E+00  0.00000000000E+00  0.27591579239E+04  0.27591579239E+04  0.00000000000E+00 0. -1.
         -2   -1    0    0    0  501 -0.00000000000E+00 -0.00000000000E+00 -0.33748294399E+03  0.33748294399E+03  0.00000000000E+00 0.  1.
         23    2    1    2    0    0  0.96154734407E+02  0.29139825824E+03 -0.15010936828E+03  0.35335735186E+03  0.90387597706E+02 0.  0.
        254    2    1    2    0    0 -0.96154734407E+02 -0.29139825824E+03  0.25717843482E+04  0.27432835161E+04  0.90408574698E+03 0.  0.
        -24    2    4    4    0    0 -0.16013588209E+03  0.13907809953E+03  0.12937248539E+03  0.26107731043E+03  0.80236547428E+02 0.  0.
         24    2    4    4    0    0  0.63981147687E+02 -0.43047635777E+03  0.24424118628E+04  0.24822062056E+04  0.81046022103E+02 0.  0.
         13    1    3    3    0    0  0.39978003474E+02  0.18924228013E+03 -0.13483386630E+03  0.23577754951E+03  0.00000000000E+00 0.  1.
        -13    1    3    3    0    0  0.56176730933E+02  0.10215597811E+03 -0.15275501977E+02  0.11757980236E+03  0.00000000000E+00 0. -1.
          4    1    6    6  502    0  0.33211016270E+02 -0.39129839618E+03  0.21881917772E+04  0.22231510656E+04  0.00000000000E+00 0. -1.
          1    1    5    5  503    0 -0.97090982535E+02  0.51869153012E+02  0.28793592724E+02  0.11378110083E+03  0.00000000000E+00 0. -1.
         -2    1    5    5    0  503 -0.63044899558E+02  0.87208946523E+02  0.10057889267E+03  0.14729620960E+03  0.00000000000E+00 0.  1.
         -3    1    6    6    0  502  0.30770131416E+02 -0.39177961591E+02  0.25422008563E+03  0.25905514007E+03  0.00000000000E+00 0.  1.
<mgrwt>
<rscale>  0 0.19299417E+04</rscale>
<asrwt>0</asrwt>
<pdfrwt beam="1">  1        2 0.42448582E+00 0.19299417E+04</pdfrwt>
<pdfrwt beam="2">  1       -2 0.51920455E-01 0.19299417E+04</pdfrwt>
<totfact> 0.80232958E+00</totfact>
</mgrwt>
</event>
<event>
12    1  0.1506149E-007  0.1090456E+04  0.7818608E-02  0.9214544E-01
         -1   -1    0    0    0  501 -0.00000000000E+00  0.00000000000E+00  0.26027319770E+03  0.26027319770E+03  0.00000000000E+00 0.  1.
          1   -1    0    0  501    0  0.00000000000E+00 -0.00000000000E+00 -0.11421596493E+04  0.11421596493E+04  0.00000000000E+00 0. -1.
         23    2    1    2    0    0  0.14895683665E+03 -0.82837087662E+02 -0.14572477916E+03  0.24183366489E+03  0.90541084229E+02 0.  0.
        254    2    1    2    0    0 -0.14895683665E+03  0.82837087662E+02 -0.73616167245E+03  0.11605991821E+04  0.88091221543E+03 0.  0.
        -24    2    4    4    0    0 -0.50615671208E+03  0.91289998088E+02 -0.35146685851E+03  0.62924660755E+03  0.88847394738E+02 0.  0.
         24    2    4    4    0    0  0.35719987543E+03 -0.84529104257E+01 -0.38469481394E+03  0.53135257457E+03  0.81745066694E+02 0.  0.
         13    1    3    3    0    0  0.41877131140E+01  0.73709099316E+01  0.84058447169E+01  0.11938403568E+02  0.00000000000E+00 0. -1.
        -13    1    3    3    0    0  0.14476912354E+03 -0.90207997594E+02 -0.15413062388E+03  0.22989526132E+03  0.00000000000E+00 0.  1.
          2    1    6    6  502    0  0.31394990226E+02 -0.24830175164E+02 -0.48860474116E+02  0.63162717965E+02  0.00000000000E+00 0. -1.
          1    1    5    5  503    0 -0.66179708184E+02  0.36514288271E+02 -0.76441225178E+02  0.10750026944E+03  0.00000000000E+00 0. -1.
         -2    1    5    5    0  503 -0.43997700390E+03  0.54775709817E+02 -0.27502563333E+03  0.52174633811E+03  0.00000000000E+00 0.  1.
         -1    1    6    6    0  502  0.32580488521E+03  0.16377264738E+02 -0.33583433982E+03  0.46818985661E+03  0.00000000000E+00 0.  1.
<mgrwt>
<rscale>  0 0.10904559E+04</rscale>
<asrwt>0</asrwt>
<pdfrwt beam="1">  1        1 0.17571687E+00 0.10904559E+04</pdfrwt>
<pdfrwt beam="2">  1       -1 0.40042031E-01 0.10904559E+04</pdfrwt>
<totfact> 0.71409854E+01</totfact>
</mgrwt>
</event>
<event>
12    1  0.1506149E-007  0.2604970E+04  0.7818608E-02  0.8366515E-01
          1   -1    0    0  501    0  0.00000000000E+00  0.00000000000E+00  0.10792994359E+04  0.10792994359E+04  0.00000000000E+00 0. -1.
         -1   -1    0    0    0  501 -0.00000000000E+00 -0.00000000000E+00 -0.15718220084E+04  0.15718220084E+04  0.00000000000E+00 0.  1.
         23    2    1    2    0    0 -0.10766071418E+04 -0.37739605444E+03 -0.29818167460E+03  0.11837410174E+04  0.10401810156E+03 0.  0.
        254    2    1    2    0    0  0.10766071418E+04  0.37739605444E+03 -0.19434089790E+03  0.14673804268E+04  0.90217859247E+03 0.  0.
        -24    2    4    4    0    0  0.95974378682E+03  0.60441403596E+03 -0.30624200226E+03  0.11775108443E+04  0.79518307679E+02 0.  0.
         24    2    4    4    0    0  0.11686335501E+03 -0.22701798152E+03  0.11190110436E+03  0.28986958255E+03  0.79424870502E+02 0.  0.
         11    1    3    3    0    0 -0.49340697576E+03 -0.14459609057E+03 -0.18009362219E+03  0.54478636720E+03  0.00000000000E+00 0. -1.
        -11    1    3    3    0    0 -0.58320016607E+03 -0.23279996387E+03 -0.11808805242E+03  0.63895465019E+03  0.00000000000E+00 0.  1.
          4    1    6    6  502    0  0.43639245527E+02 -0.16732223195E+03  0.71429755451E+02  0.18709175026E+03  0.00000000000E+00 0. -1.
          3    1    5    5  503    0  0.51793145583E+02  0.49770781172E+02 -0.64235343446E+01  0.72117420789E+02  0.00000000000E+00 0. -1.
         -2    1    5    5    0  503  0.90795064124E+03  0.55464325479E+03 -0.29981846792E+03  0.11053934235E+04  0.00000000000E+00 0.  1.
         -3    1    6    6    0  502  0.73224109486E+02 -0.59695749573E+02  0.40471348911E+02  0.10277783229E+03  0.00000000000E+00 0.  1.
<mgrwt>
<rscale>  0 0.26049696E+04</rscale>
<asrwt>0</asrwt>
<pdfrwt beam="1">  1        1 0.16604607E+00 0.26049696E+04</pdfrwt>
<pdfrwt beam="2">  1       -1 0.24181877E+00 0.26049696E+04</pdfrwt>
<totfact> 0.91267595E-01</totfact>
</mgrwt>
</event>
<event>
12    1  0.1506149E-007  0.1773849E+04  0.7818608E-02  0.8720331E-01
         -1   -1    0    0    0  501 -0.00000000000E+00  0.00000000000E+00  0.53203243963E+03  0.53203243963E+03  0.00000000000E+00 0.  1.
          1   -1    0    0  501    0  0.00000000000E+00 -0.00000000000E+00 -0.14785471744E+04  0.14785471744E+04  0.00000000000E+00 0. -1.
         23    2    1    2    0    0 -0.16135642685E+03 -0.62225949672E+03 -0.48947706190E+03  0.81306634811E+03  0.90809220648E+02 0.  0.
        254    2    1    2    0    0  0.16135642685E+03  0.62225949672E+03 -0.45703767282E+03  0.11975132659E+04  0.90106149059E+03 0.  0.
        -24    2    4    4    0    0 -0.74261321465E+01 -0.17796233996E+03 -0.30434380793E+03  0.36164907440E+03  0.80244362485E+02 0.  0.
         24    2    4    4    0    0  0.16878255900E+03  0.80022183667E+03 -0.15269386489E+03  0.83586419147E+03  0.80690706352E+02 0.  0.
         11    1    3    3    0    0 -0.16835354876E+03 -0.53357151951E+03 -0.40838678774E+03  0.69269131091E+03  0.00000000000E+00 0. -1.
        -11    1    3    3    0    0  0.69971219074E+01 -0.88687977208E+02 -0.81090274162E+02  0.12037503720E+03  0.00000000000E+00 0.  1.
          2    1    6    6  502    0  0.60326414122E+02  0.35776080270E+03 -0.29876253623E+02  0.36403936424E+03  0.00000000000E+00 0. -1.
          1    1    5    5  503    0 -0.29160214173E+02 -0.16464667704E+03 -0.28153043590E+03  0.32744195316E+03  0.00000000000E+00 0. -1.
         -2    1    5    5    0  503  0.21734082026E+02 -0.13315662912E+02 -0.22813372030E+02  0.34207121242E+02  0.00000000000E+00 0.  1.
         -1    1    6    6    0  502  0.10845614488E+03  0.44246103398E+03 -0.12281761127E+03  0.47182482722E+03  0.00000000000E+00 0.  1.
<mgrwt>
<rscale>  0 0.17738490E+04</rscale>
<asrwt>0</asrwt>
<pdfrwt beam="1">  1        1 0.22746880E+00 0.17738490E+04</pdfrwt>
<pdfrwt beam="2">  1       -1 0.81851144E-01 0.17738490E+04</pdfrwt>
<totfact> 0.95097845E+00</totfact>
</mgrwt>
</event>
<event>
12    1  0.1506149E-007  0.1410863E+04  0.7818608E-02  0.8945993E-01
         -2   -1    0    0    0  501 -0.00000000000E+00  0.00000000000E+00  0.16260520036E+03  0.16260520036E+03  0.00000000000E+00 0. -1.
          2   -1    0    0  501    0  0.00000000000E+00 -0.00000000000E+00 -0.30603798240E+04  0.30603798240E+04  0.00000000000E+00 0.  1.
         23    2    1    2    0    0 -0.79291480724E+02  0.26821276370E+03 -0.13906213141E+04  0.14218432789E+04  0.97905285577E+02 0.  0.
        254    2    1    2    0    0  0.79291480724E+02 -0.26821276370E+03 -0.15071533096E+04  0.18011417455E+04  0.94571415519E+03 0.  0.
        -24    2    4    4    0    0 -0.29336587440E+03 -0.33783458288E+03 -0.12662293995E+04  0.13447490824E+04  0.69407930425E+02 0.  0.
         24    2    4    4    0    0  0.37265735512E+03  0.69621819187E+02 -0.24092391007E+03  0.45639266310E+03  0.80803653754E+02 0.  0.
         11    1    3    3    0    0  0.15133716212E+02  0.82932933453E+02 -0.30241671182E+03  0.31394707899E+03  0.00000000000E+00 0. -1.
        -11    1    3    3    0    0 -0.94425196936E+02  0.18527983024E+03 -0.10882046023E+04  0.11078961999E+04  0.00000000000E+00 0.  1.
          2    1    6    6  502    0  0.37456552234E+03  0.69941319066E+02 -0.24420873862E+03  0.45258040905E+03  0.00000000000E+00 0. -1.
          1    1    5    5  503    0 -0.27282895805E+03 -0.28718591355E+03 -0.10669048654E+04  0.11380673887E+04  0.00000000000E+00 0. -1.
         -2    1    5    5    0  503 -0.20536916350E+02 -0.50648669334E+02 -0.19932453407E+03  0.20668169372E+03  0.00000000000E+00 0.  1.
         -1    1    6    6    0  502 -0.19081672212E+01 -0.31949987903E+00  0.32848285536E+01  0.38122540502E+01  0.00000000000E+00 0.  1.
<mgrwt>
<rscale>  0 0.14108631E+04</rscale>
<asrwt>0</asrwt>
<pdfrwt beam="1">  1        2 0.47082763E+00 0.14108631E+04</pdfrwt>
<pdfrwt beam="2">  1       -2 0.25016187E-01 0.14108631E+04</pdfrwt>
<totfact> 0.22444485E+01</totfact>
</mgrwt>
</event>
<event>
12    1  0.1506149E-007  0.1300940E+04  0.7818608E-02  0.9028820E-01
          1   -1    0    0  501    0  0.00000000000E+00  0.00000000000E+00  0.11382026025E+04  0.11382026025E+04  0.00000000000E+00 0. -1.
         -1   -1    0    0    0  501 -0.00000000000E+00 -0.00000000000E+00 -0.37173609849E+03  0.37173609849E+03  0.00000000000E+00 0.  1.
         23    2    1    2    0    0 -0.11255244156E+03  0.30357509253E+03  0.32189107202E+03  0.46496367879E+03  0.88042441105E+02 0.  0.
        254    2    1    2    0    0  0.11255244156E+03 -0.30357509253E+03  0.44457543202E+03  0.10449750222E+04  0.88853789645E+03 0.  0.
        -24    2    4    4    0    0 -0.20374576633E+03 -0.38778617204E+03 -0.48373229891E+02  0.44798127953E+03  0.80354246440E+02 0.  0.
         24    2    4    4    0    0  0.31629820789E+03  0.84211079505E+02  0.49294866191E+03  0.59699374270E+03  0.79164912157E+02 0.  0.
         11    1    3    3    0    0 -0.94604277149E+02  0.20257632043E+03  0.26824242290E+03  0.34920070489E+03  0.00000000000E+00 0. -1.
        -11    1    3    3    0    0 -0.17948164414E+02  0.10099877211E+03  0.53648649119E+02  0.11576297390E+03  0.00000000000E+00 0.  1.
          2    1    6    6  502    0  0.26911808500E+03  0.69465845188E+02  0.35766094321E+03  0.45295849437E+03  0.00000000000E+00 0. -1.
          3    1    5    5  503    0 -0.20347682606E+03 -0.33100245032E+03 -0.44072140636E+02  0.39103426250E+03  0.00000000000E+00 0. -1.
         -4    1    5    5    0  503 -0.26894026462E+00 -0.56783721715E+02 -0.43010892549E+01  0.56947017038E+02  0.00000000000E+00 0.  1.
         -1    1    6    6    0  502  0.47180122891E+02  0.14745234317E+02  0.13528771870E+03  0.14403524833E+03  0.00000000000E+00 0.  1.
<mgrwt>
<rscale>  0 0.13009397E+04</rscale>
<asrwt>0</asrwt>
<pdfrwt beam="1">  1        1 0.17510809E+00 0.13009397E+04</pdfrwt>
<pdfrwt beam="2">  1       -1 0.57190170E-01 0.13009397E+04</pdfrwt>
<totfact> 0.36100137E+01</totfact>
</mgrwt>
</event>
<event>
12    1  0.1506149E-007  0.2803699E+04  0.7818608E-02  0.8302121E-01
         -1   -1    0    0    0  501 -0.00000000000E+00  0.00000000000E+00  0.21951696901E+04  0.21951696901E+04  0.00000000000E+00 0.  1.
          1   -1    0    0  501    0  0.00000000000E+00 -0.00000000000E+00 -0.89522998236E+03  0.89522998236E+03  0.00000000000E+00 0. -1.
         23    2    1    2    0    0  0.38006741522E+03 -0.87620066826E+03 -0.31436595083E+03  0.10115820045E+04  0.11087537850E+03 0.  0.
        254    2    1    2    0    0 -0.38006741522E+03  0.87620066826E+03  0.16143056586E+04  0.20788176680E+04  0.89628192342E+03 0.  0.
        -24    2    4    4    0    0  0.15729379187E+03 -0.48221330117E+02  0.64066206376E+02  0.19387461671E+03  0.80101526630E+02 0.  0.
         24    2    4    4    0    0 -0.53736120709E+03  0.92442199838E+03  0.15502394522E+04  0.18849430513E+04  0.80342077433E+02 0.  0.
         11    1    3    3    0    0 -0.12464917664E+01  0.14220154762E+01  0.29112996867E+01  0.34715321695E+01  0.00000000000E+00 0.  1.
        -11    1    3    3    0    0  0.38131390699E+03 -0.87762268374E+03 -0.31727725052E+03  0.10081104723E+04  0.00000000000E+00 0. -1.
          2    1    6    6  502    0 -0.12176343258E+03  0.26542254707E+03  0.46226370012E+03  0.54677526503E+03  0.00000000000E+00 0. -1.
          3    1    5    5  503    0 -0.45455483397E+01 -0.14265431988E+02 -0.32738143822E+01  0.15325874204E+02  0.00000000000E+00 0. -1.
         -4    1    5    5    0  503  0.16183934021E+03 -0.33955898129E+02  0.67340020758E+02  0.17854874251E+03  0.00000000000E+00 0.  1.
         -1    1    6    6    0  502 -0.41559777451E+03  0.65899945131E+03  0.10879757521E+04  0.13381677862E+04  0.00000000000E+00 0.  1.
<mgrwt>
<rscale>  0 0.28036988E+04</rscale>
<asrwt>0</asrwt>
<pdfrwt beam="1">  1        1 0.13772769E+00 0.28036988E+04</pdfrwt>
<pdfrwt beam="2">  1       -1 0.33771841E+00 0.28036988E+04</pdfrwt>
<totfact> 0.29763374E-01</totfact>
</mgrwt>
</event>
<event>
12    1  0.1506149E-007  0.1710914E+04  0.7818608E-02  0.8755164E-01
          3   -1    0    0  501    0  0.00000000000E+00  0.00000000000E+00  0.17351892013E+04  0.17351892013E+04  0.00000000000E+00 0. -1.
         -3   -1    0    0    0  501 -0.00000000000E+00 -0.00000000000E+00 -0.42174456156E+03  0.42174456156E+03  0.00000000000E+00 0.  1.
         23    2    1    2    0    0  0.41457805174E+03  0.43786887195E+03  0.57463516726E+03  0.83848573964E+03  0.96169902350E+02 0.  0.
        254    2    1    2    0    0 -0.41457805174E+03 -0.43786887195E+03  0.73880947252E+03  0.13184480232E+04  0.91041838916E+03 0.  0.
        -24    2    4    4    0    0  0.22044964581E+03  0.84947508652E+02  0.27325373146E+03  0.36985496865E+03  0.79441617005E+02 0.  0.
         24    2    4    4    0    0 -0.63502769755E+03 -0.52281638060E+03  0.46555574105E+03  0.94859305460E+03  0.80557375273E+02 0.  0.
         13    1    3    3    0    0  0.73525657103E+02  0.11286433250E+03  0.17407971223E+03  0.22010935013E+03  0.00000000000E+00 0.  1.
        -13    1    3    3    0    0  0.34105239464E+03  0.32500453945E+03  0.40055545502E+03  0.61837638950E+03  0.00000000000E+00 0. -1.
          4    1    6    6  502    0 -0.61578089690E+03 -0.49749801533E+03  0.46200764814E+03  0.91659230587E+03  0.00000000000E+00 0. -1.
          1    1    5    5  503    0  0.20083781116E+03  0.94704163413E+02  0.26660710729E+03  0.34696405378E+03  0.00000000000E+00 0. -1.
         -2    1    5    5    0  503  0.19611834656E+02 -0.97566547609E+01  0.66466241712E+01  0.22890914870E+02  0.00000000000E+00 0.  1.
         -3    1    6    6    0  502 -0.19246800654E+02 -0.25318365272E+02  0.35480929128E+01  0.32000748722E+02  0.00000000000E+00 0.  1.
<mgrwt>
<rscale>  0 0.17109139E+04</rscale>
<asrwt>0</asrwt>
<pdfrwt beam="1">  1        3 0.26695218E+00 0.17109139E+04</pdfrwt>
<pdfrwt beam="2">  1       -3 0.64883779E-01 0.17109139E+04</pdfrwt>
<totfact> 0.33878716E-01</totfact>
</mgrwt>
</event>
<event>
12    1  0.1506149E-007  0.2488796E+04  0.7818608E-02  0.8406988E-01
          1   -1    0    0  501    0  0.00000000000E+00  0.00000000000E+00  0.17330206523E+04  0.17330206523E+04  0.00000000000E+00 0. -1.
         -1   -1    0    0    0  501 -0.00000000000E+00 -0.00000000000E+00 -0.89354151050E+03  0.89354151050E+03  0.00000000000E+00 0.  1.
         23    2    1    2    0    0  0.21298232827E+03 -0.10050241367E+04  0.71418164186E+03  0.12545355796E+04  0.91482869448E+02 0.  0.
        254    2    1    2    0    0 -0.21298232827E+03  0.10050241367E+04  0.12529749991E+03  0.13720265832E+04  0.90073441914E+03 0.  0.
        -24    2    4    4    0    0 -0.21265540959E+03  0.12233230881E+02 -0.22132776785E+03  0.31743746310E+03  0.80053650733E+02 0.  0.
         24    2    4    4    0    0 -0.32691868361E+00  0.99279090586E+03  0.34662526776E+03  0.10545891201E+04  0.79845139248E+02 0.  0.
         13    1    3    3    0    0  0.52874016516E+02 -0.38665374533E+03  0.22979053512E+03  0.45288019435E+03  0.00000000000E+00 0.  1.
        -13    1    3    3    0    0  0.16010831175E+03 -0.61837039141E+03  0.48439110674E+03  0.80165538528E+03  0.00000000000E+00 0. -1.
          2    1    6    6  502    0  0.81953657834E+01  0.98142383479E+03  0.34481172995E+03  0.10402668103E+04  0.00000000000E+00 0. -1.
          3    1    5    5  503    0 -0.16709360188E+03  0.13230283504E+02 -0.21311047854E+03  0.27112983653E+03  0.00000000000E+00 0. -1.
         -4    1    5    5    0  503 -0.45561807704E+02 -0.99705262310E+00 -0.82172893040E+01  0.46307626572E+02  0.00000000000E+00 0.  1.
         -1    1    6    6    0  502 -0.85222844670E+01  0.11367071070E+02  0.18135378116E+01  0.14322309752E+02  0.00000000000E+00 0.  1.
<mgrwt>
<rscale>  0 0.24887956E+04</rscale>
<asrwt>0</asrwt>
<pdfrwt beam="1">  1        1 0.26661856E+00 0.24887956E+04</pdfrwt>
<pdfrwt beam="2">  1       -1 0.13746792E+00 0.24887956E+04</pdfrwt>
<totfact> 0.17688857E+00</totfact>
</mgrwt>
</event>
<event>
12    1  0.1506149E-007  0.2125883E+04  0.7818608E-02  0.8549927E-01
          2   -1    0    0  501    0  0.00000000000E+00  0.00000000000E+00  0.20451123148E+04  0.20451123148E+04  0.00000000000E+00 0.  1.
         -2   -1    0    0    0  501 -0.00000000000E+00 -0.00000000000E+00 -0.55246068060E+03  0.55246068060E+03  0.00000000000E+00 0. -1.
         23    2    1    2    0    0 -0.33146877812E+03 -0.80271317923E+03  0.65603021163E+03  0.10922285425E+04  0.91474321198E+02 0.  0.
        254    2    1    2    0    0  0.33146877812E+03  0.80271317923E+03  0.83662142260E+03  0.15053444530E+04  0.90105855432E+03 0.  0.
        -24    2    4    4    0    0  0.10574054321E+03  0.94639408010E+03  0.53893065766E+03  0.10971828687E+04  0.80753800552E+02 0.  0.
         24    2    4    4    0    0  0.22572823491E+03 -0.14368090087E+03  0.29769076494E+03  0.40816158425E+03  0.79866451137E+02 0.  0.
         13    1    3    3    0    0 -0.13498130049E+03 -0.33721844939E+03  0.33118287863E+03  0.49154687791E+03  0.00000000000E+00 0. -1.
        -13    1    3    3    0    0 -0.19648747764E+03 -0.46549472985E+03  0.32484733300E+03  0.60068166456E+03  0.00000000000E+00 0.  1.
          2    1    6    6  502    0  0.36646393017E+02  0.65465610907E+01  0.31680797615E+02  0.48882394794E+02  0.00000000000E+00 0. -1.
          3    1    5    5  503    0  0.36501760664E+02  0.33857419865E+03  0.23769071646E+03  0.41528513483E+03  0.00000000000E+00 0. -1.
         -4    1    5    5    0  503  0.69238782546E+02  0.60781988145E+03  0.30123994121E+03  0.68189773388E+03  0.00000000000E+00 0.  1.
         -1    1    6    6    0  502  0.18908184189E+03 -0.15022746196E+03  0.26600996732E+03  0.35927918945E+03  0.00000000000E+00 0.  1.
<mgrwt>
<rscale>  0 0.21258825E+04</rscale>
<asrwt>0</asrwt>
<pdfrwt beam="1">  1        2 0.31463266E+00 0.21258825E+04</pdfrwt>
<pdfrwt beam="2">  1       -2 0.84993952E-01 0.21258825E+04</pdfrwt>
<totfact> 0.69872483E+00</totfact>
</mgrwt>
</event>
<event>
12    1  0.1506149E-007  0.2090277E+04  0.7818608E-02  0.8565539E-01
         -2   -1    0    0    0  501 -0.00000000000E+00  0.00000000000E+00  0.66003916531E+03  0.66003916531E+03  0.00000000000E+00 0.  1.
          2   -1    0    0  501    0  0.00000000000E+00 -0.00000000000E+00 -0.16549230859E+04  0.16549230859E+04  0.00000000000E+00 0. -1.
         23    2    1    2    0    0  0.31213969683E+03 -0.76078515389E+03 -0.63321565857E+03  0.10419021480E+04  0.91502869089E+02 0.  0.
        254    2    1    2    0    0 -0.31213969683E+03  0.76078515389E+03 -0.36166826198E+03  0.12730601032E+04  0.90202708043E+03 0.  0.
        -24    2    4    4    0    0 -0.55600168597E+03  0.66734298610E+03 -0.45539472989E+03  0.98401986579E+03  0.80163585023E+02 0.  0.
         24    2    4    4    0    0  0.24386198914E+03  0.93442167785E+02  0.93726467904E+02  0.28904023737E+03  0.80990737517E+02 0.  0.
         11    1    3    3    0    0  0.29943703206E+03 -0.69293621277E+03 -0.55111672774E+03  0.93464045426E+03  0.00000000000E+00 0. -1.
        -11    1    3    3    0    0  0.12702664764E+02 -0.67848941122E+02 -0.82098930825E+02  0.10726169375E+03  0.00000000000E+00 0.  1.
          4    1    6    6  502    0  0.23764075439E+03  0.67933229649E+02  0.85261900473E+02  0.26145294702E+03  0.00000000000E+00 0. -1.
          1    1    5    5  503    0 -0.38942159772E+03  0.51324202998E+03 -0.31462594185E+03  0.71697701874E+03  0.00000000000E+00 0. -1.
         -2    1    5    5    0  503 -0.16658008825E+03  0.15410095612E+03 -0.14076878804E+03  0.26704284706E+03  0.00000000000E+00 0.  1.
         -3    1    6    6    0  502  0.62212347569E+01  0.25508938136E+02  0.84645674312E+01  0.27587290344E+02  0.00000000000E+00 0.  1.
<mgrwt>
<rscale>  0 0.20902766E+04</rscale>
<asrwt>0</asrwt>
<pdfrwt beam="1">  1        2 0.25460355E+00 0.20902766E+04</pdfrwt>
<pdfrwt beam="2">  1       -2 0.10154449E+00 0.20902766E+04</pdfrwt>
<totfact> 0.76327233E+00</totfact>
</mgrwt>
</event>
<event>
12    1  0.1506149E-007  0.2244510E+04  0.7818608E-02  0.8500127E-01
         -1   -1    0    0    0  501 -0.00000000000E+00  0.00000000000E+00  0.79683090770E+03  0.79683090770E+03  0.00000000000E+00 0.  1.
          1   -1    0    0  501    0  0.00000000000E+00 -0.00000000000E+00 -0.15805811813E+04  0.15805811813E+04  0.00000000000E+00 0. -1.
         23    2    1    2    0    0 -0.51960353854E+03  0.59759416872E+03 -0.86570190595E+03  0.11778550580E+04  0.10390437897E+03 0.  0.
        254    2    1    2    0    0  0.51960353854E+03 -0.59759416872E+03  0.81951632311E+02  0.11995570310E+04  0.89728165751E+03 0.  0.
        -24    2    4    4    0    0  0.53323465462E+03 -0.49032547586E+03 -0.30587538484E+03  0.79022327529E+03  0.78324993431E+02 0.  0.
         24    2    4    4    0    0 -0.13631116079E+02 -0.10726869286E+03  0.38782701715E+03  0.40933375575E+03  0.73837311498E+02 0.  0.
         11    1    3    3    0    0 -0.35697997241E+03  0.39958989779E+03 -0.65409607511E+03  0.84554625101E+03  0.00000000000E+00 0. -1.
        -11    1    3    3    0    0 -0.16262356613E+03  0.19800427093E+03 -0.21160583083E+03  0.33230880700E+03  0.00000000000E+00 0.  1.
          2    1    6    6  502    0 -0.68429461823E+01 -0.34230905539E+02  0.36793818555E+02  0.50718496531E+02  0.00000000000E+00 0. -1.
          1    1    5    5  503    0  0.13172370256E+03 -0.11158245116E+03 -0.38307310798E+02  0.17683106990E+03  0.00000000000E+00 0. -1.
         -2    1    5    5    0  503  0.40151095206E+03 -0.37874302470E+03 -0.26756807404E+03  0.61339220538E+03  0.00000000000E+00 0.  1.
         -1    1    6    6    0  502 -0.67881698967E+01 -0.73037787324E+02  0.35103319859E+03  0.35861525922E+03  0.00000000000E+00 0.  1.
<mgrwt>
<rscale>  0 0.22445097E+04</rscale>
<asrwt>0</asrwt>
<pdfrwt beam="1">  1        1 0.24316633E+00 0.22445097E+04</pdfrwt>
<pdfrwt beam="2">  1       -1 0.12258937E+00 0.22445097E+04</pdfrwt>
<totfact> 0.30695860E+00</totfact>
</mgrwt>
</event>
<event>
12    1  0.1506149E-007  0.1760576E+04  0.7818608E-02  0.8727550E-01
          1   -1    0    0  501    0  0.00000000000E+00  0.00000000000E+00  0.43503231168E+03  0.43503231168E+03  0.00000000000E+00 0. -1.
         -1   -1    0    0    0  501 -0.00000000000E+00 -0.00000000000E+00 -0.17812634048E+04  0.17812634048E+04  0.00000000000E+00 0.  1.
         23    2    1    2    0    0 -0.12808892737E+03  0.53294535754E+03 -0.10330500773E+04  0.11730204705E+04  0.91362107797E+02 0.  0.
        254    2    1    2    0    0  0.12808892737E+03 -0.53294535754E+03 -0.31318101581E+03  0.10432752459E+04  0.83060421537E+03 0.  0.
        -24    2    4    4    0    0  0.35897047761E+03  0.36019311163E+02 -0.61229583203E+02  0.37471437745E+03  0.80651151485E+02 0.  0.
         24    2    4    4    0    0 -0.23088155024E+03 -0.56896466871E+03 -0.25195143261E+03  0.66856086844E+03  0.80417821067E+02 0.  0.
         11    1    3    3    0    0 -0.11985482486E+02  0.18913308777E+03 -0.29582425026E+03  0.35132173819E+03  0.00000000000E+00 0. -1.
        -11    1    3    3    0    0 -0.11610344488E+03  0.34381226978E+03 -0.73722582700E+03  0.82169873236E+03  0.00000000000E+00 0.  1.
          4    1    6    6  502    0 -0.83477054897E+02 -0.25548785923E+03 -0.14832053612E+03  0.30698769738E+03  0.00000000000E+00 0. -1.
          1    1    5    5  503    0  0.26297925633E+03  0.33190615530E+02 -0.85987235426E+01  0.26520490995E+03  0.00000000000E+00 0. -1.
         -2    1    5    5    0  503  0.95991221283E+02  0.28286956337E+01 -0.52630859660E+02  0.10950946749E+03  0.00000000000E+00 0.  1.
         -3    1    6    6    0  502 -0.14740449534E+03 -0.31347680948E+03 -0.10363089649E+03  0.36157317107E+03  0.00000000000E+00 0.  1.
<mgrwt>
<rscale>  0 0.17605762E+04</rscale>
<asrwt>0</asrwt>
<pdfrwt beam="1">  1        1 0.66928048E-01 0.17605762E+04</pdfrwt>
<pdfrwt beam="2">  1       -1 0.27404052E+00 0.17605762E+04</pdfrwt>
<totfact> 0.24701938E+00</totfact>
</mgrwt>
</event>
<event>
12    1  0.1506149E-007  0.2291107E+04  0.7818608E-02  0.8481436E-01
         -1   -1    0    0    0  501 -0.00000000000E+00  0.00000000000E+00  0.73068565191E+03  0.73068565191E+03  0.00000000000E+00 0.  1.
          1   -1    0    0  501    0  0.00000000000E+00 -0.00000000000E+00 -0.17959740203E+04  0.17959740203E+04  0.00000000000E+00 0. -1.
         23    2    1    2    0    0  0.71525353547E+03  0.38149656779E+03  0.12899135035E+03  0.82598505527E+03  0.92115643830E+02 0.  0.
        254    2    1    2    0    0 -0.71525353547E+03 -0.38149656779E+03 -0.11942797187E+04  0.17006746169E+04  0.89936803083E+03 0.  0.
        -24    2    4    4    0    0 -0.77478628874E+02  0.34848317322E+02 -0.85494974274E+03  0.86287216994E+03  0.79949833575E+02 0.  0.
         24    2    4    4    0    0 -0.63777490659E+03 -0.41634488511E+03 -0.33932997601E+03  0.83780244701E+03  0.81659125390E+02 0.  0.
         11    1    3    3    0    0  0.48914503368E+03  0.25921776357E+03  0.44372733453E+02  0.55536083081E+03  0.00000000000E+00 0.  1.
        -11    1    3    3    0    0  0.22610850179E+03  0.12227880422E+03  0.84618616893E+02  0.27062422446E+03  0.00000000000E+00 0. -1.
          4    1    6    6  502    0 -0.48986278676E+03 -0.34335835063E+03 -0.29506711303E+03  0.66702706691E+03  0.00000000000E+00 0. -1.
          1    1    5    5  503    0 -0.82924526436E+02  0.44185420993E+02 -0.83420621040E+03  0.83948128626E+03  0.00000000000E+00 0. -1.
         -2    1    5    5    0  503  0.54458975615E+01 -0.93371036708E+01 -0.20743532341E+02  0.23390883677E+02  0.00000000000E+00 0.  1.
         -3    1    6    6    0  502 -0.14791211983E+03 -0.72986534482E+02 -0.44262862982E+02  0.17077538010E+03  0.00000000000E+00 0.  1.
<mgrwt>
<rscale>  0 0.22911067E+04</rscale>
<asrwt>0</asrwt>
<pdfrwt beam="1">  1        1 0.27630369E+00 0.22911067E+04</pdfrwt>
<pdfrwt beam="2">  1       -1 0.11241318E+00 0.22911067E+04</pdfrwt>
<totfact> 0.26877386E+00</totfact>
</mgrwt>
</event>
<event>
12    1  0.1506149E-007  0.1931375E+04  0.7818608E-02  0.8639395E-01
         -1   -1    0    0    0  501 -0.00000000000E+00  0.00000000000E+00  0.42017568205E+03  0.42017568205E+03  0.00000000000E+00 0.  1.
          1   -1    0    0  501    0  0.00000000000E+00 -0.00000000000E+00 -0.22194343032E+04  0.22194343032E+04  0.00000000000E+00 0. -1.
         23    2    1    2    0    0  0.59945461760E+03 -0.37277158310E+03 -0.10482221928E+04  0.12672260015E+04  0.93741569095E+02 0.  0.
        254    2    1    2    0    0 -0.59945461760E+03  0.37277158310E+03 -0.75103642834E+03  0.13723839837E+04  0.90613331815E+03 0.  0.
        -24    2    4    4    0    0 -0.66911236325E+03  0.31670016883E+03 -0.15020012431E+03  0.75957081354E+03  0.79858574035E+02 0.  0.
         24    2    4    4    0    0  0.69657745652E+02  0.56071414269E+02 -0.60083630403E+03  0.61281317015E+03  0.80867250740E+02 0.  0.
         13    1    3    3    0    0  0.31476448673E+03 -0.24583116511E+03 -0.62200517369E+03  0.73918879857E+03  0.00000000000E+00 0. -1.
        -13    1    3    3    0    0  0.28469013087E+03 -0.12694041799E+03 -0.42621701908E+03  0.52803720294E+03  0.00000000000E+00 0.  1.
          2    1    6    6  502    0  0.74147611651E+02  0.22513419392E+02 -0.51036459412E+03  0.51621385229E+03  0.00000000000E+00 0. -1.
          1    1    5    5  503    0 -0.64833153228E+03  0.28875876488E+03 -0.14438140274E+03  0.72426610406E+03  0.00000000000E+00 0. -1.
         -2    1    5    5    0  503 -0.20780830977E+02  0.27941403945E+02 -0.58187215737E+01  0.35304709477E+02  0.00000000000E+00 0.  1.
         -1    1    6    6    0  502 -0.44898659984E+01  0.33557994877E+02 -0.90471709909E+02  0.96599317858E+02  0.00000000000E+00 0.  1.
<mgrwt>
<rscale>  0 0.19313750E+04</rscale>
<asrwt>0</asrwt>
<pdfrwt beam="1">  1        1 0.34145143E+00 0.19313750E+04</pdfrwt>
<pdfrwt beam="2">  1       -1 0.64642413E-01 0.19313750E+04</pdfrwt>
<totfact> 0.47852721E+00</totfact>
</mgrwt>
</event>
<event>
12    1  0.1506149E-007  0.1843448E+04  0.7818608E-02  0.8683530E-01
          1   -1    0    0  501    0  0.00000000000E+00  0.00000000000E+00  0.89811293701E+03  0.89811293701E+03  0.00000000000E+00 0. -1.
         -1   -1    0    0    0  501 -0.00000000000E+00 -0.00000000000E+00 -0.94595556300E+03  0.94595556300E+03  0.00000000000E+00 0.  1.
         23    2    1    2    0    0 -0.52723421876E+03 -0.16998967312E+03 -0.43600547421E+03  0.71133913799E+03  0.95027287154E+02 0.  0.
        254    2    1    2    0    0  0.52723421876E+03  0.16998967312E+03  0.38816284822E+03  0.11327293620E+04  0.90858846595E+03 0.  0.
        -24    2    4    4    0    0  0.43884726015E+03  0.11174045076E+03  0.67469224954E+03  0.81666956667E+03  0.81649883380E+02 0.  0.
         24    2    4    4    0    0  0.88386958605E+02  0.58249222362E+02 -0.28652940132E+03  0.31605979535E+03  0.81175550845E+02 0.  0.
         11    1    3    3    0    0 -0.10137922333E+03 -0.53884028732E+02 -0.51013366166E+02  0.12563279430E+03  0.00000000000E+00 0. -1.
        -11    1    3    3    0    0 -0.42585499543E+03 -0.11610564439E+03 -0.38499210805E+03  0.58570634370E+03  0.00000000000E+00 0.  1.
          2    1    6    6  502    0  0.26284677581E+02 -0.31558549042E+01 -0.16085838480E+03  0.16302227963E+03  0.00000000000E+00 0. -1.
          3    1    5    5  503    0  0.29998749847E+03  0.11411534804E+03  0.48455703900E+03  0.58121453521E+03  0.00000000000E+00 0. -1.
         -4    1    5    5    0  503  0.13885976168E+03 -0.23748972837E+01  0.19013521054E+03  0.23545503146E+03  0.00000000000E+00 0.  1.
         -1    1    6    6    0  502  0.62102281024E+02  0.61405077266E+02 -0.12567101652E+03  0.15303751572E+03  0.00000000000E+00 0.  1.
<mgrwt>
<rscale>  0 0.18434478E+04</rscale>
<asrwt>0</asrwt>
<pdfrwt beam="1">  1        1 0.13817122E+00 0.18434478E+04</pdfrwt>
<pdfrwt beam="2">  1       -1 0.14553163E+00 0.18434478E+04</pdfrwt>
<totfact> 0.64966870E+00</totfact>
</mgrwt>
</event>
<event>
12    1  0.1506149E-007  0.2443045E+04  0.7818608E-02  0.8423562E-01
         -2   -1    0    0    0  501 -0.00000000000E+00  0.00000000000E+00  0.85288607158E+03  0.85288607158E+03  0.00000000000E+00 0. -1.
          2   -1    0    0  501    0  0.00000000000E+00 -0.00000000000E+00 -0.17494911403E+04  0.17494911403E+04  0.00000000000E+00 0.  1.
         23    2    1    2    0    0 -0.56288881926E+03 -0.40606286148E+02  0.55738871640E+03  0.79822552556E+03  0.89381850329E+02 0.  0.
        254    2    1    2    0    0  0.56288881926E+03  0.40606286148E+02 -0.14539937851E+04  0.18041516863E+04  0.90684766458E+03 0.  0.
        -24    2    4    4    0    0  0.91799481152E+02 -0.39966119204E+03 -0.57840191218E+03  0.71385280286E+03  0.82950822626E+02 0.  0.
         24    2    4    4    0    0  0.47108933811E+03  0.44026747819E+03 -0.87559187294E+03  0.10902988835E+04  0.79560734617E+02 0.  0.
         11    1    3    3    0    0 -0.31262975682E+03 -0.40289982510E+02  0.36693935962E+03  0.48374077891E+03  0.00000000000E+00 0. -1.
        -11    1    3    3    0    0 -0.25025906244E+03 -0.31630363886E+00  0.19044935678E+03  0.31448474665E+03  0.00000000000E+00 0.  1.
          2    1    6    6  502    0  0.24267864115E+03  0.18161006122E+03 -0.44656934374E+03  0.53972151706E+03  0.00000000000E+00 0. -1.
          3    1    5    5  503    0  0.58608821201E+02 -0.34900719206E+03 -0.52482867978E+03  0.63299775446E+03  0.00000000000E+00 0. -1.
         -4    1    5    5    0  503  0.33190659951E+02 -0.50653999975E+02 -0.53573232402E+02  0.80855048398E+02  0.00000000000E+00 0.  1.
         -1    1    6    6    0  502  0.22841069696E+03  0.25865741696E+03 -0.42902252921E+03  0.55057736641E+03  0.00000000000E+00 0.  1.
<mgrwt>
<rscale>  0 0.24430445E+04</rscale>
<asrwt>0</asrwt>
<pdfrwt beam="1">  1        2 0.26915248E+00 0.24430445E+04</pdfrwt>
<pdfrwt beam="2">  1       -2 0.13121324E+00 0.24430445E+04</pdfrwt>
<totfact> 0.34990688E+00</totfact>
</mgrwt>
</event>
<event>
12    1  0.1506149E-007  0.1768004E+04  0.7818608E-02  0.8723502E-01
          2   -1    0    0  501    0  0.00000000000E+00  0.00000000000E+00  0.22891081278E+04  0.22891081278E+04  0.00000000000E+00 0. -1.
         -2   -1    0    0    0  501 -0.00000000000E+00 -0.00000000000E+00 -0.34138177853E+03  0.34138177853E+03  0.00000000000E+00 0.  1.
         23    2    1    2    0    0  0.52772181160E+03 -0.54891725768E+02  0.15962925123E+03  0.56156411012E+03  0.91484096620E+02 0.  0.
        254    2    1    2    0    0 -0.52772181160E+03  0.54891725768E+02  0.17880970980E+04  0.20689257962E+04  0.89535429088E+03 0.  0.
        -24    2    4    4    0    0 -0.45822783216E+03 -0.29413734682E+03  0.15179181486E+04  0.16145779769E+04  0.79353720149E+02 0.  0.
         24    2    4    4    0    0 -0.69493979439E+02  0.34902907259E+03  0.27017894942E+03  0.45434781923E+03  0.82368497847E+02 0.  0.
         11    1    3    3    0    0  0.48567259971E+03 -0.45343458560E+02  0.11849506269E+03  0.50197109800E+03  0.00000000000E+00 0.  1.
        -11    1    3    3    0    0  0.42049211888E+02 -0.95482672079E+01  0.41134188541E+02  0.59593012124E+02  0.00000000000E+00 0. -1.
          2    1    6    6  502    0 -0.26027639639E+02  0.20510183809E+03  0.20275143426E+03  0.28957269573E+03  0.00000000000E+00 0. -1.
          3    1    5    5  503    0 -0.86274457631E+02 -0.23932488606E+02  0.21346747308E+03  0.23148306226E+03  0.00000000000E+00 0. -1.
         -4    1    5    5    0  503 -0.37195337453E+03 -0.27020485821E+03  0.13044506755E+04  0.13830949147E+04  0.00000000000E+00 0.  1.
         -1    1    6    6    0  502 -0.43466339801E+02  0.14392723449E+03  0.67427515157E+02  0.16477512350E+03  0.00000000000E+00 0.  1.
<mgrwt>
<rscale>  0 0.17680043E+04</rscale>
<asrwt>0</asrwt>
<pdfrwt beam="1">  1        2 0.35217047E+00 0.17680043E+04</pdfrwt>
<pdfrwt beam="2">  1       -2 0.52520275E-01 0.17680043E+04</pdfrwt>
<totfact> 0.14897809E+01</totfact>
</mgrwt>
</event>
<event>
12    1  0.1506149E-007  0.1322274E+04  0.7818608E-02  0.9012086E-01
          2   -1    0    0  501    0  0.00000000000E+00  0.00000000000E+00  0.98203637601E+03  0.98203637601E+03  0.00000000000E+00 0. -1.
         -2   -1    0    0    0  501 -0.00000000000E+00 -0.00000000000E+00 -0.44509794891E+03  0.44509794891E+03  0.00000000000E+00 0.  1.
         23    2    1    2    0    0  0.21789167453E+03  0.20393695079E+03 -0.89069055872E+02  0.32471502708E+03  0.91866698914E+02 0.  0.
        254    2    1    2    0    0 -0.21789167453E+03 -0.20393695079E+03  0.62600748297E+03  0.11024192978E+04  0.85695733721E+03 0.  0.
        -24    2    4    4    0    0  0.20777509607E+03 -0.31534672724E+03  0.51178102087E+03  0.64080366752E+03  0.78073542637E+02 0.  0.
         24    2    4    4    0    0 -0.42566677060E+03  0.11140977645E+03  0.11422646210E+03  0.46161563033E+03  0.80230715047E+02 0.  0.
         11    1    3    3    0    0  0.51965658348E+02  0.28452285679E+02  0.15960078340E+02  0.61357039601E+02  0.00000000000E+00 0. -1.
        -11    1    3    3    0    0  0.16592601619E+03  0.17548466511E+03 -0.10502913421E+03  0.26335798748E+03  0.00000000000E+00 0.  1.
          2    1    6    6  502    0 -0.86243922771E+02  0.52028530965E+02  0.80188283777E+01  0.10104100088E+03  0.00000000000E+00 0. -1.
          1    1    5    5  503    0  0.92451987732E+02 -0.75076796304E+02  0.15507397999E+03  0.19552962601E+03  0.00000000000E+00 0. -1.
         -2    1    5    5    0  503  0.11532310833E+03 -0.24026993093E+03  0.35670704088E+03  0.44527404151E+03  0.00000000000E+00 0.  1.
         -1    1    6    6    0  502 -0.33942284783E+03  0.59381245488E+02  0.10620763372E+03  0.36057462945E+03  0.00000000000E+00 0.  1.
<mgrwt>
<rscale>  0 0.13222744E+04</rscale>
<asrwt>0</asrwt>
<pdfrwt beam="1">  1        2 0.15108252E+00 0.13222744E+04</pdfrwt>
<pdfrwt beam="2">  1       -2 0.68476608E-01 0.13222744E+04</pdfrwt>
<totfact> 0.49392420E+01</totfact>
</mgrwt>
</event>
<event>
12    1  0.1506149E-007  0.1461500E+04  0.7818608E-02  0.8910467E-01
          2   -1    0    0  501    0  0.00000000000E+00  0.00000000000E+00  0.54453147458E+03  0.54453147458E+03  0.00000000000E+00 0.  1.
         -2   -1    0    0    0  501 -0.00000000000E+00 -0.00000000000E+00 -0.98065096237E+03  0.98065096237E+03  0.00000000000E+00 0. -1.
         23    2    1    2    0    0 -0.68214228926E+02  0.13472627186E+03  0.30621516658E+03  0.35364376932E+03  0.92151169195E+02 0.  0.
        254    2    1    2    0    0  0.68214228926E+02 -0.13472627186E+03 -0.74233465436E+03  0.11715386676E+04  0.89366535197E+03 0.  0.
        -24    2    4    4    0    0 -0.26004249140E+03 -0.27541206170E+03 -0.70404539360E+03  0.80355179690E+03  0.80880609457E+02 0.  0.
         24    2    4    4    0    0  0.32825672033E+03  0.14068578984E+03 -0.38289260763E+02  0.36798687073E+03  0.80020645058E+02 0.  0.
         13    1    3    3    0    0 -0.27305123211E+02  0.10935874276E+03  0.27245184665E+03  0.29484727083E+03  0.00000000000E+00 0.  1.
        -13    1    3    3    0    0 -0.40909105716E+02  0.25367529104E+02  0.33763319926E+02  0.58796498499E+02  0.00000000000E+00 0. -1.
          4    1    6    6  502    0  0.26801032802E+03  0.14225506577E+03 -0.47172547978E+02  0.30706886678E+03  0.00000000000E+00 0. -1.
          1    1    5    5  503    0 -0.72800441867E+02 -0.11718697584E+03 -0.19884958975E+03  0.24202035242E+03  0.00000000000E+00 0. -1.
         -2    1    5    5    0  503 -0.18724204953E+03 -0.15822508586E+03 -0.50519580385E+03  0.56153144447E+03  0.00000000000E+00 0.  1.
         -3    1    6    6    0  502  0.60246392305E+02 -0.15692759362E+01  0.88832872153E+01  0.60918003943E+02  0.00000000000E+00 0.  1.
<mgrwt>
<rscale>  0 0.14614997E+04</rscale>
<asrwt>0</asrwt>
<pdfrwt beam="1">  1        2 0.83774074E-01 0.14614997E+04</pdfrwt>
<pdfrwt beam="2">  1       -2 0.15086938E+00 0.14614997E+04</pdfrwt>
<totfact> 0.15913370E+01</totfact>
</mgrwt>
</event>
<event>
12    1  0.1506149E-007  0.1403845E+04  0.7818608E-02  0.8951040E-01
         -2   -1    0    0    0  501 -0.00000000000E+00  0.00000000000E+00  0.44771364630E+03  0.44771364630E+03  0.00000000000E+00 0.  1.
          2   -1    0    0  501    0  0.00000000000E+00 -0.00000000000E+00 -0.11004691493E+04  0.11004691493E+04  0.00000000000E+00 0. -1.
         23    2    1    2    0    0  0.28083151193E+03  0.29940386570E+02 -0.50301616962E+03  0.58414034940E+03  0.91825465191E+02 0.  0.
        254    2    1    2    0    0 -0.28083151193E+03 -0.29940386570E+02 -0.14973933335E+03  0.96404244616E+03  0.90950162464E+03 0.  0.
        -24    2    4    4    0    0  0.13966362896E+03 -0.12340874664E+03  0.28166544070E+03  0.34915758179E+03  0.88543483281E+02 0.  0.
         24    2    4    4    0    0 -0.42049514089E+03  0.93468360070E+02 -0.43140477405E+03  0.61488486437E+03  0.80130016343E+02 0.  0.
         11    1    3    3    0    0  0.25306751651E+03  0.55553597886E+02 -0.43361001506E+03  0.50512079280E+03  0.00000000000E+00 0. -1.
        -11    1    3    3    0    0  0.27763995412E+02 -0.25613211316E+02 -0.69406154561E+02  0.79019556605E+02  0.00000000000E+00 0.  1.
          4    1    6    6  502    0 -0.37124449935E+03  0.58299186193E+02 -0.35074612110E+03  0.51404680222E+03  0.00000000000E+00 0. -1.
          3    1    5    5  503    0  0.12572725850E+03 -0.13369249962E+03  0.27496774140E+03  0.33058778984E+03  0.00000000000E+00 0. -1.
         -4    1    5    5    0  503  0.13936370462E+02  0.10283752976E+02  0.66976993059E+01  0.18569791946E+02  0.00000000000E+00 0.  1.
         -3    1    6    6    0  502 -0.49250641544E+02  0.35169173877E+02 -0.80658652952E+02  0.10083806216E+03  0.00000000000E+00 0.  1.
<mgrwt>
<rscale>  0 0.14038448E+04</rscale>
<asrwt>0</asrwt>
<pdfrwt beam="1">  1        2 0.16930294E+00 0.14038448E+04</pdfrwt>
<pdfrwt beam="2">  1       -2 0.68879024E-01 0.14038448E+04</pdfrwt>
<totfact> 0.40799081E+01</totfact>
</mgrwt>
</event>
<event>
12    1  0.1506149E-007  0.1935378E+04  0.7818608E-02  0.8637444E-01
          1   -1    0    0  501    0  0.00000000000E+00  0.00000000000E+00  0.64683184527E+03  0.64683184527E+03  0.00000000000E+00 0. -1.
         -1   -1    0    0    0  501 -0.00000000000E+00 -0.00000000000E+00 -0.14477053554E+04  0.14477053554E+04  0.00000000000E+00 0.  1.
         23    2    1    2    0    0 -0.30338159459E+03  0.18315736153E+03 -0.10123062069E+04  0.10764754122E+04  0.91915426223E+02 0.  0.
        254    2    1    2    0    0  0.30338159459E+03 -0.18315736153E+03  0.21143269672E+03  0.10180617885E+04  0.93067664038E+03 0.  0.
        -24    2    4    4    0    0 -0.68217203136E+02 -0.32856204389E+03 -0.23235736343E+03  0.41584582949E+03  0.79568876341E+02 0.  0.
         24    2    4    4    0    0  0.37159879772E+03  0.14540468236E+03  0.44379006014E+03  0.60221595901E+03  0.80537293728E+02 0.  0.
         11    1    3    3    0    0 -0.27316017991E+03  0.18489430182E+03 -0.85784468805E+03  0.91907556575E+03  0.00000000000E+00 0. -1.
        -11    1    3    3    0    0 -0.30221414678E+02 -0.17369402850E+01 -0.15446151884E+03  0.15739984647E+03  0.00000000000E+00 0.  1.
          4    1    6    6  502    0  0.32469671557E+03  0.11105751082E+03  0.41116100108E+03  0.53555120821E+03  0.00000000000E+00 0. -1.
          3    1    5    5  503    0 -0.26567675282E+02 -0.26328633546E+03 -0.20100532134E+03  0.33230810254E+03  0.00000000000E+00 0. -1.
         -4    1    5    5    0  503 -0.41649527854E+02 -0.65275708429E+02 -0.31352042092E+02  0.83537726954E+02  0.00000000000E+00 0.  1.
         -3    1    6    6    0  502  0.46902082155E+02  0.34347171539E+02  0.32629059067E+02  0.66664750797E+02  0.00000000000E+00 0.  1.
<mgrwt>
<rscale>  0 0.19353779E+04</rscale>
<asrwt>0</asrwt>
<pdfrwt beam="1">  1        1 0.99512592E-01 0.19353779E+04</pdfrwt>
<pdfrwt beam="2">  1       -1 0.22272390E+00 0.19353779E+04</pdfrwt>
<totfact> 0.30193566E+00</totfact>
</mgrwt>
</event>
<event>
12    1  0.1506149E-007  0.2562380E+04  0.7818608E-02  0.8381093E-01
          1   -1    0    0  501    0  0.00000000000E+00  0.00000000000E+00  0.42297284681E+04  0.42297284681E+04  0.00000000000E+00 0. -1.
         -1   -1    0    0    0  501 -0.00000000000E+00 -0.00000000000E+00 -0.38807401259E+03  0.38807401259E+03  0.00000000000E+00 0.  1.
         23    2    1    2    0    0  0.10581959115E+03  0.96650286525E+03  0.67260711746E+03  0.11856680596E+04  0.89904609261E+02 0.  0.
        254    2    1    2    0    0 -0.10581959115E+03 -0.96650286525E+03  0.31690473380E+04  0.34321344210E+04  0.88958421690E+03 0.  0.
        -24    2    4    4    0    0 -0.10611301113E+03 -0.11286109370E+04  0.26842781739E+04  0.29148985037E+04  0.79128715162E+02 0.  0.
         24    2    4    4    0    0  0.29341998363E+00  0.16210807177E+03  0.48476916408E+03  0.51723591731E+03  0.79074260586E+02 0.  0.
         11    1    3    3    0    0  0.68230773904E+02  0.28796672415E+03  0.18075985635E+03  0.34677715956E+03  0.00000000000E+00 0. -1.
        -11    1    3    3    0    0  0.37588817246E+02  0.67853614110E+03  0.49184726112E+03  0.83889090007E+03  0.00000000000E+00 0.  1.
          2    1    6    6  502    0  0.26993690357E+02  0.17217827374E+02  0.10940204485E+03  0.11399087821E+03  0.00000000000E+00 0. -1.
          3    1    5    5  503    0 -0.89581484126E+02 -0.54820623312E+03  0.13417069990E+04  0.14521475778E+04  0.00000000000E+00 0. -1.
         -4    1    5    5    0  503 -0.16531527007E+02 -0.58040470390E+03  0.13425711749E+04  0.14627509259E+04  0.00000000000E+00 0.  1.
         -1    1    6    6    0  502 -0.26700270373E+02  0.14489024439E+03  0.37536711923E+03  0.40324503910E+03  0.00000000000E+00 0.  1.
<mgrwt>
<rscale>  0 0.25623799E+04</rscale>
<asrwt>0</asrwt>
<pdfrwt beam="1">  1        1 0.65072742E+00 0.25623799E+04</pdfrwt>
<pdfrwt beam="2">  1       -1 0.59703697E-01 0.25623799E+04</pdfrwt>
<totfact> 0.14954611E-01</totfact>
</mgrwt>
</event>
<event>
12    1  0.1506149E-007  0.1005279E+04  0.7818608E-02  0.9302773E-01
         -1   -1    0    0    0  501 -0.00000000000E+00  0.00000000000E+00  0.10502731243E+03  0.10502731243E+03  0.00000000000E+00 0.  1.
          1   -1    0    0  501    0  0.00000000000E+00 -0.00000000000E+00 -0.24055330191E+04  0.24055330191E+04  0.00000000000E+00 0. -1.
         23    2    1    2    0    0 -0.34058153795E+02  0.31165579948E+02 -0.52785898443E+03  0.53929315546E+03  0.10035312085E+03 0.  0.
        254    2    1    2    0    0  0.34058153795E+02 -0.31165579948E+02 -0.17726467223E+04  0.19712671761E+04  0.86109617720E+03 0.  0.
        -24    2    4    4    0    0 -0.27796262612E+03  0.19337179717E+03 -0.13503441447E+04  0.13944195240E+04  0.79502367312E+02 0.  0.
         24    2    4    4    0    0  0.31202077991E+03 -0.22453737711E+03 -0.42230257760E+03  0.57684765210E+03  0.81484635791E+02 0.  0.
         11    1    3    3    0    0  0.21170380540E+02  0.27757350811E+02 -0.71237190005E+02  0.79330906814E+02  0.00000000000E+00 0.  1.
        -11    1    3    3    0    0 -0.55228534335E+02  0.34082291370E+01 -0.45662179443E+03  0.45996224864E+03  0.00000000000E+00 0. -1.
          2    1    6    6  502    0  0.19928241216E+03 -0.18193563863E+03 -0.26024675026E+03  0.37488988706E+03  0.00000000000E+00 0. -1.
          3    1    5    5  503    0 -0.15695276526E+03  0.14117473073E+03 -0.71310817184E+03  0.74369868890E+03  0.00000000000E+00 0. -1.
         -2    1    5    5    0  503 -0.12100986085E+03  0.52197066434E+02 -0.63723597284E+03  0.65072083511E+03  0.00000000000E+00 0.  1.
         -1    1    6    6    0  502  0.11273836775E+03 -0.42601738484E+02 -0.16205582734E+03  0.20195776504E+03  0.00000000000E+00 0.  1.
<mgrwt>
<rscale>  0 0.10052794E+04</rscale>
<asrwt>0</asrwt>
<pdfrwt beam="1">  1        1 0.37008195E+00 0.10052794E+04</pdfrwt>
<pdfrwt beam="2">  1       -1 0.16158051E-01 0.10052794E+04</pdfrwt>
<totfact> 0.46485281E+01</totfact>
</mgrwt>
</event>
<event>
12    1  0.1506149E-007  0.1823360E+04  0.7818608E-02  0.8693975E-01
         -2   -1    0    0    0  501 -0.00000000000E+00  0.00000000000E+00  0.62818996703E+03  0.62818996703E+03  0.00000000000E+00 0.  1.
          2   -1    0    0  501    0  0.00000000000E+00 -0.00000000000E+00 -0.13231035479E+04  0.13231035479E+04  0.00000000000E+00 0. -1.
         23    2    1    2    0    0 -0.10728157568E+03 -0.45104396091E+03  0.27834519186E+03  0.54821937061E+03  0.90102393533E+02 0.  0.
        254    2    1    2    0    0  0.10728157568E+03  0.45104396091E+03 -0.97325877277E+03  0.14030741444E+04  0.89801694006E+03 0.  0.
        -24    2    4    4    0    0 -0.10244232818E+03 -0.22757999252E+03 -0.11507901566E+03  0.28624602806E+03  0.80040771689E+02 0.  0.
         24    2    4    4    0    0  0.20972390387E+03  0.67862395344E+03 -0.85817975712E+03  0.11168281163E+04  0.79485595032E+02 0.  0.
         13    1    3    3    0    0 -0.24644960478E+02 -0.29132966020E+03  0.16672137304E+03  0.33656553777E+03  0.00000000000E+00 0.  1.
        -13    1    3    3    0    0 -0.82636615205E+02 -0.15971430071E+03  0.11162381882E+03  0.21165383283E+03  0.00000000000E+00 0. -1.
          2    1    6    6  502    0  0.16751479656E+03  0.59067637783E+03 -0.77424280243E+03  0.98813547022E+03  0.00000000000E+00 0. -1.
          3    1    5    5  503    0 -0.64426050691E+00 -0.88448145295E+02 -0.52412221899E+02  0.10281308517E+03  0.00000000000E+00 0. -1.
         -4    1    5    5    0  503 -0.10179806768E+03 -0.13913184723E+03 -0.62666793756E+02  0.18343294289E+03  0.00000000000E+00 0.  1.
         -1    1    6    6    0  502  0.42209107309E+02  0.87947575607E+02 -0.83936954691E+02  0.12869264609E+03  0.00000000000E+00 0.  1.
<mgrwt>
<rscale>  0 0.18233599E+04</rscale>
<asrwt>0</asrwt>
<pdfrwt beam="1">  1        2 0.20355439E+00 0.18233599E+04</pdfrwt>
<pdfrwt beam="2">  1       -2 0.96644611E-01 0.18233599E+04</pdfrwt>
<totfact> 0.13522442E+01</totfact>
</mgrwt>
</event>
<event>
12    1  0.1506149E-007  0.2144618E+04  0.7818608E-02  0.8541840E-01
          1   -1    0    0  501    0  0.00000000000E+00  0.00000000000E+00  0.19318540996E+04  0.19318540996E+04  0.00000000000E+00 0. -1.
         -1   -1    0    0    0  501 -0.00000000000E+00 -0.00000000000E+00 -0.59520350449E+03  0.59520350449E+03  0.00000000000E+00 0.  1.
         23    2    1    2    0    0 -0.18436026325E+03  0.44098670434E+03  0.14278957426E+04  0.15085218909E+04  0.91071750092E+02 0.  0.
        254    2    1    2    0    0  0.18436026325E+03 -0.44098670434E+03 -0.91245147475E+02  0.10185357132E+04  0.89478005228E+03 0.  0.
        -24    2    4    4    0    0 -0.25697245996E+03 -0.38297959835E+03 -0.25868059378E+03  0.53491285613E+03  0.80671532325E+02 0.  0.
         24    2    4    4    0    0  0.44133272321E+03 -0.58007105990E+02  0.16743544630E+03  0.48362285702E+03  0.87846697364E+02 0.  0.
         13    1    3    3    0    0 -0.14706844810E+03  0.28505837986E+03  0.10533225716E+04  0.11010794014E+04  0.00000000000E+00 0. -1.
        -13    1    3    3    0    0 -0.37291815154E+02  0.15592832448E+03  0.37457317098E+03  0.40744248953E+03  0.00000000000E+00 0.  1.
          4    1    6    6  502    0  0.26238515860E+03 -0.70390115890E+02  0.74971610192E+02  0.28181817223E+03  0.00000000000E+00 0. -1.
          3    1    5    5  503    0  0.59310690212E+01 -0.64169795990E+01 -0.27641691143E+01  0.91649243205E+01  0.00000000000E+00 0. -1.
         -4    1    5    5    0  503 -0.26290352898E+03 -0.37656261875E+03 -0.25591642466E+03  0.52574793181E+03  0.00000000000E+00 0.  1.
         -3    1    6    6    0  502  0.17894756461E+03  0.12383009901E+02  0.92463836110E+02  0.20180468479E+03  0.00000000000E+00 0.  1.
<mgrwt>
<rscale>  0 0.21446178E+04</rscale>
<asrwt>0</asrwt>
<pdfrwt beam="1">  1        1 0.29720832E+00 0.21446178E+04</pdfrwt>
<pdfrwt beam="2">  1       -1 0.91569771E-01 0.21446178E+04</pdfrwt>
<totfact> 0.35298936E+00</totfact>
</mgrwt>
</event>
<event>
12    1  0.1506149E-007  0.1599405E+04  0.7818608E-02  0.8820913E-01
          2   -1    0    0  501    0  0.00000000000E+00  0.00000000000E+00  0.23899266312E+04  0.23899266312E+04  0.00000000000E+00 0.  1.
         -2   -1    0    0    0  501 -0.00000000000E+00 -0.00000000000E+00 -0.26759164060E+03  0.26759164060E+03  0.00000000000E+00 0. -1.
         23    2    1    2    0    0  0.27975338153E+03  0.50751863294E+02  0.15218309116E+04  0.15507950003E+04  0.90322218758E+02 0.  0.
        254    2    1    2    0    0 -0.27975338153E+03 -0.50751863294E+02  0.60050407898E+03  0.11067232715E+04  0.88509521791E+03 0.  0.
        -24    2    4    4    0    0  0.12999430122E+03 -0.15082718074E+03 -0.13772222176E+03  0.25278802171E+03  0.72711874899E+02 0.  0.
         24    2    4    4    0    0 -0.40974768275E+03  0.10007531744E+03  0.73822630075E+03  0.85393524982E+03  0.79492811578E+02 0.  0.
         11    1    3    3    0    0  0.11885550732E+03  0.42202470669E+02  0.88279156247E+03  0.89175592116E+03  0.00000000000E+00 0.  1.
        -11    1    3    3    0    0  0.16089787420E+03  0.85493926251E+01  0.63903934917E+03  0.65903907914E+03  0.00000000000E+00 0. -1.
          4    1    6    6  502    0 -0.37936443802E+03  0.71106330702E+02  0.64446287604E+03  0.75120295905E+03  0.00000000000E+00 0. -1.
          3    1    5    5  503    0  0.11512949522E+02 -0.28800466557E+01  0.74732770979E+01  0.14024711976E+02  0.00000000000E+00 0. -1.
         -4    1    5    5    0  503  0.11848135170E+03 -0.14794713408E+03 -0.14519549886E+03  0.23876330973E+03  0.00000000000E+00 0.  1.
         -3    1    6    6    0  502 -0.30383244729E+02  0.28968986741E+02  0.93763424710E+02  0.10273229077E+03  0.00000000000E+00 0.  1.
<mgrwt>
<rscale>  0 0.15994054E+04</rscale>
<asrwt>0</asrwt>
<pdfrwt beam="1">  1        2 0.36768101E+00 0.15994054E+04</pdfrwt>
<pdfrwt beam="2">  1       -2 0.41167946E-01 0.15994054E+04</pdfrwt>
<totfact> 0.21626484E+01</totfact>
</mgrwt>
</event>
<event>
12    1  0.1506149E-007  0.1872149E+04  0.7818608E-02  0.8668845E-01
          2   -1    0    0  501    0  0.00000000000E+00  0.00000000000E+00  0.62567253162E+03  0.62567253162E+03  0.00000000000E+00 0. -1.
         -2   -1    0    0    0  501 -0.00000000000E+00 -0.00000000000E+00 -0.14004690533E+04  0.14004690533E+04  0.00000000000E+00 0.  1.
         23    2    1    2    0    0 -0.55932688033E+03  0.43218120650E+03 -0.13339700458E+03  0.72422057024E+03  0.84104216394E+02 0.  0.
        254    2    1    2    0    0  0.55932688033E+03 -0.43218120650E+03 -0.64139951713E+03  0.13019210147E+04  0.88542522759E+03 0.  0.
        -24    2    4    4    0    0  0.59941433711E+03 -0.18511591919E+03 -0.26587243652E+02  0.63307943728E+03  0.80729432759E+02 0.  0.
         24    2    4    4    0    0 -0.40087456786E+02 -0.24706528731E+03 -0.61481227348E+03  0.66884157743E+03  0.81894222564E+02 0.  0.
         13    1    3    3    0    0 -0.55028846469E+03  0.42687967902E+03 -0.14185956281E+03  0.71075156721E+03  0.00000000000E+00 0. -1.
        -13    1    3    3    0    0 -0.90384156341E+01  0.53015274790E+01  0.84625582244E+01  0.13469003025E+02  0.00000000000E+00 0.  1.
          4    1    6    6  502    0 -0.34940454978E+02 -0.43867690758E+02 -0.90020426557E+02  0.10606076977E+03  0.00000000000E+00 0. -1.
          1    1    5    5  503    0  0.87236857756E+02 -0.38327783355E+02 -0.31197760544E+02  0.10026259817E+03  0.00000000000E+00 0. -1.
         -2    1    5    5    0  503  0.51217747936E+03 -0.14678813584E+03  0.46105168919E+01  0.53281683912E+03  0.00000000000E+00 0.  1.
         -3    1    6    6    0  502 -0.51470018078E+01 -0.20319759655E+03 -0.52479184692E+03  0.56278080766E+03  0.00000000000E+00 0.  1.
<mgrwt>
<rscale>  0 0.18721485E+04</rscale>
<asrwt>0</asrwt>
<pdfrwt beam="1">  1        2 0.96257314E-01 0.18721485E+04</pdfrwt>
<pdfrwt beam="2">  1       -2 0.21545677E+00 0.18721485E+04</pdfrwt>
<totfact> 0.46698295E+00</totfact>
</mgrwt>
</event>
<event>
12    1  0.1506149E-007  0.1643051E+04  0.7818608E-02  0.8794528E-01
         -1   -1    0    0    0  501 -0.00000000000E+00  0.00000000000E+00  0.32022186853E+03  0.32022186853E+03  0.00000000000E+00 0.  1.
          1   -1    0    0  501    0  0.00000000000E+00 -0.00000000000E+00 -0.21076134849E+04  0.21076134849E+04  0.00000000000E+00 0. -1.
         23    2    1    2    0    0  0.18825574641E+03  0.25838055248E+03 -0.13218650010E+04  0.13631468864E+04  0.92960297663E+02 0.  0.
        254    2    1    2    0    0 -0.18825574641E+03 -0.25838055248E+03 -0.46552661533E+03  0.10646884670E+04  0.90257729105E+03 0.  0.
        -24    2    4    4    0    0 -0.45928152920E+03  0.58062932506E+02 -0.43292276111E+03  0.63884278469E+03  0.79919705162E+02 0.  0.
         24    2    4    4    0    0  0.27102578279E+03 -0.31644348499E+03 -0.32603854224E+02  0.42584568235E+03  0.81792907653E+02 0.  0.
         11    1    3    3    0    0  0.15189319451E+03  0.14166651385E+03 -0.74114296585E+03  0.76969723887E+03  0.00000000000E+00 0. -1.
        -11    1    3    3    0    0  0.36362551903E+02  0.11671403863E+03 -0.58072203516E+03  0.59344964750E+03  0.00000000000E+00 0.  1.
          4    1    6    6  502    0  0.22396191390E+03 -0.27936498951E+03 -0.89366731505E+00  0.35805660848E+03  0.00000000000E+00 0. -1.
          3    1    5    5  503    0 -0.49443836986E+02 -0.75189729397E+01 -0.78386518159E+02  0.92982117631E+02  0.00000000000E+00 0. -1.
         -4    1    5    5    0  503 -0.40983769222E+03  0.65581905446E+02 -0.35453624295E+03  0.54586066706E+03  0.00000000000E+00 0.  1.
         -3    1    6    6    0  502  0.47063868896E+02 -0.37078495479E+02 -0.31710186909E+02  0.67789073870E+02  0.00000000000E+00 0.  1.
<mgrwt>
<rscale>  0 0.16430507E+04</rscale>
<asrwt>0</asrwt>
<pdfrwt beam="1">  1        1 0.32424822E+00 0.16430507E+04</pdfrwt>
<pdfrwt beam="2">  1       -1 0.49264904E-01 0.16430507E+04</pdfrwt>
<totfact> 0.99467274E+00</totfact>
</mgrwt>
</event>
<event>
12    1  0.1506149E-007  0.1696937E+04  0.7818608E-02  0.8763113E-01
         -2   -1    0    0    0  501 -0.00000000000E+00  0.00000000000E+00  0.63431001440E+03  0.63431001440E+03  0.00000000000E+00 0.  1.
          2   -1    0    0  501    0  0.00000000000E+00 -0.00000000000E+00 -0.11349321783E+04  0.11349321783E+04  0.00000000000E+00 0. -1.
         23    2    1    2    0    0  0.31377300626E+03 -0.39679780030E+03 -0.53245936196E+03  0.74010423731E+03  0.91319856343E+02 0.  0.
        254    2    1    2    0    0 -0.31377300626E+03  0.39679780030E+03  0.31837198017E+02  0.10291379554E+04  0.89566139270E+03 0.  0.
        -24    2    4    4    0    0 -0.51975360959E+03  0.30347533991E+03 -0.25142031243E+03  0.65718391136E+03  0.80233554278E+02 0.  0.
         24    2    4    4    0    0  0.20598060333E+03  0.93322460383E+02  0.28325751044E+03  0.37195404409E+03  0.83533844217E+02 0.  0.
         11    1    3    3    0    0  0.18126946950E+03 -0.23691995972E+03 -0.24810275975E+03  0.38800085990E+03  0.00000000000E+00 0. -1.
        -11    1    3    3    0    0  0.13250353676E+03 -0.15987784058E+03 -0.28435660221E+03  0.35210337741E+03  0.00000000000E+00 0.  1.
          2    1    6    6  502    0  0.10808538826E+03  0.52827982286E+02  0.21364878179E+03  0.24519186126E+03  0.00000000000E+00 0. -1.
          1    1    5    5  503    0 -0.51078600773E+03  0.29990954791E+03 -0.23322200559E+03  0.63658509762E+03  0.00000000000E+00 0. -1.
         -2    1    5    5    0  503 -0.89676018560E+01  0.35657920086E+01 -0.18198306839E+02  0.20598813740E+02  0.00000000000E+00 0.  1.
         -1    1    6    6    0  502  0.97895215070E+02  0.40494478097E+02  0.69608728651E+02  0.12676218282E+03  0.00000000000E+00 0.  1.
<mgrwt>
<rscale>  0 0.16969371E+04</rscale>
<asrwt>0</asrwt>
<pdfrwt beam="1">  1        2 0.17460495E+00 0.16969371E+04</pdfrwt>
<pdfrwt beam="2">  1       -2 0.97586157E-01 0.16969371E+04</pdfrwt>
<totfact> 0.17273704E+01</totfact>
</mgrwt>
</event>
<event>
12    1  0.1506149E-007  0.2388364E+04  0.7818608E-02  0.8443873E-01
          2   -1    0    0  501    0  0.00000000000E+00  0.00000000000E+00  0.18484137725E+04  0.18484137725E+04  0.00000000000E+00 0. -1.
         -2   -1    0    0    0  501 -0.00000000000E+00 -0.00000000000E+00 -0.77151039708E+03  0.77151039708E+03  0.00000000000E+00 0.  1.
         23    2    1    2    0    0  0.95991266713E+02 -0.33610289745E+03  0.15084455804E+04  0.15510545964E+04  0.90458892344E+02 0.  0.
        254    2    1    2    0    0 -0.95991266713E+02  0.33610289745E+03 -0.43154220501E+03  0.10688695731E+04  0.91327652363E+03 0.  0.
        -24    2    4    4    0    0 -0.10160438949E+03  0.27461456941E+03  0.24026589293E+03  0.38913786217E+03  0.89241037515E+02 0.  0.
         24    2    4    4    0    0  0.56131227756E+01  0.61488328041E+02 -0.67180809793E+03  0.67973171092E+03  0.83046714220E+02 0.  0.
         13    1    3    3    0    0  0.33776098113E+02 -0.96480454549E+02  0.28411112951E+03  0.30194111483E+03  0.00000000000E+00 0.  1.
        -13    1    3    3    0    0  0.62215168600E+02 -0.23962244290E+03  0.12243344509E+04  0.12491134816E+04  0.00000000000E+00 0. -1.
          4    1    6    6  502    0 -0.36455145244E+02  0.44073344091E+02 -0.41428604074E+03  0.41821568697E+03  0.00000000000E+00 0. -1.
          1    1    5    5  503    0 -0.74117913789E+01 -0.25604204360E+01  0.23792460024E+02  0.25051378370E+02  0.00000000000E+00 0. -1.
         -2    1    5    5    0  503 -0.94192598110E+02  0.27717498985E+03  0.21647343290E+03  0.36408648380E+03  0.00000000000E+00 0.  1.
         -3    1    6    6    0  502  0.42068268020E+02  0.17414983950E+02 -0.25752205719E+03  0.26151602395E+03  0.00000000000E+00 0.  1.
<mgrwt>
<rscale>  0 0.23883638E+04</rscale>
<asrwt>0</asrwt>
<pdfrwt beam="1">  1        2 0.28437135E+00 0.23883638E+04</pdfrwt>
<pdfrwt beam="2">  1       -2 0.11869391E+00 0.23883638E+04</pdfrwt>
<totfact> 0.39837430E+00</totfact>
</mgrwt>
</event>
<event>
12    1  0.1506149E-007  0.1630690E+04  0.7818608E-02  0.8801913E-01
          2   -1    0    0  501    0  0.00000000000E+00  0.00000000000E+00  0.11035135252E+04  0.11035135252E+04  0.00000000000E+00 0. -1.
         -2   -1    0    0    0  501 -0.00000000000E+00 -0.00000000000E+00 -0.60242792912E+03  0.60242792912E+03  0.00000000000E+00 0.  1.
         23    2    1    2    0    0 -0.15577022637E+03 -0.46753441800E+03  0.45679697651E+03  0.67801125367E+03  0.90459863610E+02 0.  0.
        254    2    1    2    0    0  0.15577022637E+03  0.46753441800E+03  0.44288619523E+02  0.10279302006E+04  0.90101399549E+03 0.  0.
        -24    2    4    4    0    0  0.43254910345E+03  0.50962851341E+03 -0.13453054052E+03  0.68624217009E+03  0.77523551880E+02 0.  0.
         24    2    4    4    0    0 -0.27677887708E+03 -0.42094095414E+02  0.17881916004E+03  0.34168803052E+03  0.79974736848E+02 0.  0.
         11    1    3    3    0    0 -0.13768755259E+03 -0.33779524253E+03  0.29050668099E+03  0.46632351401E+03  0.00000000000E+00 0. -1.
        -11    1    3    3    0    0 -0.18082673778E+02 -0.12973917547E+03  0.16629029552E+03  0.21168773967E+03  0.00000000000E+00 0.  1.
          4    1    6    6  502    0 -0.27073881386E+03 -0.46314655024E+02  0.18574084767E+03  0.33157836946E+03  0.00000000000E+00 0. -1.
          1    1    5    5  503    0  0.30871286003E+03  0.32060728072E+03 -0.11331271700E+03  0.45927380747E+03  0.00000000000E+00 0. -1.
         -2    1    5    5    0  503  0.12383624343E+03  0.18902123269E+03 -0.21217823520E+02  0.22696836262E+03  0.00000000000E+00 0.  1.
         -3    1    6    6    0  502 -0.60400632235E+01  0.42205596098E+01 -0.69216876266E+01  0.10109661061E+02  0.00000000000E+00 0.  1.
<mgrwt>
<rscale>  0 0.16306899E+04</rscale>
<asrwt>0</asrwt>
<pdfrwt beam="1">  1        2 0.16977131E+00 0.16306899E+04</pdfrwt>
<pdfrwt beam="2">  1       -2 0.92681220E-01 0.16306899E+04</pdfrwt>
<totfact> 0.20479081E+01</totfact>
</mgrwt>
</event>
<event>
12    1  0.1506149E-007  0.3288630E+04  0.7818608E-02  0.8165794E-01
         -1   -1    0    0    0  501 -0.00000000000E+00  0.00000000000E+00  0.14080431104E+04  0.14080431104E+04  0.00000000000E+00 0.  1.
          1   -1    0    0  501    0  0.00000000000E+00 -0.00000000000E+00 -0.19202341252E+04  0.19202341252E+04  0.00000000000E+00 0. -1.
         23    2    1    2    0    0 -0.14510247208E+04 -0.40656157964E+03 -0.37503342153E+02  0.15099610377E+04  0.88378597619E+02 0.  0.
        254    2    1    2    0    0  0.14510247208E+04  0.40656157964E+03 -0.47468767264E+03  0.18183161978E+04  0.90010018910E+03 0.  0.
        -24    2    4    4    0    0  0.11228468325E+04  0.68154130495E+03 -0.40708681159E+03  0.13774347047E+04  0.79518136748E+02 0.  0.
         24    2    4    4    0    0  0.32817788830E+03 -0.27497972531E+03 -0.67600861045E+02  0.44088149311E+03  0.80573189411E+02 0.  0.
         11    1    3    3    0    0 -0.59337987602E+02 -0.34833594635E+02 -0.69908153274E+01  0.69161026501E+02  0.00000000000E+00 0. -1.
        -11    1    3    3    0    0 -0.13916867332E+04 -0.37172798501E+03 -0.30512526826E+02  0.14408000112E+04  0.00000000000E+00 0.  1.
          4    1    6    6  502    0  0.25735858436E+03 -0.18830785869E+03 -0.20820409497E+02  0.31957280867E+03  0.00000000000E+00 0. -1.
          3    1    5    5  503    0  0.17207498300E+03  0.10261692956E+03 -0.92540351418E+02  0.22068926264E+03  0.00000000000E+00 0. -1.
         -4    1    5    5    0  503  0.95077184946E+03  0.57892437539E+03 -0.31454646018E+03  0.11567454421E+04  0.00000000000E+00 0.  1.
         -3    1    6    6    0  502  0.70819303940E+02 -0.86671866619E+02 -0.46780451548E+02  0.12130868444E+03  0.00000000000E+00 0.  1.
<mgrwt>
<rscale>  0 0.32886304E+04</rscale>
<asrwt>0</asrwt>
<pdfrwt beam="1">  1        1 0.29542063E+00 0.32886304E+04</pdfrwt>
<pdfrwt beam="2">  1       -1 0.21662202E+00 0.32886304E+04</pdfrwt>
<totfact> 0.32506675E-01</totfact>
</mgrwt>
</event>
<event>
12    1  0.1506149E-007  0.1754184E+04  0.7818608E-02  0.8731051E-01
         -1   -1    0    0    0  501 -0.00000000000E+00  0.00000000000E+00  0.55174601141E+03  0.55174601141E+03  0.00000000000E+00 0.  1.
          1   -1    0    0  501    0  0.00000000000E+00 -0.00000000000E+00 -0.13942829328E+04  0.13942829328E+04  0.00000000000E+00 0. -1.
         23    2    1    2    0    0 -0.19558219771E+02 -0.74279933245E+02  0.37413240989E+03  0.39228426844E+03  0.89508964276E+02 0.  0.
        254    2    1    2    0    0  0.19558219771E+02  0.74279933245E+02 -0.12166693312E+04  0.15537446757E+04  0.96329550156E+03 0.  0.
        -24    2    4    4    0    0 -0.14910705744E+03 -0.25004407598E+03 -0.23720288908E+02  0.30347897506E+03  0.82352180820E+02 0.  0.
         24    2    4    4    0    0  0.16866527721E+03  0.32432400922E+03 -0.11929490423E+04  0.12502657007E+04  0.80017910278E+02 0.  0.
         11    1    3    3    0    0  0.13624223284E+01 -0.78702653025E+02  0.35490067612E+03  0.36352503861E+03  0.00000000000E+00 0.  1.
        -11    1    3    3    0    0 -0.20920642099E+02  0.44227197798E+01  0.19231733773E+02  0.28759229823E+02  0.00000000000E+00 0. -1.
          2    1    6    6  502    0  0.11107777150E+03  0.26688986692E+03 -0.85033837732E+03  0.89813352477E+03  0.00000000000E+00 0. -1.
          3    1    5    5  503    0 -0.11228955185E+03 -0.23115970298E+03 -0.37834477261E+02  0.25975988799E+03  0.00000000000E+00 0. -1.
         -4    1    5    5    0  503 -0.36817505590E+02 -0.18884372994E+02  0.14114188353E+02  0.43719087069E+02  0.00000000000E+00 0.  1.
         -1    1    6    6    0  502  0.57587505712E+02  0.57434142307E+02 -0.34261066502E+03  0.35213217590E+03  0.00000000000E+00 0.  1.
<mgrwt>
<rscale>  0 0.17541836E+04</rscale>
<asrwt>0</asrwt>
<pdfrwt beam="1">  1        1 0.21450506E+00 0.17541836E+04</pdfrwt>
<pdfrwt beam="2">  1       -1 0.84884003E-01 0.17541836E+04</pdfrwt>
<totfact> 0.10086600E+01</totfact>
</mgrwt>
</event>
<event>
12    1  0.1506149E-007  0.1633559E+04  0.7818608E-02  0.8800193E-01
          1   -1    0    0  501    0  0.00000000000E+00  0.00000000000E+00  0.27745230913E+03  0.27745230913E+03  0.00000000000E+00 0. -1.
         -1   -1    0    0    0  501 -0.00000000000E+00 -0.00000000000E+00 -0.24044798278E+04  0.24044798278E+04  0.00000000000E+00 0.  1.
         23    2    1    2    0    0 -0.51432722469E+03 -0.13467664469E+03 -0.10699251425E+04  0.11982964657E+04  0.92218851094E+02 0.  0.
        254    2    1    2    0    0  0.51432722469E+03  0.13467664469E+03 -0.10571023762E+04  0.14836356712E+04  0.89500786507E+03 0.  0.
        -24    2    4    4    0    0  0.32668128299E+03  0.13559388000E+03  0.41939336209E+02  0.36553812679E+03  0.82175746214E+02 0.  0.
         24    2    4    4    0    0  0.18764594170E+03 -0.91723530517E+00 -0.10990417124E+04  0.11180975444E+04  0.83890360382E+02 0.  0.
         13    1    3    3    0    0 -0.14965344532E+02  0.10132856255E+02 -0.21962388987E+02  0.28442623698E+02  0.00000000000E+00 0. -1.
        -13    1    3    3    0    0 -0.49936188016E+03 -0.14480950095E+03 -0.10479627535E+04  0.11698538420E+04  0.00000000000E+00 0.  1.
          4    1    6    6  502    0  0.11511458472E+03  0.40393210476E+02 -0.63713781355E+03  0.64871224170E+03  0.00000000000E+00 0. -1.
          1    1    5    5  503    0  0.20321941831E+02 -0.10914819992E+02 -0.18287253588E+01  0.23139983831E+02  0.00000000000E+00 0. -1.
         -2    1    5    5    0  503  0.30635934116E+03  0.14650869999E+03  0.43768061567E+02  0.34239814296E+03  0.00000000000E+00 0.  1.
         -3    1    6    6    0  502  0.72531356978E+02 -0.41310445781E+02 -0.46190389883E+03  0.46938530274E+03  0.00000000000E+00 0.  1.
<mgrwt>
<rscale>  0 0.16335587E+04</rscale>
<asrwt>0</asrwt>
<pdfrwt beam="1">  1        1 0.42684972E-01 0.16335587E+04</pdfrwt>
<pdfrwt beam="2">  1       -1 0.36991996E+00 0.16335587E+04</pdfrwt>
<totfact> 0.10674486E+00</totfact>
</mgrwt>
</event>
<event>
12    1  0.1506149E-007  0.1839382E+04  0.7818608E-02  0.8685633E-01
          2   -1    0    0  501    0  0.00000000000E+00  0.00000000000E+00  0.20195072871E+04  0.20195072871E+04  0.00000000000E+00 0. -1.
         -2   -1    0    0    0  501 -0.00000000000E+00 -0.00000000000E+00 -0.41883059874E+03  0.41883059874E+03  0.00000000000E+00 0.  1.
         23    2    1    2    0    0 -0.25877662189E+03 -0.63655123969E+03  0.75426417455E+03  0.10243414771E+04  0.90543889470E+02 0.  0.
        254    2    1    2    0    0  0.25877662189E+03  0.63655123969E+03  0.84641251384E+03  0.14139964088E+04  0.90044926545E+03 0.  0.
        -24    2    4    4    0    0  0.34158140365E+03  0.26355032488E+03 -0.44874755456E+02  0.44111436991E+03  0.80196724408E+02 0.  0.
         24    2    4    4    0    0 -0.82804781758E+02  0.37300091481E+03  0.89128726930E+03  0.97288203886E+03  0.78231392578E+02 0.  0.
         13    1    3    3    0    0 -0.26813222582E+00 -0.73399081714E+02  0.82868183591E+02  0.11070064563E+03  0.00000000000E+00 0.  1.
        -13    1    3    3    0    0 -0.25850848966E+03 -0.56315215798E+03  0.67139599096E+03  0.91364083147E+03  0.00000000000E+00 0. -1.
          4    1    6    6  502    0 -0.29236388860E+02  0.70190005696E+02  0.25648838223E+03  0.26752138896E+03  0.00000000000E+00 0. -1.
          1    1    5    5  503    0  0.27025262996E+03  0.19276461400E+03 -0.22662489618E+01  0.33196357677E+03  0.00000000000E+00 0. -1.
         -2    1    5    5    0  503  0.71328773684E+02  0.70785710876E+02 -0.42608506494E+02  0.10915079315E+03  0.00000000000E+00 0.  1.
         -3    1    6    6    0  502 -0.53568392899E+02  0.30281090911E+03  0.63479888707E+03  0.70536064990E+03  0.00000000000E+00 0.  1.
<mgrwt>
<rscale>  0 0.18393819E+04</rscale>
<asrwt>0</asrwt>
<pdfrwt beam="1">  1        2 0.31069342E+00 0.18393819E+04</pdfrwt>
<pdfrwt beam="2">  1       -2 0.64435478E-01 0.18393819E+04</pdfrwt>
<totfact> 0.13641139E+01</totfact>
</mgrwt>
</event>
<event>
12    1  0.1506149E-007  0.3700528E+04  0.7818608E-02  0.8067845E-01
         -1   -1    0    0    0  501 -0.00000000000E+00  0.00000000000E+00  0.20975273537E+04  0.20975273537E+04  0.00000000000E+00 0.  1.
          1   -1    0    0  501    0  0.00000000000E+00 -0.00000000000E+00 -0.16321487160E+04  0.16321487160E+04  0.00000000000E+00 0. -1.
         23    2    1    2    0    0  0.14162215871E+04  0.99210176021E+03  0.39933222682E+03  0.17769369313E+04  0.89939667708E+02 0.  0.
        254    2    1    2    0    0 -0.14162215871E+04 -0.99210176021E+03  0.66046410893E+02  0.19527391384E+04  0.90491907257E+03 0.  0.
        -24    2    4    4    0    0 -0.12158112921E+03 -0.27777789124E+03  0.32188115383E+03  0.44988370216E+03  0.82736572535E+02 0.  0.
         24    2    4    4    0    0 -0.12946404579E+04 -0.71432386896E+03 -0.25583474294E+03  0.15028554363E+04  0.82283300612E+02 0.  0.
         13    1    3    3    0    0  0.14724569108E+00 -0.12183434295E+01  0.16976861093E+01  0.20947983511E+01  0.00000000000E+00 0. -1.
        -13    1    3    3    0    0  0.14160743415E+04  0.99332010364E+03  0.39763454071E+03  0.17748421329E+04  0.00000000000E+00 0.  1.
          2    1    6    6  502    0 -0.10721458857E+04 -0.62328941863E+03 -0.20192787021E+03  0.12564877096E+04  0.00000000000E+00 0. -1.
          1    1    5    5  503    0 -0.11146257018E+03 -0.23654940169E+03  0.31047919175E+03  0.40592715172E+03  0.00000000000E+00 0. -1.
         -2    1    5    5    0  503 -0.10118559026E+02 -0.41228489552E+02  0.11401962081E+02  0.43956550442E+02  0.00000000000E+00 0.  1.
         -1    1    6    6    0  502 -0.22249457226E+03 -0.91034450332E+02 -0.53906872732E+02  0.24636772670E+03  0.00000000000E+00 0.  1.
<mgrwt>
<rscale>  0 0.37005278E+04</rscale>
<asrwt>0</asrwt>
<pdfrwt beam="1">  1        1 0.25109980E+00 0.37005278E+04</pdfrwt>
<pdfrwt beam="2">  1       -1 0.32269652E+00 0.37005278E+04</pdfrwt>
<totfact> 0.99980758E-02</totfact>
</mgrwt>
</event>
<event>
12    1  0.1506149E-007  0.1574728E+04  0.7818608E-02  0.8836226E-01
          1   -1    0    0  501    0  0.00000000000E+00  0.00000000000E+00  0.74922031205E+03  0.74922031205E+03  0.00000000000E+00 0. -1.
         -1   -1    0    0    0  501 -0.00000000000E+00 -0.00000000000E+00 -0.82744934291E+03  0.82744934291E+03  0.00000000000E+00 0.  1.
         23    2    1    2    0    0 -0.24351571024E+03  0.44539977634E+03 -0.32117261659E+02  0.51658109352E+03  0.90242150853E+02 0.  0.
        254    2    1    2    0    0  0.24351571024E+03 -0.44539977634E+03 -0.46111769201E+02  0.10600885614E+04  0.92950556799E+03 0.  0.
        -24    2    4    4    0    0  0.23308778883E+03  0.22688869952E+03 -0.16411500396E+03  0.37283485257E+03  0.79143499353E+02 0.  0.
         24    2    4    4    0    0  0.10427921409E+02 -0.67228847587E+03  0.11800323476E+03  0.68725370887E+03  0.79450365713E+02 0.  0.
         13    1    3    3    0    0 -0.19901693044E+02  0.67238286074E+02  0.23026127890E+02  0.73805603214E+02  0.00000000000E+00 0. -1.
        -13    1    3    3    0    0 -0.22361401719E+03  0.37816149027E+03 -0.55143389549E+02  0.44277549031E+03  0.00000000000E+00 0.  1.
          4    1    6    6  502    0 -0.29735317501E+02 -0.44605656270E+03  0.86435033976E+02  0.45532588476E+03  0.00000000000E+00 0. -1.
          3    1    5    5  503    0  0.20167359266E+03  0.16928958497E+03 -0.15768134079E+03  0.30691139893E+03  0.00000000000E+00 0. -1.
         -4    1    5    5    0  503  0.31414196168E+02  0.57599114551E+02 -0.64336631686E+01  0.65923453639E+02  0.00000000000E+00 0.  1.
         -3    1    6    6    0  502  0.40163238910E+02 -0.22623191316E+03  0.31568200785E+02  0.23192782410E+03  0.00000000000E+00 0.  1.
<mgrwt>
<rscale>  0 0.15747277E+04</rscale>
<asrwt>0</asrwt>
<pdfrwt beam="1">  1        1 0.11526466E+00 0.15747277E+04</pdfrwt>
<pdfrwt beam="2">  1       -1 0.12729990E+00 0.15747277E+04</pdfrwt>
<totfact> 0.12615365E+01</totfact>
</mgrwt>
</event>
<event>
12    1  0.1506149E-007  0.2024166E+04  0.7818608E-02  0.8595405E-01
         -3   -1    0    0    0  501 -0.00000000000E+00  0.00000000000E+00  0.89102874914E+03  0.89102874914E+03  0.00000000000E+00 0.  1.
          3   -1    0    0  501    0  0.00000000000E+00 -0.00000000000E+00 -0.11495838459E+04  0.11495838459E+04  0.00000000000E+00 0. -1.
         23    2    1    2    0    0  0.44026962824E+03  0.14740693891E+03 -0.77547153394E+03  0.90855420720E+03  0.92458078455E+02 0.  0.
        254    2    1    2    0    0 -0.44026962824E+03 -0.14740693891E+03  0.51691643721E+03  0.11320583878E+04  0.89374909185E+03 0.  0.
        -24    2    4    4    0    0  0.23814976570E+03  0.48322608039E+02  0.37276283456E+01  0.25539295426E+03  0.78493824735E+02 0.  0.
         24    2    4    4    0    0 -0.67841939394E+03 -0.19572954695E+03  0.51318880887E+03  0.87666543356E+03  0.81342480997E+02 0.  0.
         11    1    3    3    0    0  0.41996802122E+03  0.12258031114E+03 -0.74692628992E+03  0.86561998250E+03  0.00000000000E+00 0. -1.
        -11    1    3    3    0    0  0.20301607024E+02  0.24826627772E+02 -0.28545244016E+02  0.42934224696E+02  0.00000000000E+00 0.  1.
          2    1    6    6  502    0 -0.23196218012E+03 -0.45724701812E+02  0.13218626474E+03  0.27086972874E+03  0.00000000000E+00 0. -1.
          1    1    5    5  503    0 -0.60580229220E+01  0.30726250596E+01  0.17743534418E+01  0.70206122679E+01  0.00000000000E+00 0. -1.
         -2    1    5    5    0  503  0.24420778863E+03  0.45249982980E+02  0.19532749039E+01  0.24837234199E+03  0.00000000000E+00 0.  1.
         -1    1    6    6    0  502 -0.44645721382E+03 -0.15000484514E+03  0.38100254413E+03  0.60579570482E+03  0.00000000000E+00 0.  1.
<mgrwt>
<rscale>  0 0.20241663E+04</rscale>
<asrwt>0</asrwt>
<pdfrwt beam="1">  1        3 0.17685905E+00 0.20241663E+04</pdfrwt>
<pdfrwt beam="2">  1       -3 0.13708135E+00 0.20241663E+04</pdfrwt>
<totfact> 0.20523033E-01</totfact>
</mgrwt>
</event>
<event>
12    1  0.1506149E-007  0.1600622E+04  0.7818608E-02  0.8820166E-01
         -1   -1    0    0    0  501 -0.00000000000E+00  0.00000000000E+00  0.71996900884E+03  0.71996900884E+03  0.00000000000E+00 0.  1.
          1   -1    0    0  501    0  0.00000000000E+00 -0.00000000000E+00 -0.88961898205E+03  0.88961898205E+03  0.00000000000E+00 0. -1.
         23    2    1    2    0    0  0.39556718869E+03  0.76730015144E+02  0.30674770362E+03  0.51407884908E+03  0.88442147187E+02 0.  0.
        254    2    1    2    0    0 -0.39556718869E+03 -0.76730015144E+02 -0.47639767683E+03  0.10955091418E+04  0.90045801529E+03 0.  0.
        -24    2    4    4    0    0 -0.26918389048E+02 -0.42470014573E+03 -0.37374563466E+03  0.57200201202E+03  0.80035547592E+02 0.  0.
         24    2    4    4    0    0 -0.36864879965E+03  0.34797013058E+03 -0.10265204217E+03  0.52350712979E+03  0.80852482474E+02 0.  0.
         11    1    3    3    0    0  0.36127190826E+03  0.42363894190E+02  0.27607832610E+03  0.45665231125E+03  0.00000000000E+00 0.  1.
        -11    1    3    3    0    0  0.34295280436E+02  0.34366120953E+02  0.30669377513E+02  0.57426537825E+02  0.00000000000E+00 0. -1.
          2    1    6    6  502    0 -0.13129367380E-01 -0.17831123072E+01  0.39131713886E+01  0.43002990823E+01  0.00000000000E+00 0. -1.
          1    1    5    5  503    0 -0.11713315564E+01 -0.89830831311E+02 -0.39409748213E+02  0.98102387972E+02  0.00000000000E+00 0. -1.
         -2    1    5    5    0  503 -0.25747057492E+02 -0.33486931442E+03 -0.33433588644E+03  0.47389962404E+03  0.00000000000E+00 0.  1.
         -1    1    6    6    0  502 -0.36863567028E+03  0.34975324289E+03 -0.10656521356E+03  0.51920683071E+03  0.00000000000E+00 0.  1.
<mgrwt>
<rscale>  0 0.16006225E+04</rscale>
<asrwt>0</asrwt>
<pdfrwt beam="1">  1        1 0.13686446E+00 0.16006225E+04</pdfrwt>
<pdfrwt beam="2">  1       -1 0.11076446E+00 0.16006225E+04</pdfrwt>
<totfact> 0.13371985E+01</totfact>
</mgrwt>
</event>
<event>
12    1  0.1506149E-007  0.1235121E+04  0.7818608E-02  0.9082659E-01
          1   -1    0    0  501    0  0.00000000000E+00  0.00000000000E+00  0.60131508833E+03  0.60131508833E+03  0.00000000000E+00 0. -1.
         -1   -1    0    0    0  501 -0.00000000000E+00 -0.00000000000E+00 -0.63424445009E+03  0.63424445009E+03  0.00000000000E+00 0.  1.
         23    2    1    2    0    0 -0.50451750284E+01 -0.21764447702E+03 -0.18593239610E+03  0.29962355781E+03  0.88367688146E+02 0.  0.
        254    2    1    2    0    0  0.50451750284E+01  0.21764447702E+03  0.15300303434E+03  0.93593598061E+03  0.89731357903E+03 0.  0.
        -24    2    4    4    0    0  0.36244401939E+03  0.70734960152E+02  0.33122260530E+03  0.50298000969E+03  0.83134674542E+02 0.  0.
         24    2    4    4    0    0 -0.35739884436E+03  0.14690951687E+03 -0.17821957095E+03  0.43295597092E+03  0.79826794952E+02 0.  0.
         11    1    3    3    0    0  0.69422320124E+01 -0.48089475895E+02 -0.12202670551E+01  0.48603305740E+02  0.00000000000E+00 0. -1.
        -11    1    3    3    0    0 -0.11987407041E+02 -0.16955500112E+03 -0.18471212905E+03  0.25102025207E+03  0.00000000000E+00 0.  1.
          4    1    6    6  502    0 -0.14005549705E+03  0.36613556512E+02 -0.30446606966E+02  0.14792934344E+03  0.00000000000E+00 0. -1.
          1    1    5    5  503    0  0.17612775719E+03  0.20221824920E+02  0.21087496218E+03  0.27549620456E+03  0.00000000000E+00 0. -1.
         -2    1    5    5    0  503  0.18631626220E+03  0.50513135232E+02  0.12034764312E+03  0.22748380513E+03  0.00000000000E+00 0.  1.
         -3    1    6    6    0  502 -0.21734334731E+03  0.11029596035E+03 -0.14777296399E+03  0.28502662749E+03  0.00000000000E+00 0.  1.
<mgrwt>
<rscale>  0 0.12351207E+04</rscale>
<asrwt>0</asrwt>
<pdfrwt beam="1">  1        1 0.92510014E-01 0.12351207E+04</pdfrwt>
<pdfrwt beam="2">  1       -1 0.97576069E-01 0.12351207E+04</pdfrwt>
<totfact> 0.33990547E+01</totfact>
</mgrwt>
</event>
<event>
12    1  0.1660557E-007  0.2801363E+04  0.7818608E-02  0.8302845E-01
          1   -1    0    0  501    0  0.00000000000E+00  0.00000000000E+00  0.20307808558E+04  0.20307808558E+04  0.00000000000E+00 0. -1.
         -1   -1    0    0    0  501 -0.00000000000E+00 -0.00000000000E+00 -0.96608572290E+03  0.96608572290E+03  0.00000000000E+00 0.  1.
         23    2    1    2    0    0 -0.36059545941E+03 -0.61597893842E+03 -0.62398590143E+03  0.95257111672E+03  0.92596918371E+02 0.  0.
        254    2    1    2    0    0  0.36059545941E+03  0.61597893842E+03  0.16886810343E+04  0.20442954619E+04  0.90445627990E+03 0.  0.
        -24    2    4    4    0    0  0.63896558096E+03  0.26304773080E+03  0.99330787458E+03  0.12125281910E+04  0.78057401653E+02 0.  0.
         24    2    4    4    0    0 -0.27837012155E+03  0.35293120762E+03  0.69537315970E+03  0.83176727094E+03  0.79010125206E+02 0.  0.
         11    1    3    3    0    0 -0.19617067812E+02 -0.41068539880E+02 -0.74412625550E+02  0.87227823306E+02  0.00000000000E+00 0. -1.
        -11    1    3    3    0    0 -0.34097839160E+03 -0.57491039854E+03 -0.54957327588E+03  0.86534329341E+03  0.00000000000E+00 0.  1.
          4    1    6    6  502    0 -0.40321627129E+02  0.65829390272E+02  0.73253977963E+02  0.10642127384E+03  0.00000000000E+00 0. -1.
          1    1    5    5  503    0  0.83288321287E+02  0.40960448863E+02  0.92259798639E+02  0.13086853433E+03  0.00000000000E+00 0. -1.
         -2    1    5    5    0  503  0.55567725967E+03  0.22208728194E+03  0.90104807594E+03  0.10816596567E+04  0.00000000000E+00 0.  1.
         -3    1    6    6    0  502 -0.23804849442E+03  0.28710181735E+03  0.62211918174E+03  0.72534599710E+03  0.00000000000E+00 0.  1.
<mgrwt>
<rscale>  0 0.28013628E+04</rscale>
<asrwt>0</asrwt>
<pdfrwt beam="1">  1        1 0.31242782E+00 0.28013628E+04</pdfrwt>
<pdfrwt beam="2">  1       -1 0.14862857E+00 0.28013628E+04</pdfrwt>
<totfact> 0.87911399E-01</totfact>
</mgrwt>
</event>
<event>
12    1  0.1506149E-007  0.1716516E+04  0.7818608E-02  0.8752000E-01
          1   -1    0    0  501    0  0.00000000000E+00  0.00000000000E+00  0.11904776460E+04  0.11904776460E+04  0.00000000000E+00 0. -1.
         -1   -1    0    0    0  501 -0.00000000000E+00 -0.00000000000E+00 -0.61874876081E+03  0.61874876081E+03  0.00000000000E+00 0.  1.
         23    2    1    2    0    0 -0.21529731242E+03 -0.31230889505E+03 -0.30690228777E+03  0.49642200609E+03  0.91411242381E+02 0.  0.
        254    2    1    2    0    0  0.21529731242E+03  0.31230889505E+03  0.87863117300E+03  0.13128044008E+04  0.89865058716E+03 0.  0.
        -24    2    4    4    0    0 -0.24626260870E+03  0.38341836504E+03  0.25145677765E+03  0.52674264950E+03  0.81070294688E+02 0.  0.
         24    2    4    4    0    0  0.46155992112E+03 -0.71109469994E+02  0.62717439535E+03  0.78606175125E+03  0.80319593459E+02 0.  0.
         13    1    3    3    0    0 -0.27284890543E+02 -0.28766091975E+02 -0.22031772015E+01  0.39709032842E+02  0.00000000000E+00 0. -1.
        -13    1    3    3    0    0 -0.18801242187E+03 -0.28354280307E+03 -0.30469911057E+03  0.45671297325E+03  0.00000000000E+00 0.  1.
          2    1    6    6  502    0  0.80983699789E+02 -0.40248698506E+02  0.95936093060E+02  0.13184100771E+03  0.00000000000E+00 0. -1.
          1    1    5    5  503    0 -0.14843699872E+03  0.19700223194E+03  0.94498521972E+02  0.26414653628E+03  0.00000000000E+00 0. -1.
         -2    1    5    5    0  503 -0.97825609980E+02  0.18641613311E+03  0.15695825567E+03  0.26259611321E+03  0.00000000000E+00 0.  1.
         -1    1    6    6    0  502  0.38057622133E+03 -0.30860771488E+02  0.53123830229E+03  0.65422074354E+03  0.00000000000E+00 0.  1.
<mgrwt>
<rscale>  0 0.17165157E+04</rscale>
<asrwt>0</asrwt>
<pdfrwt beam="1">  1        1 0.18315041E+00 0.17165157E+04</pdfrwt>
<pdfrwt beam="2">  1       -1 0.95192118E-01 0.17165157E+04</pdfrwt>
<totfact> 0.11000430E+01</totfact>
</mgrwt>
</event>
<event>
12    1  0.1506149E-007  0.3226316E+04  0.7818608E-02  0.8181902E-01
         -2   -1    0    0    0  501 -0.00000000000E+00  0.00000000000E+00  0.90574291192E+03  0.90574291192E+03  0.00000000000E+00 0.  1.
          2   -1    0    0  501    0  0.00000000000E+00 -0.00000000000E+00 -0.28730870789E+04  0.28730870789E+04  0.00000000000E+00 0. -1.
         23    2    1    2    0    0  0.20772598812E+03 -0.11671836882E+03  0.80953791171E+03  0.84880149982E+03  0.91318628142E+02 0.  0.
        254    2    1    2    0    0 -0.20772598812E+03  0.11671836882E+03 -0.27768820787E+04  0.29300284910E+04  0.90400199963E+03 0.  0.
        -24    2    4    4    0    0 -0.14702602462E+03 -0.38502771442E+03 -0.13845911245E+04  0.14467675365E+04  0.78617618005E+02 0.  0.
         24    2    4    4    0    0 -0.60699963499E+02  0.50174608324E+03 -0.13922909542E+04  0.14832609545E+04  0.78455977252E+02 0.  0.
         13    1    3    3    0    0  0.10643498431E+03 -0.82556486375E+01  0.33471145672E+03  0.35132366968E+03  0.00000000000E+00 0. -1.
        -13    1    3    3    0    0  0.10129100380E+03 -0.10846272019E+03  0.47482645500E+03  0.49747783015E+03  0.00000000000E+00 0.  1.
          2    1    6    6  502    0 -0.39715539615E+01  0.15542138876E+03 -0.33669211616E+03  0.37085463784E+03  0.00000000000E+00 0. -1.
          3    1    5    5  503    0 -0.46484557034E+02 -0.64534705059E+02 -0.35382037896E+03  0.36264914555E+03  0.00000000000E+00 0. -1.
         -4    1    5    5    0  503 -0.10054146759E+03 -0.32049300936E+03 -0.10307707455E+04  0.10841183909E+04  0.00000000000E+00 0.  1.
         -1    1    6    6    0  502 -0.56728409537E+02  0.34632469448E+03 -0.10555988381E+04  0.11124063167E+04  0.00000000000E+00 0.  1.
<mgrwt>
<rscale>  0 0.32263157E+04</rscale>
<asrwt>0</asrwt>
<pdfrwt beam="1">  1        2 0.44201339E+00 0.32263157E+04</pdfrwt>
<pdfrwt beam="2">  1       -2 0.13934506E+00 0.32263157E+04</pdfrwt>
<totfact> 0.63719212E-01</totfact>
</mgrwt>
</event>
<event>
12    1  0.1506149E-007  0.2030202E+04  0.7818608E-02  0.8592629E-01
         -2   -1    0    0    0  501 -0.00000000000E+00  0.00000000000E+00  0.12161137495E+04  0.12161137495E+04  0.00000000000E+00 0.  1.
          2   -1    0    0  501    0  0.00000000000E+00 -0.00000000000E+00 -0.84731355974E+03  0.84731355974E+03  0.00000000000E+00 0. -1.
         23    2    1    2    0    0 -0.22875141285E+03 -0.47083777218E+02 -0.63401996109E+03  0.68191880184E+03  0.92129529932E+02 0.  0.
        254    2    1    2    0    0  0.22875141285E+03  0.47083777218E+02  0.10028201508E+04  0.13815085074E+04  0.92107188107E+03 0.  0.
        -24    2    4    4    0    0  0.29389301490E+03  0.37322135743E+03  0.90571278465E+03  0.10258692943E+04  0.80155317050E+02 0.  0.
         24    2    4    4    0    0 -0.65141602048E+02 -0.32613758021E+03  0.97107366172E+02  0.35563921308E+03  0.80251229104E+02 0.  0.
         13    1    3    3    0    0 -0.21641653652E+03 -0.17175408145E+02 -0.57491004987E+03  0.61453452090E+03  0.00000000000E+00 0. -1.
        -13    1    3    3    0    0 -0.12334876328E+02 -0.29908369073E+02 -0.59109911213E+02  0.67384280943E+02  0.00000000000E+00 0.  1.
          4    1    6    6  502    0 -0.48179170160E+02 -0.31066391025E+03  0.10486198714E+03  0.33140509036E+03  0.00000000000E+00 0. -1.
          3    1    5    5  503    0  0.28195965982E+03  0.32303635530E+03  0.78214691817E+03  0.89196835045E+03  0.00000000000E+00 0. -1.
         -4    1    5    5    0  503  0.11933355079E+02  0.50185002134E+02  0.12356586648E+03  0.13390094384E+03  0.00000000000E+00 0.  1.
         -3    1    6    6    0  502 -0.16962431888E+02 -0.15473669960E+02 -0.77546209710E+01  0.24234122720E+02  0.00000000000E+00 0.  1.
<mgrwt>
<rscale>  0 0.20302016E+04</rscale>
<asrwt>0</asrwt>
<pdfrwt beam="1">  1        2 0.13035593E+00 0.20302016E+04</pdfrwt>
<pdfrwt beam="2">  1       -2 0.18709442E+00 0.20302016E+04</pdfrwt>
<totfact> 0.47883366E+00</totfact>
</mgrwt>
</event>
<event>
12    1  0.1506149E-007  0.2245143E+04  0.7818608E-02  0.8499870E-01
          2   -1    0    0  501    0  0.00000000000E+00  0.00000000000E+00  0.18723520224E+04  0.18723520224E+04  0.00000000000E+00 0. -1.
         -2   -1    0    0    0  501 -0.00000000000E+00 -0.00000000000E+00 -0.67303929185E+03  0.67303929185E+03  0.00000000000E+00 0.  1.
         23    2    1    2    0    0 -0.16988502738E+03  0.31694541276E+03 -0.47966517870E+03  0.60656125058E+03  0.92317657318E+02 0.  0.
        254    2    1    2    0    0  0.16988502738E+03 -0.31694541276E+03  0.16789779093E+04  0.19388300637E+04  0.90043316178E+03 0.  0.
        -24    2    4    4    0    0  0.48787869078E+03  0.18898633323E+02  0.75462409894E+03  0.90242139360E+03  0.80771688549E+02 0.  0.
         24    2    4    4    0    0 -0.31799366340E+03 -0.33584404608E+03  0.92435381035E+03  0.10364086701E+04  0.76169360673E+02 0.  0.
         11    1    3    3    0    0 -0.17199848061E+03  0.32028162250E+03 -0.45903740851E+03  0.58555882494E+03  0.00000000000E+00 0.  1.
        -11    1    3    3    0    0  0.21134532317E+01 -0.33362097461E+01 -0.20627770191E+02  0.21002425648E+02  0.00000000000E+00 0. -1.
          2    1    6    6  502    0 -0.28979268614E+03 -0.32947847912E+03  0.88213228414E+03  0.98523765451E+03  0.00000000000E+00 0. -1.
          3    1    5    5  503    0  0.32193535145E+03  0.19244117032E+02  0.56389184996E+03  0.64960505309E+03  0.00000000000E+00 0. -1.
         -4    1    5    5    0  503  0.16594333933E+03 -0.34548370953E+00  0.19073224898E+03  0.25281634051E+03  0.00000000000E+00 0.  1.
         -3    1    6    6    0  502 -0.28200977260E+02 -0.63655669560E+01  0.42221526211E+02  0.51171015591E+02  0.00000000000E+00 0.  1.
<mgrwt>
<rscale>  0 0.22451427E+04</rscale>
<asrwt>0</asrwt>
<pdfrwt beam="1">  1        2 0.28805415E+00 0.22451427E+04</pdfrwt>
<pdfrwt beam="2">  1       -2 0.10354451E+00 0.22451427E+04</pdfrwt>
<totfact> 0.54453874E+00</totfact>
</mgrwt>
</event>
<event>
12    1  0.1506149E-007  0.1531374E+04  0.7818608E-02  0.8863854E-01
          4   -1    0    0  501    0  0.00000000000E+00  0.00000000000E+00  0.76810382402E+03  0.76810382402E+03  0.00000000000E+00 0. -1.
         -4   -1    0    0    0  501 -0.00000000000E+00 -0.00000000000E+00 -0.76327764383E+03  0.76327764383E+03  0.00000000000E+00 0.  1.
         23    2    1    2    0    0 -0.29042480062E+03  0.58305852582E+02  0.39822908413E+03  0.50671908959E+03  0.10213566983E+03 0.  0.
        254    2    1    2    0    0  0.29042480062E+03 -0.58305852582E+02 -0.39340290394E+03  0.10246623783E+04  0.89856608401E+03 0.  0.
        -24    2    4    4    0    0  0.45980552677E+03 -0.87580926165E+02  0.10967576778E+03  0.48737103529E+03  0.80063792863E+02 0.  0.
         24    2    4    4    0    0 -0.16938072615E+03  0.29275073583E+02 -0.50307867172E+03  0.53729134297E+03  0.77762310695E+02 0.  0.
         13    1    3    3    0    0 -0.43499661784E+02  0.24792959985E+02  0.13623657167E+03  0.14514584011E+03  0.00000000000E+00 0.  1.
        -13    1    3    3    0    0 -0.24692513883E+03  0.33512892597E+02  0.26199251246E+03  0.36157324948E+03  0.00000000000E+00 0. -1.
          2    1    6    6  502    0 -0.13785719553E+03  0.48851432956E+01 -0.45152930425E+03  0.47213047305E+03  0.00000000000E+00 0. -1.
          3    1    5    5  503    0  0.38284166917E+03 -0.91648179344E+02  0.67146349782E+02  0.39934416825E+03  0.00000000000E+00 0. -1.
         -2    1    5    5    0  503  0.76963857595E+02  0.40672531788E+01  0.42529418000E+02  0.88026867034E+02  0.00000000000E+00 0.  1.
         -1    1    6    6    0  502 -0.31523530618E+02  0.24389930287E+02 -0.51549367468E+02  0.65160869918E+02  0.00000000000E+00 0.  1.
<mgrwt>
<rscale>  0 0.15313739E+04</rscale>
<asrwt>0</asrwt>
<pdfrwt beam="1">  1        4 0.11816982E+00 0.15313739E+04</pdfrwt>
<pdfrwt beam="2">  1       -4 0.11742733E+00 0.15313739E+04</pdfrwt>
<totfact> 0.59253586E-01</totfact>
</mgrwt>
</event>
<event>
12    1  0.1506149E-007  0.1402043E+04  0.7818608E-02  0.8952341E-01
          2   -1    0    0  501    0  0.00000000000E+00  0.00000000000E+00  0.29271241367E+04  0.29271241367E+04  0.00000000000E+00 0. -1.
         -2   -1    0    0    0  501 -0.00000000000E+00 -0.00000000000E+00 -0.16788875019E+03  0.16788875019E+03  0.00000000000E+00 0.  1.
         23    2    1    2    0    0  0.18511061849E+03 -0.36130276577E+03  0.80236406181E+03  0.90377959051E+03  0.90685340038E+02 0.  0.
        254    2    1    2    0    0 -0.18511061849E+03  0.36130276577E+03  0.19568713247E+04  0.21912332964E+04  0.89852787836E+03 0.  0.
        -24    2    4    4    0    0  0.45365937882E+02 -0.18203887516E+03  0.74821099568E+02  0.21721011503E+03  0.79911305480E+02 0.  0.
         24    2    4    4    0    0 -0.23047655637E+03  0.54334164093E+03  0.18820502252E+04  0.19740231814E+04  0.79466274786E+02 0.  0.
         13    1    3    3    0    0  0.93483527836E+02 -0.14398043121E+03  0.43008947721E+03  0.46308367814E+03  0.00000000000E+00 0. -1.
        -13    1    3    3    0    0  0.91627090650E+02 -0.21732233456E+03  0.37227458460E+03  0.44069591237E+03  0.00000000000E+00 0.  1.
          2    1    6    6  502    0 -0.11337100551E+03  0.22738675466E+03  0.69128682733E+03  0.73650200185E+03  0.00000000000E+00 0. -1.
          1    1    5    5  503    0  0.84744171985E+01 -0.84797512006E+02  0.74518810665E+02  0.11320550752E+03  0.00000000000E+00 0. -1.
         -2    1    5    5    0  503  0.36891520683E+02 -0.97241363154E+02  0.30228890270E+00  0.10400460752E+03  0.00000000000E+00 0.  1.
         -3    1    6    6    0  502 -0.11710555086E+03  0.31595488627E+03  0.11907633978E+04  0.12375211795E+04  0.00000000000E+00 0.  1.
<mgrwt>
<rscale>  0 0.14020431E+04</rscale>
<asrwt>0</asrwt>
<pdfrwt beam="1">  1        2 0.45032675E+00 0.14020431E+04</pdfrwt>
<pdfrwt beam="2">  1       -2 0.25829041E-01 0.14020431E+04</pdfrwt>
<totfact> 0.25640291E+01</totfact>
</mgrwt>
</event>
<event>
12    1  0.1506149E-007  0.1389874E+04  0.7818608E-02  0.8961181E-01
         -2   -1    0    0    0  501 -0.00000000000E+00  0.00000000000E+00  0.72699327324E+03  0.72699327324E+03  0.00000000000E+00 0.  1.
          2   -1    0    0  501    0  0.00000000000E+00 -0.00000000000E+00 -0.66429466857E+03  0.66429466857E+03  0.00000000000E+00 0. -1.
         23    2    1    2    0    0  0.35088025298E+02  0.36960959395E+03 -0.13992838706E+03  0.40747865141E+03  0.92824977211E+02 0.  0.
        254    2    1    2    0    0 -0.35088025298E+02 -0.36960959395E+03  0.20262699172E+03  0.98380929040E+03  0.88824579967E+03 0.  0.
        -24    2    4    4    0    0  0.36126906569E+03 -0.25731016923E+03 -0.10571817468E+03  0.46303325584E+03  0.80620112500E+02 0.  0.
         24    2    4    4    0    0 -0.39635709099E+03 -0.11229942472E+03  0.30834516641E+03  0.52077603455E+03  0.80130095146E+02 0.  0.
         13    1    3    3    0    0  0.28071499041E+02  0.24943784083E+02 -0.82449936351E+01  0.38447123986E+02  0.00000000000E+00 0.  1.
        -13    1    3    3    0    0  0.70165262566E+01  0.34466580986E+03 -0.13168339343E+03  0.36903152743E+03  0.00000000000E+00 0. -1.
          2    1    6    6  502    0 -0.39960294406E+03 -0.11389945476E+03  0.30275547041E+03  0.51411717882E+03  0.00000000000E+00 0. -1.
          3    1    5    5  503    0  0.32338390931E+03 -0.20269732470E+03 -0.71583914436E+02  0.38831381002E+03  0.00000000000E+00 0. -1.
         -4    1    5    5    0  503  0.37885156379E+02 -0.54612844529E+02 -0.34134260247E+02  0.74719445823E+02  0.00000000000E+00 0.  1.
         -1    1    6    6    0  502  0.32458530709E+01  0.16000300452E+01  0.55896959954E+01  0.66588557293E+01  0.00000000000E+00 0.  1.
<mgrwt>
<rscale>  0 0.13898745E+04</rscale>
<asrwt>0</asrwt>
<pdfrwt beam="1">  1        2 0.10219918E+00 0.13898745E+04</pdfrwt>
<pdfrwt beam="2">  1       -2 0.11184512E+00 0.13898745E+04</pdfrwt>
<totfact> 0.26897557E+01</totfact>
</mgrwt>
</event>
<event>
12    1  0.1506149E-007  0.1407498E+04  0.7818608E-02  0.8948409E-01
          2   -1    0    0  501    0  0.00000000000E+00  0.00000000000E+00  0.78302149555E+03  0.78302149555E+03  0.00000000000E+00 0. -1.
         -2   -1    0    0    0  501 -0.00000000000E+00 -0.00000000000E+00 -0.63250170840E+03  0.63250170840E+03  0.00000000000E+00 0.  1.
         23    2    1    2    0    0 -0.44993985046E+02 -0.88130204622E+01  0.48985655657E+03  0.50040272700E+03  0.91330800705E+02 0.  0.
        254    2    1    2    0    0  0.44993985046E+02  0.88130204622E+01 -0.33933676941E+03  0.91512047695E+03  0.84864239597E+03 0.  0.
        -24    2    4    4    0    0 -0.10730872468E+03 -0.21673402971E+03 -0.51973820305E+03  0.57879935772E+03  0.79950577015E+02 0.  0.
         24    2    4    4    0    0  0.15230270973E+03  0.22554705017E+03  0.18040143363E+03  0.33632111923E+03  0.80620287460E+02 0.  0.
         13    1    3    3    0    0 -0.63657541239E+02 -0.19046347636E+02  0.22274243741E+03  0.23244190530E+03  0.00000000000E+00 0. -1.
        -13    1    3    3    0    0  0.18663556193E+02  0.10233327174E+02  0.26711411916E+03  0.26796082170E+03  0.00000000000E+00 0.  1.
          4    1    6    6  502    0  0.12661323491E+02  0.56465524710E+02  0.69955470081E+02  0.90787842730E+02  0.00000000000E+00 0. -1.
          1    1    5    5  503    0 -0.53197087055E+02 -0.42721191980E+02 -0.98384447369E+02  0.11972689672E+03  0.00000000000E+00 0. -1.
         -2    1    5    5    0  503 -0.54111637629E+02 -0.17401283773E+03 -0.42135375568E+03  0.45907246100E+03  0.00000000000E+00 0.  1.
         -3    1    6    6    0  502  0.13964138624E+03  0.16908152546E+03  0.11044596355E+03  0.24553327650E+03  0.00000000000E+00 0.  1.
<mgrwt>
<rscale>  0 0.14074977E+04</rscale>
<asrwt>0</asrwt>
<pdfrwt beam="1">  1        2 0.12046485E+00 0.14074977E+04</pdfrwt>
<pdfrwt beam="2">  1       -2 0.97307955E-01 0.14074977E+04</pdfrwt>
<totfact> 0.30380860E+01</totfact>
</mgrwt>
</event>
<event>
12    1  0.1506149E-007  0.1392031E+04  0.7818608E-02  0.8959607E-01
         -2   -1    0    0    0  501 -0.00000000000E+00  0.00000000000E+00  0.17713111080E+03  0.17713111080E+03  0.00000000000E+00 0.  1.
          2   -1    0    0  501    0  0.00000000000E+00 -0.00000000000E+00 -0.27349083444E+04  0.27349083444E+04  0.00000000000E+00 0. -1.
         23    2    1    2    0    0 -0.31576550821E+03 -0.16225074304E+02 -0.12119571466E+04  0.12558658227E+04  0.91584551980E+02 0.  0.
        254    2    1    2    0    0  0.31576550821E+03  0.16225074304E+02 -0.13458200870E+04  0.16561736325E+04  0.91198041933E+03 0.  0.
        -24    2    4    4    0    0 -0.18624167721E+03 -0.27205278832E+03 -0.28065042766E+03  0.44122079415E+03  0.84926113076E+02 0.  0.
         24    2    4    4    0    0  0.50200718542E+03  0.28827786262E+03 -0.10651696593E+04  0.12149528384E+04  0.80054081537E+02 0.  0.
         11    1    3    3    0    0 -0.90559761488E+02  0.19721597080E+02 -0.49194234068E+03  0.50059692203E+03  0.00000000000E+00 0.  1.
        -11    1    3    3    0    0 -0.22520574672E+03 -0.35946671383E+02 -0.72001480592E+03  0.75526890065E+03  0.00000000000E+00 0. -1.
          4    1    6    6  502    0  0.40753456665E+03  0.22690464788E+03 -0.91704254898E+03  0.10288523601E+04  0.00000000000E+00 0. -1.
          1    1    5    5  503    0 -0.17736470586E+03 -0.20516194313E+03 -0.24190273960E+03  0.36340968234E+03  0.00000000000E+00 0. -1.
         -2    1    5    5    0  503 -0.88769713494E+01 -0.66890845195E+02 -0.38747688058E+02  0.77811111810E+02  0.00000000000E+00 0.  1.
         -3    1    6    6    0  502  0.94472618767E+02  0.61373214745E+02 -0.14812711036E+03  0.18610047826E+03  0.00000000000E+00 0.  1.
<mgrwt>
<rscale>  0 0.13920307E+04</rscale>
<asrwt>0</asrwt>
<pdfrwt beam="1">  1        2 0.42075512E+00 0.13920307E+04</pdfrwt>
<pdfrwt beam="2">  1       -2 0.27250941E-01 0.13920307E+04</pdfrwt>
<totfact> 0.30389160E+01</totfact>
</mgrwt>
</event>
<event>
12    1  0.1506149E-007  0.1189946E+04  0.7818608E-02  0.9121703E-01
          2   -1    0    0  501    0  0.00000000000E+00  0.00000000000E+00  0.27909800454E+04  0.27909800454E+04  0.00000000000E+00 0. -1.
         -2   -1    0    0    0  501 -0.00000000000E+00 -0.00000000000E+00 -0.12683460140E+03  0.12683460140E+03  0.00000000000E+00 0.  1.
         23    2    1    2    0    0  0.24518220157E+03 -0.67908555180E+02  0.68357135690E+03  0.73467596255E+03  0.88051610683E+02 0.  0.
        254    2    1    2    0    0 -0.24518220157E+03  0.67908555180E+02  0.19805740871E+04  0.21831386842E+04  0.88243691919E+03 0.  0.
        -24    2    4    4    0    0 -0.55493607113E+03 -0.60468811892E+02  0.10711572811E+04  0.12104869148E+04  0.79310339768E+02 0.  0.
         24    2    4    4    0    0  0.30975386956E+03  0.12837736707E+03  0.90941680602E+03  0.97265176939E+03  0.81143880463E+02 0.  0.
         13    1    3    3    0    0  0.15484602737E+03 -0.28451218103E+02  0.52372556641E+03  0.54687771295E+03  0.00000000000E+00 0. -1.
        -13    1    3    3    0    0  0.90336174198E+02 -0.39457337077E+02  0.15984579049E+03  0.18779824960E+03  0.00000000000E+00 0.  1.
          2    1    6    6  502    0  0.75171889023E+02  0.46469921575E+02  0.15566497393E+03  0.17900237602E+03  0.00000000000E+00 0. -1.
          3    1    5    5  503    0 -0.72092823848E+02  0.76243429048E+01  0.96933618416E+02  0.12104392688E+03  0.00000000000E+00 0. -1.
         -4    1    5    5    0  503 -0.48284324728E+03 -0.68093154797E+02  0.97422366264E+03  0.10894429880E+04  0.00000000000E+00 0.  1.
         -1    1    6    6    0  502  0.23458198054E+03  0.81907445497E+02  0.75375183209E+03  0.79364939337E+03  0.00000000000E+00 0.  1.
<mgrwt>
<rscale>  0 0.11899460E+04</rscale>
<asrwt>0</asrwt>
<pdfrwt beam="1">  1        2 0.42938150E+00 0.11899460E+04</pdfrwt>
<pdfrwt beam="2">  1       -2 0.19513018E-01 0.11899460E+04</pdfrwt>
<totfact> 0.52182685E+01</totfact>
</mgrwt>
</event>
<event>
12    1  0.1506149E-007  0.2660375E+04  0.7818608E-02  0.8347977E-01
         -2   -1    0    0    0  501 -0.00000000000E+00  0.00000000000E+00  0.17700023701E+04  0.17700023701E+04  0.00000000000E+00 0. -1.
          2   -1    0    0  501    0  0.00000000000E+00 -0.00000000000E+00 -0.99965918383E+03  0.99965918383E+03  0.00000000000E+00 0.  1.
         23    2    1    2    0    0 -0.28329672409E+02  0.81320440346E+03 -0.53894304795E+03  0.98029545352E+03  0.91736552799E+02 0.  0.
        254    2    1    2    0    0  0.28329672409E+02 -0.81320440346E+03  0.13092862342E+04  0.17893661004E+04  0.90856844875E+03 0.  0.
        -24    2    4    4    0    0 -0.84967562516E+02  0.15034090932E+03  0.48808433595E+02  0.19666122394E+03  0.80445622113E+02 0.  0.
         24    2    4    4    0    0  0.11329723493E+03 -0.96354531277E+03  0.12604778006E+04  0.15927048765E+04  0.81539588383E+02 0.  0.
         11    1    3    3    0    0 -0.43690458417E+02  0.73958449938E+03 -0.51126370874E+03  0.90015813485E+03  0.00000000000E+00 0.  1.
        -11    1    3    3    0    0  0.15360786008E+02  0.73619904083E+02 -0.27679339213E+02  0.80137318668E+02  0.00000000000E+00 0. -1.
          2    1    6    6  502    0 -0.12390992745E+02 -0.11920916028E+03  0.14733416884E+03  0.18992555885E+03  0.00000000000E+00 0. -1.
          1    1    5    5  503    0 -0.37502629961E+02  0.36903729774E+02  0.51555474302E+02  0.73663420065E+02  0.00000000000E+00 0. -1.
         -2    1    5    5    0  503 -0.47464932555E+02  0.11343717954E+03 -0.27470407073E+01  0.12299780387E+03  0.00000000000E+00 0.  1.
         -1    1    6    6    0  502  0.12568822767E+03 -0.84433615249E+03  0.11131436318E+04  0.14027793176E+04  0.00000000000E+00 0.  1.
<mgrwt>
<rscale>  0 0.26603753E+04</rscale>
<asrwt>0</asrwt>
<pdfrwt beam="1">  1        2 0.15379372E+00 0.26603753E+04</pdfrwt>
<pdfrwt beam="2">  1       -2 0.27230806E+00 0.26603753E+04</pdfrwt>
<totfact> 0.10406776E+00</totfact>
</mgrwt>
</event>
<event>
12    1  0.1506149E-007  0.1864591E+04  0.7818608E-02  0.8672685E-01
          1   -1    0    0  501    0  0.00000000000E+00  0.00000000000E+00  0.86562870768E+03  0.86562870768E+03  0.00000000000E+00 0. -1.
         -1   -1    0    0    0  501 -0.00000000000E+00 -0.00000000000E+00 -0.10040961923E+04  0.10040961923E+04  0.00000000000E+00 0.  1.
         23    2    1    2    0    0  0.49393439511E+03 -0.49338971470E+03 -0.20412193301E+03  0.73299596613E+03  0.90624089444E+02 0.  0.
        254    2    1    2    0    0 -0.49393439511E+03  0.49338971470E+03  0.65654448437E+02  0.11367289338E+04  0.89467176389E+03 0.  0.
        -24    2    4    4    0    0 -0.20896833679E+03 -0.28922478510E+02 -0.34260864445E+03  0.41082402083E+03  0.83014560710E+02 0.  0.
         24    2    4    4    0    0 -0.28496605832E+03  0.52231219321E+03  0.40826309289E+03  0.72590491297E+03  0.79015872395E+02 0.  0.
         13    1    3    3    0    0  0.58923826729E+01 -0.31488590259E+02 -0.91564000470E+01  0.33318030432E+02  0.00000000000E+00 0. -1.
        -13    1    3    3    0    0  0.48804201244E+03 -0.46190112444E+03 -0.19496553297E+03  0.69967793570E+03  0.00000000000E+00 0.  1.
          2    1    6    6  502    0 -0.25639980366E+03  0.41820437685E+03  0.35499570853E+03  0.60552267771E+03  0.00000000000E+00 0. -1.
          1    1    5    5  503    0 -0.13548059930E+03  0.42883528845E+01 -0.27085682713E+03  0.30288084053E+03  0.00000000000E+00 0. -1.
         -2    1    5    5    0  503 -0.73487737491E+02 -0.33210831394E+02 -0.71751817323E+02  0.10794318030E+03  0.00000000000E+00 0.  1.
         -1    1    6    6    0  502 -0.28566254651E+02  0.10410781635E+03  0.53267384359E+02  0.12038223526E+03  0.00000000000E+00 0.  1.
<mgrwt>
<rscale>  0 0.18645906E+04</rscale>
<asrwt>0</asrwt>
<pdfrwt beam="1">  1        1 0.13317365E+00 0.18645906E+04</pdfrwt>
<pdfrwt beam="2">  1       -1 0.15447634E+00 0.18645906E+04</pdfrwt>
<totfact> 0.58736243E+00</totfact>
</mgrwt>
</event>
<event>
12    1  0.1506149E-007  0.1662207E+04  0.7818608E-02  0.8783217E-01
          2   -1    0    0  501    0  0.00000000000E+00  0.00000000000E+00  0.10970170187E+04  0.10970170187E+04  0.00000000000E+00 0. -1.
         -2   -1    0    0    0  501 -0.00000000000E+00 -0.00000000000E+00 -0.62964683834E+03  0.62964683834E+03  0.00000000000E+00 0.  1.
         23    2    1    2    0    0  0.36244150007E+03  0.49733370377E+03  0.21405746675E+03  0.65827432705E+03  0.93807444820E+02 0.  0.
        254    2    1    2    0    0 -0.36244150007E+03 -0.49733370377E+03  0.25331271361E+03  0.10683895300E+04  0.83581349776E+03 0.  0.
        -24    2    4    4    0    0  0.13410333054E+03 -0.50871407948E+03  0.93409479444E+02  0.54027714828E+03  0.80002176062E+02 0.  0.
         24    2    4    4    0    0 -0.49654483061E+03  0.11380375708E+02  0.15990323417E+03  0.52811238172E+03  0.81531353917E+02 0.  0.
         13    1    3    3    0    0  0.81523867606E+02  0.12507766913E+03  0.94991256714E+02  0.17695734841E+03  0.00000000000E+00 0. -1.
        -13    1    3    3    0    0  0.28091763246E+03  0.37225603464E+03  0.11906621004E+03  0.48131697864E+03  0.00000000000E+00 0.  1.
          2    1    6    6  502    0 -0.38331127797E+03  0.17763992644E+02  0.87545305937E+02  0.39358261629E+03  0.00000000000E+00 0. -1.
          3    1    5    5  503    0  0.81110149376E+02 -0.26614751761E+03  0.10208045266E+02  0.27841975801E+03  0.00000000000E+00 0. -1.
         -2    1    5    5    0  503  0.52993181166E+02 -0.24256656187E+03  0.83201434179E+02  0.26185739027E+03  0.00000000000E+00 0.  1.
         -1    1    6    6    0  502 -0.11323355264E+03 -0.63836169355E+01  0.72357928232E+02  0.13452976543E+03  0.00000000000E+00 0.  1.
<mgrwt>
<rscale>  0 0.16622073E+04</rscale>
<asrwt>0</asrwt>
<pdfrwt beam="1">  1        2 0.16877185E+00 0.16622073E+04</pdfrwt>
<pdfrwt beam="2">  1       -2 0.96868745E-01 0.16622073E+04</pdfrwt>
<totfact> 0.18595175E+01</totfact>
</mgrwt>
</event>
<event>
12    1  0.1506149E-007  0.1582224E+04  0.7818608E-02  0.8831544E-01
          1   -1    0    0  501    0  0.00000000000E+00  0.00000000000E+00  0.32076759852E+03  0.32076759852E+03  0.00000000000E+00 0. -1.
         -1   -1    0    0    0  501 -0.00000000000E+00 -0.00000000000E+00 -0.19511258363E+04  0.19511258363E+04  0.00000000000E+00 0.  1.
         23    2    1    2    0    0 -0.17052184255E+03  0.29588189908E+03 -0.11465883855E+04  0.11997906261E+04  0.90602559732E+02 0.  0.
        254    2    1    2    0    0  0.17052184255E+03 -0.29588189908E+03 -0.48376985229E+03  0.10721028087E+04  0.89372667267E+03 0.  0.
        -24    2    4    4    0    0  0.34714383081E+03  0.28329516765E+02  0.10474600764E+03  0.37254070939E+03  0.80643990757E+02 0.  0.
         24    2    4    4    0    0 -0.17662198826E+03 -0.32421141584E+03 -0.58851585993E+03  0.69956209931E+03  0.82023438759E+02 0.  0.
         11    1    3    3    0    0 -0.88455733734E+02  0.18846544755E+03 -0.55013747062E+03  0.58821329323E+03  0.00000000000E+00 0. -1.
        -11    1    3    3    0    0 -0.82066108818E+02  0.10741645153E+03 -0.59645091485E+03  0.61157733289E+03  0.00000000000E+00 0.  1.
          2    1    6    6  502    0 -0.14580211217E+03 -0.22127610991E+03 -0.47024387971E+03  0.53976909798E+03  0.00000000000E+00 0. -1.
          3    1    5    5  503    0  0.30760721820E+03  0.19170654225E+02  0.11773962394E+03  0.32992777045E+03  0.00000000000E+00 0. -1.
         -4    1    5    5    0  503  0.39536612611E+02  0.91588625402E+01 -0.12993616304E+02  0.42612938932E+02  0.00000000000E+00 0.  1.
         -1    1    6    6    0  502 -0.30819876088E+02 -0.10293530593E+03 -0.11827198022E+03  0.15979300133E+03  0.00000000000E+00 0.  1.
<mgrwt>
<rscale>  0 0.15822237E+04</rscale>
<asrwt>0</asrwt>
<pdfrwt beam="1">  1        1 0.49348860E-01 0.15822237E+04</pdfrwt>
<pdfrwt beam="2">  1       -1 0.30017321E+00 0.15822237E+04</pdfrwt>
<totfact> 0.25476388E+00</totfact>
</mgrwt>
</event>
<event>
12    1  0.1625830E-007  0.3020786E+04  0.7818608E-02  0.8237820E-01
         -2   -1    0    0    0  501 -0.00000000000E+00  0.00000000000E+00  0.11384498130E+04  0.11384498130E+04  0.00000000000E+00 0.  1.
          2   -1    0    0  501    0  0.00000000000E+00 -0.00000000000E+00 -0.20038532869E+04  0.20038532869E+04  0.00000000000E+00 0. -1.
         23    2    1    2    0    0  0.28829331110E+03  0.12477407065E+04 -0.91230473570E+03  0.15749267890E+04  0.90136319783E+02 0.  0.
        254    2    1    2    0    0 -0.28829331110E+03 -0.12477407065E+04  0.46901261791E+02  0.15673763110E+04  0.90249591028E+03 0.  0.
        -24    2    4    4    0    0 -0.17351837541E+03 -0.60455052166E+02 -0.26472841695E+03  0.33179872562E+03  0.79030498215E+02 0.  0.
         24    2    4    4    0    0 -0.11477493569E+03 -0.11872856543E+04  0.31162967874E+03  0.12355775854E+04  0.81965858806E+02 0.  0.
         13    1    3    3    0    0  0.40917094548E+02  0.29452410086E+03 -0.17864108842E+03  0.34688801232E+03  0.00000000000E+00 0.  1.
        -13    1    3    3    0    0  0.24737621655E+03  0.95321660560E+03 -0.73366364728E+03  0.12280387767E+04  0.00000000000E+00 0. -1.
          2    1    6    6  502    0 -0.67076778900E+02 -0.78363686257E+03  0.24438206253E+03  0.82359493632E+03  0.00000000000E+00 0. -1.
          3    1    5    5  503    0 -0.13198359804E+03 -0.70599602075E+02 -0.23868764043E+03  0.28173704701E+03  0.00000000000E+00 0. -1.
         -4    1    5    5    0  503 -0.41534777365E+02  0.10144549909E+02 -0.26040776520E+02  0.50061678611E+02  0.00000000000E+00 0.  1.
         -1    1    6    6    0  502 -0.47698156788E+02 -0.40364879173E+03  0.67247616212E+02  0.41198264904E+03  0.00000000000E+00 0.  1.
<mgrwt>
<rscale>  0 0.30207856E+04</rscale>
<asrwt>0</asrwt>
<pdfrwt beam="1">  1        2 0.30828512E+00 0.30207856E+04</pdfrwt>
<pdfrwt beam="2">  1       -2 0.17514612E+00 0.30207856E+04</pdfrwt>
<totfact> 0.11137234E+00</totfact>
</mgrwt>
</event>
<event>
12    1  0.1506149E-007  0.1692554E+04  0.7818608E-02  0.8765623E-01
         -2   -1    0    0    0  501 -0.00000000000E+00  0.00000000000E+00  0.48521277046E+03  0.48521277046E+03  0.00000000000E+00 0.  1.
          2   -1    0    0  501    0  0.00000000000E+00 -0.00000000000E+00 -0.14760212196E+04  0.14760212196E+04  0.00000000000E+00 0. -1.
         23    2    1    2    0    0  0.19225930433E+03 -0.17561074272E+03  0.27082842047E+03  0.38636369022E+03  0.90144854145E+02 0.  0.
        254    2    1    2    0    0 -0.19225930433E+03  0.17561074272E+03 -0.12616368696E+04  0.15748702998E+04  0.90591726856E+03 0.  0.
        -24    2    4    4    0    0  0.21730241376E+03  0.38935517534E+03 -0.78403058177E+03  0.90548656591E+03  0.79901040729E+02 0.  0.
         24    2    4    4    0    0 -0.40956171809E+03 -0.21374443262E+03 -0.47760628785E+03  0.66938373392E+03  0.80866146442E+02 0.  0.
         13    1    3    3    0    0  0.14364783813E+02 -0.21591613806E+01 -0.47825433354E+01  0.15293191708E+02  0.00000000000E+00 0. -1.
        -13    1    3    3    0    0  0.17789452052E+03 -0.17345158134E+03  0.27561096381E+03  0.37107049852E+03  0.00000000000E+00 0.  1.
          2    1    6    6  502    0  0.30563450695E+01 -0.80408813759E+00 -0.96596830880E+01  0.10163526961E+02  0.00000000000E+00 0. -1.
          3    1    5    5  503    0  0.48280822350E+02  0.42501791892E+02 -0.79944823923E+02  0.10260903953E+03  0.00000000000E+00 0. -1.
         -4    1    5    5    0  503  0.16902159141E+03  0.34685338345E+03 -0.70408575784E+03  0.80287752639E+03  0.00000000000E+00 0.  1.
         -1    1    6    6    0  502 -0.41261806316E+03 -0.21294034449E+03 -0.46794660476E+03  0.65922020696E+03  0.00000000000E+00 0.  1.
<mgrwt>
<rscale>  0 0.16925535E+04</rscale>
<asrwt>0</asrwt>
<pdfrwt beam="1">  1        2 0.22708018E+00 0.16925535E+04</pdfrwt>
<pdfrwt beam="2">  1       -2 0.74648120E-01 0.16925535E+04</pdfrwt>
<totfact> 0.20119630E+01</totfact>
</mgrwt>
</event>
<event>
12    1  0.1506149E-007  0.1687390E+04  0.7818608E-02  0.8768589E-01
          2   -1    0    0  501    0  0.00000000000E+00  0.00000000000E+00  0.35185523465E+04  0.35185523465E+04  0.00000000000E+00 0. -1.
         -2   -1    0    0    0  501 -0.00000000000E+00 -0.00000000000E+00 -0.20230522034E+03  0.20230522034E+03  0.00000000000E+00 0.  1.
         23    2    1    2    0    0  0.10722832129E+03 -0.30044475074E+03  0.23110118686E+04  0.23347905228E+04  0.93305775699E+02 0.  0.
        254    2    1    2    0    0 -0.10722832129E+03  0.30044475074E+03  0.10052352576E+04  0.13860670440E+04  0.89939922515E+03 0.  0.
        -24    2    4    4    0    0 -0.33515403872E+03 -0.17819720282E+03  0.60095993173E+03  0.71514425121E+03  0.78714596692E+02 0.  0.
         24    2    4    4    0    0  0.22792571742E+03  0.47864195356E+03  0.40427532585E+03  0.67092279277E+03  0.75170488863E+02 0.  0.
         11    1    3    3    0    0  0.11274977670E+03 -0.30225480555E+03  0.22980897493E+04  0.23206221096E+04  0.00000000000E+00 0. -1.
        -11    1    3    3    0    0 -0.55214554033E+01  0.18100548127E+01  0.12922119275E+02  0.14168413276E+02  0.00000000000E+00 0.  1.
          2    1    6    6  502    0  0.29493572416E+02  0.55119676220E+02  0.20104180340E+02  0.65667553537E+02  0.00000000000E+00 0. -1.
          3    1    5    5  503    0 -0.29253955390E+02 -0.24600976317E+02  0.11149520178E+03  0.11786510069E+03  0.00000000000E+00 0. -1.
         -4    1    5    5    0  503 -0.30590008333E+03 -0.15359622651E+03  0.48946472995E+03  0.59727915052E+03  0.00000000000E+00 0.  1.
         -1    1    6    6    0  502  0.19843214501E+03  0.42352227734E+03  0.38417114551E+03  0.60525523923E+03  0.00000000000E+00 0.  1.
<mgrwt>
<rscale>  0 0.16873903E+04</rscale>
<asrwt>0</asrwt>
<pdfrwt beam="1">  1        2 0.54131570E+00 0.16873903E+04</pdfrwt>
<pdfrwt beam="2">  1       -2 0.31123883E-01 0.16873903E+04</pdfrwt>
<totfact> 0.72680544E+00</totfact>
</mgrwt>
</event>
<event>
12    1  0.1506149E-007  0.2043752E+04  0.7818608E-02  0.8586434E-01
         -2   -1    0    0    0  501 -0.00000000000E+00  0.00000000000E+00  0.69160408882E+03  0.69160408882E+03  0.00000000000E+00 0. -1.
          2   -1    0    0  501    0  0.00000000000E+00 -0.00000000000E+00 -0.15098672769E+04  0.15098672769E+04  0.00000000000E+00 0.  1.
         23    2    1    2    0    0 -0.28131548303E+03  0.61802064277E+03 -0.83750866038E+03  0.10819868000E+04  0.90480733959E+02 0.  0.
        254    2    1    2    0    0  0.28131548303E+03 -0.61802064277E+03  0.19245472274E+02  0.11194845658E+04  0.88982435847E+03 0.  0.
        -24    2    4    4    0    0 -0.21058882857E+03 -0.53875578820E+03  0.14118209095E+03  0.60081354064E+03  0.80243839455E+02 0.  0.
         24    2    4    4    0    0  0.49190431160E+03 -0.79264854568E+02 -0.12193661868E+03  0.51867102514E+03  0.76800549496E+02 0.  0.
         11    1    3    3    0    0 -0.19658555793E+01  0.36009517475E+02 -0.23462488726E+02  0.43023694799E+02  0.00000000000E+00 0. -1.
        -11    1    3    3    0    0 -0.27934962746E+03  0.58201112530E+03 -0.81404617166E+03  0.10389631052E+04  0.00000000000E+00 0.  1.
          2    1    6    6  502    0  0.95215692114E+02 -0.46787108735E+02 -0.23428689389E+02  0.10864605402E+03  0.00000000000E+00 0. -1.
          3    1    5    5  503    0 -0.16900256347E+03 -0.32814642300E+03  0.81582608277E+02  0.37801807280E+03  0.00000000000E+00 0. -1.
         -2    1    5    5    0  503 -0.41586265094E+02 -0.21060936520E+03  0.59599482677E+02  0.22279546784E+03  0.00000000000E+00 0.  1.
         -1    1    6    6    0  502  0.39668861949E+03 -0.32477745833E+02 -0.98507929291E+02  0.41002497112E+03  0.00000000000E+00 0.  1.
<mgrwt>
<rscale>  0 0.20437518E+04</rscale>
<asrwt>0</asrwt>
<pdfrwt beam="1">  1        2 0.23228727E+00 0.20437518E+04</pdfrwt>
<pdfrwt beam="2">  1       -2 0.10640063E+00 0.20437518E+04</pdfrwt>
<totfact> 0.82617250E+00</totfact>
</mgrwt>
</event>
<event>
12    1  0.1506149E-007  0.1822624E+04  0.7818608E-02  0.8694360E-01
         -2   -1    0    0    0  501 -0.00000000000E+00  0.00000000000E+00  0.95971055220E+03  0.95971055220E+03  0.00000000000E+00 0.  1.
          2   -1    0    0  501    0  0.00000000000E+00 -0.00000000000E+00 -0.86535389044E+03  0.86535389044E+03  0.00000000000E+00 0. -1.
         23    2    1    2    0    0 -0.31442547885E+02  0.35657802672E+03 -0.55185771036E+03  0.66474187486E+03  0.95907792995E+02 0.  0.
        254    2    1    2    0    0  0.31442547885E+02 -0.35657802672E+03  0.64621437211E+03  0.11603225678E+04  0.89477311293E+03 0.  0.
        -24    2    4    4    0    0 -0.17542331880E+03 -0.38082393365E+03 -0.49199245639E+02  0.43000250937E+03  0.81739727600E+02 0.  0.
         24    2    4    4    0    0  0.20686586668E+03  0.24245906936E+02  0.69541361775E+03  0.73032005842E+03  0.79912059004E+02 0.  0.
         11    1    3    3    0    0 -0.19046021449E+01  0.28416655006E+03 -0.36805193221E+03  0.46499083914E+03  0.00000000000E+00 0. -1.
        -11    1    3    3    0    0 -0.29537945740E+02  0.72411476657E+02 -0.18380577815E+03  0.19975103572E+03  0.00000000000E+00 0.  1.
          4    1    6    6  502    0  0.17421848805E+03  0.48237649360E+02  0.52857809242E+03  0.55863561664E+03  0.00000000000E+00 0. -1.
          1    1    5    5  503    0 -0.13688219452E+03 -0.27862632011E+03 -0.55044910459E+00  0.31043463793E+03  0.00000000000E+00 0. -1.
         -2    1    5    5    0  503 -0.38541124275E+02 -0.10219761355E+03 -0.48648796534E+02  0.11956787143E+03  0.00000000000E+00 0.  1.
         -3    1    6    6    0  502  0.32647378635E+02 -0.23991742424E+02  0.16683552533E+03  0.17168444177E+03  0.00000000000E+00 0.  1.
<mgrwt>
<rscale>  0 0.18226237E+04</rscale>
<asrwt>0</asrwt>
<pdfrwt beam="1">  1        2 0.13313137E+00 0.18226237E+04</pdfrwt>
<pdfrwt beam="2">  1       -2 0.14764778E+00 0.18226237E+04</pdfrwt>
<totfact> 0.91149935E+00</totfact>
</mgrwt>
</event>
<event>
12    1  0.1506149E-007  0.1332028E+04  0.7818608E-02  0.9004546E-01
          1   -1    0    0  501    0  0.00000000000E+00  0.00000000000E+00  0.26252418356E+03  0.26252418356E+03  0.00000000000E+00 0. -1.
         -1   -1    0    0    0  501 -0.00000000000E+00 -0.00000000000E+00 -0.16896513866E+04  0.16896513866E+04  0.00000000000E+00 0.  1.
         23    2    1    2    0    0 -0.21025432042E+03 -0.29550376207E+03 -0.38547087164E+03  0.53715575077E+03  0.91755953752E+02 0.  0.
        254    2    1    2    0    0  0.21025432042E+03  0.29550376207E+03 -0.10416563314E+04  0.14150198193E+04  0.88639935911E+03 0.  0.
        -24    2    4    4    0    0 -0.19531666585E+03 -0.73417164594E+02  0.13029851556E+02  0.22368940236E+03  0.79551817597E+02 0.  0.
         24    2    4    4    0    0  0.40557098627E+03  0.36892092666E+03 -0.10546861829E+04  0.11913304170E+04  0.79465357034E+02 0.  0.
         13    1    3    3    0    0 -0.18929565823E+03 -0.29792180910E+03 -0.36225117756E+03  0.50578272628E+03  0.00000000000E+00 0. -1.
        -13    1    3    3    0    0 -0.20958662188E+02  0.24180470319E+01 -0.23219694087E+02  0.31373024490E+02  0.00000000000E+00 0.  1.
          2    1    6    6  502    0  0.10341994647E+03  0.14275602140E+03 -0.35391625238E+03  0.39538801281E+03  0.00000000000E+00 0. -1.
          1    1    5    5  503    0 -0.41065777284E+02 -0.34366691246E+02  0.33646673013E+02  0.63242123114E+02  0.00000000000E+00 0. -1.
         -2    1    5    5    0  503 -0.15425088856E+03 -0.39050473349E+02 -0.20616821457E+02  0.16044727925E+03  0.00000000000E+00 0.  1.
         -1    1    6    6    0  502  0.30215103980E+03  0.22616490527E+03 -0.70076993053E+03  0.79594240418E+03  0.00000000000E+00 0.  1.
<mgrwt>
<rscale>  0 0.13320276E+04</rscale>
<asrwt>0</asrwt>
<pdfrwt beam="1">  1        1 0.40388337E-01 0.13320276E+04</pdfrwt>
<pdfrwt beam="2">  1       -1 0.25994636E+00 0.13320276E+04</pdfrwt>
<totfact> 0.61530374E+00</totfact>
</mgrwt>
</event>
<event>
12    1  0.1506149E-007  0.1585501E+04  0.7818608E-02  0.8829505E-01
          1   -1    0    0  501    0  0.00000000000E+00  0.00000000000E+00  0.56981275100E+03  0.56981275100E+03  0.00000000000E+00 0. -1.
         -1   -1    0    0    0  501 -0.00000000000E+00 -0.00000000000E+00 -0.11029117385E+04  0.11029117385E+04  0.00000000000E+00 0.  1.
         23    2    1    2    0    0 -0.21087357439E+03 -0.20170158899E+03  0.24690841924E+03  0.39281387923E+03  0.90486357216E+02 0.  0.
        254    2    1    2    0    0  0.21087357439E+03  0.20170158899E+03 -0.78000740672E+03  0.12799106102E+04  0.97190967703E+03 0.  0.
        -24    2    4    4    0    0  0.37195934055E+03  0.92417267108E+02  0.75690647151E+02  0.39870341553E+03  0.79628118206E+02 0.  0.
         24    2    4    4    0    0 -0.16108576616E+03  0.10928432188E+03 -0.85569805387E+03  0.88120719472E+03  0.80095402793E+02 0.  0.
         11    1    3    3    0    0 -0.16333228245E+03 -0.14226366055E+03  0.12789043038E+03  0.25153994869E+03  0.00000000000E+00 0. -1.
        -11    1    3    3    0    0 -0.47541291938E+02 -0.59437928443E+02  0.11901798886E+03  0.14127393054E+03  0.00000000000E+00 0.  1.
          2    1    6    6  502    0 -0.93745345964E+02  0.24704925388E+02 -0.50505825889E+03  0.51427849275E+03  0.00000000000E+00 0. -1.
          3    1    5    5  503    0  0.26265766750E+03  0.79024413695E+02  0.87612717249E+02  0.28794078641E+03  0.00000000000E+00 0. -1.
         -4    1    5    5    0  503  0.10930167305E+03  0.13392853413E+02 -0.11922070098E+02  0.11076262912E+03  0.00000000000E+00 0.  1.
         -1    1    6    6    0  502 -0.67340420195E+02  0.84579396493E+02 -0.35063979498E+03  0.36692870197E+03  0.00000000000E+00 0.  1.
<mgrwt>
<rscale>  0 0.15855008E+04</rscale>
<asrwt>0</asrwt>
<pdfrwt beam="1">  1        1 0.87663501E-01 0.15855008E+04</pdfrwt>
<pdfrwt beam="2">  1       -1 0.16967873E+00 0.15855008E+04</pdfrwt>
<totfact> 0.87666293E+00</totfact>
</mgrwt>
</event>
<event>
12    1  0.1506149E-007  0.1504824E+04  0.7818608E-02  0.8881252E-01
          2   -1    0    0  501    0  0.00000000000E+00  0.00000000000E+00  0.82561392465E+03  0.82561392465E+03  0.00000000000E+00 0. -1.
         -2   -1    0    0    0  501 -0.00000000000E+00 -0.00000000000E+00 -0.68570018940E+03  0.68570018940E+03  0.00000000000E+00 0.  1.
         23    2    1    2    0    0 -0.23509354256E+03 -0.21206968197E+03 -0.31291598242E+03  0.45412549181E+03  0.89838891851E+02 0.  0.
        254    2    1    2    0    0  0.23509354256E+03  0.21206968197E+03  0.45282971768E+03  0.10571886222E+04  0.90130489071E+03 0.  0.
        -24    2    4    4    0    0  0.27633955531E+03 -0.22919740168E+03  0.48236997860E+03  0.60594433181E+03  0.74784612238E+02 0.  0.
         24    2    4    4    0    0 -0.41246012750E+02  0.44126708365E+03 -0.29540260926E+02  0.45124429043E+03  0.79567015485E+02 0.  0.
         11    1    3    3    0    0 -0.28438699908E+02 -0.37904521575E+02 -0.97910229456E+02  0.10877465440E+03  0.00000000000E+00 0. -1.
        -11    1    3    3    0    0 -0.20665484266E+03 -0.17416516039E+03 -0.21500575297E+03  0.34535083741E+03  0.00000000000E+00 0.  1.
          2    1    6    6  502    0  0.10946529317E+02  0.11375211020E+03 -0.35111445051E+02  0.11954991699E+03  0.00000000000E+00 0. -1.
          3    1    5    5  503    0  0.65962370147E+02 -0.75865678460E+02  0.18636638857E+03  0.21175237008E+03  0.00000000000E+00 0. -1.
         -4    1    5    5    0  503  0.21037718517E+03 -0.15333172322E+03  0.29600359003E+03  0.39419196173E+03  0.00000000000E+00 0.  1.
         -3    1    6    6    0  502 -0.52192542066E+02  0.32751497345E+03  0.55711841253E+01  0.33169437344E+03  0.00000000000E+00 0.  1.
<mgrwt>
<rscale>  0 0.15048237E+04</rscale>
<asrwt>0</asrwt>
<pdfrwt beam="1">  1        2 0.12701753E+00 0.15048237E+04</pdfrwt>
<pdfrwt beam="2">  1       -2 0.10549234E+00 0.15048237E+04</pdfrwt>
<totfact> 0.23184734E+01</totfact>
</mgrwt>
</event>
<event>
12    1  0.1506149E-007  0.1531279E+04  0.7818608E-02  0.8863915E-01
          2   -1    0    0  501    0  0.00000000000E+00  0.00000000000E+00  0.25971280147E+04  0.25971280147E+04  0.00000000000E+00 0. -1.
         -2   -1    0    0    0  501 -0.00000000000E+00 -0.00000000000E+00 -0.22571220323E+03  0.22571220323E+03  0.00000000000E+00 0.  1.
         23    2    1    2    0    0 -0.34459546728E+03  0.35120268045E+03  0.63809009031E+03  0.81098668637E+03  0.91929773729E+02 0.  0.
        254    2    1    2    0    0  0.34459546728E+03 -0.35120268045E+03  0.17333257211E+04  0.20118535315E+04  0.89501241216E+03 0.  0.
        -24    2    4    4    0    0  0.26577905993E+03 -0.22974301685E+03  0.10512545502E+03  0.37524641532E+03  0.79612489134E+02 0.  0.
         24    2    4    4    0    0  0.78816407349E+02 -0.12145966360E+03  0.16282002661E+04  0.16366071162E+04  0.80512547369E+02 0.  0.
         11    1    3    3    0    0 -0.80188409622E+02  0.12883748658E+03  0.23927194333E+03  0.28333785813E+03  0.00000000000E+00 0. -1.
        -11    1    3    3    0    0 -0.26440705766E+03  0.22236519388E+03  0.39881814698E+03  0.52764882825E+03  0.00000000000E+00 0.  1.
          4    1    6    6  502    0 -0.75125594239E+01 -0.58083673768E+02  0.56762703567E+03  0.57064052023E+03  0.00000000000E+00 0. -1.
          3    1    5    5  503    0  0.35343792748E+02 -0.23376911638E+02  0.41750177453E+02  0.59487317984E+02  0.00000000000E+00 0. -1.
         -4    1    5    5    0  503  0.23043526718E+03 -0.20636610521E+03  0.63375277569E+02  0.31575909734E+03  0.00000000000E+00 0.  1.
         -3    1    6    6    0  502  0.86328966773E+02 -0.63375989833E+02  0.10605732304E+04  0.10659665960E+04  0.00000000000E+00 0.  1.
<mgrwt>
<rscale>  0 0.15312785E+04</rscale>
<asrwt>0</asrwt>
<pdfrwt beam="1">  1        2 0.39955814E+00 0.15312785E+04</pdfrwt>
<pdfrwt beam="2">  1       -2 0.34724956E-01 0.15312785E+04</pdfrwt>
<totfact> 0.22977604E+01</totfact>
</mgrwt>
</event>
<event>
12    1  0.1506149E-007  0.1142845E+04  0.7818608E-02  0.9164410E-01
         -2   -1    0    0    0  501 -0.00000000000E+00  0.00000000000E+00  0.16041935389E+03  0.16041935389E+03  0.00000000000E+00 0.  1.
          2   -1    0    0  501    0  0.00000000000E+00 -0.00000000000E+00 -0.20354392518E+04  0.20354392518E+04  0.00000000000E+00 0. -1.
         23    2    1    2    0    0  0.17000723742E+03  0.66456391778E+02 -0.23701185154E+03  0.31478110769E+03  0.97947002041E+02 0.  0.
        254    2    1    2    0    0 -0.17000723742E+03 -0.66456391778E+02 -0.16380080464E+04  0.18810774980E+04  0.90667705425E+03 0.  0.
        -24    2    4    4    0    0  0.75214211038E+02 -0.24360198583E+03 -0.62804866577E+02  0.27475576981E+03  0.80914626235E+02 0.  0.
         24    2    4    4    0    0 -0.24522144846E+03  0.17714559405E+03 -0.15752031798E+04  0.16063217282E+04  0.86546614731E+02 0.  0.
         11    1    3    3    0    0  0.18051017949E+03  0.65443930401E+02 -0.20410680652E+03  0.28022566156E+03  0.00000000000E+00 0.  1.
        -11    1    3    3    0    0 -0.10502942073E+02  0.10124613777E+01 -0.32905045016E+02  0.34555446137E+02  0.00000000000E+00 0. -1.
          4    1    6    6  502    0 -0.66169889893E+02  0.49236978833E+02 -0.25793500651E+03  0.27080103765E+03  0.00000000000E+00 0. -1.
          1    1    5    5  503    0  0.87322922716E+01 -0.81241425487E+02 -0.56230316619E+02  0.99188056996E+02  0.00000000000E+00 0. -1.
         -2    1    5    5    0  503  0.66481918767E+02 -0.16236056034E+03 -0.65745499583E+01  0.17556771282E+03  0.00000000000E+00 0.  1.
         -1    1    6    6    0  502 -0.17905155856E+03  0.12790861521E+03 -0.13172681733E+04  0.13355206905E+04  0.00000000000E+00 0.  1.
<mgrwt>
<rscale>  0 0.11428453E+04</rscale>
<asrwt>0</asrwt>
<pdfrwt beam="1">  1        2 0.31314450E+00 0.11428453E+04</pdfrwt>
<pdfrwt beam="2">  1       -2 0.24679901E-01 0.11428453E+04</pdfrwt>
<totfact> 0.93041111E+01</totfact>
</mgrwt>
</event>
<event>
12    1  0.1506149E-007  0.1832748E+04  0.7818608E-02  0.8689076E-01
         -2   -1    0    0    0  501 -0.00000000000E+00  0.00000000000E+00  0.36957025926E+03  0.36957025926E+03  0.00000000000E+00 0.  1.
          2   -1    0    0  501    0  0.00000000000E+00 -0.00000000000E+00 -0.22722093221E+04  0.22722093221E+04  0.00000000000E+00 0. -1.
         23    2    1    2    0    0  0.66101905789E+03 -0.19529435436E+03 -0.69463308779E+03  0.98317718241E+03  0.95058748198E+02 0.  0.
        254    2    1    2    0    0 -0.66101905789E+03  0.19529435436E+03 -0.12080059751E+04  0.16586023990E+04  0.90365779049E+03 0.  0.
        -24    2    4    4    0    0 -0.26119950695E+03 -0.16814513201E+02  0.84702965759E+02  0.28664271306E+03  0.80508026026E+02 0.  0.
         24    2    4    4    0    0 -0.39981955094E+03  0.21210886756E+03 -0.12927089408E+04  0.13719596859E+04  0.79568392278E+02 0.  0.
         11    1    3    3    0    0  0.63504139571E+02 -0.68693992993E+01 -0.32698144050E+02  0.71757459638E+02  0.00000000000E+00 0.  1.
        -11    1    3    3    0    0  0.59751491832E+03 -0.18842495506E+03 -0.66193494374E+03  0.91141972277E+03  0.00000000000E+00 0. -1.
          4    1    6    6  502    0 -0.26025139928E+03  0.13967826403E+03 -0.95090056123E+03  0.99571717150E+03  0.00000000000E+00 0. -1.
          1    1    5    5  503    0 -0.15192859167E+03 -0.47883127819E+02  0.61120570805E+02  0.17061891768E+03  0.00000000000E+00 0. -1.
         -2    1    5    5    0  503 -0.10927091528E+03  0.31068614618E+02  0.23582394954E+02  0.11602379537E+03  0.00000000000E+00 0.  1.
         -3    1    6    6    0  502 -0.13956815166E+03  0.72430603536E+02 -0.34180837959E+03  0.37624251440E+03  0.00000000000E+00 0.  1.
<mgrwt>
<rscale>  0 0.18327477E+04</rscale>
<asrwt>0</asrwt>
<pdfrwt beam="1">  1        2 0.34957066E+00 0.18327477E+04</pdfrwt>
<pdfrwt beam="2">  1       -2 0.56856964E-01 0.18327477E+04</pdfrwt>
<totfact> 0.12844920E+01</totfact>
</mgrwt>
</event>
<event>
12    1  0.1506149E-007  0.1886383E+04  0.7818608E-02  0.8661664E-01
         -1   -1    0    0    0  501 -0.00000000000E+00  0.00000000000E+00  0.32576125981E+03  0.32576125981E+03  0.00000000000E+00 0.  1.
          1   -1    0    0  501    0  0.00000000000E+00 -0.00000000000E+00 -0.27308653148E+04  0.27308653148E+04  0.00000000000E+00 0. -1.
         23    2    1    2    0    0 -0.15170508492E+03  0.15954166251E+03 -0.20545341091E+04  0.20679688626E+04  0.83167520675E+02 0.  0.
        254    2    1    2    0    0  0.15170508492E+03 -0.15954166251E+03 -0.35056994590E+03  0.98865771199E+03  0.89781780426E+03 0.  0.
        -24    2    4    4    0    0 -0.14307599390E+03  0.25300944775E+03 -0.36725162472E+03  0.47514584438E+03  0.80033098678E+02 0.  0.
         24    2    4    4    0    0  0.29478107882E+03 -0.41255111026E+03  0.16681678826E+02  0.51351186761E+03  0.79510104773E+02 0.  0.
         11    1    3    3    0    0 -0.71574801549E+02  0.48233541223E+02 -0.11332404473E+04  0.11365224758E+04  0.00000000000E+00 0. -1.
        -11    1    3    3    0    0 -0.80130283369E+02  0.11130812129E+03 -0.92129366183E+03  0.93144638682E+03  0.00000000000E+00 0.  1.
          2    1    6    6  502    0  0.15980610038E+03 -0.20905536350E+03 -0.30186346361E+02  0.26486477726E+03  0.00000000000E+00 0. -1.
          1    1    5    5  503    0 -0.84702251626E+01 -0.44563849652E+01 -0.50512437377E+01  0.10822159884E+02  0.00000000000E+00 0. -1.
         -2    1    5    5    0  503 -0.13460576874E+03  0.25746583272E+03 -0.36220038099E+03  0.46432368449E+03  0.00000000000E+00 0.  1.
         -1    1    6    6    0  502  0.13497497844E+03 -0.20349574676E+03  0.46868025187E+02  0.24864709035E+03  0.00000000000E+00 0.  1.
<mgrwt>
<rscale>  0 0.18863829E+04</rscale>
<asrwt>0</asrwt>
<pdfrwt beam="1">  1        1 0.42013310E+00 0.18863829E+04</pdfrwt>
<pdfrwt beam="2">  1       -1 0.50117119E-01 0.18863829E+04</pdfrwt>
<totfact> 0.34983916E+00</totfact>
</mgrwt>
</event>
<event>
12    1  0.1506149E-007  0.1574412E+04  0.7818608E-02  0.8836423E-01
          2   -1    0    0  501    0  0.00000000000E+00  0.00000000000E+00  0.96319745496E+03  0.96319745496E+03  0.00000000000E+00 0. -1.
         -2   -1    0    0    0  501 -0.00000000000E+00 -0.00000000000E+00 -0.64337133004E+03  0.64337133004E+03  0.00000000000E+00 0.  1.
         23    2    1    2    0    0  0.29685795026E+03 -0.27052236461E+03 -0.22247652897E+03  0.46795162032E+03  0.90420797592E+02 0.  0.
        254    2    1    2    0    0 -0.29685795026E+03  0.27052236461E+03  0.54230265389E+03  0.11386171647E+04  0.91708772039E+03 0.  0.
        -24    2    4    4    0    0 -0.35405210717E+03 -0.10425525430E+03 -0.98236822696E+02  0.38984387651E+03  0.78139120035E+02 0.  0.
         24    2    4    4    0    0  0.57194156906E+02  0.37477761890E+03  0.64053947658E+03  0.74877328816E+03  0.81493440136E+02 0.  0.
         11    1    3    3    0    0  0.23744121426E+03 -0.25833733185E+03 -0.19411055652E+03  0.40099303661E+03  0.00000000000E+00 0.  1.
        -11    1    3    3    0    0  0.59416736002E+02 -0.12185032759E+02 -0.28365972443E+02  0.66958583715E+02  0.00000000000E+00 0. -1.
          2    1    6    6  502    0  0.78159101392E+02  0.29869910669E+03  0.51711699704E+03  0.60227899689E+03  0.00000000000E+00 0. -1.
          3    1    5    5  503    0 -0.22309565899E+03 -0.92132453153E+02 -0.34935632037E+02  0.24388636774E+03  0.00000000000E+00 0. -1.
         -4    1    5    5    0  503 -0.13095644818E+03 -0.12122801144E+02 -0.63301190659E+02  0.14595750877E+03  0.00000000000E+00 0.  1.
         -1    1    6    6    0  502 -0.20964944486E+02  0.76078512211E+02  0.12342247954E+03  0.14649429127E+03  0.00000000000E+00 0.  1.
<mgrwt>
<rscale>  0 0.15744124E+04</rscale>
<asrwt>0</asrwt>
<pdfrwt beam="1">  1        2 0.14818422E+00 0.15744124E+04</pdfrwt>
<pdfrwt beam="2">  1       -2 0.98980205E-01 0.15744124E+04</pdfrwt>
<totfact> 0.21643880E+01</totfact>
</mgrwt>
</event>
<event>
12    1  0.1506149E-007  0.1506379E+04  0.7818608E-02  0.8880222E-01
          2   -1    0    0  501    0  0.00000000000E+00  0.00000000000E+00  0.76040904540E+03  0.76040904540E+03  0.00000000000E+00 0. -1.
         -2   -1    0    0    0  501 -0.00000000000E+00 -0.00000000000E+00 -0.74603870972E+03  0.74603870972E+03  0.00000000000E+00 0.  1.
         23    2    1    2    0    0 -0.39748930130E+03 -0.17591517351E+03 -0.19150998830E+03  0.48331066020E+03  0.89270519899E+02 0.  0.
        254    2    1    2    0    0  0.39748930130E+03  0.17591517351E+03  0.20588032398E+03  0.10231370949E+04  0.90303871139E+03 0.  0.
        -24    2    4    4    0    0  0.33612397617E+03 -0.22764244304E+03 -0.18364550371E+03  0.45333838047E+03  0.83603869226E+02 0.  0.
         24    2    4    4    0    0  0.61365325126E+02  0.40355761655E+03  0.38952582769E+03  0.56979871444E+03  0.79471702761E+02 0.  0.
         11    1    3    3    0    0 -0.24844285058E+03 -0.14318316813E+03 -0.92053840151E+02  0.30116304410E+03  0.00000000000E+00 0.  1.
        -11    1    3    3    0    0 -0.14904645071E+03 -0.32732005381E+02 -0.99456148150E+02  0.18214761610E+03  0.00000000000E+00 0. -1.
          4    1    6    6  502    0 -0.15559260222E+02  0.31440474638E+02  0.23696609090E+02  0.42333477373E+02  0.00000000000E+00 0. -1.
          3    1    5    5  503    0  0.32642231029E+02 -0.56149950494E+02 -0.40271281882E+02  0.76420601486E+02  0.00000000000E+00 0. -1.
         -4    1    5    5    0  503  0.30348174514E+03 -0.17149249254E+03 -0.14337422183E+03  0.37691777899E+03  0.00000000000E+00 0.  1.
         -3    1    6    6    0  502  0.76924585348E+02  0.37211714191E+03  0.36582921860E+03  0.52746523707E+03  0.00000000000E+00 0.  1.
<mgrwt>
<rscale>  0 0.15063792E+04</rscale>
<asrwt>0</asrwt>
<pdfrwt beam="1">  1        2 0.11698601E+00 0.15063792E+04</pdfrwt>
<pdfrwt beam="2">  1       -2 0.11477519E+00 0.15063792E+04</pdfrwt>
<totfact> 0.21074558E+01</totfact>
</mgrwt>
</event>
<event>
12    1  0.1506149E-007  0.1257432E+04  0.7818608E-02  0.9064020E-01
          2   -1    0    0  501    0  0.00000000000E+00  0.00000000000E+00  0.45042539834E+03  0.45042539834E+03  0.00000000000E+00 0. -1.
         -2   -1    0    0    0  501 -0.00000000000E+00 -0.00000000000E+00 -0.87757864723E+03  0.87757864723E+03  0.00000000000E+00 0.  1.
         23    2    1    2    0    0  0.15256979930E+03  0.14696379921E+02  0.15071314929E+03  0.23378209797E+03  0.91902604540E+02 0.  0.
        254    2    1    2    0    0 -0.15256979930E+03 -0.14696379921E+02 -0.57786639818E+03  0.10942219476E+04  0.91645980230E+03 0.  0.
        -24    2    4    4    0    0 -0.34578007763E+02  0.44042365723E+03 -0.23226087742E+03  0.50530320631E+03  0.78851624344E+02 0.  0.
         24    2    4    4    0    0 -0.11799179154E+03 -0.45512003715E+03 -0.34560552076E+03  0.58891874129E+03  0.79534877737E+02 0.  0.
         13    1    3    3    0    0  0.22544341878E+01  0.23078624000E+02  0.42372536330E+02  0.48302558879E+02  0.00000000000E+00 0.  1.
        -13    1    3    3    0    0  0.15031536512E+03 -0.83822440796E+01  0.10834061296E+03  0.18547953909E+03  0.00000000000E+00 0. -1.
          2    1    6    6  502    0 -0.12061451809E+03 -0.42197246028E+03 -0.29660342928E+03  0.52970011655E+03  0.00000000000E+00 0. -1.
          1    1    5    5  503    0  0.22426460779E+02  0.19849266587E+03 -0.92280686159E+02  0.22004092707E+03  0.00000000000E+00 0. -1.
         -2    1    5    5    0  503 -0.57004468543E+02  0.24193099136E+03 -0.13998019126E+03  0.28526227924E+03  0.00000000000E+00 0.  1.
         -1    1    6    6    0  502  0.26227265502E+01 -0.33147576869E+02 -0.49002091484E+02  0.59218624745E+02  0.00000000000E+00 0.  1.
<mgrwt>
<rscale>  0 0.12574318E+04</rscale>
<asrwt>0</asrwt>
<pdfrwt beam="1">  1        2 0.69296215E-01 0.12574318E+04</pdfrwt>
<pdfrwt beam="2">  1       -2 0.13501210E+00 0.12574318E+04</pdfrwt>
<totfact> 0.26917083E+01</totfact>
</mgrwt>
</event>
<event>
12    1  0.1506149E-007  0.2009769E+04  0.7818608E-02  0.8602067E-01
         -2   -1    0    0    0  501 -0.00000000000E+00  0.00000000000E+00  0.83597337693E+03  0.83597337693E+03  0.00000000000E+00 0. -1.
          2   -1    0    0  501    0  0.00000000000E+00 -0.00000000000E+00 -0.12079242157E+04  0.12079242157E+04  0.00000000000E+00 0.  1.
         23    2    1    2    0    0 -0.60474219581E+03 -0.39662125615E+03 -0.49491256465E+03  0.88109246150E+03  0.91454550660E+02 0.  0.
        254    2    1    2    0    0  0.60474219581E+03  0.39662125615E+03  0.12296172583E+03  0.11628051312E+04  0.90220543273E+03 0.  0.
        -24    2    4    4    0    0  0.64257447144E+03 -0.89918500225E+02  0.14016952177E+03  0.66789916153E+03  0.73854634993E+02 0.  0.
         24    2    4    4    0    0 -0.37832275631E+02  0.48653975637E+03 -0.17207795940E+02  0.49490596965E+03  0.80520773348E+02 0.  0.
         13    1    3    3    0    0 -0.37240991224E+03 -0.24368072655E+03 -0.35746336171E+03  0.57083228202E+03  0.00000000000E+00 0.  1.
        -13    1    3    3    0    0 -0.23233228357E+03 -0.15294052960E+03 -0.13744920294E+03  0.31026017948E+03  0.00000000000E+00 0. -1.
          2    1    6    6  502    0 -0.35565561205E+02  0.48944768278E+03 -0.15905924302E+02  0.49099586734E+03  0.00000000000E+00 0. -1.
          1    1    5    5  503    0  0.50161132705E+03 -0.39580087183E+02  0.11447734146E+03  0.51602865079E+03  0.00000000000E+00 0. -1.
         -2    1    5    5    0  503  0.14096314439E+03 -0.50338413042E+02  0.25692180307E+02  0.15187051074E+03  0.00000000000E+00 0.  1.
         -1    1    6    6    0  502 -0.22667144260E+01 -0.29079264049E+01 -0.13018716374E+01  0.39101023038E+01  0.00000000000E+00 0.  1.
<mgrwt>
<rscale>  0 0.20097686E+04</rscale>
<asrwt>0</asrwt>
<pdfrwt beam="1">  1        2 0.18583449E+00 0.20097686E+04</pdfrwt>
<pdfrwt beam="2">  1       -2 0.12861129E+00 0.20097686E+04</pdfrwt>
<totfact> 0.77629004E+00</totfact>
</mgrwt>
</event>
<event>
12    1  0.1506149E-007  0.1611221E+04  0.7818608E-02  0.8813684E-01
          2   -1    0    0  501    0  0.00000000000E+00  0.00000000000E+00  0.22815264170E+04  0.22815264170E+04  0.00000000000E+00 0. -1.
         -2   -1    0    0    0  501 -0.00000000000E+00 -0.00000000000E+00 -0.28446218391E+03  0.28446218391E+03  0.00000000000E+00 0.  1.
         23    2    1    2    0    0 -0.37162941709E+03  0.36140189112E+03  0.96760371627E+03  0.11014836733E+04  0.91047132114E+02 0.  0.
        254    2    1    2    0    0  0.37162941709E+03 -0.36140189112E+03  0.10294605169E+04  0.14645049277E+04  0.90347439187E+03 0.  0.
        -24    2    4    4    0    0  0.12845476791E+03 -0.16102578386E+03  0.11082020791E+04  0.11300633369E+04  0.80631054538E+02 0.  0.
         24    2    4    4    0    0  0.24317464918E+03 -0.20037610727E+03 -0.78741562181E+02  0.33444159074E+03  0.79790034665E+02 0.  0.
         11    1    3    3    0    0 -0.12366696074E+03  0.17851275595E+03  0.36629353451E+03  0.42583010068E+03  0.00000000000E+00 0.  1.
        -11    1    3    3    0    0 -0.24796245635E+03  0.18288913517E+03  0.60131018176E+03  0.67565357263E+03  0.00000000000E+00 0. -1.
          2    1    6    6  502    0  0.18529402043E+03 -0.18439651165E+03 -0.44057095571E+02  0.26509804825E+03  0.00000000000E+00 0. -1.
          1    1    5    5  503    0  0.12813765356E+03 -0.10716839357E+03  0.81196862706E+03  0.82897368726E+03  0.00000000000E+00 0. -1.
         -2    1    5    5    0  503  0.31711435694E+00 -0.53857390284E+02  0.29623345199E+03  0.30108964965E+03  0.00000000000E+00 0.  1.
         -1    1    6    6    0  502  0.57880628755E+02 -0.15979595621E+02 -0.34684466610E+02  0.69343542492E+02  0.00000000000E+00 0.  1.
<mgrwt>
<rscale>  0 0.16112206E+04</rscale>
<asrwt>0</asrwt>
<pdfrwt beam="1">  1        2 0.35100405E+00 0.16112206E+04</pdfrwt>
<pdfrwt beam="2">  1       -2 0.43763414E-01 0.16112206E+04</pdfrwt>
<totfact> 0.22054990E+01</totfact>
</mgrwt>
</event>
<event>
12    1  0.1506149E-007  0.1438378E+04  0.7818608E-02  0.8926498E-01
         -1   -1    0    0    0  501 -0.00000000000E+00  0.00000000000E+00  0.52389733548E+03  0.52389733548E+03  0.00000000000E+00 0.  1.
          1   -1    0    0  501    0  0.00000000000E+00 -0.00000000000E+00 -0.98727839512E+03  0.98727839512E+03  0.00000000000E+00 0. -1.
         23    2    1    2    0    0  0.21237804834E+03  0.29791322330E+03 -0.37713911385E+03  0.53335465629E+03  0.91523516938E+02 0.  0.
        254    2    1    2    0    0 -0.21237804834E+03 -0.29791322330E+03 -0.86241945794E+02  0.97782107431E+03  0.90268469363E+03 0.  0.
        -24    2    4    4    0    0 -0.21459631562E+02 -0.61512361209E+02 -0.47046872642E+03  0.48118497008E+03  0.77161302006E+02 0.  0.
         24    2    4    4    0    0 -0.19091841678E+03 -0.23640086210E+03  0.38422678062E+03  0.49663610422E+03  0.81743449932E+02 0.  0.
         13    1    3    3    0    0  0.15264910466E+03  0.19028609794E+03 -0.30545181428E+03  0.39091093496E+03  0.00000000000E+00 0. -1.
        -13    1    3    3    0    0  0.59728943673E+02  0.10762712536E+03 -0.71687299572E+02  0.14244372133E+03  0.00000000000E+00 0.  1.
          4    1    6    6  502    0 -0.15983512102E+03 -0.22631136600E+03  0.31140642613E+03  0.41681898052E+03  0.00000000000E+00 0. -1.
          3    1    5    5  503    0 -0.49516745326E+02 -0.46701616017E+02 -0.35329587194E+03  0.35979288783E+03  0.00000000000E+00 0. -1.
         -4    1    5    5    0  503  0.28057113765E+02 -0.14810745192E+02 -0.11717285448E+03  0.12139208225E+03  0.00000000000E+00 0.  1.
         -3    1    6    6    0  502 -0.31083295758E+02 -0.10089496094E+02  0.72820354498E+02  0.79817123700E+02  0.00000000000E+00 0.  1.
<mgrwt>
<rscale>  0 0.14383776E+04</rscale>
<asrwt>0</asrwt>
<pdfrwt beam="1">  1        1 0.15188898E+00 0.14383776E+04</pdfrwt>
<pdfrwt beam="2">  1       -1 0.80599590E-01 0.14383776E+04</pdfrwt>
<totfact> 0.23112967E+01</totfact>
</mgrwt>
</event>
<event>
12    1  0.1506149E-007  0.1028600E+04  0.7818608E-02  0.9277721E-01
          1   -1    0    0  501    0  0.00000000000E+00  0.00000000000E+00  0.54628296130E+03  0.54628296130E+03  0.00000000000E+00 0. -1.
         -1   -1    0    0    0  501 -0.00000000000E+00 -0.00000000000E+00 -0.48418975604E+03  0.48418975604E+03  0.00000000000E+00 0.  1.
         23    2    1    2    0    0 -0.45443356647E+02  0.50682973824E+01  0.89312344154E+02  0.13770800332E+03  0.94318678203E+02 0.  0.
        254    2    1    2    0    0  0.45443356647E+02 -0.50682973824E+01 -0.27219138900E+02  0.89276471402E+03  0.89117740478E+03 0.  0.
        -24    2    4    4    0    0  0.49815553682E+02 -0.83578748758E+02 -0.44382002869E+03  0.46133693555E+03  0.79928428047E+02 0.  0.
         24    2    4    4    0    0 -0.43721970351E+01  0.78510451375E+02  0.41660088979E+03  0.43142777847E+03  0.79941350893E+02 0.  0.
         13    1    3    3    0    0 -0.18358742127E+02  0.19842454356E+02  0.10112194383E+03  0.10467289014E+03  0.00000000000E+00 0. -1.
        -13    1    3    3    0    0 -0.27084614520E+02 -0.14774156974E+02 -0.11809599675E+02  0.33035113174E+02  0.00000000000E+00 0.  1.
          4    1    6    6  502    0 -0.19997614866E+02  0.59701763226E+02  0.13717906705E+03  0.15093807197E+03  0.00000000000E+00 0. -1.
          1    1    5    5  503    0  0.59892248015E+02 -0.93624167930E+02 -0.37823197635E+03  0.39422327953E+03  0.00000000000E+00 0. -1.
         -2    1    5    5    0  503 -0.10076694333E+02  0.10045419172E+02 -0.65588052337E+02  0.67113656020E+02  0.00000000000E+00 0.  1.
         -1    1    6    6    0  502  0.15625417831E+02  0.18808688150E+02  0.27942182274E+03  0.28048970650E+03  0.00000000000E+00 0.  1.
<mgrwt>
<rscale>  0 0.10286002E+04</rscale>
<asrwt>0</asrwt>
<pdfrwt beam="1">  1        1 0.84043533E-01 0.10286002E+04</pdfrwt>
<pdfrwt beam="2">  1       -1 0.74490731E-01 0.10286002E+04</pdfrwt>
<totfact> 0.71132067E+01</totfact>
</mgrwt>
</event>
<event>
12    1  0.1506149E-007  0.1822107E+04  0.7818608E-02  0.8694631E-01
         -2   -1    0    0    0  501 -0.00000000000E+00  0.00000000000E+00  0.73348479205E+03  0.73348479205E+03  0.00000000000E+00 0.  1.
          2   -1    0    0  501    0  0.00000000000E+00 -0.00000000000E+00 -0.11316102087E+04  0.11316102087E+04  0.00000000000E+00 0. -1.
         23    2    1    2    0    0  0.50431538782E+03  0.26180986933E+02 -0.62089182702E+03  0.80568381123E+03  0.92737739597E+02 0.  0.
        254    2    1    2    0    0 -0.50431538782E+03 -0.26180986933E+02  0.22276641032E+03  0.10594111896E+04  0.90427193948E+03 0.  0.
        -24    2    4    4    0    0  0.13497524779E+03 -0.29771446254E+03  0.84696529737E+02  0.34672117397E+03  0.78675609991E+02 0.  0.
         24    2    4    4    0    0 -0.63929063561E+03  0.27153347561E+03  0.13806988058E+03  0.71269001559E+03  0.80254727276E+02 0.  0.
         13    1    3    3    0    0  0.14950930735E+02 -0.87359111130E+01 -0.45221539706E+01  0.17896825119E+02  0.00000000000E+00 0.  1.
        -13    1    3    3    0    0  0.48936445709E+03  0.34916898046E+02 -0.61636967305E+03  0.78778698611E+03  0.00000000000E+00 0. -1.
          2    1    6    6  502    0 -0.22005778509E+03  0.68724166168E+02  0.15189392488E+02  0.23103929847E+03  0.00000000000E+00 0. -1.
          3    1    5    5  503    0  0.66283469726E+02 -0.12609815674E+03 -0.21713177665E+01  0.14247441213E+03  0.00000000000E+00 0. -1.
         -2    1    5    5    0  503  0.68691778059E+02 -0.17161630581E+03  0.86867847504E+02  0.20424676184E+03  0.00000000000E+00 0.  1.
         -1    1    6    6    0  502 -0.41923285052E+03  0.20280930944E+03  0.12288048810E+03  0.48165071712E+03  0.00000000000E+00 0.  1.
<mgrwt>
<rscale>  0 0.18221074E+04</rscale>
<asrwt>0</asrwt>
<pdfrwt beam="1">  1        2 0.17409388E+00 0.18221074E+04</pdfrwt>
<pdfrwt beam="2">  1       -2 0.11284381E+00 0.18221074E+04</pdfrwt>
<totfact> 0.12125696E+01</totfact>
</mgrwt>
</event>
<event>
12    1  0.1506149E-007  0.2830997E+04  0.7818608E-02  0.8293709E-01
         -1   -1    0    0    0  501 -0.00000000000E+00  0.00000000000E+00  0.67188526201E+03  0.67188526201E+03  0.00000000000E+00 0.  1.
          1   -1    0    0  501    0  0.00000000000E+00 -0.00000000000E+00 -0.29821105273E+04  0.29821105273E+04  0.00000000000E+00 0. -1.
         23    2    1    2    0    0 -0.42809048680E+03  0.88176434399E+03 -0.20876447946E+04  0.23078907846E+04  0.85611109667E+02 0.  0.
        254    2    1    2    0    0  0.42809048680E+03 -0.88176434399E+03 -0.22258047071E+03  0.13461050047E+04  0.89536964129E+03 0.  0.
        -24    2    4    4    0    0  0.53278528087E+03 -0.75126336018E+03  0.14339253770E+03  0.93562125324E+03  0.81048860521E+02 0.  0.
         24    2    4    4    0    0 -0.10469479407E+03 -0.13050098381E+03 -0.36597300842E+03  0.41048375147E+03  0.81050358721E+02 0.  0.
         13    1    3    3    0    0 -0.33308550485E+03  0.60008971998E+03 -0.14835437828E+04  0.16346118136E+04  0.00000000000E+00 0. -1.
        -13    1    3    3    0    0 -0.95004981954E+02  0.28167462401E+03 -0.60410101179E+03  0.67327897104E+03  0.00000000000E+00 0.  1.
          2    1    6    6  502    0 -0.83381116297E+02 -0.39518465683E+02 -0.19104415045E+03  0.21216028636E+03  0.00000000000E+00 0. -1.
          3    1    5    5  503    0  0.31240695954E+03 -0.40838158408E+03  0.11606755341E+03  0.52711033337E+03  0.00000000000E+00 0. -1.
         -4    1    5    5    0  503  0.22037832133E+03 -0.34288177610E+03  0.27324984290E+02  0.40851091987E+03  0.00000000000E+00 0.  1.
         -1    1    6    6    0  502 -0.21313677772E+02 -0.90982518127E+02 -0.17492885796E+03  0.19832346511E+03  0.00000000000E+00 0.  1.
<mgrwt>
<rscale>  0 0.28309971E+04</rscale>
<asrwt>0</asrwt>
<pdfrwt beam="1">  1        1 0.45878622E+00 0.28309971E+04</pdfrwt>
<pdfrwt beam="2">  1       -1 0.10336697E+00 0.28309971E+04</pdfrwt>
<totfact> 0.46933077E-01</totfact>
</mgrwt>
</event>
<event>
12    1  0.1506149E-007  0.2926387E+04  0.7818608E-02  0.8265070E-01
          2   -1    0    0  501    0  0.00000000000E+00  0.00000000000E+00  0.90165107856E+03  0.90165107856E+03  0.00000000000E+00 0. -1.
         -2   -1    0    0    0  501 -0.00000000000E+00 -0.00000000000E+00 -0.23744608525E+04  0.23744608525E+04  0.00000000000E+00 0.  1.
         23    2    1    2    0    0  0.12986190875E+04 -0.18265307272E+02 -0.93814430308E+03  0.16048172054E+04  0.92619508979E+02 0.  0.
        254    2    1    2    0    0 -0.12986190875E+04  0.18265307272E+02 -0.53466547082E+03  0.16712947256E+04  0.90587733075E+03 0.  0.
        -24    2    4    4    0    0 -0.77621099875E+02 -0.29120140165E+03 -0.18134083472E+03  0.36067641765E+03  0.79872951858E+02 0.  0.
         24    2    4    4    0    0 -0.12209979876E+04  0.30946670893E+03 -0.35332463610E+03  0.13106183080E+04  0.79223235451E+02 0.  0.
         11    1    3    3    0    0  0.45475523662E+02 -0.15467429333E+02 -0.24135824590E+02  0.53756884686E+02  0.00000000000E+00 0. -1.
        -11    1    3    3    0    0  0.12531435638E+04 -0.27978779398E+01 -0.91400847849E+03  0.15510603207E+04  0.00000000000E+00 0.  1.
          2    1    6    6  502    0 -0.10489411067E+04  0.29374528019E+03 -0.30781973114E+03  0.11319526146E+04  0.00000000000E+00 0. -1.
          1    1    5    5  503    0 -0.90438064068E+02 -0.25711198090E+03 -0.14297814152E+03  0.30777973147E+03  0.00000000000E+00 0. -1.
         -2    1    5    5    0  503  0.12816964193E+02 -0.34089420758E+02 -0.38362693198E+02  0.52896686173E+02  0.00000000000E+00 0.  1.
         -1    1    6    6    0  502 -0.17205688096E+03  0.15721428731E+02 -0.45504904957E+02  0.17866569335E+03  0.00000000000E+00 0.  1.
<mgrwt>
<rscale>  0 0.29263870E+04</rscale>
<asrwt>0</asrwt>
<pdfrwt beam="1">  1        2 0.13871555E+00 0.29263870E+04</pdfrwt>
<pdfrwt beam="2">  1       -2 0.36530167E+00 0.29263870E+04</pdfrwt>
<totfact> 0.31327047E-01</totfact>
</mgrwt>
</event>
<event>
12    1  0.1506149E-007  0.1526667E+04  0.7818608E-02  0.8866911E-01
          1   -1    0    0  501    0  0.00000000000E+00  0.00000000000E+00  0.44790871323E+03  0.44790871323E+03  0.00000000000E+00 0. -1.
         -1   -1    0    0    0  501 -0.00000000000E+00 -0.00000000000E+00 -0.13008850806E+04  0.13008850806E+04  0.00000000000E+00 0.  1.
         23    2    1    2    0    0  0.81169824626E+02 -0.24288010943E+03  0.20375351768E+03  0.33892091893E+03  0.88162380467E+02 0.  0.
        254    2    1    2    0    0 -0.81169824626E+02  0.24288010943E+03 -0.10567298850E+04  0.14098728749E+04  0.89748770765E+03 0.  0.
        -24    2    4    4    0    0 -0.47123695587E+03  0.94356368249E+02 -0.41679181235E+03  0.64130629229E+03  0.81184683829E+02 0.  0.
         24    2    4    4    0    0  0.39006713124E+03  0.14852374119E+03 -0.63993807267E+03  0.76856658256E+03  0.83439717246E+02 0.  0.
         11    1    3    3    0    0  0.17690304654E+02 -0.21334817842E+01  0.31422519125E+02  0.36123030485E+02  0.00000000000E+00 0.  1.
        -11    1    3    3    0    0  0.63479519972E+02 -0.24074662765E+03  0.17233099856E+03  0.30279788844E+03  0.00000000000E+00 0. -1.
          2    1    6    6  502    0  0.36389156784E+03  0.14985967419E+03 -0.62447495884E+03  0.73813546812E+03  0.00000000000E+00 0. -1.
          3    1    5    5  503    0 -0.46475386824E+03  0.82320875553E+02 -0.39444441860E+03  0.61510916426E+03  0.00000000000E+00 0. -1.
         -4    1    5    5    0  503 -0.64830876269E+01  0.12035492696E+02 -0.22347393746E+02  0.26197128027E+02  0.00000000000E+00 0.  1.
         -1    1    6    6    0  502  0.26175563407E+02 -0.13359330067E+01 -0.15463113831E+02  0.30431114439E+02  0.00000000000E+00 0.  1.
<mgrwt>
<rscale>  0 0.15266666E+04</rscale>
<asrwt>0</asrwt>
<pdfrwt beam="1">  1        1 0.68909034E-01 0.15266666E+04</pdfrwt>
<pdfrwt beam="2">  1       -1 0.20013616E+00 0.15266666E+04</pdfrwt>
<totfact> 0.74684058E+00</totfact>
</mgrwt>
</event>
<event>
12    1  0.1506149E-007  0.2779432E+04  0.7818608E-02  0.8309683E-01
         -2   -1    0    0    0  501 -0.00000000000E+00  0.00000000000E+00  0.12772677275E+04  0.12772677275E+04  0.00000000000E+00 0.  1.
          2   -1    0    0  501    0  0.00000000000E+00 -0.00000000000E+00 -0.15120636356E+04  0.15120636356E+04  0.00000000000E+00 0. -1.
         23    2    1    2    0    0  0.67241722415E+02  0.79425738524E+03 -0.10583449598E+04  0.13280849003E+04  0.91373984947E+02 0.  0.
        254    2    1    2    0    0 -0.67241722415E+02 -0.79425738524E+03  0.82354905170E+03  0.14612464629E+04  0.90644467092E+03 0.  0.
        -24    2    4    4    0    0 -0.24120632762E+03  0.45339373609E+02 -0.15630906555E+02  0.25904233335E+03  0.81378461179E+02 0.  0.
         24    2    4    4    0    0  0.17396460520E+03 -0.83959675885E+03  0.83917995825E+03  0.12022041295E+04  0.76716134912E+02 0.  0.
         13    1    3    3    0    0  0.54105570517E+02  0.77049648357E+03 -0.10394402442E+04  0.12950012607E+04  0.00000000000E+00 0. -1.
        -13    1    3    3    0    0  0.13136151898E+02  0.23760901672E+02 -0.18904715618E+02  0.33083639576E+02  0.00000000000E+00 0.  1.
          2    1    6    6  502    0  0.15318863309E+03 -0.57999089508E+03  0.60448389187E+03  0.85162020362E+03  0.00000000000E+00 0. -1.
          1    1    5    5  503    0 -0.16821397558E+03  0.48144718448E+02  0.22893856482E+02  0.17645958222E+03  0.00000000000E+00 0. -1.
         -2    1    5    5    0  503 -0.72992352041E+02 -0.28053448382E+01 -0.38524763036E+02  0.82582751123E+02  0.00000000000E+00 0.  1.
         -1    1    6    6    0  502  0.20775972118E+02 -0.25960586377E+03  0.23469606639E+03  0.35058392590E+03  0.00000000000E+00 0.  1.
<mgrwt>
<rscale>  0 0.27794317E+04</rscale>
<asrwt>0</asrwt>
<pdfrwt beam="1">  1        2 0.23262517E+00 0.27794317E+04</pdfrwt>
<pdfrwt beam="2">  1       -2 0.19650273E+00 0.27794317E+04</pdfrwt>
<totfact> 0.15278686E+00</totfact>
</mgrwt>
</event>
<event>
12    1  0.1506149E-007  0.1675212E+04  0.7818608E-02  0.8775629E-01
          2   -1    0    0  501    0  0.00000000000E+00  0.00000000000E+00  0.21919659256E+04  0.21919659256E+04  0.00000000000E+00 0. -1.
         -2   -1    0    0    0  501 -0.00000000000E+00 -0.00000000000E+00 -0.32007068675E+03  0.32007068675E+03  0.00000000000E+00 0.  1.
         23    2    1    2    0    0 -0.52054435508E+02 -0.56990811314E+03  0.45464562539E+03  0.73601120106E+03  0.86630951308E+02 0.  0.
        254    2    1    2    0    0  0.52054435508E+02  0.56990811314E+03  0.14172496134E+04  0.17760254113E+04  0.90452466688E+03 0.  0.
        -24    2    4    4    0    0  0.34805856785E+03  0.65837809143E+03  0.99216289243E+03  0.12431716220E+04  0.80510859960E+02 0.  0.
         24    2    4    4    0    0 -0.29600413234E+03 -0.88469978299E+02  0.42508672101E+03  0.53285378931E+03  0.88255634287E+02 0.  0.
         11    1    3    3    0    0 -0.26923177678E+02 -0.24405415012E+03  0.24997118049E+03  0.35038960710E+03  0.00000000000E+00 0. -1.
        -11    1    3    3    0    0 -0.25131257830E+02 -0.32585396302E+03  0.20467444490E+03  0.38562159396E+03  0.00000000000E+00 0.  1.
          4    1    6    6  502    0 -0.97679394225E+02 -0.54246742545E+02  0.97024492921E+02  0.14797880037E+03  0.00000000000E+00 0. -1.
          3    1    5    5  503    0  0.89684429045E+02  0.22867456035E+03  0.28421643805E+03  0.37565188010E+03  0.00000000000E+00 0. -1.
         -4    1    5    5    0  503  0.25837413881E+03  0.42970353108E+03  0.70794645438E+03  0.86751974185E+03  0.00000000000E+00 0.  1.
         -3    1    6    6    0  502 -0.19832473812E+03 -0.34223235754E+02  0.32806222808E+03  0.38487498894E+03  0.00000000000E+00 0.  1.
<mgrwt>
<rscale>  0 0.16752123E+04</rscale>
<asrwt>0</asrwt>
<pdfrwt beam="1">  1        2 0.33722552E+00 0.16752123E+04</pdfrwt>
<pdfrwt beam="2">  1       -2 0.49241646E-01 0.16752123E+04</pdfrwt>
<totfact> 0.19432348E+01</totfact>
</mgrwt>
</event>
<event>
12    1  0.1506149E-007  0.1240704E+04  0.7818608E-02  0.9077956E-01
         -2   -1    0    0    0  501 -0.00000000000E+00  0.00000000000E+00  0.62854273487E+03  0.62854273487E+03  0.00000000000E+00 0.  1.
          2   -1    0    0  501    0  0.00000000000E+00 -0.00000000000E+00 -0.61226822023E+03  0.61226822023E+03  0.00000000000E+00 0. -1.
         23    2    1    2    0    0 -0.22102936341E+03  0.17385288933E+03  0.74593379366E+01  0.29567678325E+03  0.91051149430E+02 0.  0.
        254    2    1    2    0    0  0.22102936341E+03 -0.17385288933E+03  0.88151767071E+01  0.94513417185E+03  0.90228714324E+03 0.  0.
        -24    2    4    4    0    0  0.13184652356E+02 -0.21976704556E+03 -0.40802549548E+03  0.47057582818E+03  0.80532078912E+02 0.  0.
         24    2    4    4    0    0  0.20784471105E+03  0.45914156228E+02  0.41684067218E+03  0.47455834368E+03  0.78370542392E+02 0.  0.
         13    1    3    3    0    0 -0.19008731014E+03  0.12604678507E+03  0.37737273100E+02  0.23118191816E+03  0.00000000000E+00 0.  1.
        -13    1    3    3    0    0 -0.30942053264E+02  0.47806104259E+02 -0.30277935163E+02  0.64494865085E+02  0.00000000000E+00 0. -1.
          4    1    6    6  502    0  0.17958348809E+03  0.11316177851E+02  0.35803272466E+03  0.40070652228E+03  0.00000000000E+00 0. -1.
          1    1    5    5  503    0  0.38969235867E+02 -0.19189171131E+03 -0.35391667925E+03  0.40447255292E+03  0.00000000000E+00 0. -1.
         -2    1    5    5    0  503 -0.25784583511E+02 -0.27875334246E+02 -0.54108816222E+02  0.66103275253E+02  0.00000000000E+00 0.  1.
         -3    1    6    6    0  502  0.28261222962E+02  0.34597978377E+02  0.58807947524E+02  0.73851821393E+02  0.00000000000E+00 0.  1.
<mgrwt>
<rscale>  0 0.12407042E+04</rscale>
<asrwt>0</asrwt>
<pdfrwt beam="1">  1        2 0.94195110E-01 0.12407042E+04</pdfrwt>
<pdfrwt beam="2">  1       -2 0.96698883E-01 0.12407042E+04</pdfrwt>
<totfact> 0.42591104E+01</totfact>
</mgrwt>
</event>
<event>
12    1  0.1506149E-007  0.1852073E+04  0.7818608E-02  0.8679087E-01
          1   -1    0    0  501    0  0.00000000000E+00  0.00000000000E+00  0.18382346044E+04  0.18382346044E+04  0.00000000000E+00 0. -1.
         -1   -1    0    0    0  501 -0.00000000000E+00 -0.00000000000E+00 -0.46650396676E+03  0.46650396676E+03  0.00000000000E+00 0.  1.
         23    2    1    2    0    0 -0.46174457482E+03  0.15375369634E+03  0.11582872987E+04  0.12596997024E+04  0.91463776293E+02 0.  0.
        254    2    1    2    0    0  0.46174457482E+03 -0.15375369634E+03  0.21344333895E+03  0.10450388688E+04  0.89983327723E+03 0.  0.
        -24    2    4    4    0    0  0.62199357725E+03 -0.27537718926E+03 -0.69505244209E+02  0.68851247363E+03  0.80683584822E+02 0.  0.
         24    2    4    4    0    0 -0.16024900243E+03  0.12162349292E+03  0.28294858316E+03  0.35652639516E+03  0.81111977667E+02 0.  0.
         13    1    3    3    0    0 -0.37758562894E+02  0.24095884001E+02  0.18237187700E+03  0.18779196527E+03  0.00000000000E+00 0.  1.
        -13    1    3    3    0    0 -0.42398601193E+03  0.12965781234E+03  0.97591542171E+03  0.10719077371E+04  0.00000000000E+00 0. -1.
          4    1    6    6  502    0 -0.13121766134E+03  0.70789713719E+02  0.15114004611E+03  0.21230301871E+03  0.00000000000E+00 0. -1.
          1    1    5    5  503    0  0.57636406968E+03 -0.25962920702E+03 -0.43386602639E+02  0.63362864775E+03  0.00000000000E+00 0. -1.
         -2    1    5    5    0  503  0.45629507567E+02 -0.15747982248E+02 -0.26118641570E+02  0.54883825879E+02  0.00000000000E+00 0.  1.
         -3    1    6    6    0  502 -0.29031341087E+02  0.50833779201E+02  0.13180853705E+03  0.14422337645E+03  0.00000000000E+00 0.  1.
<mgrwt>
<rscale>  0 0.18520731E+04</rscale>
<asrwt>0</asrwt>
<pdfrwt beam="1">  1        1 0.28280532E+00 0.18520731E+04</pdfrwt>
<pdfrwt beam="2">  1       -1 0.71769842E-01 0.18520731E+04</pdfrwt>
<totfact> 0.70638154E+00</totfact>
</mgrwt>
</event>
<event>
12    1  0.1506149E-007  0.2500812E+04  0.7818608E-02  0.8402696E-01
         -1   -1    0    0    0  501 -0.00000000000E+00  0.00000000000E+00  0.17795549693E+04  0.17795549693E+04  0.00000000000E+00 0.  1.
          1   -1    0    0  501    0  0.00000000000E+00 -0.00000000000E+00 -0.87859892440E+03  0.87859892440E+03  0.00000000000E+00 0. -1.
         23    2    1    2    0    0  0.78357640530E+03 -0.72607047396E+03  0.59148373812E+03  0.12241257788E+04  0.86374728563E+02 0.  0.
        254    2    1    2    0    0 -0.78357640530E+03  0.72607047396E+03  0.30947230675E+03  0.14340281149E+04  0.90525864233E+03 0.  0.
        -24    2    4    4    0    0  0.68222543819E+02  0.37443069168E+03  0.32855448300E+03  0.50897725526E+03  0.79102084167E+02 0.  0.
         24    2    4    4    0    0 -0.85179894912E+03  0.35163978229E+03 -0.19082176256E+02  0.92505085961E+03  0.78377147260E+02 0.  0.
         13    1    3    3    0    0  0.65919505423E+03 -0.57506198081E+03  0.45935912658E+03  0.98805121753E+03  0.00000000000E+00 0. -1.
        -13    1    3    3    0    0  0.12438135107E+03 -0.15100849316E+03  0.13212461154E+03  0.23607456126E+03  0.00000000000E+00 0.  1.
          4    1    6    6  502    0 -0.42743586671E+01  0.88897926859E+01 -0.42032550975E+01  0.10722215696E+02  0.00000000000E+00 0. -1.
          3    1    5    5  503    0  0.21477580115E+02  0.10664165327E+03  0.14374196037E+03  0.18026502664E+03  0.00000000000E+00 0. -1.
         -4    1    5    5    0  503  0.46744963705E+02  0.26778903841E+03  0.18481252264E+03  0.32871222863E+03  0.00000000000E+00 0.  1.
         -3    1    6    6    0  502 -0.84752459045E+03  0.34274998960E+03 -0.14878921159E+02  0.91432864392E+03  0.00000000000E+00 0.  1.
<mgrwt>
<rscale>  0 0.25008119E+04</rscale>
<asrwt>0</asrwt>
<pdfrwt beam="1">  1        1 0.13516907E+00 0.25008119E+04</pdfrwt>
<pdfrwt beam="2">  1       -1 0.27377769E+00 0.25008119E+04</pdfrwt>
<totfact> 0.82220526E-01</totfact>
</mgrwt>
</event>
<event>
12    1  0.1506149E-007  0.1730227E+04  0.7818608E-02  0.8744310E-01
         -2   -1    0    0    0  501 -0.00000000000E+00  0.00000000000E+00  0.35292758672E+03  0.35292758672E+03  0.00000000000E+00 0.  1.
          2   -1    0    0  501    0  0.00000000000E+00 -0.00000000000E+00 -0.21206097305E+04  0.21206097305E+04  0.00000000000E+00 0. -1.
         23    2    1    2    0    0  0.62845624411E+02  0.13110056210E+03  0.22456803807E+03  0.28285906402E+03  0.91877725714E+02 0.  0.
        254    2    1    2    0    0 -0.62845624411E+02 -0.13110056210E+03 -0.19922501818E+04  0.21906782532E+04  0.89937394453E+03 0.  0.
        -24    2    4    4    0    0 -0.38824058672E+01  0.90000306599E+02 -0.19364187069E+04  0.19402171189E+04  0.81301485964E+02 0.  0.
         24    2    4    4    0    0 -0.58963218544E+02 -0.22110086870E+03 -0.55831474903E+02  0.25046113430E+03  0.85154981808E+02 0.  0.
         13    1    3    3    0    0  0.39922564070E+02  0.98441464089E+02  0.80269516930E+02  0.13314551559E+03  0.00000000000E+00 0.  1.
        -13    1    3    3    0    0  0.22923060341E+02  0.32659098010E+02  0.14429852114E+03  0.14971354843E+03  0.00000000000E+00 0. -1.
          2    1    6    6  502    0  0.13294803796E+02 -0.57277217464E+01 -0.12645092618E+02  0.19221263530E+02  0.00000000000E+00 0. -1.
          3    1    5    5  503    0 -0.58878199691E+01  0.19946362195E+02 -0.86264921818E+02  0.88736466715E+02  0.00000000000E+00 0. -1.
         -4    1    5    5    0  503  0.20054141020E+01  0.70053944404E+02 -0.18501537851E+04  0.18514806522E+04  0.00000000000E+00 0.  1.
         -1    1    6    6    0  502 -0.72258022340E+02 -0.21537314695E+03 -0.43186382284E+02  0.23123987077E+03  0.00000000000E+00 0.  1.
<mgrwt>
<rscale>  0 0.17302274E+04</rscale>
<asrwt>0</asrwt>
<pdfrwt beam="1">  1        2 0.32624765E+00 0.17302274E+04</pdfrwt>
<pdfrwt beam="2">  1       -2 0.54296551E-01 0.17302274E+04</pdfrwt>
<totfact> 0.17349958E+01</totfact>
</mgrwt>
</event>
<event>
12    1  0.1506149E-007  0.1801649E+04  0.7818608E-02  0.8705423E-01
          2   -1    0    0  501    0  0.00000000000E+00  0.00000000000E+00  0.47730733107E+03  0.47730733107E+03  0.00000000000E+00 0. -1.
         -2   -1    0    0    0  501 -0.00000000000E+00 -0.00000000000E+00 -0.17001304998E+04  0.17001304998E+04  0.00000000000E+00 0.  1.
         23    2    1    2    0    0  0.29787155739E+03  0.12649593386E+03 -0.11703187862E+04  0.12177785941E+04  0.92789853419E+02 0.  0.
        254    2    1    2    0    0 -0.29787155739E+03 -0.12649593386E+03 -0.52504382550E+02  0.95965923681E+03  0.90192042588E+03 0.  0.
        -24    2    4    4    0    0 -0.46709442921E+03 -0.17597912956E+03 -0.34323947638E+03  0.61036176022E+03  0.74714659561E+02 0.  0.
         24    2    4    4    0    0  0.16922287182E+03  0.49483195701E+02  0.29073509383E+03  0.34929747658E+03  0.79980406094E+02 0.  0.
         11    1    3    3    0    0  0.30143227528E+03  0.13049404402E+03 -0.11198866724E+04  0.11670630964E+04  0.00000000000E+00 0.  1.
        -11    1    3    3    0    0 -0.35607178926E+01 -0.39981101615E+01 -0.50432113817E+02  0.50715497639E+02  0.00000000000E+00 0. -1.
          4    1    6    6  502    0  0.17446415834E+03  0.52838776183E+02  0.25755058258E+03  0.31553443774E+03  0.00000000000E+00 0. -1.
          3    1    5    5  503    0 -0.43344329130E+03 -0.16465049099E+03 -0.33948083896E+03  0.57465651565E+03  0.00000000000E+00 0. -1.
         -2    1    5    5    0  503 -0.33651137918E+02 -0.11328638568E+02 -0.37586374182E+01  0.35705244575E+02  0.00000000000E+00 0.  1.
         -3    1    6    6    0  502 -0.52412865210E+01 -0.33555804827E+01  0.33184511253E+02  0.33763038843E+02  0.00000000000E+00 0.  1.
<mgrwt>
<rscale>  0 0.18016490E+04</rscale>
<asrwt>0</asrwt>
<pdfrwt beam="1">  1        2 0.73431897E-01 0.18016490E+04</pdfrwt>
<pdfrwt beam="2">  1       -2 0.26155854E+00 0.18016490E+04</pdfrwt>
<totfact> 0.33492716E+00</totfact>
</mgrwt>
</event>
<event>
12    1  0.1506149E-007  0.1561358E+04  0.7818608E-02  0.8844645E-01
         -2   -1    0    0    0  501 -0.00000000000E+00  0.00000000000E+00  0.18021556365E+04  0.18021556365E+04  0.00000000000E+00 0.  1.
          2   -1    0    0  501    0  0.00000000000E+00 -0.00000000000E+00 -0.33818373938E+03  0.33818373938E+03  0.00000000000E+00 0. -1.
         23    2    1    2    0    0  0.18272478364E+03 -0.23393711925E+03 -0.87654441278E+02  0.32225472313E+03  0.89721141219E+02 0.  0.
        254    2    1    2    0    0 -0.18272478364E+03  0.23393711925E+03  0.15516263384E+04  0.18180846528E+04  0.89987365128E+03 0.  0.
        -24    2    4    4    0    0  0.13603347381E+03  0.30807656190E+03  0.14115298546E+04  0.14534235861E+04  0.81285400275E+02 0.  0.
         24    2    4    4    0    0 -0.31875825745E+03 -0.74139442645E+02  0.14009648384E+03  0.36466106667E+03  0.79039136573E+02 0.  0.
         13    1    3    3    0    0  0.10360866998E+03 -0.84626575221E+02 -0.73619407504E+02  0.15269653202E+03  0.00000000000E+00 0. -1.
        -13    1    3    3    0    0  0.79116113660E+02 -0.14931054403E+03 -0.14035033775E+02  0.16955819111E+03  0.00000000000E+00 0.  1.
          4    1    6    6  502    0 -0.84139242457E+01  0.99895369517E+01  0.14346570863E+02  0.19401264527E+02  0.00000000000E+00 0. -1.
          1    1    5    5  503    0  0.32415323348E+02  0.21191300519E+02  0.22532880621E+03  0.22863266458E+03  0.00000000000E+00 0. -1.
         -2    1    5    5    0  503  0.10361815046E+03  0.28688526138E+03  0.11862010484E+04  0.12247909215E+04  0.00000000000E+00 0.  1.
         -3    1    6    6    0  502 -0.31034433321E+03 -0.84128979596E+02  0.12574991298E+03  0.34525980214E+03  0.00000000000E+00 0.  1.
<mgrwt>
<rscale>  0 0.15613580E+04</rscale>
<asrwt>0</asrwt>
<pdfrwt beam="1">  1        2 0.52028268E-01 0.15613580E+04</pdfrwt>
<pdfrwt beam="2">  1       -2 0.27725471E+00 0.15613580E+04</pdfrwt>
<totfact> 0.40497645E+00</totfact>
</mgrwt>
</event>
<event>
12    1  0.1506149E-007  0.1703671E+04  0.7818608E-02  0.8759273E-01
          2   -1    0    0  501    0  0.00000000000E+00  0.00000000000E+00  0.11960593006E+04  0.11960593006E+04  0.00000000000E+00 0. -1.
         -2   -1    0    0    0  501 -0.00000000000E+00 -0.00000000000E+00 -0.60667872938E+03  0.60667872938E+03  0.00000000000E+00 0.  1.
         23    2    1    2    0    0  0.64991614319E+02  0.19457979185E+03  0.77921601263E+03  0.81099297940E+03  0.91906544714E+02 0.  0.
        254    2    1    2    0    0 -0.64991614319E+02 -0.19457979185E+03 -0.18983544141E+03  0.99174505059E+03  0.95154376947E+03 0.  0.
        -24    2    4    4    0    0 -0.94250359876E+01  0.27951264312E+03 -0.37388964451E+03  0.47392314520E+03  0.81200568442E+02 0.  0.
         24    2    4    4    0    0 -0.55566578331E+02 -0.47409243497E+03  0.18405420310E+03  0.51782190539E+03  0.80076803759E+02 0.  0.
         11    1    3    3    0    0  0.15134722992E+02  0.87925593029E+02  0.50115658870E+03  0.50903624247E+03  0.00000000000E+00 0. -1.
        -11    1    3    3    0    0  0.49856891327E+02  0.10665419882E+03  0.27805942394E+03  0.30195673693E+03  0.00000000000E+00 0.  1.
          2    1    6    6  502    0 -0.63254857418E+02 -0.19923438319E+03  0.80923466951E+02  0.22415201078E+03  0.00000000000E+00 0. -1.
          3    1    5    5  503    0 -0.17809388953E+02  0.29845999379E+02 -0.86023307346E+02  0.92779132463E+02  0.00000000000E+00 0. -1.
         -4    1    5    5    0  503  0.83843529650E+01  0.24966664374E+03 -0.28786633716E+03  0.38114401273E+03  0.00000000000E+00 0.  1.
         -1    1    6    6    0  502  0.76882790869E+01 -0.27485805178E+03  0.10313073615E+03  0.29366989461E+03  0.00000000000E+00 0.  1.
<mgrwt>
<rscale>  0 0.17036710E+04</rscale>
<asrwt>0</asrwt>
<pdfrwt beam="1">  1        2 0.18400912E+00 0.17036710E+04</pdfrwt>
<pdfrwt beam="2">  1       -2 0.93335189E-01 0.17036710E+04</pdfrwt>
<totfact> 0.17598724E+01</totfact>
</mgrwt>
</event>
<event>
12    1  0.1506149E-007  0.1319465E+04  0.7818608E-02  0.9014270E-01
         -1   -1    0    0    0  501 -0.00000000000E+00  0.00000000000E+00  0.15843271029E+03  0.15843271029E+03  0.00000000000E+00 0.  1.
          1   -1    0    0  501    0  0.00000000000E+00 -0.00000000000E+00 -0.27472031621E+04  0.27472031621E+04  0.00000000000E+00 0. -1.
         23    2    1    2    0    0 -0.27885488044E+02  0.29464069842E+03 -0.99232283050E+03  0.10394663682E+04  0.90526179338E+02 0.  0.
        254    2    1    2    0    0  0.27885488044E+02 -0.29464069842E+03 -0.15964476214E+04  0.18661695042E+04  0.91997438500E+03 0.  0.
        -24    2    4    4    0    0 -0.24283674380E+03 -0.10966584645E+02 -0.13938142847E+04  0.14170859527E+04  0.79526013547E+02 0.  0.
         24    2    4    4    0    0  0.27072223185E+03 -0.28367411377E+03 -0.20263333664E+03  0.44908355153E+03  0.82790322497E+02 0.  0.
         11    1    3    3    0    0 -0.28171602054E+02  0.30125823308E+03 -0.97680948601E+03  0.10225981293E+04  0.00000000000E+00 0. -1.
        -11    1    3    3    0    0  0.28611401035E+00 -0.66175346608E+01 -0.15513344490E+02  0.16868238897E+02  0.00000000000E+00 0.  1.
          2    1    6    6  502    0  0.38018237744E+02 -0.90633897352E+02 -0.44748325872E+02  0.10799214054E+03  0.00000000000E+00 0. -1.
          3    1    5    5  503    0 -0.24461703085E+01  0.12801014938E+02 -0.46687691482E+02  0.48472572333E+02  0.00000000000E+00 0. -1.
         -4    1    5    5    0  503 -0.24039057350E+03 -0.23767599583E+02 -0.13471265932E+04  0.13686133803E+04  0.00000000000E+00 0.  1.
         -1    1    6    6    0  502  0.23270399410E+03 -0.19304021642E+03 -0.15788501076E+03  0.34109141099E+03  0.00000000000E+00 0.  1.
<mgrwt>
<rscale>  0 0.13194648E+04</rscale>
<asrwt>0</asrwt>
<pdfrwt beam="1">  1        1 0.42264667E+00 0.13194648E+04</pdfrwt>
<pdfrwt beam="2">  1       -1 0.24374262E-01 0.13194648E+04</pdfrwt>
<totfact> 0.13130659E+01</totfact>
</mgrwt>
</event>
<event>
12    1  0.1506149E-007  0.1289603E+04  0.7818608E-02  0.9037851E-01
         -2   -1    0    0    0  501 -0.00000000000E+00  0.00000000000E+00  0.81185792427E+03  0.81185792427E+03  0.00000000000E+00 0.  1.
          2   -1    0    0  501    0  0.00000000000E+00 -0.00000000000E+00 -0.51212072966E+03  0.51212072966E+03  0.00000000000E+00 0. -1.
         23    2    1    2    0    0 -0.43820392834E+02  0.52546181140E+02  0.39881102813E+03  0.41476178087E+03  0.91081121715E+02 0.  0.
        254    2    1    2    0    0  0.43820392834E+02 -0.52546181140E+02 -0.99073833521E+02  0.90921687306E+03  0.90120939286E+03 0.  0.
        -24    2    4    4    0    0  0.11010977064E+03 -0.20210111898E+03  0.34863323538E+03  0.42579596846E+03  0.82389623501E+02 0.  0.
         24    2    4    4    0    0 -0.66289377810E+02  0.14955493784E+03 -0.44770706890E+03  0.48342090460E+03  0.80580335162E+02 0.  0.
         13    1    3    3    0    0  0.19251583319E+02  0.36113121684E+02  0.23362216511E+03  0.23717946170E+03  0.00000000000E+00 0. -1.
        -13    1    3    3    0    0 -0.63071976154E+02  0.16433059457E+02  0.16518886302E+03  0.17758231918E+03  0.00000000000E+00 0.  1.
          4    1    6    6  502    0 -0.68762150893E+02  0.15856380492E+03 -0.41953915079E+03  0.45374421503E+03  0.00000000000E+00 0. -1.
          1    1    5    5  503    0  0.21836831629E+02 -0.11799565923E+03  0.14242062621E+03  0.18623495264E+03  0.00000000000E+00 0. -1.
         -2    1    5    5    0  503  0.88272939016E+02 -0.84105459745E+02  0.20621260917E+03  0.23956101582E+03  0.00000000000E+00 0.  1.
         -1    1    6    6    0  502  0.24727730824E+01 -0.90088670872E+01 -0.28167918112E+02  0.29676689567E+02  0.00000000000E+00 0.  1.
<mgrwt>
<rscale>  0 0.12896035E+04</rscale>
<asrwt>0</asrwt>
<pdfrwt beam="1">  1        2 0.78787805E-01 0.12896035E+04</pdfrwt>
<pdfrwt beam="2">  1       -2 0.12490122E+00 0.12896035E+04</pdfrwt>
<totfact> 0.28207591E+01</totfact>
</mgrwt>
</event>
<event>
12    1  0.1506149E-007  0.1796543E+04  0.7818608E-02  0.8708140E-01
         -1   -1    0    0    0  501 -0.00000000000E+00  0.00000000000E+00  0.72988831146E+03  0.72988831146E+03  0.00000000000E+00 0.  1.
          1   -1    0    0  501    0  0.00000000000E+00 -0.00000000000E+00 -0.11055006901E+04  0.11055006901E+04  0.00000000000E+00 0. -1.
         23    2    1    2    0    0  0.18912770608E+03 -0.64164048354E+03 -0.23161466197E+03  0.71380441913E+03  0.91649319723E+02 0.  0.
        254    2    1    2    0    0 -0.18912770608E+03  0.64164048354E+03 -0.14399771666E+03  0.11215845824E+04  0.88867588792E+03 0.  0.
        -24    2    4    4    0    0  0.30821977023E+03  0.49030389838E+03 -0.40040918515E+02  0.58541374325E+03  0.75555516671E+02 0.  0.
         24    2    4    4    0    0 -0.49734747631E+03  0.15133658516E+03 -0.10395679814E+03  0.53617083916E+03  0.80092937771E+02 0.  0.
         11    1    3    3    0    0  0.16180557597E+03 -0.46772377292E+03 -0.13507439840E+03  0.51302209043E+03  0.00000000000E+00 0. -1.
        -11    1    3    3    0    0  0.27322130112E+02 -0.17391671062E+03 -0.96540263573E+02  0.20078232870E+03  0.00000000000E+00 0.  1.
          4    1    6    6  502    0 -0.46281185838E+03  0.14009357718E+03 -0.74184189903E+02  0.48920785016E+03  0.00000000000E+00 0. -1.
          3    1    5    5  503    0  0.28846454129E+03  0.46444829694E+03 -0.19809759868E+02  0.54709819841E+03  0.00000000000E+00 0. -1.
         -4    1    5    5    0  503  0.19755228944E+02  0.25855601439E+02 -0.20231158647E+02  0.38315544843E+02  0.00000000000E+00 0.  1.
         -3    1    6    6    0  502 -0.34535617931E+02  0.11243007979E+02 -0.29772608239E+02  0.46962988998E+02  0.00000000000E+00 0.  1.
<mgrwt>
<rscale>  0 0.17965434E+04</rscale>
<asrwt>0</asrwt>
<pdfrwt beam="1">  1        1 0.17007703E+00 0.17965434E+04</pdfrwt>
<pdfrwt beam="2">  1       -1 0.11229051E+00 0.17965434E+04</pdfrwt>
<totfact> 0.86154412E+00</totfact>
</mgrwt>
</event>
<event>
12    1  0.1506149E-007  0.2041625E+04  0.7818608E-02  0.8587403E-01
          2   -1    0    0  501    0  0.00000000000E+00  0.00000000000E+00  0.11867947794E+04  0.11867947794E+04  0.00000000000E+00 0.  1.
         -2   -1    0    0    0  501 -0.00000000000E+00 -0.00000000000E+00 -0.87804414602E+03  0.87804414602E+03  0.00000000000E+00 0. -1.
         23    2    1    2    0    0 -0.54486362650E+03 -0.23543822025E+03  0.69456882241E+03  0.91823114429E+03  0.91733626489E+02 0.  0.
        254    2    1    2    0    0  0.54486362650E+03  0.23543822025E+03 -0.38581818905E+03  0.11466077811E+04  0.90196796045E+03 0.  0.
        -24    2    4    4    0    0  0.45893604879E+03  0.42204792847E+03 -0.57814736148E+03  0.85385938127E+03  0.77940493917E+02 0.  0.
         24    2    4    4    0    0  0.85927577709E+02 -0.18660970822E+03  0.19232917243E+03  0.29274839985E+03  0.80649756566E+02 0.  0.
         11    1    3    3    0    0 -0.16148379810E+03 -0.36271441548E+02  0.23549189392E+03  0.28783513792E+03  0.00000000000E+00 0. -1.
        -11    1    3    3    0    0 -0.38337982841E+03 -0.19916677870E+03  0.45907692849E+03  0.63039600636E+03  0.00000000000E+00 0.  1.
          2    1    6    6  502    0  0.56195673326E+02 -0.18003257832E+03  0.15207126405E+03  0.24227123706E+03  0.00000000000E+00 0. -1.
          1    1    5    5  503    0  0.43496713249E+03  0.37220715335E+03 -0.51653276622E+03  0.77106463409E+03  0.00000000000E+00 0. -1.
         -2    1    5    5    0  503  0.23968916300E+02  0.49840775118E+02 -0.61614595256E+02  0.82794747185E+02  0.00000000000E+00 0.  1.
         -3    1    6    6    0  502  0.29731904383E+02 -0.65771298952E+01  0.40257908373E+02  0.50477162782E+02  0.00000000000E+00 0.  1.
<mgrwt>
<rscale>  0 0.20416250E+04</rscale>
<asrwt>0</asrwt>
<pdfrwt beam="1">  1        2 0.18258381E+00 0.20416250E+04</pdfrwt>
<pdfrwt beam="2">  1       -2 0.13508371E+00 0.20416250E+04</pdfrwt>
<totfact> 0.70359521E+00</totfact>
</mgrwt>
</event>
<event>
12    1  0.1506149E-007  0.2066525E+04  0.7818608E-02  0.8576135E-01
         -2   -1    0    0    0  501 -0.00000000000E+00  0.00000000000E+00  0.46135688509E+03  0.46135688509E+03  0.00000000000E+00 0.  1.
          2   -1    0    0  501    0  0.00000000000E+00 -0.00000000000E+00 -0.23141112461E+04  0.23141112461E+04  0.00000000000E+00 0. -1.
         23    2    1    2    0    0 -0.36250132376E+03 -0.30517783500E+03 -0.15574722376E+04  0.16305285649E+04  0.91448942940E+02 0.  0.
        254    2    1    2    0    0  0.36250132376E+03  0.30517783500E+03 -0.29528212336E+03  0.11449395663E+04  0.99957708928E+03 0.  0.
        -24    2    4    4    0    0  0.55873246876E+03 -0.59976418820E+02 -0.41887465286E+03  0.70528725649E+03  0.78708302541E+02 0.  0.
         24    2    4    4    0    0 -0.19623114500E+03  0.36515425382E+03  0.12359252950E+03  0.43965230982E+03  0.78579570027E+02 0.  0.
         11    1    3    3    0    0 -0.24290511866E+03 -0.25093541113E+03 -0.10621726354E+04  0.11181154612E+04  0.00000000000E+00 0. -1.
        -11    1    3    3    0    0 -0.11959620510E+03 -0.54242423875E+02 -0.49529960223E+03  0.51241310365E+03  0.00000000000E+00 0.  1.
          2    1    6    6  502    0 -0.17836456945E+03  0.36187410629E+03  0.12164082296E+03  0.42138257944E+03  0.00000000000E+00 0. -1.
          3    1    5    5  503    0  0.50945544014E+03 -0.57730894906E+02 -0.35088204094E+03  0.62128568982E+03  0.00000000000E+00 0. -1.
         -4    1    5    5    0  503  0.49277028624E+02 -0.22455239136E+01 -0.67992611919E+02  0.84001566671E+02  0.00000000000E+00 0.  1.
         -1    1    6    6    0  502 -0.17866575552E+02  0.32801475276E+01  0.19517065387E+01  0.18269730381E+02  0.00000000000E+00 0.  1.
<mgrwt>
<rscale>  0 0.20665248E+04</rscale>
<asrwt>0</asrwt>
<pdfrwt beam="1">  1        2 0.35601712E+00 0.20665248E+04</pdfrwt>
<pdfrwt beam="2">  1       -2 0.70977981E-01 0.20665248E+04</pdfrwt>
<totfact> 0.74169958E+00</totfact>
</mgrwt>
</event>
<event>
12    1  0.1506149E-007  0.1642295E+04  0.7818608E-02  0.8794978E-01
          2   -1    0    0  501    0  0.00000000000E+00  0.00000000000E+00  0.44262979764E+03  0.44262979764E+03  0.00000000000E+00 0. -1.
         -2   -1    0    0    0  501 -0.00000000000E+00 -0.00000000000E+00 -0.15233574723E+04  0.15233574723E+04  0.00000000000E+00 0.  1.
         23    2    1    2    0    0 -0.22494854396E+03  0.30426802435E+03  0.12838080409E+03  0.40991733985E+03  0.91486155133E+02 0.  0.
        254    2    1    2    0    0  0.22494854396E+03 -0.30426802435E+03 -0.12091084787E+04  0.15560699301E+04  0.90345416921E+03 0.  0.
        -24    2    4    4    0    0  0.85862895662E+01  0.31033369574E+03 -0.34219050373E+03  0.46861969453E+03  0.78290166552E+02 0.  0.
         24    2    4    4    0    0  0.21636225440E+03 -0.61460172009E+03 -0.86691797499E+03  0.10874502355E+04  0.80332682897E+02 0.  0.
         13    1    3    3    0    0 -0.17907621978E+03  0.18850069122E+03  0.11623929089E+03  0.28480234520E+03  0.00000000000E+00 0. -1.
        -13    1    3    3    0    0 -0.45872324180E+02  0.11576733313E+03  0.12141513198E+02  0.12511499466E+03  0.00000000000E+00 0.  1.
          2    1    6    6  502    0  0.21244154674E+03 -0.58035840030E+03 -0.78886097533E+03  0.10021222091E+04  0.00000000000E+00 0. -1.
          3    1    5    5  503    0  0.26836667686E+01  0.21358754627E+03 -0.17842536075E+03  0.27832077060E+03  0.00000000000E+00 0. -1.
         -4    1    5    5    0  503  0.59026227977E+01  0.96746149468E+02 -0.16376514299E+03  0.19029892393E+03  0.00000000000E+00 0.  1.
         -1    1    6    6    0  502  0.39207076556E+01 -0.34243319785E+02 -0.78056999659E+02  0.85328026428E+02  0.00000000000E+00 0.  1.
<mgrwt>
<rscale>  0 0.16422952E+04</rscale>
<asrwt>0</asrwt>
<pdfrwt beam="1">  1        2 0.68096891E-01 0.16422952E+04</pdfrwt>
<pdfrwt beam="2">  1       -2 0.23436269E+00 0.16422952E+04</pdfrwt>
<totfact> 0.54378421E+00</totfact>
</mgrwt>
</event>
<event>
12    1  0.1506149E-007  0.2616743E+04  0.7818608E-02  0.8362536E-01
          1   -1    0    0  501    0  0.00000000000E+00  0.00000000000E+00  0.10766645114E+04  0.10766645114E+04  0.00000000000E+00 0. -1.
         -1   -1    0    0    0  501 -0.00000000000E+00 -0.00000000000E+00 -0.15899433689E+04  0.15899433689E+04  0.00000000000E+00 0.  1.
         23    2    1    2    0    0 -0.15839320272E+03 -0.48218523448E+03  0.81561747342E+03  0.96506945246E+03  0.92391439523E+02 0.  0.
        254    2    1    2    0    0  0.15839320272E+03  0.48218523448E+03 -0.13288963310E+04  0.17015384278E+04  0.93363620101E+03 0.  0.
        -24    2    4    4    0    0 -0.99174494338E+02  0.62273986076E+03 -0.12275242826E+04  0.13824523979E+04  0.81964954413E+02 0.  0.
         24    2    4    4    0    0  0.25756769705E+03 -0.14055462628E+03 -0.10137204840E+03  0.31908602987E+03  0.73775881746E+02 0.  0.
         13    1    3    3    0    0 -0.11520652053E+03 -0.28296627403E+03  0.56208130203E+03  0.63974826667E+03  0.00000000000E+00 0. -1.
        -13    1    3    3    0    0 -0.43186682190E+02 -0.19921896044E+03  0.25353617139E+03  0.32532118579E+03  0.00000000000E+00 0.  1.
          2    1    6    6  502    0  0.22533321514E+03 -0.10132479443E+03 -0.10440660576E+03  0.26822101174E+03  0.00000000000E+00 0. -1.
          1    1    5    5  503    0 -0.10501150778E+03  0.59034900712E+03 -0.11256426635E+04  0.12753865190E+04  0.00000000000E+00 0. -1.
         -2    1    5    5    0  503  0.58370134446E+01  0.32390853640E+02 -0.10188161913E+03  0.10706587898E+03  0.00000000000E+00 0.  1.
         -1    1    6    6    0  502  0.32234481914E+02 -0.39229831848E+02  0.30345573620E+01  0.50865018131E+02  0.00000000000E+00 0.  1.
<mgrwt>
<rscale>  0 0.26167427E+04</rscale>
<asrwt>0</asrwt>
<pdfrwt beam="1">  1        1 0.16564070E+00 0.26167427E+04</pdfrwt>
<pdfrwt beam="2">  1       -1 0.24460667E+00 0.26167427E+04</pdfrwt>
<totfact> 0.87819487E-01</totfact>
</mgrwt>
</event>
<event>
12    1  0.1506149E-007  0.2079493E+04  0.7818608E-02  0.8570331E-01
          2   -1    0    0  501    0  0.00000000000E+00  0.00000000000E+00  0.46414475056E+04  0.46414475056E+04  0.00000000000E+00 0.  1.
         -2   -1    0    0    0  501 -0.00000000000E+00 -0.00000000000E+00 -0.23291715288E+03  0.23291715288E+03  0.00000000000E+00 0. -1.
         23    2    1    2    0    0  0.67677115170E+03  0.49703811022E+03  0.17451709927E+04  0.19384711036E+04  0.83560462254E+02 0.  0.
        254    2    1    2    0    0 -0.67677115170E+03 -0.49703811022E+03  0.26633593600E+04  0.29358935549E+04  0.90604735548E+03 0.  0.
        -24    2    4    4    0    0 -0.47338626494E+03 -0.23310703318E+03  0.24995045598E+04  0.25558512343E+04  0.80118926326E+02 0.  0.
         24    2    4    4    0    0 -0.20338488676E+03 -0.26393107704E+03  0.16385480016E+03  0.38004232061E+03  0.80986074913E+02 0.  0.
         13    1    3    3    0    0  0.60201668977E+03  0.45233903935E+03  0.16139530971E+04  0.17809770636E+04  0.00000000000E+00 0. -1.
        -13    1    3    3    0    0  0.74754461929E+02  0.44699070866E+02  0.13121789559E+03  0.15749404000E+03  0.00000000000E+00 0.  1.
          2    1    6    6  502    0 -0.14587229030E+03 -0.12372356793E+03  0.95612914873E+02  0.21384123978E+03  0.00000000000E+00 0. -1.
          3    1    5    5  503    0 -0.23417779840E+03 -0.10494723478E+03  0.10290456473E+04  0.10605602800E+04  0.00000000000E+00 0. -1.
         -4    1    5    5    0  503 -0.23920846654E+03 -0.12815979839E+03  0.14704589125E+04  0.14952909542E+04  0.00000000000E+00 0.  1.
         -1    1    6    6    0  502 -0.57512596459E+02 -0.14020750911E+03  0.68241885288E+02  0.16620108083E+03  0.00000000000E+00 0.  1.
<mgrwt>
<rscale>  0 0.20794930E+04</rscale>
<asrwt>0</asrwt>
<pdfrwt beam="1">  1        2 0.71406878E+00 0.20794930E+04</pdfrwt>
<pdfrwt beam="2">  1       -2 0.35833412E-01 0.20794930E+04</pdfrwt>
<totfact> 0.60834602E-01</totfact>
</mgrwt>
</event>
<event>
12    1  0.1506149E-007  0.1705474E+04  0.7818608E-02  0.8758249E-01
         -3   -1    0    0    0  501 -0.00000000000E+00  0.00000000000E+00  0.13036869701E+04  0.13036869701E+04  0.00000000000E+00 0.  1.
          3   -1    0    0  501    0  0.00000000000E+00 -0.00000000000E+00 -0.55777199956E+03  0.55777199956E+03  0.00000000000E+00 0. -1.
         23    2    1    2    0    0  0.10328237252E+02  0.49224373734E+03  0.65926612666E+03  0.82754593878E+03  0.88260328558E+02 0.  0.
        254    2    1    2    0    0 -0.10328237252E+02 -0.49224373734E+03  0.86648843868E+02  0.10339130309E+04  0.90501799088E+03 0.  0.
        -24    2    4    4    0    0  0.22356787874E+03 -0.57876195595E+03 -0.18914203189E+03  0.65353880607E+03  0.79939131568E+02 0.  0.
         24    2    4    4    0    0 -0.23389611599E+03  0.86518218616E+02  0.27579087576E+03  0.38037422479E+03  0.80194441869E+02 0.  0.
         11    1    3    3    0    0  0.41741654379E+00  0.63217447263E+02  0.14202364566E+03  0.15545846970E+03  0.00000000000E+00 0. -1.
        -11    1    3    3    0    0  0.99108207085E+01  0.42902629007E+03  0.51724248100E+03  0.67208746908E+03  0.00000000000E+00 0.  1.
          2    1    6    6  502    0 -0.10376331591E+03  0.24248550922E+02  0.64593469463E+02  0.12460792209E+03  0.00000000000E+00 0. -1.
          3    1    5    5  503    0  0.65108396468E+02 -0.87302554433E+02 -0.40539152132E+02  0.11620784034E+03  0.00000000000E+00 0. -1.
         -4    1    5    5    0  503  0.15845948227E+03 -0.49145940152E+03 -0.14860287976E+03  0.53733096573E+03  0.00000000000E+00 0.  1.
         -1    1    6    6    0  502 -0.13013280008E+03  0.62269667694E+02  0.21119740629E+03  0.25576630270E+03  0.00000000000E+00 0.  1.
<mgrwt>
<rscale>  0 0.17054736E+04</rscale>
<asrwt>0</asrwt>
<pdfrwt beam="1">  1        3 0.85811077E-01 0.17054736E+04</pdfrwt>
<pdfrwt beam="2">  1       -3 0.20056722E+00 0.17054736E+04</pdfrwt>
<totfact> 0.44938799E-01</totfact>
</mgrwt>
</event>
<event>
12    1  0.1506149E-007  0.1846726E+04  0.7818608E-02  0.8681838E-01
          2   -1    0    0  501    0  0.00000000000E+00  0.00000000000E+00  0.18714338501E+04  0.18714338501E+04  0.00000000000E+00 0. -1.
         -2   -1    0    0    0  501 -0.00000000000E+00 -0.00000000000E+00 -0.45558621718E+03  0.45558621718E+03  0.00000000000E+00 0.  1.
         23    2    1    2    0    0 -0.14289881350E+03 -0.74950965157E+02  0.13228062701E+04  0.13357364431E+04  0.91311001652E+02 0.  0.
        254    2    1    2    0    0  0.14289881350E+03  0.74950965157E+02  0.93041362827E+02  0.99128362422E+03  0.97362662781E+03 0.  0.
        -24    2    4    4    0    0  0.13798542120E+03 -0.69853807676E+02  0.51209106935E+03  0.54077192093E+03  0.79230525988E+02 0.  0.
         24    2    4    4    0    0  0.49133923063E+01  0.14480477283E+03 -0.41904970652E+03  0.45051170329E+03  0.79784551189E+02 0.  0.
         11    1    3    3    0    0 -0.15377009399E+03 -0.73797798824E+02  0.11494228817E+04  0.11620087426E+04  0.00000000000E+00 0. -1.
        -11    1    3    3    0    0  0.10871280485E+02 -0.11531663328E+01  0.17338338838E+03  0.17372770044E+03  0.00000000000E+00 0.  1.
          4    1    6    6  502    0  0.39472515433E+02  0.79826495207E+02 -0.18802583057E+03  0.20804821983E+03  0.00000000000E+00 0. -1.
          3    1    5    5  503    0  0.78779297461E+02 -0.66065290761E+02  0.40999711585E+03  0.42269189175E+03  0.00000000000E+00 0. -1.
         -4    1    5    5    0  503  0.59206123737E+02 -0.37885169152E+01  0.10209395350E+03  0.11808002918E+03  0.00000000000E+00 0.  1.
         -3    1    6    6    0  502 -0.34559123127E+02  0.64978277626E+02 -0.23102387595E+03  0.24246348346E+03  0.00000000000E+00 0.  1.
<mgrwt>
<rscale>  0 0.18467263E+04</rscale>
<asrwt>0</asrwt>
<pdfrwt beam="1">  1        2 0.28791290E+00 0.18467263E+04</pdfrwt>
<pdfrwt beam="2">  1       -2 0.70090188E-01 0.18467263E+04</pdfrwt>
<totfact> 0.13730091E+01</totfact>
</mgrwt>
</event>
<event>
12    1  0.1506149E-007  0.1424591E+04  0.7818608E-02  0.8936208E-01
          1   -1    0    0  501    0  0.00000000000E+00  0.00000000000E+00  0.54138537459E+03  0.54138537459E+03  0.00000000000E+00 0. -1.
         -1   -1    0    0    0  501 -0.00000000000E+00 -0.00000000000E+00 -0.93716092786E+03  0.93716092786E+03  0.00000000000E+00 0.  1.
         23    2    1    2    0    0  0.33623467578E+03  0.70582282266E+02  0.12295801647E+03  0.37636572817E+03  0.92178477760E+02 0.  0.
        254    2    1    2    0    0 -0.33623467578E+03 -0.70582282266E+02 -0.51873356974E+03  0.11021805743E+04  0.90977023813E+03 0.  0.
        -24    2    4    4    0    0  0.84804975387E+02 -0.36660724933E+03 -0.26325874790E+02  0.38554406074E+03  0.79739651204E+02 0.  0.
         24    2    4    4    0    0 -0.42103965117E+03  0.29602496706E+03 -0.49240769495E+03  0.71663651355E+03  0.78723475032E+02 0.  0.
         11    1    3    3    0    0  0.31885153732E+03  0.65036763303E+02  0.13726185907E+03  0.35318111697E+03  0.00000000000E+00 0. -1.
        -11    1    3    3    0    0  0.17383138461E+02  0.55455189621E+01 -0.14303842600E+02  0.23184611199E+02  0.00000000000E+00 0.  1.
          4    1    6    6  502    0 -0.15599765852E+03  0.66406144710E+02 -0.17471403339E+03  0.24345438789E+03  0.00000000000E+00 0. -1.
          3    1    5    5  503    0 -0.12044168979E+02 -0.12299187032E+02  0.83758778983E+00  0.17234661626E+02  0.00000000000E+00 0. -1.
         -4    1    5    5    0  503  0.96849144366E+02 -0.35430806230E+03 -0.27163462579E+02  0.36830939911E+03  0.00000000000E+00 0.  1.
         -3    1    6    6    0  502 -0.26504199265E+03  0.22961882235E+03 -0.31769366156E+03  0.47318212565E+03  0.00000000000E+00 0.  1.
<mgrwt>
<rscale>  0 0.14245915E+04</rscale>
<asrwt>0</asrwt>
<pdfrwt beam="1">  1        1 0.83290058E-01 0.14245915E+04</pdfrwt>
<pdfrwt beam="2">  1       -1 0.14417860E+00 0.14245915E+04</pdfrwt>
<totfact> 0.14975256E+01</totfact>
</mgrwt>
</event>
<event>
12    1  0.1506149E-007  0.2188341E+04  0.7818608E-02  0.8523296E-01
          1   -1    0    0  501    0  0.00000000000E+00  0.00000000000E+00  0.94014051163E+03  0.94014051163E+03  0.00000000000E+00 0. -1.
         -1   -1    0    0    0  501 -0.00000000000E+00 -0.00000000000E+00 -0.12734365104E+04  0.12734365104E+04  0.00000000000E+00 0.  1.
         23    2    1    2    0    0 -0.21773642823E+03 -0.54717976268E+02 -0.10318146306E+04  0.10594621471E+04  0.86112718143E+02 0.  0.
        254    2    1    2    0    0  0.21773642823E+03  0.54717976268E+02  0.69851863182E+03  0.11541148749E+04  0.89087016805E+03 0.  0.
        -24    2    4    4    0    0  0.54827443070E+03 -0.66759093673E+02  0.44387228408E+03  0.71301364298E+03  0.79399134469E+02 0.  0.
         24    2    4    4    0    0 -0.33053800247E+03  0.12147706994E+03  0.25464634774E+03  0.44110123191E+03  0.75587596683E+02 0.  0.
         11    1    3    3    0    0 -0.39606779889E+01 -0.18040701534E+02 -0.37964962145E+02  0.42219571677E+02  0.00000000000E+00 0. -1.
        -11    1    3    3    0    0 -0.21377575024E+03 -0.36677274734E+02 -0.99384966842E+03  0.10172425754E+04  0.00000000000E+00 0.  1.
          4    1    6    6  502    0 -0.56041926815E+02  0.53676897170E+01  0.13944623745E+02  0.57999674011E+02  0.00000000000E+00 0. -1.
          1    1    5    5  503    0  0.94187011710E+02  0.29040160872E+01  0.11150406328E+03  0.14598898113E+03  0.00000000000E+00 0. -1.
         -2    1    5    5    0  503  0.45408741899E+03 -0.69663109760E+02  0.33236822080E+03  0.56702466185E+03  0.00000000000E+00 0.  1.
         -3    1    6    6    0  502 -0.27449607565E+03  0.11610938022E+03  0.24070172400E+03  0.38310155789E+03  0.00000000000E+00 0.  1.
<mgrwt>
<rscale>  0 0.21883412E+04</rscale>
<asrwt>0</asrwt>
<pdfrwt beam="1">  1        1 0.14463700E+00 0.21883412E+04</pdfrwt>
<pdfrwt beam="2">  1       -1 0.19591331E+00 0.21883412E+04</pdfrwt>
<totfact> 0.24746975E+00</totfact>
</mgrwt>
</event>
<event>
12    1  0.3057116E-007  0.2455673E+04  0.7818608E-02  0.8418950E-01
          2   -1    0    0  501    0  0.00000000000E+00  0.00000000000E+00  0.29951434123E+04  0.29951434123E+04  0.00000000000E+00 0. -1.
         -2   -1    0    0    0  501 -0.00000000000E+00 -0.00000000000E+00 -0.50334232023E+03  0.50334232023E+03  0.00000000000E+00 0.  1.
         23    2    1    2    0    0 -0.68580652184E+03 -0.49879855837E+03  0.19819209890E+04  0.21576903750E+04  0.92121445278E+02 0.  0.
        254    2    1    2    0    0  0.68580652184E+03  0.49879855837E+03  0.50988010312E+03  0.13407953575E+04  0.90477836182E+03 0.  0.
        -24    2    4    4    0    0  0.63682843077E+03  0.35108590319E+03  0.74627836913E+03  0.10452177382E+04  0.82078952542E+02 0.  0.
         24    2    4    4    0    0  0.48978091071E+02  0.14771265518E+03 -0.23639826601E+03  0.29557761929E+03  0.85229730438E+02 0.  0.
         13    1    3    3    0    0 -0.64476840278E+03 -0.45646951454E+03  0.17820572683E+04  0.19493123963E+04  0.00000000000E+00 0. -1.
        -13    1    3    3    0    0 -0.41038119062E+02 -0.42329043828E+02  0.19986372063E+03  0.20837797866E+03  0.00000000000E+00 0.  1.
          2    1    6    6  502    0  0.41186123353E+02  0.98868801060E+02 -0.21784585552E+03  0.24275121698E+03  0.00000000000E+00 0. -1.
          1    1    5    5  503    0  0.46898745963E+03  0.29431651146E+03  0.58758937609E+03  0.80736158015E+03  0.00000000000E+00 0. -1.
         -2    1    5    5    0  503  0.16784097114E+03  0.56769391730E+02  0.15868899304E+03  0.23785615810E+03  0.00000000000E+00 0.  1.
         -1    1    6    6    0  502  0.77919677178E+01  0.48843854119E+02 -0.18552410489E+02  0.52826402310E+02  0.00000000000E+00 0.  1.
<mgrwt>
<rscale>  0 0.24556730E+04</rscale>
<asrwt>0</asrwt>
<pdfrwt beam="1">  1        2 0.46079128E+00 0.24556730E+04</pdfrwt>
<pdfrwt beam="2">  1       -2 0.77437282E-01 0.24556730E+04</pdfrwt>
<totfact> 0.23345998E+00</totfact>
</mgrwt>
</event>
<event>
12    1  0.1506149E-007  0.1135017E+04  0.7818608E-02  0.9171719E-01
          1   -1    0    0  501    0  0.00000000000E+00  0.00000000000E+00  0.53736816233E+03  0.53736816233E+03  0.00000000000E+00 0. -1.
         -1   -1    0    0    0  501 -0.00000000000E+00 -0.00000000000E+00 -0.59933892100E+03  0.59933892100E+03  0.00000000000E+00 0.  1.
         23    2    1    2    0    0  0.16485743615E+03 -0.65590436820E+02  0.56506388769E+02  0.19925990846E+03  0.70932781501E+02 0.  0.
        254    2    1    2    0    0 -0.16485743615E+03  0.65590436820E+02 -0.11847714744E+03  0.93744717487E+03  0.91284735392E+03 0.  0.
        -24    2    4    4    0    0  0.24583946816E+03  0.34054397973E+03 -0.26205490371E+02  0.42824930191E+03  0.79394525128E+02 0.  0.
         24    2    4    4    0    0 -0.41069690431E+03 -0.27495354291E+03 -0.92271657064E+02  0.50919787297E+03  0.80604076593E+02 0.  0.
         13    1    3    3    0    0  0.82090695375E+02 -0.52280145555E+01 -0.24344826386E-01  0.82257005757E+02  0.00000000000E+00 0.  1.
        -13    1    3    3    0    0  0.82766740774E+02 -0.60362422264E+02  0.56530733595E+02  0.11700290270E+03  0.00000000000E+00 0. -1.
          2    1    6    6  502    0 -0.20620660408E+03 -0.13081310053E+03 -0.50727592267E+01  0.24425184487E+03  0.00000000000E+00 0. -1.
          3    1    5    5  503    0  0.98222657530E+02  0.90223968318E+02 -0.33643890415E+02  0.13754986832E+03  0.00000000000E+00 0. -1.
         -4    1    5    5    0  503  0.14761681063E+03  0.25032001141E+03  0.74384000440E+01  0.29069943359E+03  0.00000000000E+00 0.  1.
         -1    1    6    6    0  502 -0.20449030024E+03 -0.14414044238E+03 -0.87198897838E+02  0.26494602810E+03  0.00000000000E+00 0.  1.
<mgrwt>
<rscale>  0 0.11350166E+04</rscale>
<asrwt>0</asrwt>
<pdfrwt beam="1">  1        1 0.82672025E-01 0.11350166E+04</pdfrwt>
<pdfrwt beam="2">  1       -1 0.92205987E-01 0.11350166E+04</pdfrwt>
<totfact> 0.45645530E+01</totfact>
</mgrwt>
</event>
<event>
12    1  0.1506149E-007  0.2188254E+04  0.7818608E-02  0.8523333E-01
          1   -1    0    0  501    0  0.00000000000E+00  0.00000000000E+00  0.20840860402E+04  0.20840860402E+04  0.00000000000E+00 0. -1.
         -1   -1    0    0    0  501 -0.00000000000E+00 -0.00000000000E+00 -0.57440714271E+03  0.57440714271E+03  0.00000000000E+00 0.  1.
         23    2    1    2    0    0  0.34670461970E+03 -0.39263763094E+03 -0.28018093190E+03  0.60106599002E+03  0.91709144603E+02 0.  0.
        254    2    1    2    0    0 -0.34670461970E+03  0.39263763094E+03  0.17898598294E+04  0.20574271929E+04  0.86893040151E+03 0.  0.
        -24    2    4    4    0    0  0.43334747920E+02  0.48478897041E+03  0.14314235280E+04  0.15139757550E+04  0.79063418692E+02 0.  0.
         24    2    4    4    0    0 -0.39003936762E+03 -0.92151339474E+02  0.35843630148E+03  0.54345143792E+03  0.78995604327E+02 0.  0.
         11    1    3    3    0    0  0.35160863969E+03 -0.38864120721E+03 -0.27125910491E+03  0.59012890578E+03  0.00000000000E+00 0.  1.
        -11    1    3    3    0    0 -0.49040199844E+01 -0.39964237227E+01 -0.89218269976E+01  0.10937084235E+02  0.00000000000E+00 0. -1.
          4    1    6    6  502    0 -0.17609707830E+03 -0.69494676453E+02  0.20602713882E+03  0.27979791452E+03  0.00000000000E+00 0. -1.
          1    1    5    5  503    0  0.63557441594E+02  0.36486727838E+03  0.11200627284E+04  0.11797068258E+04  0.00000000000E+00 0. -1.
         -2    1    5    5    0  503 -0.20222693674E+02  0.11992169203E+03  0.31136079958E+03  0.33426892927E+03  0.00000000000E+00 0.  1.
         -3    1    6    6    0  502 -0.21394228932E+03 -0.22656663020E+02  0.15240916266E+03  0.26365352340E+03  0.00000000000E+00 0.  1.
<mgrwt>
<rscale>  0 0.21882540E+04</rscale>
<asrwt>0</asrwt>
<pdfrwt beam="1">  1        1 0.32062862E+00 0.21882540E+04</pdfrwt>
<pdfrwt beam="2">  1       -1 0.88370331E-01 0.21882540E+04</pdfrwt>
<totfact> 0.29982641E+00</totfact>
</mgrwt>
</event>
<event>
12    1  0.1506149E-007  0.1887799E+04  0.7818608E-02  0.8660953E-01
          1   -1    0    0  501    0  0.00000000000E+00  0.00000000000E+00  0.70123651447E+03  0.70123651447E+03  0.00000000000E+00 0. -1.
         -1   -1    0    0    0  501 -0.00000000000E+00 -0.00000000000E+00 -0.12705363089E+04  0.12705363089E+04  0.00000000000E+00 0.  1.
         23    2    1    2    0    0  0.59027654000E+02 -0.24156384219E+03 -0.93471273410E+03  0.97138835748E+03  0.89833690584E+02 0.  0.
        254    2    1    2    0    0 -0.59027654000E+02  0.24156384219E+03  0.36541293968E+03  0.10003844659E+04  0.89744365243E+03 0.  0.
        -24    2    4    4    0    0 -0.25598811672E+03 -0.25192041876E+03  0.35698315814E+02  0.37014548375E+03  0.82094434030E+02 0.  0.
         24    2    4    4    0    0  0.19696046272E+03  0.49348426095E+03  0.32971462386E+03  0.63023898213E+03  0.78544902581E+02 0.  0.
         11    1    3    3    0    0  0.72485010918E+02 -0.13861353875E+03 -0.47484036762E+03  0.49994116119E+03  0.00000000000E+00 0.  1.
        -11    1    3    3    0    0 -0.13457356918E+02 -0.10295030344E+03 -0.45987236648E+03  0.47144719629E+03  0.00000000000E+00 0. -1.
          2    1    6    6  502    0  0.14288506807E+03  0.30437578177E+03  0.24524410909E+03  0.41617956731E+03  0.00000000000E+00 0. -1.
          1    1    5    5  503    0 -0.22296466705E+03 -0.20241120529E+03  0.76529954914E+00  0.30113804884E+03  0.00000000000E+00 0. -1.
         -2    1    5    5    0  503 -0.33023449667E+02 -0.49509213474E+02  0.34933016265E+02  0.69007434904E+02  0.00000000000E+00 0.  1.
         -1    1    6    6    0  502  0.54075394647E+02  0.18910847918E+03  0.84470514778E+02  0.21405941482E+03  0.00000000000E+00 0.  1.
<mgrwt>
<rscale>  0 0.18877992E+04</rscale>
<asrwt>0</asrwt>
<pdfrwt beam="1">  1        1 0.10788254E+00 0.18877992E+04</pdfrwt>
<pdfrwt beam="2">  1       -1 0.19546712E+00 0.18877992E+04</pdfrwt>
<totfact> 0.41169116E+00</totfact>
</mgrwt>
</event>
<event>
12    1  0.1506149E-007  0.2120953E+04  0.7818608E-02  0.8552069E-01
          2   -1    0    0  501    0  0.00000000000E+00  0.00000000000E+00  0.14945443560E+04  0.14945443560E+04  0.00000000000E+00 0. -1.
         -2   -1    0    0    0  501 -0.00000000000E+00 -0.00000000000E+00 -0.75247674871E+03  0.75247674871E+03  0.00000000000E+00 0.  1.
         23    2    1    2    0    0 -0.67864974671E+03 -0.15381062852E+03 -0.22772691265E+03  0.73765641054E+03  0.89745446214E+02 0.  0.
        254    2    1    2    0    0  0.67864974671E+03  0.15381062852E+03  0.96979451990E+03  0.15093646941E+04  0.92382746274E+03 0.  0.
        -24    2    4    4    0    0  0.50129392961E+02  0.33586648846E+03  0.72603224324E+03  0.80539979994E+03  0.78909856234E+02 0.  0.
         24    2    4    4    0    0  0.62852035375E+03 -0.18205585995E+03  0.24376227667E+03  0.70396489419E+03  0.89243226708E+02 0.  0.
         13    1    3    3    0    0 -0.39375781496E+02  0.10844932364E+02 -0.20881870420E+02  0.45870657708E+02  0.00000000000E+00 0. -1.
        -13    1    3    3    0    0 -0.63927396522E+03 -0.16465556088E+03 -0.20684504223E+03  0.69178575283E+03  0.00000000000E+00 0.  1.
          4    1    6    6  502    0  0.45647139070E+03 -0.12823913624E+03  0.13322420802E+03  0.49250390475E+03  0.00000000000E+00 0. -1.
          3    1    5    5  503    0 -0.90544413014E+01  0.14582198658E+03  0.25230211914E+03  0.29155170038E+03  0.00000000000E+00 0. -1.
         -4    1    5    5    0  503  0.59183834263E+02  0.19004450189E+03  0.47373012410E+03  0.51384809956E+03  0.00000000000E+00 0.  1.
         -3    1    6    6    0  502  0.17204896305E+03 -0.53816723709E+02  0.11053806864E+03  0.21146098944E+03  0.00000000000E+00 0.  1.
<mgrwt>
<rscale>  0 0.21209525E+04</rscale>
<asrwt>0</asrwt>
<pdfrwt beam="1">  1        2 0.22992990E+00 0.21209525E+04</pdfrwt>
<pdfrwt beam="2">  1       -2 0.11576565E+00 0.21209525E+04</pdfrwt>
<totfact> 0.68244600E+00</totfact>
</mgrwt>
</event>
<event>
12    1  0.1506149E-007  0.4205453E+04  0.7818608E-02  0.7964336E-01
         -1   -1    0    0    0  501 -0.00000000000E+00  0.00000000000E+00  0.21138731726E+04  0.21138731726E+04  0.00000000000E+00 0.  1.
          1   -1    0    0  501    0  0.00000000000E+00 -0.00000000000E+00 -0.20916389880E+04  0.20916389880E+04  0.00000000000E+00 0. -1.
         23    2    1    2    0    0 -0.69527630248E+03  0.78951107699E+03 -0.16974365572E+04  0.19990083256E+04  0.89479286201E+02 0.  0.
        254    2    1    2    0    0  0.69527630248E+03 -0.78951107699E+03  0.17196707418E+04  0.22065038350E+04  0.89702554942E+03 0.  0.
        -24    2    4    4    0    0 -0.45813479147E+02 -0.20956029789E+03 -0.17052368103E+02  0.22958770207E+03  0.80033345317E+02 0.  0.
         24    2    4    4    0    0  0.74108978162E+03 -0.57995077910E+03  0.17367231099E+04  0.19769161329E+04  0.80207641068E+02 0.  0.
         13    1    3    3    0    0 -0.61229980259E+03  0.64793186686E+03 -0.14486257717E+04  0.17009536675E+04  0.00000000000E+00 0. -1.
        -13    1    3    3    0    0 -0.82976499886E+02  0.14157921013E+03 -0.24881078545E+03  0.29805465813E+03  0.00000000000E+00 0.  1.
          4    1    6    6  502    0  0.32477443686E+03 -0.23527977658E+03  0.66358580540E+03  0.77535871004E+03  0.00000000000E+00 0. -1.
          1    1    5    5  503    0 -0.55719222791E+02 -0.19248507394E+03 -0.34386983864E+02  0.20331650237E+03  0.00000000000E+00 0. -1.
         -2    1    5    5    0  503  0.99057436442E+01 -0.17075223946E+02  0.17334615761E+02  0.26271199697E+02  0.00000000000E+00 0.  1.
         -3    1    6    6    0  502  0.41631534476E+03 -0.34467100252E+03  0.10731373045E+04  0.12015574229E+04  0.00000000000E+00 0.  1.
<mgrwt>
<rscale>  0 0.42054534E+04</rscale>
<asrwt>0</asrwt>
<pdfrwt beam="1">  1        1 0.32179061E+00 0.42054534E+04</pdfrwt>
<pdfrwt beam="2">  1       -1 0.32521126E+00 0.42054534E+04</pdfrwt>
<totfact> 0.44964969E-02</totfact>
</mgrwt>
</event>
<event>
12    1  0.1506149E-007  0.1351498E+04  0.7818608E-02  0.8989695E-01
          1   -1    0    0  501    0  0.00000000000E+00  0.00000000000E+00  0.21815013023E+04  0.21815013023E+04  0.00000000000E+00 0. -1.
         -1   -1    0    0    0  501 -0.00000000000E+00 -0.00000000000E+00 -0.20932233023E+03  0.20932233023E+03  0.00000000000E+00 0.  1.
         23    2    1    2    0    0  0.33177538908E+03 -0.14728885511E+03  0.48047864304E+03  0.60896879526E+03  0.90633059876E+02 0.  0.
        254    2    1    2    0    0 -0.33177538908E+03  0.14728885511E+03  0.14917003290E+04  0.17818548373E+04  0.90447104644E+03 0.  0.
        -24    2    4    4    0    0 -0.48550374273E+03  0.11799694134E+03  0.15223222393E+04  0.16042146098E+04  0.80014696322E+02 0.  0.
         24    2    4    4    0    0  0.15372835365E+03  0.29291913765E+02 -0.30621910252E+02  0.17764022750E+03  0.78281071221E+02 0.  0.
         13    1    3    3    0    0  0.10937575002E+03 -0.54021217590E+02  0.96524434549E+02  0.15555806989E+03  0.00000000000E+00 0.  1.
        -13    1    3    3    0    0  0.22239963906E+03 -0.93267637518E+02  0.38395420849E+03  0.45341072537E+03  0.00000000000E+00 0. -1.
          4    1    6    6  502    0  0.10409083319E+03 -0.18415217446E+02 -0.12465215766E+02  0.10643967020E+03  0.00000000000E+00 0. -1.
          3    1    5    5  503    0 -0.29663011102E+03  0.40049646688E+02  0.97933431173E+03  0.10240552188E+04  0.00000000000E+00 0. -1.
         -4    1    5    5    0  503 -0.18887363171E+03  0.77947294655E+02  0.54298792753E+03  0.58015939098E+03  0.00000000000E+00 0.  1.
         -3    1    6    6    0  502  0.49637520461E+02  0.47707131211E+02 -0.18156694486E+02  0.71200557305E+02  0.00000000000E+00 0.  1.
<mgrwt>
<rscale>  0 0.13514983E+04</rscale>
<asrwt>0</asrwt>
<pdfrwt beam="1">  1        1 0.33561557E+00 0.13514983E+04</pdfrwt>
<pdfrwt beam="2">  1       -1 0.32203437E-01 0.13514983E+04</pdfrwt>
<totfact> 0.19800865E+01</totfact>
</mgrwt>
</event>
<event>
12    1  0.1506149E-007  0.3339556E+04  0.7818608E-02  0.8152903E-01
          2   -1    0    0  501    0  0.00000000000E+00  0.00000000000E+00  0.12102962622E+04  0.12102962622E+04  0.00000000000E+00 0. -1.
         -2   -1    0    0    0  501 -0.00000000000E+00 -0.00000000000E+00 -0.23036992187E+04  0.23036992187E+04  0.00000000000E+00 0.  1.
         23    2    1    2    0    0  0.13931854645E+04 -0.58216385477E+03 -0.87179423388E+03  0.17459184909E+04  0.91245266119E+02 0.  0.
        254    2    1    2    0    0 -0.13931854645E+04  0.58216385477E+03 -0.22160872259E+03  0.17680769900E+04  0.89280755173E+03 0.  0.
        -24    2    4    4    0    0 -0.22528264591E+03  0.69090503615E+02  0.29833965828E+03  0.38808868898E+03  0.77977628700E+02 0.  0.
         24    2    4    4    0    0 -0.11679028185E+04  0.51307335115E+03 -0.51994838087E+03  0.13799883010E+04  0.82341574604E+02 0.  0.
         13    1    3    3    0    0  0.30475709994E+02  0.84379425493E+00 -0.16765123384E+02  0.34792962657E+02  0.00000000000E+00 0.  1.
        -13    1    3    3    0    0  0.13627097545E+04 -0.58300764902E+03 -0.85502911049E+03  0.17111255283E+04  0.00000000000E+00 0. -1.
          2    1    6    6  502    0 -0.10250162667E+04  0.43022927736E+03 -0.42995340244E+03  0.11918957615E+04  0.00000000000E+00 0. -1.
          3    1    5    5  503    0 -0.16249990579E+03  0.80005464515E+02  0.24678661842E+03  0.30612208147E+03  0.00000000000E+00 0. -1.
         -4    1    5    5    0  503 -0.62782740119E+02 -0.10914960899E+02  0.51553039861E+02  0.81966607513E+02  0.00000000000E+00 0.  1.
         -1    1    6    6    0  502 -0.14288655184E+03  0.82844073790E+02 -0.89994978428E+02  0.18809253946E+03  0.00000000000E+00 0.  1.
<mgrwt>
<rscale>  0 0.33395560E+04</rscale>
<asrwt>0</asrwt>
<pdfrwt beam="1">  1        2 0.18619943E+00 0.33395560E+04</pdfrwt>
<pdfrwt beam="2">  1       -2 0.35441526E+00 0.33395560E+04</pdfrwt>
<totfact> 0.22672746E-01</totfact>
</mgrwt>
</event>
<event>
12    1  0.1506149E-007  0.2099527E+04  0.7818608E-02  0.8561452E-01
          1   -1    0    0  501    0  0.00000000000E+00  0.00000000000E+00  0.42262834948E+04  0.42262834948E+04  0.00000000000E+00 0. -1.
         -1   -1    0    0    0  501 -0.00000000000E+00 -0.00000000000E+00 -0.26074993507E+03  0.26074993507E+03  0.00000000000E+00 0.  1.
         23    2    1    2    0    0 -0.29941541323E+03 -0.44645472635E+03  0.20395654427E+03  0.58253471818E+03  0.93685716995E+02 0.  0.
        254    2    1    2    0    0  0.29941541323E+03  0.44645472635E+03  0.37615770154E+04  0.39044987117E+04  0.89815206622E+03 0.  0.
        -24    2    4    4    0    0  0.48855618382E+03  0.21488238539E+03  0.11028045439E+04  0.12277305320E+04  0.79264196078E+02 0.  0.
         24    2    4    4    0    0 -0.18914077059E+03  0.23157234096E+03  0.26587724715E+04  0.26767681797E+04  0.81344036639E+02 0.  0.
         13    1    3    3    0    0 -0.67466683758E+02 -0.82564801650E+02  0.80787585283E+02  0.13377344215E+03  0.00000000000E+00 0. -1.
        -13    1    3    3    0    0 -0.23194872947E+03 -0.36388992470E+03  0.12316895899E+03  0.44876127603E+03  0.00000000000E+00 0.  1.
          4    1    6    6  502    0 -0.19338419453E+03  0.23049972082E+03  0.26493341369E+04  0.26663643669E+04  0.00000000000E+00 0. -1.
          3    1    5    5  503    0  0.39102130556E+03  0.19529112245E+03  0.94504224675E+03  0.10412209814E+04  0.00000000000E+00 0. -1.
         -4    1    5    5    0  503  0.97534878260E+02  0.19591262944E+02  0.15776229714E+03  0.18650955058E+03  0.00000000000E+00 0.  1.
         -3    1    6    6    0  502  0.42434239402E+01  0.10726201358E+01  0.94383346028E+01  0.10403812799E+02  0.00000000000E+00 0.  1.
<mgrwt>
<rscale>  0 0.20995268E+04</rscale>
<asrwt>0</asrwt>
<pdfrwt beam="1">  1        1 0.65019741E+00 0.20995268E+04</pdfrwt>
<pdfrwt beam="2">  1       -1 0.40115378E-01 0.20995268E+04</pdfrwt>
<totfact> 0.33601698E-01</totfact>
</mgrwt>
</event>
<event>
12    1  0.1506149E-007  0.1757072E+04  0.7818608E-02  0.8729467E-01
         -2   -1    0    0    0  501 -0.00000000000E+00  0.00000000000E+00  0.56961597796E+03  0.56961597796E+03  0.00000000000E+00 0.  1.
          2   -1    0    0  501    0  0.00000000000E+00 -0.00000000000E+00 -0.13549934907E+04  0.13549934907E+04  0.00000000000E+00 0. -1.
         23    2    1    2    0    0  0.63160996823E+03  0.86977425221E+02 -0.19290995898E+03  0.67224636799E+03  0.90579813115E+02 0.  0.
        254    2    1    2    0    0 -0.63160996823E+03 -0.86977425221E+02 -0.59246755380E+03  0.12523631007E+04  0.90049947766E+03 0.  0.
        -24    2    4    4    0    0 -0.45787003960E+03 -0.47918907620E+03 -0.34097894194E+03  0.74954239921E+03  0.79246611705E+02 0.  0.
         24    2    4    4    0    0 -0.17373992863E+03  0.39221165098E+03 -0.25148861186E+03  0.50282070150E+03  0.74609610614E+02 0.  0.
         11    1    3    3    0    0  0.14141132106E+03  0.35820249094E+02 -0.80935586988E+02  0.16682572107E+03  0.00000000000E+00 0. -1.
        -11    1    3    3    0    0  0.49019864717E+03  0.51157176127E+02 -0.11197437199E+03  0.50542064692E+03  0.00000000000E+00 0.  1.
          4    1    6    6  502    0 -0.14023465730E+03  0.23370540170E+03 -0.17279937233E+03  0.32271287079E+03  0.00000000000E+00 0. -1.
          3    1    5    5  503    0 -0.33481042205E+03 -0.39728063967E+03 -0.25954083370E+03  0.58076791383E+03  0.00000000000E+00 0. -1.
         -4    1    5    5    0  503 -0.12305961754E+03 -0.81908436526E+02 -0.81438108237E+02  0.16877448539E+03  0.00000000000E+00 0.  1.
         -3    1    6    6    0  502 -0.33505271335E+02  0.15850624928E+03 -0.78689239529E+02  0.18010783071E+03  0.00000000000E+00 0.  1.
<mgrwt>
<rscale>  0 0.17570725E+04</rscale>
<asrwt>0</asrwt>
<pdfrwt beam="1">  1        2 0.20846053E+00 0.17570725E+04</pdfrwt>
<pdfrwt beam="2">  1       -2 0.87633229E-01 0.17570725E+04</pdfrwt>
<totfact> 0.16351054E+01</totfact>
</mgrwt>
</event>
<event>
12    1  0.1506149E-007  0.1731143E+04  0.7818608E-02  0.8743799E-01
          2   -1    0    0  501    0  0.00000000000E+00  0.00000000000E+00  0.19458979730E+04  0.19458979730E+04  0.00000000000E+00 0. -1.
         -2   -1    0    0    0  501 -0.00000000000E+00 -0.00000000000E+00 -0.38502226819E+03  0.38502226819E+03  0.00000000000E+00 0.  1.
         23    2    1    2    0    0 -0.61241835194E+03  0.31634793039E+02  0.72089716704E+03  0.95078579026E+03  0.90795900756E+02 0.  0.
        254    2    1    2    0    0  0.61241835194E+03 -0.31634793039E+02  0.83997853780E+03  0.13801344510E+04  0.90727623182E+03 0.  0.
        -24    2    4    4    0    0  0.51895772489E+03 -0.35292239556E+03  0.21706191709E+03  0.66898205439E+03  0.80930684724E+02 0.  0.
         24    2    4    4    0    0  0.93460627052E+02  0.32128760252E+03  0.62291662071E+03  0.71115239657E+03  0.75841957064E+02 0.  0.
         13    1    3    3    0    0 -0.94254136594E+02  0.11791753437E+02  0.16641408583E+03  0.19161559351E+03  0.00000000000E+00 0.  1.
        -13    1    3    3    0    0 -0.51816421535E+03  0.19843039602E+02  0.55448308121E+03  0.75917019675E+03  0.00000000000E+00 0. -1.
          2    1    6    6  502    0  0.26207172375E+02  0.17539923490E+03  0.26537116054E+03  0.31917637809E+03  0.00000000000E+00 0. -1.
          1    1    5    5  503    0  0.13458308082E+03 -0.13089975919E+03  0.83158838234E+02  0.20533568851E+03  0.00000000000E+00 0. -1.
         -2    1    5    5    0  503  0.38437464407E+03 -0.22202263637E+03  0.13390307886E+03  0.46364636588E+03  0.00000000000E+00 0.  1.
         -3    1    6    6    0  502  0.67253454677E+02  0.14588836762E+03  0.35754546017E+03  0.39197601848E+03  0.00000000000E+00 0.  1.
<mgrwt>
<rscale>  0 0.17311430E+04</rscale>
<asrwt>0</asrwt>
<pdfrwt beam="1">  1        2 0.29936891E+00 0.17311430E+04</pdfrwt>
<pdfrwt beam="2">  1       -2 0.59234196E-01 0.17311430E+04</pdfrwt>
<totfact> 0.18088533E+01</totfact>
</mgrwt>
</event>
<event>
12    1  0.1506149E-007  0.2549356E+04  0.7818608E-02  0.8385610E-01
         -1   -1    0    0    0  501 -0.00000000000E+00  0.00000000000E+00  0.16063931106E+04  0.16063931106E+04  0.00000000000E+00 0.  1.
          1   -1    0    0  501    0  0.00000000000E+00 -0.00000000000E+00 -0.10114610589E+04  0.10114610589E+04  0.00000000000E+00 0. -1.
         23    2    1    2    0    0 -0.96923991046E+03 -0.16737791414E+03  0.79797258929E+03  0.12697094884E+04  0.89221979457E+02 0.  0.
        254    2    1    2    0    0  0.96923991046E+03  0.16737791414E+03 -0.20304053755E+03  0.13481446811E+04  0.89934823678E+03 0.  0.
        -24    2    4    4    0    0  0.56697310093E+03  0.52812299353E+03 -0.50334922461E+02  0.78064128004E+03  0.80590385393E+02 0.  0.
         24    2    4    4    0    0  0.40226680953E+03 -0.36074507939E+03 -0.15270561509E+03  0.56750340101E+03  0.82374188429E+02 0.  0.
         11    1    3    3    0    0 -0.91249852700E+03 -0.17579613514E+03  0.73757144821E+03  0.11864103355E+04  0.00000000000E+00 0.  1.
        -11    1    3    3    0    0 -0.56741383457E+02  0.84182209961E+01  0.60401141083E+02  0.83299152970E+02  0.00000000000E+00 0. -1.
          4    1    6    6  502    0  0.34006935722E+03 -0.29921292109E+03 -0.15831501522E+03  0.47983245400E+03  0.00000000000E+00 0. -1.
          1    1    5    5  503    0  0.30453687368E+03  0.31559478238E+03  0.40666200127E+01  0.43858786063E+03  0.00000000000E+00 0. -1.
         -2    1    5    5    0  503  0.26243622725E+03  0.21252821115E+03 -0.54401542474E+02  0.34205341941E+03  0.00000000000E+00 0.  1.
         -3    1    6    6    0  502  0.62197452315E+02 -0.61532158303E+02  0.56094001322E+01  0.87670947011E+02  0.00000000000E+00 0.  1.
<mgrwt>
<rscale>  0 0.25493561E+04</rscale>
<asrwt>0</asrwt>
<pdfrwt beam="1">  1        1 0.15560939E+00 0.25493561E+04</pdfrwt>
<pdfrwt beam="2">  1       -1 0.24713740E+00 0.25493561E+04</pdfrwt>
<totfact> 0.95440178E-01</totfact>
</mgrwt>
</event>
<event>
12    1  0.1506149E-007  0.4300444E+04  0.7818608E-02  0.7946536E-01
         -2   -1    0    0    0  501 -0.00000000000E+00  0.00000000000E+00  0.14791056757E+04  0.14791056757E+04  0.00000000000E+00 0.  1.
          2   -1    0    0  501    0  0.00000000000E+00 -0.00000000000E+00 -0.31258441731E+04  0.31258441731E+04  0.00000000000E+00 0. -1.
         23    2    1    2    0    0  0.77503302389E+03  0.46504636299E+03 -0.27636057907E+04  0.29092072561E+04  0.95003075680E+02 0.  0.
        254    2    1    2    0    0 -0.77503302389E+03 -0.46504636299E+03  0.11168672933E+04  0.16957425927E+04  0.90066979634E+03 0.  0.
        -24    2    4    4    0    0 -0.25179240558E+03  0.22256468182E+03  0.58044084129E+03  0.67562935111E+03  0.81418651044E+02 0.  0.
         24    2    4    4    0    0 -0.52324061831E+03 -0.68761104480E+03  0.53642645203E+03  0.10201132416E+04  0.79296870692E+02 0.  0.
         11    1    3    3    0    0  0.47120654956E+02  0.19518159484E+02 -0.23471021482E+03  0.24018784235E+03  0.00000000000E+00 0.  1.
        -11    1    3    3    0    0  0.72791236894E+03  0.44552820350E+03 -0.25288955759E+04  0.26690194137E+04  0.00000000000E+00 0. -1.
          2    1    6    6  502    0 -0.42539684083E+03 -0.58426988209E+03  0.47666841357E+03  0.86576356114E+03  0.00000000000E+00 0. -1.
          1    1    5    5  503    0 -0.15819508993E+03  0.17287495221E+03  0.34063691645E+03  0.41345488802E+03  0.00000000000E+00 0. -1.
         -2    1    5    5    0  503 -0.93597315651E+02  0.49689729609E+02  0.23980392484E+03  0.26217446309E+03  0.00000000000E+00 0.  1.
         -1    1    6    6    0  502 -0.97843777477E+02 -0.10334116272E+03  0.59758038458E+02  0.15434968048E+03  0.00000000000E+00 0.  1.
<mgrwt>
<rscale>  0 0.43004436E+04</rscale>
<asrwt>0</asrwt>
<pdfrwt beam="1">  1        2 0.48089910E+00 0.43004436E+04</pdfrwt>
<pdfrwt beam="2">  1       -2 0.22755472E+00 0.43004436E+04</pdfrwt>
<totfact> 0.98706269E-02</totfact>
</mgrwt>
</event>
<event>
12    1  0.1506149E-007  0.3187459E+04  0.7818608E-02  0.8192137E-01
         -2   -1    0    0    0  501 -0.00000000000E+00  0.00000000000E+00  0.96591703443E+03  0.96591703443E+03  0.00000000000E+00 0.  1.
          2   -1    0    0  501    0  0.00000000000E+00 -0.00000000000E+00 -0.26295981531E+04  0.26295981531E+04  0.00000000000E+00 0. -1.
         23    2    1    2    0    0  0.21272935422E+03  0.14406042657E+04 -0.89841525609E+03  0.17134943575E+04  0.91205878437E+02 0.  0.
        254    2    1    2    0    0 -0.21272935422E+03 -0.14406042657E+04 -0.76526586261E+03  0.18820208301E+04  0.91420792805E+03 0.  0.
        -24    2    4    4    0    0 -0.43852252163E+03 -0.27129082134E+03 -0.29306522365E+03  0.59837852565E+03  0.79176530123E+02 0.  0.
         24    2    4    4    0    0  0.22579316741E+03 -0.11693134444E+04 -0.47220063897E+03  0.12836423044E+04  0.80545866237E+02 0.  0.
         13    1    3    3    0    0  0.32724104299E+02  0.48081195747E+03 -0.27333262065E+03  0.55404126829E+03  0.00000000000E+00 0.  1.
        -13    1    3    3    0    0  0.18000524992E+03  0.95979230825E+03 -0.62508263544E+03  0.11594530892E+04  0.00000000000E+00 0. -1.
          4    1    6    6  502    0  0.91386559577E+02 -0.35756274912E+03 -0.11411423647E+03  0.38629610637E+03  0.00000000000E+00 0. -1.
          3    1    5    5  503    0 -0.11817530090E+01 -0.13025663768E+02 -0.27798479869E+01  0.13371313010E+02  0.00000000000E+00 0. -1.
         -2    1    5    5    0  503 -0.43734076862E+03 -0.25826515757E+03 -0.29028537566E+03  0.58500721264E+03  0.00000000000E+00 0.  1.
         -3    1    6    6    0  502  0.13440660783E+03 -0.81175069526E+03 -0.35808640249E+03  0.89734619804E+03  0.00000000000E+00 0.  1.
<mgrwt>
<rscale>  0 0.31874590E+04</rscale>
<asrwt>0</asrwt>
<pdfrwt beam="1">  1        2 0.40455356E+00 0.31874590E+04</pdfrwt>
<pdfrwt beam="2">  1       -2 0.14860262E+00 0.31874590E+04</pdfrwt>
<totfact> 0.75666281E-01</totfact>
</mgrwt>
</event>
<event>
12    1  0.1506149E-007  0.1239015E+04  0.7818608E-02  0.9079376E-01
         -2   -1    0    0    0  501 -0.00000000000E+00  0.00000000000E+00  0.36057829139E+03  0.36057829139E+03  0.00000000000E+00 0.  1.
          2   -1    0    0  501    0  0.00000000000E+00 -0.00000000000E+00 -0.10643726219E+04  0.10643726219E+04  0.00000000000E+00 0. -1.
         23    2    1    2    0    0  0.19705678012E+03 -0.15629064902E+03 -0.33799556846E+03  0.43040415358E+03  0.88026073160E+02 0.  0.
        254    2    1    2    0    0 -0.19705678012E+03  0.15629064902E+03 -0.36579876204E+03  0.99454675970E+03  0.88997549481E+03 0.  0.
        -24    2    4    4    0    0 -0.14374293015E+03  0.42382775303E+03  0.84017983318E+02  0.46237638291E+03  0.80255241248E+02 0.  0.
         24    2    4    4    0    0 -0.53313849973E+02 -0.26753710401E+03 -0.44981674536E+03  0.53217037680E+03  0.80322704819E+02 0.  0.
         11    1    3    3    0    0  0.17105625543E+03 -0.89187364295E+02 -0.22429072074E+03  0.29583940894E+03  0.00000000000E+00 0. -1.
        -11    1    3    3    0    0  0.26000524696E+02 -0.67103284723E+02 -0.11370484772E+03  0.13456474464E+03  0.00000000000E+00 0.  1.
          4    1    6    6  502    0 -0.32449700454E+02 -0.24869389434E+03 -0.42992201253E+03  0.49772941745E+03  0.00000000000E+00 0. -1.
          3    1    5    5  503    0 -0.20793429725E+02  0.15970079186E+03  0.78342485997E+01  0.16123921697E+03  0.00000000000E+00 0. -1.
         -4    1    5    5    0  503 -0.12294950043E+03  0.26412696117E+03  0.76183734718E+02  0.30113716594E+03  0.00000000000E+00 0.  1.
         -3    1    6    6    0  502 -0.20864149520E+02 -0.18843209672E+02 -0.19894732831E+02  0.34440959341E+02  0.00000000000E+00 0.  1.
<mgrwt>
<rscale>  0 0.12390152E+04</rscale>
<asrwt>0</asrwt>
<pdfrwt beam="1">  1        2 0.16374963E+00 0.12390152E+04</pdfrwt>
<pdfrwt beam="2">  1       -2 0.55473584E-01 0.12390152E+04</pdfrwt>
<totfact> 0.68909926E+01</totfact>
</mgrwt>
</event>
<event>
12    1  0.1506149E-007  0.1868162E+04  0.7818608E-02  0.8670869E-01
          2   -1    0    0  501    0  0.00000000000E+00  0.00000000000E+00  0.14626567263E+04  0.14626567263E+04  0.00000000000E+00 0. -1.
         -2   -1    0    0    0  501 -0.00000000000E+00 -0.00000000000E+00 -0.59652212573E+03  0.59652212573E+03  0.00000000000E+00 0.  1.
         23    2    1    2    0    0 -0.25077996260E+03  0.26793364502E+03 -0.34403733447E+03  0.51139328827E+03  0.92099837143E+02 0.  0.
        254    2    1    2    0    0  0.25077996260E+03 -0.26793364502E+03  0.12101719350E+04  0.15477855638E+04  0.89243767917E+03 0.  0.
        -24    2    4    4    0    0  0.55800716252E+03 -0.26111990416E+03  0.61936282820E+03  0.87717623391E+03  0.79197440736E+02 0.  0.
         24    2    4    4    0    0 -0.30722719992E+03 -0.68137408646E+01  0.59080910685E+03  0.67060932984E+03  0.78908130718E+02 0.  0.
         13    1    3    3    0    0 -0.16458655910E+03  0.12186221928E+03 -0.22463201656E+03  0.30397150983E+03  0.00000000000E+00 0. -1.
        -13    1    3    3    0    0 -0.86193403498E+02  0.14607142575E+03 -0.11940531791E+03  0.20742177844E+03  0.00000000000E+00 0.  1.
          4    1    6    6  502    0 -0.24245575040E+02  0.17552987075E+02  0.32359271583E+02  0.44080355280E+02  0.00000000000E+00 0. -1.
          3    1    5    5  503    0  0.13471964681E+03 -0.94248477219E+02  0.19423690049E+03  0.25448012144E+03  0.00000000000E+00 0. -1.
         -4    1    5    5    0  503  0.42328751571E+03 -0.16687142694E+03  0.42512592771E+03  0.62269611248E+03  0.00000000000E+00 0.  1.
         -3    1    6    6    0  502 -0.28298162488E+03 -0.24366727939E+02  0.55844983527E+03  0.62652897456E+03  0.00000000000E+00 0.  1.
<mgrwt>
<rscale>  0 0.18681618E+04</rscale>
<asrwt>0</asrwt>
<pdfrwt beam="1">  1        2 0.22502411E+00 0.18681618E+04</pdfrwt>
<pdfrwt beam="2">  1       -2 0.91772635E-01 0.18681618E+04</pdfrwt>
<totfact> 0.12641862E+01</totfact>
</mgrwt>
</event>
<event>
12    1  0.1506149E-007  0.1227422E+04  0.7818608E-02  0.9089187E-01
          1   -1    0    0  501    0  0.00000000000E+00  0.00000000000E+00  0.79913487873E+03  0.79913487873E+03  0.00000000000E+00 0. -1.
         -1   -1    0    0    0  501 -0.00000000000E+00 -0.00000000000E+00 -0.47131141477E+03  0.47131141477E+03  0.00000000000E+00 0.  1.
         23    2    1    2    0    0 -0.63276779738E+02 -0.18158247201E+02  0.33353545042E+03  0.35151419799E+03  0.89345743609E+02 0.  0.
        254    2    1    2    0    0  0.63276779738E+02  0.18158247201E+02 -0.57119864647E+01  0.91893209552E+03  0.91655326991E+03 0.  0.
        -24    2    4    4    0    0  0.53723280436E+02 -0.36505624303E+03  0.24864002581E+03  0.45194294656E+03  0.79235806777E+02 0.  0.
         24    2    4    4    0    0  0.95534993012E+01  0.38321449023E+03 -0.25435201228E+03  0.46698914895E+03  0.80245275364E+02 0.  0.
         11    1    3    3    0    0 -0.83000921971E+02 -0.10342763432E+02  0.30299218496E+03  0.31432529321E+03  0.00000000000E+00 0. -1.
        -11    1    3    3    0    0  0.19724142233E+02 -0.78154837694E+01  0.30543265459E+02  0.37188904774E+02  0.00000000000E+00 0.  1.
          4    1    6    6  502    0  0.16777391312E+02  0.43288670194E+02 -0.58247549014E+02  0.74486017430E+02  0.00000000000E+00 0. -1.
          3    1    5    5  503    0  0.23986418365E+02 -0.43090239883E+02  0.10623057969E+02  0.50447660003E+02  0.00000000000E+00 0. -1.
         -4    1    5    5    0  503  0.29736862071E+02 -0.32196600315E+03  0.23801696784E+03  0.40149528656E+03  0.00000000000E+00 0.  1.
         -3    1    6    6    0  502 -0.72238920106E+01  0.33992582004E+03 -0.19610446326E+03  0.39250313153E+03  0.00000000000E+00 0.  1.
<mgrwt>
<rscale>  0 0.12274223E+04</rscale>
<asrwt>0</asrwt>
<pdfrwt beam="1">  1        1 0.12294383E+00 0.12274223E+04</pdfrwt>
<pdfrwt beam="2">  1       -1 0.72509448E-01 0.12274223E+04</pdfrwt>
<totfact> 0.41983275E+01</totfact>
</mgrwt>
</event>
<event>
12    1  0.1506149E-007  0.1852722E+04  0.7818608E-02  0.8678755E-01
          2   -1    0    0  501    0  0.00000000000E+00  0.00000000000E+00  0.81226715985E+03  0.81226715985E+03  0.00000000000E+00 0. -1.
         -2   -1    0    0    0  501 -0.00000000000E+00 -0.00000000000E+00 -0.10564802921E+04  0.10564802921E+04  0.00000000000E+00 0.  1.
         23    2    1    2    0    0  0.53493763551E+03 -0.41100456533E+02  0.36171176156E+03  0.65206065188E+03  0.80623655719E+02 0.  0.
        254    2    1    2    0    0 -0.53493763551E+03  0.41100456533E+02 -0.60592489382E+03  0.12166868001E+04  0.90847909779E+03 0.  0.
        -24    2    4    4    0    0 -0.48826903316E+03 -0.32831370202E+03 -0.13313295007E+03  0.60962502303E+03  0.87873492173E+02 0.  0.
         24    2    4    4    0    0 -0.46668602348E+02  0.36941415855E+03 -0.47279194375E+03  0.60706177705E+03  0.79668061983E+02 0.  0.
         11    1    3    3    0    0  0.24021551922E+03 -0.28351075358E+02  0.21007040947E+03  0.32036987386E+03  0.00000000000E+00 0. -1.
        -11    1    3    3    0    0  0.29472211629E+03 -0.12749381175E+02  0.15164135209E+03  0.33169077801E+03  0.00000000000E+00 0.  1.
          4    1    6    6  502    0 -0.41187604501E+02  0.13077291510E+03 -0.22124336816E+03  0.26028177432E+03  0.00000000000E+00 0. -1.
          3    1    5    5  503    0 -0.22222647172E+03 -0.98950715824E+02 -0.43693650243E+02  0.24715376584E+03  0.00000000000E+00 0. -1.
         -4    1    5    5    0  503 -0.26604256144E+03 -0.22936298620E+03 -0.89439299830E+02  0.36247125719E+03  0.00000000000E+00 0.  1.
         -3    1    6    6    0  502 -0.54809978469E+01  0.23864124345E+03 -0.25154857559E+03  0.34678000273E+03  0.00000000000E+00 0.  1.
<mgrwt>
<rscale>  0 0.18527215E+04</rscale>
<asrwt>0</asrwt>
<pdfrwt beam="1">  1        2 0.12496418E+00 0.18527215E+04</pdfrwt>
<pdfrwt beam="2">  1       -2 0.16253543E+00 0.18527215E+04</pdfrwt>
<totfact> 0.76530490E+00</totfact>
</mgrwt>
</event>
<event>
12    1  0.1506149E-007  0.1075603E+04  0.7818608E-02  0.9229303E-01
         -1   -1    0    0    0  501 -0.00000000000E+00  0.00000000000E+00  0.98444433475E+02  0.98444433475E+02  0.00000000000E+00 0.  1.
          1   -1    0    0  501    0  0.00000000000E+00 -0.00000000000E+00 -0.29380059560E+04  0.29380059560E+04  0.00000000000E+00 0. -1.
         23    2    1    2    0    0 -0.35136872428E+02  0.51337566570E+02 -0.77132577145E+03  0.77923855520E+03  0.91646793027E+02 0.  0.
        254    2    1    2    0    0  0.35136872428E+02 -0.51337566570E+02 -0.20682357511E+04  0.22572118343E+04  0.90196230364E+03 0.  0.
        -24    2    4    4    0    0  0.34367487576E+02  0.39059925571E+03 -0.59481073749E+03  0.71677286081E+03  0.78832847242E+02 0.  0.
         24    2    4    4    0    0  0.76938485186E+00 -0.44193682228E+03 -0.14734250136E+04  0.15404389734E+04  0.81622383137E+02 0.  0.
         11    1    3    3    0    0  0.28948106123E+02  0.29634003711E+02 -0.23003595687E+03  0.23373640811E+03  0.00000000000E+00 0.  1.
        -11    1    3    3    0    0 -0.64084978551E+02  0.21703562859E+02 -0.54128981458E+03  0.54550214709E+03  0.00000000000E+00 0. -1.
          2    1    6    6  502    0  0.21431655212E+02 -0.35398648151E+03 -0.10784100243E+04  0.11352241741E+04  0.00000000000E+00 0. -1.
          3    1    5    5  503    0  0.54828151406E+02  0.34813066496E+03 -0.51393776303E+03  0.62316379094E+03  0.00000000000E+00 0. -1.
         -4    1    5    5    0  503 -0.20460663830E+02  0.42468590750E+02 -0.80872974455E+02  0.93609069870E+02  0.00000000000E+00 0.  1.
         -1    1    6    6    0  502 -0.20662270360E+02 -0.87950340769E+02 -0.39501498928E+03  0.40521479935E+03  0.00000000000E+00 0.  1.
<mgrwt>
<rscale>  0 0.10756028E+04</rscale>
<asrwt>0</asrwt>
<pdfrwt beam="1">  1        1 0.45200092E+00 0.10756028E+04</pdfrwt>
<pdfrwt beam="2">  1       -1 0.15145297E-01 0.10756028E+04</pdfrwt>
<totfact> 0.21812359E+01</totfact>
</mgrwt>
</event>
<event>
12    1  0.1506149E-007  0.2352550E+04  0.7818608E-02  0.8457485E-01
         -1   -1    0    0    0  501 -0.00000000000E+00  0.00000000000E+00  0.69231748029E+03  0.69231748029E+03  0.00000000000E+00 0.  1.
          1   -1    0    0  501    0  0.00000000000E+00 -0.00000000000E+00 -0.19985376504E+04  0.19985376504E+04  0.00000000000E+00 0. -1.
         23    2    1    2    0    0  0.47162716664E+03  0.63121589183E+03  0.14581612932E+03  0.80571972152E+03  0.84001426576E+02 0.  0.
        254    2    1    2    0    0 -0.47162716664E+03 -0.63121589183E+03 -0.14520362994E+04  0.18851354092E+04  0.90799802291E+03 0.  0.
        -24    2    4    4    0    0 -0.52883378597E+03 -0.71070423861E+03 -0.15045378654E+04  0.17478048811E+04  0.80137545094E+02 0.  0.
         24    2    4    4    0    0  0.57206619333E+02  0.79488346782E+02  0.52501565941E+02  0.13733052805E+03  0.80698605563E+02 0.  0.
         11    1    3    3    0    0  0.20802437583E+03  0.23950405577E+03  0.93249351730E+02  0.33065355778E+03  0.00000000000E+00 0. -1.
        -11    1    3    3    0    0  0.26360279081E+03  0.39171183606E+03  0.52566777591E+02  0.47506616375E+03  0.00000000000E+00 0.  1.
          2    1    6    6  502    0  0.43904236490E+01 -0.53705025669E+01 -0.15131537877E+02  0.16645766914E+02  0.00000000000E+00 0. -1.
          3    1    5    5  503    0 -0.36815685337E+03 -0.46885155070E+03 -0.94259890871E+03  0.11152820038E+04  0.00000000000E+00 0. -1.
         -4    1    5    5    0  503 -0.16067693260E+03 -0.24185268791E+03 -0.56193895666E+03  0.63252287731E+03  0.00000000000E+00 0.  1.
         -1    1    6    6    0  502  0.52816195684E+02  0.84858849348E+02  0.67633103818E+02  0.12068476114E+03  0.00000000000E+00 0.  1.
<mgrwt>
<rscale>  0 0.23525497E+04</rscale>
<asrwt>0</asrwt>
<pdfrwt beam="1">  1        1 0.30746733E+00 0.23525497E+04</pdfrwt>
<pdfrwt beam="2">  1       -1 0.10651038E+00 0.23525497E+04</pdfrwt>
<totfact> 0.22124904E+00</totfact>
</mgrwt>
</event>
<event>
12    1  0.1506149E-007  0.2233127E+04  0.7818608E-02  0.8504765E-01
         -2   -1    0    0    0  501 -0.00000000000E+00  0.00000000000E+00  0.35436082679E+03  0.35436082679E+03  0.00000000000E+00 0.  1.
          2   -1    0    0  501    0  0.00000000000E+00 -0.00000000000E+00 -0.35182035459E+04  0.35182035459E+04  0.00000000000E+00 0. -1.
         23    2    1    2    0    0 -0.73550567607E+03  0.32038867146E+03 -0.50655256082E+03  0.95295719193E+03  0.88962983615E+02 0.  0.
        254    2    1    2    0    0  0.73550567607E+03 -0.32038867146E+03 -0.26572901583E+04  0.29196071808E+04  0.90515059760E+03 0.  0.
        -24    2    4    4    0    0  0.71440326665E+03  0.14569322129E+03 -0.17088096818E+04  0.18595613739E+04  0.79620554183E+02 0.  0.
         24    2    4    4    0    0  0.21102409417E+02 -0.46608189275E+03 -0.94848047653E+03  0.10600458069E+04  0.80026594978E+02 0.  0.
         13    1    3    3    0    0  0.17610113784E+01 -0.17847045391E+01 -0.23893976278E+01  0.34634595985E+01  0.00000000000E+00 0. -1.
        -13    1    3    3    0    0 -0.73726668744E+03  0.32217337600E+03 -0.50416316319E+03  0.94949373233E+03  0.00000000000E+00 0.  1.
          2    1    6    6  502    0 -0.21622414287E+01 -0.24206797270E+03 -0.57551155211E+03  0.62435176408E+03  0.00000000000E+00 0. -1.
          1    1    5    5  503    0  0.22108953206E+03  0.53540510573E+02 -0.44536525460E+03  0.50009736798E+03  0.00000000000E+00 0. -1.
         -2    1    5    5    0  503  0.49331373459E+03  0.92152710713E+02 -0.12634444272E+04  0.13594640059E+04  0.00000000000E+00 0.  1.
         -1    1    6    6    0  502  0.23264650846E+02 -0.22401392004E+03 -0.37296892442E+03  0.43569404280E+03  0.00000000000E+00 0.  1.
<mgrwt>
<rscale>  0 0.22331265E+04</rscale>
<asrwt>0</asrwt>
<pdfrwt beam="1">  1        2 0.54126206E+00 0.22331265E+04</pdfrwt>
<pdfrwt beam="2">  1       -2 0.54517053E-01 0.22331265E+04</pdfrwt>
<totfact> 0.22861580E+00</totfact>
</mgrwt>
</event>
<event>
12    1  0.1506149E-007  0.1547512E+04  0.7818608E-02  0.8853459E-01
          2   -1    0    0  501    0  0.00000000000E+00  0.00000000000E+00  0.73930519823E+03  0.73930519823E+03  0.00000000000E+00 0. -1.
         -2   -1    0    0    0  501 -0.00000000000E+00 -0.00000000000E+00 -0.80981186795E+03  0.80981186795E+03  0.00000000000E+00 0.  1.
         23    2    1    2    0    0 -0.37641575767E+03  0.33880614315E+03 -0.19148272184E+02  0.51515602045E+03  0.92415603759E+02 0.  0.
        254    2    1    2    0    0  0.37641575767E+03 -0.33880614315E+03 -0.51358397537E+02  0.10339610457E+04  0.89997740739E+03 0.  0.
        -24    2    4    4    0    0  0.41583667635E+02 -0.48727017334E+03  0.24806672168E+03  0.55420302691E+03  0.80265019739E+02 0.  0.
         24    2    4    4    0    0  0.33483209004E+03  0.14846403019E+03 -0.29942511921E+03  0.47975801881E+03  0.79738684586E+02 0.  0.
         11    1    3    3    0    0 -0.29232889901E+03  0.30954821255E+03 -0.16490773837E+02  0.42608476470E+03  0.00000000000E+00 0. -1.
        -11    1    3    3    0    0 -0.84086858667E+02  0.29257930598E+02 -0.26574983475E+01  0.89071255750E+02  0.00000000000E+00 0.  1.
          2    1    6    6  502    0  0.30553317817E+03  0.14577200571E+03 -0.29681312202E+03  0.45021997958E+03  0.00000000000E+00 0. -1.
          1    1    5    5  503    0 -0.12080975839E+02 -0.21924927327E+03  0.13916371237E+03  0.25996679143E+03  0.00000000000E+00 0. -1.
         -2    1    5    5    0  503  0.53664643474E+02 -0.26802090007E+03  0.10890300931E+03  0.29423623548E+03  0.00000000000E+00 0.  1.
         -1    1    6    6    0  502  0.29298911864E+02  0.26920244835E+01 -0.26119971956E+01  0.29538039231E+02  0.00000000000E+00 0.  1.
<mgrwt>
<rscale>  0 0.15475117E+04</rscale>
<asrwt>0</asrwt>
<pdfrwt beam="1">  1        2 0.11373926E+00 0.15475117E+04</pdfrwt>
<pdfrwt beam="2">  1       -2 0.12458644E+00 0.15475117E+04</pdfrwt>
<totfact> 0.17780520E+01</totfact>
</mgrwt>
</event>
<event>
12    1  0.1506149E-007  0.1939927E+04  0.7818608E-02  0.8635234E-01
          2   -1    0    0  501    0  0.00000000000E+00  0.00000000000E+00  0.52939120478E+03  0.52939120478E+03  0.00000000000E+00 0. -1.
         -2   -1    0    0    0  501 -0.00000000000E+00 -0.00000000000E+00 -0.17771902093E+04  0.17771902093E+04  0.00000000000E+00 0.  1.
         23    2    1    2    0    0 -0.38818557706E+02  0.65384783708E+03 -0.93296317320E+03  0.11435399112E+04  0.90770983761E+02 0.  0.
        254    2    1    2    0    0  0.38818557706E+02 -0.65384783708E+03 -0.31483583134E+03  0.11630415029E+04  0.90803087078E+03 0.  0.
        -24    2    4    4    0    0 -0.25351745568E+01 -0.86644754313E+03 -0.33215577674E+03  0.93155085073E+03  0.81986312074E+02 0.  0.
         24    2    4    4    0    0  0.41353732263E+02  0.21259970605E+03  0.17319945397E+02  0.23149065217E+03  0.79869739881E+02 0.  0.
         13    1    3    3    0    0 -0.33764000243E+02  0.99500059396E+02 -0.11933276883E+03  0.15899867688E+03  0.00000000000E+00 0. -1.
        -13    1    3    3    0    0 -0.50545574633E+01  0.55434777768E+03 -0.81363040437E+03  0.98454123432E+03  0.00000000000E+00 0.  1.
          2    1    6    6  502    0  0.28088001937E+02  0.20050173183E+02  0.17032599586E+02  0.38484474092E+02  0.00000000000E+00 0. -1.
          1    1    5    5  503    0  0.12302983748E+02 -0.24722901110E+02 -0.35804484005E+01  0.27846092350E+02  0.00000000000E+00 0. -1.
         -2    1    5    5    0  503 -0.14838158305E+02 -0.84172464202E+03 -0.32857532834E+03  0.90370475838E+03  0.00000000000E+00 0.  1.
         -1    1    6    6    0  502  0.13265730326E+02  0.19254953287E+03  0.28734581074E+00  0.19300617808E+03  0.00000000000E+00 0.  1.
<mgrwt>
<rscale>  0 0.19399267E+04</rscale>
<asrwt>0</asrwt>
<pdfrwt beam="1">  1        2 0.81444801E-01 0.19399267E+04</pdfrwt>
<pdfrwt beam="2">  1       -2 0.27341388E+00 0.19399267E+04</pdfrwt>
<totfact> 0.24848688E+00</totfact>
</mgrwt>
</event>
<event>
12    1  0.1506149E-007  0.2396240E+04  0.7818608E-02  0.8440913E-01
          1   -1    0    0  501    0  0.00000000000E+00  0.00000000000E+00  0.10445288228E+04  0.10445288228E+04  0.00000000000E+00 0. -1.
         -1   -1    0    0    0  501 -0.00000000000E+00 -0.00000000000E+00 -0.13742955489E+04  0.13742955489E+04  0.00000000000E+00 0.  1.
         23    2    1    2    0    0 -0.45781613015E+02 -0.89249517318E+03  0.37215360520E+03  0.97226677077E+03  0.90337021392E+02 0.  0.
        254    2    1    2    0    0  0.45781613015E+02  0.89249517318E+03 -0.70192033129E+03  0.14465576009E+04  0.89509393414E+03 0.  0.
        -24    2    4    4    0    0 -0.15515242391E+03  0.12732019986E+03 -0.60829535813E+03  0.64555872860E+03  0.80250367066E+02 0.  0.
         24    2    4    4    0    0  0.20093403693E+03  0.76517497332E+03 -0.93624973160E+02  0.80099887227E+03  0.83464548120E+02 0.  0.
         13    1    3    3    0    0  0.29896124523E+01 -0.39653102083E+03  0.12354711127E+03  0.41534284268E+03  0.00000000000E+00 0.  1.
        -13    1    3    3    0    0 -0.48771225467E+02 -0.49596415235E+03  0.24860649393E+03  0.55692392808E+03  0.00000000000E+00 0. -1.
          2    1    6    6  502    0  0.82291717482E+02  0.17634441838E+03 -0.14397053651E+02  0.19513214962E+03  0.00000000000E+00 0. -1.
          3    1    5    5  503    0 -0.88670317701E+02  0.32877963695E+02 -0.19981258611E+03  0.22106210735E+03  0.00000000000E+00 0. -1.
         -4    1    5    5    0  503 -0.66482106214E+02  0.94442236166E+02 -0.40848277202E+03  0.42449662125E+03  0.00000000000E+00 0.  1.
         -1    1    6    6    0  502  0.11864231945E+03  0.58883055494E+03 -0.79227919509E+02  0.60586672265E+03  0.00000000000E+00 0.  1.
<mgrwt>
<rscale>  0 0.23962398E+04</rscale>
<asrwt>0</asrwt>
<pdfrwt beam="1">  1        1 0.16069674E+00 0.23962398E+04</pdfrwt>
<pdfrwt beam="2">  1       -1 0.21143009E+00 0.23962398E+04</pdfrwt>
<totfact> 0.15747282E+00</totfact>
</mgrwt>
</event>
<event>
12    1  0.1506149E-007  0.1828655E+04  0.7818608E-02  0.8691208E-01
         -1   -1    0    0    0  501 -0.00000000000E+00  0.00000000000E+00  0.86630860858E+03  0.86630860858E+03  0.00000000000E+00 0. -1.
          1   -1    0    0  501    0  0.00000000000E+00 -0.00000000000E+00 -0.96500826832E+03  0.96500826832E+03  0.00000000000E+00 0.  1.
         23    2    1    2    0    0 -0.13177359094E+02  0.25365487120E+03  0.60791244847E+03  0.66466873844E+03  0.87821127213E+02 0.  0.
        254    2    1    2    0    0  0.13177359094E+02 -0.25365487120E+03 -0.70661210820E+03  0.11666481385E+04  0.89289012260E+03 0.  0.
        -24    2    4    4    0    0  0.39819410357E+03 -0.31467727655E+03 -0.28695123552E+03  0.58838292798E+03  0.79203067353E+02 0.  0.
         24    2    4    4    0    0 -0.38501674447E+03  0.61022405344E+02 -0.41966087268E+03  0.57826521048E+03  0.79459285894E+02 0.  0.
         11    1    3    3    0    0 -0.42885814526E+02  0.15611452113E+03  0.43201807780E+03  0.46135729791E+03  0.00000000000E+00 0. -1.
        -11    1    3    3    0    0  0.29708455432E+02  0.97540350075E+02  0.17589437067E+03  0.20331144053E+03  0.00000000000E+00 0.  1.
          4    1    6    6  502    0 -0.30100204811E+03  0.79115562115E+02 -0.31460834473E+03  0.44253803871E+03  0.00000000000E+00 0. -1.
          1    1    5    5  503    0  0.21107456440E+03 -0.18277450562E+03 -0.20016837970E+03  0.34354966434E+03  0.00000000000E+00 0. -1.
         -2    1    5    5    0  503  0.18711953916E+03 -0.13190277093E+03 -0.86782855827E+02  0.24483326363E+03  0.00000000000E+00 0.  1.
         -3    1    6    6    0  502 -0.84014696359E+02 -0.18093156770E+02 -0.10505252795E+03  0.13572717177E+03  0.00000000000E+00 0.  1.
<mgrwt>
<rscale>  0 0.18286552E+04</rscale>
<asrwt>0</asrwt>
<pdfrwt beam="1">  1        1 0.14846281E+00 0.18286552E+04</pdfrwt>
<pdfrwt beam="2">  1       -1 0.13327825E+00 0.18286552E+04</pdfrwt>
<totfact> 0.72260933E+00</totfact>
</mgrwt>
</event>
<event>
12    1  0.1506149E-007  0.1798613E+04  0.7818608E-02  0.8707037E-01
          2   -1    0    0  501    0  0.00000000000E+00  0.00000000000E+00  0.31570104056E+04  0.31570104056E+04  0.00000000000E+00 0. -1.
         -2   -1    0    0    0  501 -0.00000000000E+00 -0.00000000000E+00 -0.25617661061E+03  0.25617661061E+03  0.00000000000E+00 0.  1.
         23    2    1    2    0    0  0.16298533897E+03  0.61161159798E+03  0.15224495506E+04  0.16513580097E+04  0.92182832917E+02 0.  0.
        254    2    1    2    0    0 -0.16298533897E+03 -0.61161159798E+03  0.13783842444E+04  0.17618290065E+04  0.89636229027E+03 0.  0.
        -24    2    4    4    0    0 -0.31091900060E+03 -0.72001393343E+03  0.69893719729E+03  0.10536614964E+04  0.81232099555E+02 0.  0.
         24    2    4    4    0    0  0.14793366163E+03  0.10840233545E+03  0.67944704714E+03  0.70816751011E+03  0.78851112372E+02 0.  0.
         11    1    3    3    0    0  0.87323087116E+02  0.45046924373E+03  0.10252019364E+04  0.11232038424E+04  0.00000000000E+00 0. -1.
        -11    1    3    3    0    0  0.75662251849E+02  0.16114235425E+03  0.49724761415E+03  0.52815416733E+03  0.00000000000E+00 0.  1.
          4    1    6    6  502    0  0.15429563013E+03  0.92737837927E+02  0.58005496265E+03  0.60734768276E+03  0.00000000000E+00 0. -1.
          1    1    5    5  503    0 -0.18307513179E+03 -0.33424301060E+03  0.36441751548E+03  0.52729026125E+03  0.00000000000E+00 0. -1.
         -2    1    5    5    0  503 -0.12784386881E+03 -0.38577092283E+03  0.33451968181E+03  0.52637123517E+03  0.00000000000E+00 0.  1.
         -3    1    6    6    0  502 -0.63619684973E+01  0.15664497527E+02  0.99392084491E+02  0.10081982734E+03  0.00000000000E+00 0.  1.
<mgrwt>
<rscale>  0 0.17986130E+04</rscale>
<asrwt>0</asrwt>
<pdfrwt beam="1">  1        2 0.48569388E+00 0.17986130E+04</pdfrwt>
<pdfrwt beam="2">  1       -2 0.39411788E-01 0.17986130E+04</pdfrwt>
<totfact> 0.79902164E+00</totfact>
</mgrwt>
</event>
<event>
12    1  0.1506149E-007  0.1858558E+04  0.7818608E-02  0.8675764E-01
         -2   -1    0    0    0  501 -0.00000000000E+00  0.00000000000E+00  0.57414382354E+03  0.57414382354E+03  0.00000000000E+00 0.  1.
          2   -1    0    0  501    0  0.00000000000E+00 -0.00000000000E+00 -0.15040815256E+04  0.15040815256E+04  0.00000000000E+00 0. -1.
         23    2    1    2    0    0  0.70021361189E+03 -0.38205797507E+02 -0.49456432859E+03  0.86301492316E+03  0.91880886177E+02 0.  0.
        254    2    1    2    0    0 -0.70021361189E+03  0.38205797507E+02 -0.43537337350E+03  0.12152104260E+04  0.89186749010E+03 0.  0.
        -24    2    4    4    0    0  0.12402743260E+03  0.92570494340E+02  0.12481360484E+03  0.21390755777E+03  0.78904415978E+02 0.  0.
         24    2    4    4    0    0 -0.82424104449E+03 -0.54364696834E+02 -0.56018697833E+03  0.10013028682E+04  0.80431110697E+02 0.  0.
         13    1    3    3    0    0  0.10851372609E+03 -0.26830762950E+02 -0.11250253548E+03  0.15859362875E+03  0.00000000000E+00 0.  1.
        -13    1    3    3    0    0  0.59169988580E+03 -0.11375034557E+02 -0.38206179311E+03  0.70442129441E+03  0.00000000000E+00 0. -1.
          4    1    6    6  502    0 -0.44871429546E+03 -0.16815313450E+02 -0.34998926442E+03  0.56931516661E+03  0.00000000000E+00 0. -1.
          3    1    5    5  503    0  0.55147311822E+02  0.19170274163E+02  0.90234480271E+02  0.10747551741E+03  0.00000000000E+00 0. -1.
         -4    1    5    5    0  503  0.68880120775E+02  0.73400220177E+02  0.34579124564E+02  0.10643204036E+03  0.00000000000E+00 0.  1.
         -3    1    6    6    0  502 -0.37552674903E+03 -0.37549383384E+02 -0.21019771391E+03  0.43198770164E+03  0.00000000000E+00 0.  1.
<mgrwt>
<rscale>  0 0.18585576E+04</rscale>
<asrwt>0</asrwt>
<pdfrwt beam="1">  1        2 0.23139716E+00 0.18585576E+04</pdfrwt>
<pdfrwt beam="2">  1       -2 0.88329820E-01 0.18585576E+04</pdfrwt>
<totfact> 0.13092466E+01</totfact>
</mgrwt>
</event>
<event>
12    1  0.1506149E-007  0.1366687E+04  0.7818608E-02  0.8978292E-01
         -1   -1    0    0    0  501 -0.00000000000E+00  0.00000000000E+00  0.13383247644E+04  0.13383247644E+04  0.00000000000E+00 0.  1.
          1   -1    0    0  501    0  0.00000000000E+00 -0.00000000000E+00 -0.34891236945E+03  0.34891236945E+03  0.00000000000E+00 0. -1.
         23    2    1    2    0    0  0.37102994262E+03  0.94104578250E+02  0.35771559020E+03  0.53184252257E+03  0.91526692123E+02 0.  0.
        254    2    1    2    0    0 -0.37102994262E+03 -0.94104578250E+02  0.63169680471E+03  0.11553946112E+04  0.88846888782E+03 0.  0.
        -24    2    4    4    0    0 -0.20653041621E+02 -0.25598285663E+02  0.76354290801E+03  0.76831105630E+03  0.78881471291E+02 0.  0.
         24    2    4    4    0    0 -0.35037690100E+03 -0.68506292587E+02 -0.13184610330E+03  0.38708355493E+03  0.70662569052E+02 0.  0.
         13    1    3    3    0    0  0.20509161371E+03  0.52569909257E+02  0.25833757854E+03  0.33401267919E+03  0.00000000000E+00 0. -1.
        -13    1    3    3    0    0  0.16593832891E+03  0.41534668992E+02  0.99378011661E+02  0.19782984338E+03  0.00000000000E+00 0.  1.
          4    1    6    6  502    0 -0.22281309900E+03 -0.15447082153E+02 -0.10296190195E+03  0.24593788380E+03  0.00000000000E+00 0. -1.
          3    1    5    5  503    0  0.18690375542E+01 -0.58063206066E+01  0.67109405325E+03  0.67112177358E+03  0.00000000000E+00 0. -1.
         -4    1    5    5    0  503 -0.22522079175E+02 -0.19791965056E+02  0.92448854757E+02  0.97189282727E+02  0.00000000000E+00 0.  1.
         -3    1    6    6    0  502 -0.12756380200E+03 -0.53059210434E+02 -0.28884201348E+02  0.14114567113E+03  0.00000000000E+00 0.  1.
<mgrwt>
<rscale>  0 0.13666866E+04</rscale>
<asrwt>0</asrwt>
<pdfrwt beam="1">  1        1 0.53678827E-01 0.13666866E+04</pdfrwt>
<pdfrwt beam="2">  1       -1 0.20589611E+00 0.13666866E+04</pdfrwt>
<totfact> 0.96388836E+00</totfact>
</mgrwt>
</event>
<event>
12    1  0.1506149E-007  0.1208942E+04  0.7818608E-02  0.9105065E-01
         -1   -1    0    0    0  501 -0.00000000000E+00  0.00000000000E+00  0.97596987287E+02  0.97596987287E+02  0.00000000000E+00 0.  1.
          1   -1    0    0  501    0  0.00000000000E+00 -0.00000000000E+00 -0.37438188304E+04  0.37438188304E+04  0.00000000000E+00 0. -1.
         23    2    1    2    0    0 -0.49200311391E+02  0.21353245608E+03 -0.39626738509E+03  0.46197884373E+03  0.91541417525E+02 0.  0.
        254    2    1    2    0    0  0.49200311391E+02 -0.21353245608E+03 -0.32499544580E+04  0.33794369739E+04  0.90020747681E+03 0.  0.
        -24    2    4    4    0    0 -0.28274907574E+03  0.22147824914E+03 -0.11120192081E+04  0.11712018092E+04  0.78277096714E+02 0.  0.
         24    2    4    4    0    0  0.33194938713E+03 -0.43501070522E+03 -0.21379352499E+04  0.22082351648E+04  0.78170973088E+02 0.  0.
         13    1    3    3    0    0 -0.29540830286E+02  0.85925629443E+02 -0.82667930282E+02  0.12284079594E+03  0.00000000000E+00 0.  1.
        -13    1    3    3    0    0 -0.19659481105E+02  0.12760682664E+03 -0.31359945481E+03  0.33913804779E+03  0.00000000000E+00 0. -1.
          2    1    6    6  502    0  0.28652405630E+03 -0.41013203550E+03 -0.19667542571E+04  0.20293907039E+04  0.00000000000E+00 0. -1.
          1    1    5    5  503    0 -0.13349878818E+03  0.15196512059E+03 -0.64815096873E+03  0.67898085583E+03  0.00000000000E+00 0. -1.
         -2    1    5    5    0  503 -0.14925028755E+03  0.69513128553E+02 -0.46386823941E+03  0.49222095335E+03  0.00000000000E+00 0.  1.
         -1    1    6    6    0  502  0.45425330830E+02 -0.24878669721E+02 -0.17118099273E+03  0.17884446081E+03  0.00000000000E+00 0.  1.
<mgrwt>
<rscale>  0 0.12089424E+04</rscale>
<asrwt>0</asrwt>
<pdfrwt beam="1">  1        1 0.57597212E+00 0.12089424E+04</pdfrwt>
<pdfrwt beam="2">  1       -1 0.15014921E-01 0.12089424E+04</pdfrwt>
<totfact> 0.53019154E+00</totfact>
</mgrwt>
</event>
<event>
12    1  0.1506149E-007  0.1578504E+04  0.7818608E-02  0.8833864E-01
          1   -1    0    0  501    0  0.00000000000E+00  0.00000000000E+00  0.13941944157E+04  0.13941944157E+04  0.00000000000E+00 0. -1.
         -1   -1    0    0    0  501 -0.00000000000E+00 -0.00000000000E+00 -0.44679450817E+03  0.44679450817E+03  0.00000000000E+00 0.  1.
         23    2    1    2    0    0  0.52064538284E+03 -0.58594089553E+02  0.24234905563E+03  0.58479213114E+03  0.93508768965E+02 0.  0.
        254    2    1    2    0    0 -0.52064538284E+03  0.58594089553E+02  0.70505085192E+03  0.12561967928E+04  0.89801380632E+03 0.  0.
        -24    2    4    4    0    0  0.15098414564E+03 -0.15380950093E+03 -0.34066971095E+02  0.23211312106E+03  0.79135122665E+02 0.  0.
         24    2    4    4    0    0 -0.67162952848E+03  0.21240359049E+03  0.73911782301E+03  0.10240836717E+04  0.79061378450E+02 0.  0.
         11    1    3    3    0    0  0.35666920848E+03 -0.39792493016E+02  0.11677610983E+03  0.37740300291E+03  0.00000000000E+00 0. -1.
        -11    1    3    3    0    0  0.16397617436E+03 -0.18801596537E+02  0.12557294580E+03  0.20738912823E+03  0.00000000000E+00 0.  1.
          2    1    6    6  502    0 -0.35173027056E+03  0.10348444614E+03  0.44049093482E+03  0.57311035367E+03  0.00000000000E+00 0. -1.
          3    1    5    5  503    0  0.15628829861E+03 -0.15439497635E+03 -0.40877462204E+02  0.22346097628E+03  0.00000000000E+00 0. -1.
         -4    1    5    5    0  503 -0.53041529703E+01  0.58547541777E+00  0.68104911094E+01  0.86521447832E+01  0.00000000000E+00 0.  1.
         -1    1    6    6    0  502 -0.31989925792E+03  0.10891914435E+03  0.29862688819E+03  0.45097331802E+03  0.00000000000E+00 0.  1.
<mgrwt>
<rscale>  0 0.15785036E+04</rscale>
<asrwt>0</asrwt>
<pdfrwt beam="1">  1        1 0.21449145E+00 0.15785036E+04</pdfrwt>
<pdfrwt beam="2">  1       -1 0.68737617E-01 0.15785036E+04</pdfrwt>
<totfact> 0.15965729E+01</totfact>
</mgrwt>
</event>
<event>
12    1  0.1506149E-007  0.2393195E+04  0.7818608E-02  0.8442056E-01
         -2   -1    0    0    0  501 -0.00000000000E+00  0.00000000000E+00  0.76219776371E+03  0.76219776371E+03  0.00000000000E+00 0.  1.
          2   -1    0    0  501    0  0.00000000000E+00 -0.00000000000E+00 -0.18785753589E+04  0.18785753589E+04  0.00000000000E+00 0. -1.
         23    2    1    2    0    0 -0.10531032716E+01  0.88258250496E+03  0.97777827667E+02  0.89349333632E+03  0.99080025127E+02 0.  0.
        254    2    1    2    0    0  0.10531032716E+01 -0.88258250496E+03 -0.12141554229E+04  0.17472797863E+04  0.89434907819E+03 0.  0.
        -24    2    4    4    0    0 -0.42771188388E+03 -0.42217544669E+03 -0.73334516852E+03  0.95146204159E+03  0.79468968843E+02 0.  0.
         24    2    4    4    0    0  0.42876498715E+03 -0.46040705826E+03 -0.48081025435E+03  0.79581774471E+03  0.79582087187E+02 0.  0.
         11    1    3    3    0    0  0.14261265479E+02  0.11873880672E+03 -0.17439695939E+02  0.12085706810E+03  0.00000000000E+00 0. -1.
        -11    1    3    3    0    0 -0.15314368750E+02  0.76384369824E+03  0.11521752361E+03  0.77263626822E+03  0.00000000000E+00 0.  1.
          2    1    6    6  502    0  0.89701368108E+02 -0.99081902360E+02 -0.14525096042E+03  0.19738642385E+03  0.00000000000E+00 0. -1.
          1    1    5    5  503    0 -0.80508116182E+02 -0.69205357825E+02 -0.86897541463E+02  0.13719373541E+03  0.00000000000E+00 0. -1.
         -2    1    5    5    0  503 -0.34720376769E+03 -0.35297008887E+03 -0.64644762705E+03  0.81426830618E+03  0.00000000000E+00 0.  1.
         -1    1    6    6    0  502  0.33906361904E+03 -0.36132515590E+03 -0.33555929392E+03  0.59843132086E+03  0.00000000000E+00 0.  1.
<mgrwt>
<rscale>  0 0.23931953E+04</rscale>
<asrwt>0</asrwt>
<pdfrwt beam="1">  1        2 0.28901159E+00 0.23931953E+04</pdfrwt>
<pdfrwt beam="2">  1       -2 0.11726120E+00 0.23931953E+04</pdfrwt>
<totfact> 0.39477773E+00</totfact>
</mgrwt>
</event>
<event>
12    1  0.1506149E-007  0.1645332E+04  0.7818608E-02  0.8793173E-01
          2   -1    0    0  501    0  0.00000000000E+00  0.00000000000E+00  0.25731007033E+04  0.25731007033E+04  0.00000000000E+00 0. -1.
         -2   -1    0    0    0  501 -0.00000000000E+00 -0.00000000000E+00 -0.26302107862E+03  0.26302107862E+03  0.00000000000E+00 0.  1.
         23    2    1    2    0    0 -0.46002525963E+03 -0.36728634883E+02  0.14152442476E+04  0.14914345857E+04  0.92133657683E+02 0.  0.
        254    2    1    2    0    0  0.46002525963E+03  0.36728634883E+02  0.89483537707E+03  0.13446871962E+04  0.89133667687E+03 0.  0.
        -24    2    4    4    0    0  0.51357075689E+03  0.26623486982E+03  0.92512807280E+03  0.10942250293E+04  0.82647053570E+02 0.  0.
         24    2    4    4    0    0 -0.53545497255E+02 -0.22950623494E+03 -0.30292695722E+02  0.25046216692E+03  0.79204908254E+02 0.  0.
         11    1    3    3    0    0 -0.44688643591E+03 -0.51950705059E+02  0.13683009415E+04  0.14403658663E+04  0.00000000000E+00 0. -1.
        -11    1    3    3    0    0 -0.13138823724E+02  0.15222070176E+02  0.46943306092E+02  0.51068719350E+02  0.00000000000E+00 0.  1.
          4    1    6    6  502    0 -0.62425548693E+02 -0.22068402884E+03 -0.42191174745E+02  0.23319194871E+03  0.00000000000E+00 0. -1.
          1    1    5    5  503    0  0.37149822323E+03  0.20470217110E+03  0.60817847306E+03  0.74148160045E+03  0.00000000000E+00 0. -1.
         -2    1    5    5    0  503  0.14207253365E+03  0.61532698721E+02  0.31694959974E+03  0.35274342886E+03  0.00000000000E+00 0.  1.
         -3    1    6    6    0  502  0.88800514386E+01 -0.88222060952E+01  0.11898479024E+02  0.17270218210E+02  0.00000000000E+00 0.  1.
<mgrwt>
<rscale>  0 0.16453325E+04</rscale>
<asrwt>0</asrwt>
<pdfrwt beam="1">  1        2 0.39586163E+00 0.16453325E+04</pdfrwt>
<pdfrwt beam="2">  1       -2 0.40464783E-01 0.16453325E+04</pdfrwt>
<totfact> 0.17476257E+01</totfact>
</mgrwt>
</event>
<event>
12    1  0.1506149E-007  0.1815551E+04  0.7818608E-02  0.8698073E-01
         -1   -1    0    0    0  501 -0.00000000000E+00  0.00000000000E+00  0.38783119920E+03  0.38783119920E+03  0.00000000000E+00 0.  1.
          1   -1    0    0  501    0  0.00000000000E+00 -0.00000000000E+00 -0.21247810437E+04  0.21247810437E+04  0.00000000000E+00 0. -1.
         23    2    1    2    0    0  0.34089516593E+03 -0.67274125836E+03 -0.59757945406E+03  0.96624232896E+03  0.87935882910E+02 0.  0.
        254    2    1    2    0    0 -0.34089516593E+03  0.67274125836E+03 -0.11393703904E+04  0.15463699139E+04  0.72408888214E+03 0.  0.
        -24    2    4    4    0    0 -0.49813702382E+03  0.60107708623E+03 -0.11008702363E+04  0.13519943616E+04  0.80866053276E+02 0.  0.
         24    2    4    4    0    0  0.15724185789E+03  0.71664172128E+02 -0.38500154083E+02  0.19437555227E+03  0.80242370469E+02 0.  0.
         13    1    3    3    0    0  0.15050659249E+03 -0.27735276831E+03 -0.19655209511E+03  0.37176540797E+03  0.00000000000E+00 0. -1.
        -13    1    3    3    0    0  0.19038857344E+03 -0.39538849006E+03 -0.40102735895E+03  0.59447692099E+03  0.00000000000E+00 0.  1.
          2    1    6    6  502    0  0.11339501624E+03  0.18179238987E+02  0.76607824977E+00  0.11484555418E+03  0.00000000000E+00 0. -1.
          3    1    5    5  503    0 -0.46509598615E+03  0.52539904725E+03 -0.96833441861E+03  0.11958386101E+04  0.00000000000E+00 0. -1.
         -4    1    5    5    0  503 -0.33041037669E+02  0.75678038981E+02 -0.13253581770E+03  0.15615575151E+03  0.00000000000E+00 0.  1.
         -1    1    6    6    0  502  0.43846841646E+02  0.53484933141E+02 -0.39266232333E+02  0.79529998095E+02  0.00000000000E+00 0.  1.
<mgrwt>
<rscale>  0 0.18155510E+04</rscale>
<asrwt>0</asrwt>
<pdfrwt beam="1">  1        1 0.32688940E+00 0.18155510E+04</pdfrwt>
<pdfrwt beam="2">  1       -1 0.59666337E-01 0.18155510E+04</pdfrwt>
<totfact> 0.65804043E+00</totfact>
</mgrwt>
</event>
<event>
12    1  0.1506149E-007  0.2743821E+04  0.7818608E-02  0.8320925E-01
          2   -1    0    0  501    0  0.00000000000E+00  0.00000000000E+00  0.65030135130E+03  0.65030135130E+03  0.00000000000E+00 0. -1.
         -2   -1    0    0    0  501 -0.00000000000E+00 -0.00000000000E+00 -0.28942553467E+04  0.28942553467E+04  0.00000000000E+00 0.  1.
         23    2    1    2    0    0  0.70885409294E+03 -0.86095752617E+03 -0.35621946906E+03  0.11741901640E+04  0.90045788773E+02 0.  0.
        254    2    1    2    0    0 -0.70885409294E+03  0.86095752617E+03 -0.18877345264E+04  0.23703665340E+04  0.90076294150E+03 0.  0.
        -24    2    4    4    0    0  0.12883112724E+03  0.21620382825E+03 -0.83812361079E+03  0.87866439632E+03  0.79109921615E+02 0.  0.
         24    2    4    4    0    0 -0.83768522019E+03  0.64475369792E+03 -0.10496109156E+04  0.14917021377E+04  0.77899515557E+02 0.  0.
         11    1    3    3    0    0  0.44993700671E+03 -0.57144225147E+03 -0.27374689794E+03  0.77712735179E+03  0.00000000000E+00 0.  1.
        -11    1    3    3    0    0  0.25891708623E+03 -0.28951527470E+03 -0.82472571125E+02  0.39706281218E+03  0.00000000000E+00 0. -1.
          4    1    6    6  502    0 -0.13747722675E+03  0.10315018921E+03 -0.13212328616E+03  0.21678678962E+03  0.00000000000E+00 0. -1.
          1    1    5    5  503    0  0.16814534104E+02  0.71139116173E+02 -0.15485507243E+03  0.17124133807E+03  0.00000000000E+00 0. -1.
         -2    1    5    5    0  503  0.11201659314E+03  0.14506471208E+03 -0.68326853836E+03  0.70742305825E+03  0.00000000000E+00 0.  1.
         -3    1    6    6    0  502 -0.70020799343E+03  0.54160350871E+03 -0.91748762940E+03  0.12749153481E+04  0.00000000000E+00 0.  1.
<mgrwt>
<rscale>  0 0.27438208E+04</rscale>
<asrwt>0</asrwt>
<pdfrwt beam="1">  1        2 0.10004636E+00 0.27438208E+04</pdfrwt>
<pdfrwt beam="2">  1       -2 0.44527005E+00 0.27438208E+04</pdfrwt>
<totfact> 0.14634970E-01</totfact>
</mgrwt>
</event>
<event>
12    1  0.1506149E-007  0.1194288E+04  0.7818608E-02  0.9117871E-01
          2   -1    0    0  501    0  0.00000000000E+00  0.00000000000E+00  0.35264923309E+03  0.35264923309E+03  0.00000000000E+00 0.  1.
         -2   -1    0    0    0  501 -0.00000000000E+00 -0.00000000000E+00 -0.10111490067E+04  0.10111490067E+04  0.00000000000E+00 0. -1.
         23    2    1    2    0    0  0.21723566431E+03 -0.13185403805E+02 -0.26308072718E+02  0.24250236743E+03  0.10368266392E+03 0.  0.
        254    2    1    2    0    0 -0.21723566431E+03  0.13185403805E+02 -0.63219170087E+03  0.11212958723E+04  0.90015159721E+03 0.  0.
        -24    2    4    4    0    0  0.14487133987E+03 -0.28356139894E+03  0.27418659443E+01  0.32836153389E+03  0.80118705851E+02 0.  0.
         24    2    4    4    0    0 -0.36210700419E+03  0.29674680274E+03 -0.63493356681E+03  0.79293433844E+03  0.80150379903E+02 0.  0.
         13    1    3    3    0    0  0.93535220838E+02 -0.13769029404E+01 -0.63182492829E+02  0.11288383763E+03  0.00000000000E+00 0. -1.
        -13    1    3    3    0    0  0.12370044348E+03 -0.11808500865E+02  0.36874420111E+02  0.12961852980E+03  0.00000000000E+00 0.  1.
          2    1    6    6  502    0 -0.10841226257E+03  0.44401511138E+02 -0.15666047248E+03  0.19562008205E+03  0.00000000000E+00 0. -1.
          1    1    5    5  503    0  0.21014011446E+02 -0.12264647885E+03  0.12534080228E+02  0.12506338640E+03  0.00000000000E+00 0. -1.
         -2    1    5    5    0  503  0.12385732843E+03 -0.16091492009E+03 -0.97922142842E+01  0.20329814749E+03  0.00000000000E+00 0.  1.
         -1    1    6    6    0  502 -0.25369474162E+03  0.25234529161E+03 -0.47827309433E+03  0.59731425639E+03  0.00000000000E+00 0.  1.
<mgrwt>
<rscale>  0 0.11942879E+04</rscale>
<asrwt>0</asrwt>
<pdfrwt beam="1">  1        2 0.54253729E-01 0.11942879E+04</pdfrwt>
<pdfrwt beam="2">  1       -2 0.15556138E+00 0.11942879E+04</pdfrwt>
<totfact> 0.24561739E+01</totfact>
</mgrwt>
</event>
<event>
12    1  0.1506149E-007  0.1974543E+04  0.7818608E-02  0.8618616E-01
         -1   -1    0    0    0  501 -0.00000000000E+00  0.00000000000E+00  0.46112224976E+03  0.46112224976E+03  0.00000000000E+00 0.  1.
          1   -1    0    0  501    0  0.00000000000E+00 -0.00000000000E+00 -0.21137662410E+04  0.21137662410E+04  0.00000000000E+00 0. -1.
         23    2    1    2    0    0  0.55903336702E+03  0.32337647041E+03 -0.12302991960E+04  0.13924978888E+04  0.91233829150E+02 0.  0.
        254    2    1    2    0    0 -0.55903336702E+03 -0.32337647041E+03 -0.42234479523E+03  0.11823906020E+04  0.89586927756E+03 0.  0.
        -24    2    4    4    0    0  0.12241565033E+02 -0.48350321159E+03 -0.97671890707E+02  0.50114207833E+03  0.87626325387E+02 0.  0.
         24    2    4    4    0    0 -0.57127493205E+03  0.16012674119E+03 -0.32467290453E+03  0.68124852362E+03  0.81801190533E+02 0.  0.
         11    1    3    3    0    0  0.48220983079E+03  0.28533008076E+03 -0.11242109342E+04  0.12561010312E+04  0.00000000000E+00 0. -1.
        -11    1    3    3    0    0  0.76823536230E+02  0.38046389646E+02 -0.10608826182E+03  0.13639685766E+03  0.00000000000E+00 0.  1.
          2    1    6    6  502    0 -0.39295746727E+03  0.89694090360E+02 -0.18191988088E+03  0.44221651257E+03  0.00000000000E+00 0. -1.
          1    1    5    5  503    0 -0.57202811886E+01 -0.46296410861E+03 -0.10027283184E+03  0.47373318259E+03  0.00000000000E+00 0. -1.
         -2    1    5    5    0  503  0.17961846222E+02 -0.20539102982E+02  0.26009411283E+01  0.27408895742E+02  0.00000000000E+00 0.  1.
         -1    1    6    6    0  502 -0.17831746478E+03  0.70432650830E+02 -0.14275302365E+03  0.23903201105E+03  0.00000000000E+00 0.  1.
<mgrwt>
<rscale>  0 0.19745426E+04</rscale>
<asrwt>0</asrwt>
<pdfrwt beam="1">  1        1 0.32519481E+00 0.19745426E+04</pdfrwt>
<pdfrwt beam="2">  1       -1 0.70941884E-01 0.19745426E+04</pdfrwt>
<totfact> 0.46541411E+00</totfact>
</mgrwt>
</event>
<event>
12    1  0.1506149E-007  0.2327080E+04  0.7818608E-02  0.8467320E-01
          2   -1    0    0  501    0  0.00000000000E+00  0.00000000000E+00  0.90506590006E+03  0.90506590006E+03  0.00000000000E+00 0. -1.
         -2   -1    0    0    0  501 -0.00000000000E+00 -0.00000000000E+00 -0.14958309513E+04  0.14958309513E+04  0.00000000000E+00 0.  1.
         23    2    1    2    0    0  0.59248415025E+03 -0.71836925345E+03  0.91093324743E+02  0.93994024534E+03  0.89987879151E+02 0.  0.
        254    2    1    2    0    0 -0.59248415025E+03  0.71836925345E+03 -0.68185837603E+03  0.14609566061E+04  0.89575192282E+03 0.  0.
        -24    2    4    4    0    0 -0.74103109887E+03  0.24988880483E+03 -0.49276575789E+03  0.92824751973E+03  0.85169604106E+02 0.  0.
         24    2    4    4    0    0  0.14854694862E+03  0.46848044862E+03 -0.18909261814E+03  0.53270908633E+03  0.80515996783E+02 0.  0.
         13    1    3    3    0    0  0.37357508753E+03 -0.41752298931E+03  0.16626888940E+02  0.56049999648E+03  0.00000000000E+00 0. -1.
        -13    1    3    3    0    0  0.21890906273E+03 -0.30084626414E+03  0.74466435803E+02  0.37944024885E+03  0.00000000000E+00 0.  1.
          2    1    6    6  502    0  0.17989528845E+02  0.17672094470E+03 -0.81598016868E+02  0.19547928739E+03  0.00000000000E+00 0. -1.
          1    1    5    5  503    0 -0.24761690451E+03  0.61642989684E+02 -0.12098303367E+03  0.28240199010E+03  0.00000000000E+00 0. -1.
         -2    1    5    5    0  503 -0.49341419436E+03  0.18824581514E+03 -0.37178272421E+03  0.64584552963E+03  0.00000000000E+00 0.  1.
         -1    1    6    6    0  502  0.13055741977E+03  0.29175950393E+03 -0.10749460127E+03  0.33722979894E+03  0.00000000000E+00 0.  1.
<mgrwt>
<rscale>  0 0.23270802E+04</rscale>
<asrwt>0</asrwt>
<pdfrwt beam="1">  1        2 0.13924091E+00 0.23270802E+04</pdfrwt>
<pdfrwt beam="2">  1       -2 0.23012784E+00 0.23270802E+04</pdfrwt>
<totfact> 0.22452811E+00</totfact>
</mgrwt>
</event>
<event>
12    1  0.1506149E-007  0.2467886E+04  0.7818608E-02  0.8414516E-01
         -1   -1    0    0    0  501 -0.00000000000E+00  0.00000000000E+00  0.83200302743E+03  0.83200302743E+03  0.00000000000E+00 0.  1.
          1   -1    0    0  501    0  0.00000000000E+00 -0.00000000000E+00 -0.18300600882E+04  0.18300600882E+04  0.00000000000E+00 0. -1.
         23    2    1    2    0    0  0.43744271674E+03  0.94667744573E+03 -0.68266518385E+03  0.12498172098E+04  0.91961882768E+02 0.  0.
        254    2    1    2    0    0 -0.43744271674E+03 -0.94667744573E+03 -0.31539187696E+03  0.14122459059E+04  0.89856115320E+03 0.  0.
        -24    2    4    4    0    0  0.22936201731E+03 -0.36380710864E+03  0.69442145591E+02  0.44330265054E+03  0.82051697768E+02 0.  0.
         24    2    4    4    0    0 -0.66680473405E+03 -0.58287033709E+03 -0.38483402255E+03  0.96894325538E+03  0.79921361448E+02 0.  0.
         13    1    3    3    0    0  0.52816362449E+02  0.13780499172E+03 -0.61743669445E+02  0.15997519996E+03  0.00000000000E+00 0.  1.
        -13    1    3    3    0    0  0.38462635430E+03  0.80887245401E+03 -0.62092151440E+03  0.10898420098E+04  0.00000000000E+00 0. -1.
          4    1    6    6  502    0 -0.26480354237E+03 -0.18452534506E+03 -0.12340203935E+03  0.34554099950E+03  0.00000000000E+00 0. -1.
          1    1    5    5  503    0  0.17680515203E+03 -0.30733566982E+03  0.27837717930E+02  0.35565462779E+03  0.00000000000E+00 0. -1.
         -2    1    5    5    0  503  0.52556865282E+02 -0.56471438819E+02  0.41604427660E+02  0.87648022748E+02  0.00000000000E+00 0.  1.
         -1    1    6    6    0  502 -0.40200119168E+03 -0.39834499203E+03 -0.26143198321E+03  0.62340225588E+03  0.00000000000E+00 0.  1.
<mgrwt>
<rscale>  0 0.24678862E+04</rscale>
<asrwt>0</asrwt>
<pdfrwt beam="1">  1        1 0.28154771E+00 0.24678862E+04</pdfrwt>
<pdfrwt beam="2">  1       -1 0.12800047E+00 0.24678862E+04</pdfrwt>
<totfact> 0.18258883E+00</totfact>
</mgrwt>
</event>
<event>
12    1  0.1506149E-007  0.1735553E+04  0.7818608E-02  0.8741343E-01
          2   -1    0    0  501    0  0.00000000000E+00  0.00000000000E+00  0.17443675616E+04  0.17443675616E+04  0.00000000000E+00 0. -1.
         -2   -1    0    0    0  501 -0.00000000000E+00 -0.00000000000E+00 -0.43169572591E+03  0.43169572591E+03  0.00000000000E+00 0.  1.
         23    2    1    2    0    0 -0.60864752904E+03 -0.25525191578E+03  0.40598988723E+03  0.78101769992E+03  0.97752257943E+02 0.  0.
        254    2    1    2    0    0  0.60864752904E+03  0.25525191578E+03  0.90668194841E+03  0.13950455875E+04  0.82974374396E+03 0.  0.
        -24    2    4    4    0    0  0.64112487953E+03 -0.13517436130E+03  0.54646250936E+03  0.85682798520E+03  0.78865093546E+02 0.  0.
         24    2    4    4    0    0 -0.32477350489E+02  0.39042627708E+03  0.36021943905E+03  0.53821760234E+03  0.80204034013E+02 0.  0.
         13    1    3    3    0    0 -0.55190159930E+03 -0.22538825545E+03  0.32930733461E+03  0.68105694448E+03  0.00000000000E+00 0.  1.
        -13    1    3    3    0    0 -0.56745929750E+02 -0.29863660329E+02  0.76682552617E+02  0.99960755435E+02  0.00000000000E+00 0. -1.
          2    1    6    6  502    0 -0.45840446679E+02  0.35721029467E+03  0.30264900127E+03  0.47042210741E+03  0.00000000000E+00 0. -1.
          1    1    5    5  503    0  0.57424651128E+03 -0.12150883796E+03  0.45479686795E+03  0.74253864850E+03  0.00000000000E+00 0. -1.
         -2    1    5    5    0  503  0.66878368253E+02 -0.13665523347E+02  0.91665641416E+02  0.11428933671E+03  0.00000000000E+00 0.  1.
         -1    1    6    6    0  502  0.13363096190E+02  0.33215982415E+02  0.57570437776E+02  0.67795494934E+02  0.00000000000E+00 0.  1.
<mgrwt>
<rscale>  0 0.17355530E+04</rscale>
<asrwt>0</asrwt>
<pdfrwt beam="1">  1        2 0.26836424E+00 0.17355530E+04</pdfrwt>
<pdfrwt beam="2">  1       -2 0.66414728E-01 0.17355530E+04</pdfrwt>
<totfact> 0.18320475E+01</totfact>
</mgrwt>
</event>
<event>
12    1  0.1506149E-007  0.2893839E+04  0.7818608E-02  0.8274713E-01
         -2   -1    0    0    0  501 -0.00000000000E+00  0.00000000000E+00  0.88796690438E+03  0.88796690438E+03  0.00000000000E+00 0.  1.
          2   -1    0    0  501    0  0.00000000000E+00 -0.00000000000E+00 -0.23577193152E+04  0.23577193152E+04  0.00000000000E+00 0. -1.
         23    2    1    2    0    0  0.36457154311E+03  0.12332916399E+04 -0.33719214868E+03  0.13325841184E+04  0.90339407020E+02 0.  0.
        254    2    1    2    0    0 -0.36457154311E+03 -0.12332916399E+04 -0.11325602621E+04  0.19131021011E+04  0.85049763246E+03 0.  0.
        -24    2    4    4    0    0 -0.28775300072E+03 -0.11975168002E+03 -0.26500300788E+01  0.32289653944E+03  0.84337999934E+02 0.  0.
         24    2    4    4    0    0 -0.76818542393E+02 -0.11135399599E+04 -0.11299102320E+04  0.15902055617E+04  0.78640099046E+02 0.  0.
         11    1    3    3    0    0  0.33406030607E+03  0.11374975319E+04 -0.28501770067E+03  0.12193162071E+04  0.00000000000E+00 0.  1.
        -11    1    3    3    0    0  0.30511237043E+02  0.95794107965E+02 -0.52174448016E+02  0.11326791131E+03  0.00000000000E+00 0. -1.
          2    1    6    6  502    0 -0.28637865421E+02 -0.94027924665E+02 -0.97254219340E+02  0.13827422439E+03  0.00000000000E+00 0. -1.
          3    1    5    5  503    0 -0.18761845946E+03 -0.11383741517E+03 -0.22630765278E+02  0.22061685103E+03  0.00000000000E+00 0. -1.
         -4    1    5    5    0  503 -0.10013454126E+03 -0.59142648527E+01  0.19980735199E+02  0.10227968841E+03  0.00000000000E+00 0.  1.
         -1    1    6    6    0  502 -0.48180676972E+02 -0.10195120352E+04 -0.10326560127E+04  0.14519313373E+04  0.00000000000E+00 0.  1.
<mgrwt>
<rscale>  0 0.28938395E+04</rscale>
<asrwt>0</asrwt>
<pdfrwt beam="1">  1        2 0.36272605E+00 0.28938395E+04</pdfrwt>
<pdfrwt beam="2">  1       -2 0.13661029E+00 0.28938395E+04</pdfrwt>
<totfact> 0.13888667E+00</totfact>
</mgrwt>
</event>
<event>
12    1  0.1506149E-007  0.1415147E+04  0.7818608E-02  0.8942927E-01
          2   -1    0    0  501    0  0.00000000000E+00  0.00000000000E+00  0.12810263012E+04  0.12810263012E+04  0.00000000000E+00 0. -1.
         -2   -1    0    0    0  501 -0.00000000000E+00 -0.00000000000E+00 -0.39082725383E+03  0.39082725383E+03  0.00000000000E+00 0.  1.
         23    2    1    2    0    0 -0.53517561238E+01  0.85737440724E+01 -0.23788591574E+03  0.25457730019E+03  0.90098515450E+02 0.  0.
        254    2    1    2    0    0  0.53517561238E+01 -0.85737440724E+01  0.11280849631E+04  0.14172762548E+04  0.85790101303E+03 0.  0.
        -24    2    4    4    0    0  0.30544243560E+03 -0.29696113712E+03  0.55117635749E+03  0.70162018912E+03  0.83633212983E+02 0.  0.
         24    2    4    4    0    0 -0.30009067948E+03  0.28838739304E+03  0.57690860563E+03  0.71565606572E+03  0.78219951257E+02 0.  0.
         13    1    3    3    0    0  0.37746854668E+02  0.19517137960E+02 -0.80461442269E+02  0.90993337138E+02  0.00000000000E+00 0. -1.
        -13    1    3    3    0    0 -0.43098610792E+02 -0.10943393888E+02 -0.15742447347E+03  0.16358396306E+03  0.00000000000E+00 0.  1.
          4    1    6    6  502    0 -0.27084798281E+03  0.26337858208E+03  0.47628406764E+03  0.60792550562E+03  0.00000000000E+00 0. -1.
          1    1    5    5  503    0  0.28260814476E+03 -0.26817011090E+03  0.53411390000E+03  0.66110530934E+03  0.00000000000E+00 0. -1.
         -2    1    5    5    0  503  0.22834290836E+02 -0.28791026211E+02  0.17062457488E+02  0.40514879783E+02  0.00000000000E+00 0.  1.
         -3    1    6    6    0  502 -0.29242696662E+02  0.25008810964E+02  0.10062453799E+03  0.10773056010E+03  0.00000000000E+00 0.  1.
<mgrwt>
<rscale>  0 0.14151466E+04</rscale>
<asrwt>0</asrwt>
<pdfrwt beam="1">  1        2 0.19708097E+00 0.14151466E+04</pdfrwt>
<pdfrwt beam="2">  1       -2 0.60127270E-01 0.14151466E+04</pdfrwt>
<totfact> 0.42511406E+01</totfact>
</mgrwt>
</event>
<event>
12    1  0.1506149E-007  0.1593324E+04  0.7818608E-02  0.8824660E-01
         -2   -1    0    0    0  501 -0.00000000000E+00  0.00000000000E+00  0.15739903880E+04  0.15739903880E+04  0.00000000000E+00 0.  1.
          2   -1    0    0  501    0  0.00000000000E+00 -0.00000000000E+00 -0.40322352065E+03  0.40322352065E+03  0.00000000000E+00 0. -1.
         23    2    1    2    0    0 -0.43290869629E+03  0.12706791826E+03  0.44860422741E+02  0.46246682070E+03  0.91142238002E+02 0.  0.
        254    2    1    2    0    0  0.43290869629E+03 -0.12706791826E+03  0.11259064446E+04  0.15147470879E+04  0.90732421066E+03 0.  0.
        -24    2    4    4    0    0  0.25717990677E+03 -0.40287776961E+03  0.10706509386E+04  0.11752234374E+04  0.80029330057E+02 0.  0.
         24    2    4    4    0    0  0.17572878952E+03  0.27580985136E+03  0.55255505953E+02  0.33952365055E+03  0.72604798568E+02 0.  0.
         11    1    3    3    0    0 -0.46613268314E+02 -0.14077565550E+02 -0.53178020039E+00  0.48695558575E+02  0.00000000000E+00 0.  1.
        -11    1    3    3    0    0 -0.38629542797E+03  0.14114548381E+03  0.45392202941E+02  0.41377126213E+03  0.00000000000E+00 0. -1.
          4    1    6    6  502    0  0.55083364079E+02  0.10298499949E+03 -0.14094444647E+02  0.11763817615E+03  0.00000000000E+00 0. -1.
          3    1    5    5  503    0  0.91806208683E+02 -0.91898793060E+02  0.34403306416E+03  0.36773974133E+03  0.00000000000E+00 0. -1.
         -4    1    5    5    0  503  0.16537369809E+03 -0.31097897655E+03  0.72661787448E+03  0.80748369605E+03  0.00000000000E+00 0.  1.
         -3    1    6    6    0  502  0.12064542544E+03  0.17282485187E+03  0.69349950600E+02  0.22188547440E+03  0.00000000000E+00 0.  1.
<mgrwt>
<rscale>  0 0.15933235E+04</rscale>
<asrwt>0</asrwt>
<pdfrwt beam="1">  1        2 0.62034389E-01 0.15933235E+04</pdfrwt>
<pdfrwt beam="2">  1       -2 0.24215236E+00 0.15933235E+04</pdfrwt>
<totfact> 0.54311324E+00</totfact>
</mgrwt>
</event>
<event>
12    1  0.1506149E-007  0.1714569E+04  0.7818608E-02  0.8753098E-01
         -1   -1    0    0    0  501 -0.00000000000E+00  0.00000000000E+00  0.61371328353E+03  0.61371328353E+03  0.00000000000E+00 0.  1.
          1   -1    0    0  501    0  0.00000000000E+00 -0.00000000000E+00 -0.11975249669E+04  0.11975249669E+04  0.00000000000E+00 0. -1.
         23    2    1    2    0    0  0.55352445440E+03 -0.14694400173E+03 -0.44015404996E+03  0.72824358723E+03  0.92850812485E+02 0.  0.
        254    2    1    2    0    0 -0.55352445440E+03  0.14694400173E+03 -0.14365763345E+03  0.10829946632E+04  0.90788659188E+03 0.  0.
        -24    2    4    4    0    0  0.12681189266E+03  0.29519979609E+03 -0.18831742089E+03  0.38079600860E+03  0.79485680599E+02 0.  0.
         24    2    4    4    0    0 -0.68033634706E+03 -0.14825579435E+03  0.44659787447E+02  0.70219865465E+03  0.79064077101E+02 0.  0.
         11    1    3    3    0    0 -0.33746903977E+01 -0.39483257901E+01 -0.34372426450E+01  0.62283584375E+01  0.00000000000E+00 0.  1.
        -11    1    3    3    0    0  0.55689914479E+03 -0.14299567594E+03 -0.43671680732E+03  0.72201522879E+03  0.00000000000E+00 0. -1.
          4    1    6    6  502    0 -0.29028692073E+03 -0.64571748345E+02 -0.20058157350E+02  0.29805760636E+03  0.00000000000E+00 0. -1.
          1    1    5    5  503    0  0.79017666601E+00  0.65375165418E+01 -0.25290933323E+02  0.26134169396E+02  0.00000000000E+00 0. -1.
         -2    1    5    5    0  503  0.12602171600E+03  0.28866227955E+03 -0.16302648757E+03  0.35466183920E+03  0.00000000000E+00 0.  1.
         -3    1    6    6    0  502 -0.39004942633E+03 -0.83684046009E+02  0.64717944797E+02  0.40414104829E+03  0.00000000000E+00 0.  1.
<mgrwt>
<rscale>  0 0.17145693E+04</rscale>
<asrwt>0</asrwt>
<pdfrwt beam="1">  1        1 0.18423461E+00 0.17145693E+04</pdfrwt>
<pdfrwt beam="2">  1       -1 0.94417429E-01 0.17145693E+04</pdfrwt>
<totfact> 0.11073547E+01</totfact>
</mgrwt>
</event>
<event>
12    1  0.1506149E-007  0.1509511E+04  0.7818608E-02  0.8878152E-01
          2   -1    0    0  501    0  0.00000000000E+00  0.00000000000E+00  0.18448893209E+04  0.18448893209E+04  0.00000000000E+00 0. -1.
         -2   -1    0    0    0  501 -0.00000000000E+00 -0.00000000000E+00 -0.30877528912E+03  0.30877528912E+03  0.00000000000E+00 0.  1.
         23    2    1    2    0    0  0.30451399617E+03 -0.35474034918E+03  0.55072273140E+03  0.72793786212E+03  0.89601981193E+02 0.  0.
        254    2    1    2    0    0 -0.30451399617E+03  0.35474034918E+03  0.98539130039E+03  0.14257267479E+04  0.91822178999E+03 0.  0.
        -24    2    4    4    0    0 -0.64974161866E+02 -0.34299745528E+02  0.95474926552E+03  0.96093079703E+03  0.80272799964E+02 0.  0.
         24    2    4    4    0    0 -0.23953983430E+03  0.38904009471E+03  0.30642034870E+02  0.46479595088E+03  0.79779785319E+02 0.  0.
         13    1    3    3    0    0  0.71656607404E+02 -0.80021606140E+02  0.18973476484E+03  0.21803074972E+03  0.00000000000E+00 0. -1.
        -13    1    3    3    0    0  0.23285738876E+03 -0.27471874304E+03  0.36098796656E+03  0.50990711240E+03  0.00000000000E+00 0.  1.
          4    1    6    6  502    0 -0.55583873644E+02  0.95907373096E+02 -0.26659467241E+02  0.11401104515E+03  0.00000000000E+00 0. -1.
          1    1    5    5  503    0 -0.63533977172E+02  0.66953148994E+00  0.39398720161E+03  0.39907759842E+03  0.00000000000E+00 0. -1.
         -2    1    5    5    0  503 -0.14401846947E+01 -0.34969277018E+02  0.56076206391E+03  0.56185319861E+03  0.00000000000E+00 0.  1.
         -3    1    6    6    0  502 -0.18395596066E+03  0.29313272161E+03  0.57301502111E+02  0.35078490573E+03  0.00000000000E+00 0.  1.
<mgrwt>
<rscale>  0 0.15095115E+04</rscale>
<asrwt>0</asrwt>
<pdfrwt beam="1">  1        2 0.28382912E+00 0.15095115E+04</pdfrwt>
<pdfrwt beam="2">  1       -2 0.47503892E-01 0.15095115E+04</pdfrwt>
<totfact> 0.33036919E+01</totfact>
</mgrwt>
</event>
<event>
12    1  0.1506149E-007  0.1613697E+04  0.7818608E-02  0.8812177E-01
         -2   -1    0    0    0  501 -0.00000000000E+00  0.00000000000E+00  0.58489387291E+03  0.58489387291E+03  0.00000000000E+00 0.  1.
          2   -1    0    0  501    0  0.00000000000E+00 -0.00000000000E+00 -0.11130299088E+04  0.11130299088E+04  0.00000000000E+00 0. -1.
         23    2    1    2    0    0 -0.48413750462E+03 -0.22623532330E+03 -0.31149456929E+03  0.62502072639E+03  0.89724560876E+02 0.  0.
        254    2    1    2    0    0  0.48413750462E+03  0.22623532330E+03 -0.21664146661E+03  0.10729030553E+04  0.90477394759E+03 0.  0.
        -24    2    4    4    0    0  0.72321714259E+03  0.26771652478E+03 -0.70120208729E+02  0.77859394703E+03  0.81095731767E+02 0.  0.
         24    2    4    4    0    0 -0.23907963797E+03 -0.41481201478E+02 -0.14652125788E+03  0.29430910832E+03  0.79180861699E+02 0.  0.
         13    1    3    3    0    0 -0.42283303740E+02 -0.43556708230E+02 -0.57505504716E+02  0.83617866989E+02  0.00000000000E+00 0. -1.
        -13    1    3    3    0    0 -0.44185420088E+03 -0.18267861507E+03 -0.25398906458E+03  0.54140285940E+03  0.00000000000E+00 0.  1.
          2    1    6    6  502    0 -0.51647503713E+02 -0.41772396573E+02 -0.52199332675E+02  0.84481761859E+02  0.00000000000E+00 0. -1.
          1    1    5    5  503    0  0.12937060335E+03  0.79452190348E+02 -0.26287849239E+02  0.15407937753E+03  0.00000000000E+00 0. -1.
         -2    1    5    5    0  503  0.59384653923E+03  0.18826433443E+03 -0.43832359490E+02  0.62451456950E+03  0.00000000000E+00 0.  1.
         -1    1    6    6    0  502 -0.18743213426E+03  0.29119509487E+00 -0.94321925206E+02  0.20982734646E+03  0.00000000000E+00 0.  1.
<mgrwt>
<rscale>  0 0.16136968E+04</rscale>
<asrwt>0</asrwt>
<pdfrwt beam="1">  1        2 0.17123537E+00 0.16136968E+04</pdfrwt>
<pdfrwt beam="2">  1       -2 0.89983674E-01 0.16136968E+04</pdfrwt>
<totfact> 0.21664140E+01</totfact>
</mgrwt>
</event>
<event>
12    1  0.1506149E-007  0.1762885E+04  0.7818608E-02  0.8726290E-01
         -1   -1    0    0    0  501 -0.00000000000E+00  0.00000000000E+00  0.32981419547E+03  0.32981419547E+03  0.00000000000E+00 0.  1.
          1   -1    0    0  501    0  0.00000000000E+00 -0.00000000000E+00 -0.23556916753E+04  0.23556916753E+04  0.00000000000E+00 0. -1.
         23    2    1    2    0    0  0.37161610194E+03  0.51796829727E+03 -0.57290088354E+03  0.86197925403E+03  0.91668575963E+02 0.  0.
        254    2    1    2    0    0 -0.37161610194E+03 -0.51796829727E+03 -0.14529765963E+04  0.18235266167E+04  0.89873168879E+03 0.  0.
        -24    2    4    4    0    0 -0.18375782118E+03 -0.40451601322E+03 -0.15156652918E+04  0.15814345776E+04  0.79334132847E+02 0.  0.
         24    2    4    4    0    0 -0.18785828076E+03 -0.11345228404E+03  0.62688695509E+02  0.24209203916E+03  0.80725017668E+02 0.  0.
         11    1    3    3    0    0  0.21518744414E+03  0.33859424883E+03 -0.30739111177E+03  0.50541171044E+03  0.00000000000E+00 0.  1.
        -11    1    3    3    0    0  0.15642865780E+03  0.17937404844E+03 -0.26550977177E+03  0.35656754359E+03  0.00000000000E+00 0. -1.
          2    1    6    6  502    0 -0.14894579674E+03 -0.10850241378E+03  0.22017009323E+02  0.18558656434E+03  0.00000000000E+00 0. -1.
          1    1    5    5  503    0 -0.36368370440E+02 -0.14538824634E+03 -0.60151155390E+03  0.61990043557E+03  0.00000000000E+00 0. -1.
         -4    1    5    5    0  503 -0.14738945074E+03 -0.25912776688E+03 -0.91415373788E+03  0.96153414200E+03  0.00000000000E+00 0.  1.
         -1    1    6    6    0  502 -0.38912484014E+02 -0.49498702615E+01  0.40671686186E+02  0.56505474822E+02  0.00000000000E+00 0.  1.
<mgrwt>
<rscale>  0 0.17628846E+04</rscale>
<asrwt>0</asrwt>
<pdfrwt beam="1">  1        1 0.36241411E+00 0.17628846E+04</pdfrwt>
<pdfrwt beam="2">  1       -1 0.50740645E-01 0.17628846E+04</pdfrwt>
<totfact> 0.63014971E+00</totfact>
</mgrwt>
</event>
<event>
12    1  0.1506149E-007  0.2555195E+04  0.7818608E-02  0.8383582E-01
         -2   -1    0    0    0  501 -0.00000000000E+00  0.00000000000E+00  0.10772478195E+04  0.10772478195E+04  0.00000000000E+00 0.  1.
          2   -1    0    0  501    0  0.00000000000E+00 -0.00000000000E+00 -0.15152082588E+04  0.15152082588E+04  0.00000000000E+00 0. -1.
         23    2    1    2    0    0  0.24132060771E+03  0.10453132002E+04 -0.53071646643E+03  0.12003440086E+04  0.90831982409E+02 0.  0.
        254    2    1    2    0    0 -0.24132060771E+03 -0.10453132002E+04  0.92756027079E+02  0.13921120697E+04  0.88230210921E+03 0.  0.
        -24    2    4    4    0    0 -0.10034975811E+02  0.13001288268E+03  0.11502286017E+03  0.19152252971E+03  0.80290538808E+02 0.  0.
         24    2    4    4    0    0 -0.23128563190E+03 -0.11753260829E+04 -0.22266833095E+02  0.12005895400E+04  0.77685179586E+02 0.  0.
         13    1    3    3    0    0  0.17976203856E+03  0.70013551681E+03 -0.40006128127E+03  0.82616775607E+03  0.00000000000E+00 0. -1.
        -13    1    3    3    0    0  0.61558569149E+02  0.34517768338E+03 -0.13065518516E+03  0.37417625252E+03  0.00000000000E+00 0.  1.
          2    1    6    6  502    0 -0.22354241400E+03 -0.10504518116E+04 -0.36998329325E+02  0.10746111370E+04  0.00000000000E+00 0. -1.
          1    1    5    5  503    0  0.42475965598E+01  0.15870709284E+01  0.43687145621E+02  0.43921834697E+02  0.00000000000E+00 0. -1.
         -4    1    5    5    0  503 -0.14282572371E+02  0.12842581176E+03  0.71335714553E+02  0.14760069502E+03  0.00000000000E+00 0.  1.
         -1    1    6    6    0  502 -0.77432179028E+01 -0.12487427128E+03  0.14731496229E+02  0.12597840304E+03  0.00000000000E+00 0.  1.
<mgrwt>
<rscale>  0 0.25551945E+04</rscale>
<asrwt>0</asrwt>
<pdfrwt beam="1">  1        2 0.23310896E+00 0.25551945E+04</pdfrwt>
<pdfrwt beam="2">  1       -2 0.16573043E+00 0.25551945E+04</pdfrwt>
<totfact> 0.25275349E+00</totfact>
</mgrwt>
</event>
<event>
12    1  0.1506149E-007  0.1377837E+04  0.7818608E-02  0.8970019E-01
         -2   -1    0    0    0  501 -0.00000000000E+00  0.00000000000E+00  0.91469806633E+03  0.91469806633E+03  0.00000000000E+00 0.  1.
          2   -1    0    0  501    0  0.00000000000E+00 -0.00000000000E+00 -0.51886932600E+03  0.51886932600E+03  0.00000000000E+00 0. -1.
         23    2    1    2    0    0  0.46871410546E+02  0.14255422066E+03 -0.26601157477E+03  0.31838678335E+03  0.89940819137E+02 0.  0.
        254    2    1    2    0    0 -0.46871410546E+02 -0.14255422066E+03  0.66184031510E+03  0.11151806090E+04  0.88491612767E+03 0.  0.
        -24    2    4    4    0    0  0.24806094415E+03  0.22368370090E+03  0.62002764599E+02  0.34865228375E+03  0.78392870120E+02 0.  0.
         24    2    4    4    0    0 -0.29493235470E+03 -0.36623792156E+03  0.59983755050E+03  0.76652832523E+03  0.81518570638E+02 0.  0.
         11    1    3    3    0    0 -0.73872319858E+01  0.82085451350E+01  0.41726495616E+01  0.11805185895E+02  0.00000000000E+00 0.  1.
        -11    1    3    3    0    0  0.54258642532E+02  0.13434567552E+03 -0.27018422433E+03  0.30658159746E+03  0.00000000000E+00 0. -1.
          2    1    6    6  502    0 -0.45439974943E+02 -0.10902343948E+03  0.16826556249E+03  0.20558258973E+03  0.00000000000E+00 0. -1.
          1    1    5    5  503    0 -0.59854539336E+01  0.46983699603E+01  0.25300972793E+01  0.80188360326E+01  0.00000000000E+00 0. -1.
         -2    1    5    5    0  503  0.25404639808E+03  0.21898533094E+03  0.59472667319E+02  0.34063344772E+03  0.00000000000E+00 0.  1.
         -1    1    6    6    0  502 -0.24949237975E+03 -0.25721448208E+03  0.43157198801E+03  0.56094573550E+03  0.00000000000E+00 0.  1.
<mgrwt>
<rscale>  0 0.13778371E+04</rscale>
<asrwt>0</asrwt>
<pdfrwt beam="1">  1        2 0.79826050E-01 0.13778371E+04</pdfrwt>
<pdfrwt beam="2">  1       -2 0.14072278E+00 0.13778371E+04</pdfrwt>
<totfact> 0.20357477E+01</totfact>
</mgrwt>
</event>
<event>
12    1  0.1506149E-007  0.1416149E+04  0.7818608E-02  0.8942211E-01
          1   -1    0    0  501    0  0.00000000000E+00  0.00000000000E+00  0.15240100913E+04  0.15240100913E+04  0.00000000000E+00 0. -1.
         -1   -1    0    0    0  501 -0.00000000000E+00 -0.00000000000E+00 -0.32898037680E+03  0.32898037680E+03  0.00000000000E+00 0.  1.
         23    2    1    2    0    0 -0.23224071680E+03 -0.29221281889E+03  0.64830758641E+03  0.75352276991E+03  0.90386703186E+02 0.  0.
        254    2    1    2    0    0  0.23224071680E+03  0.29221281889E+03  0.54672212810E+03  0.10994676982E+04  0.87783828350E+03 0.  0.
        -24    2    4    4    0    0  0.29106893275E+03  0.56664805888E+02 -0.16145361078E+03  0.34659319222E+03  0.78278660037E+02 0.  0.
         24    2    4    4    0    0 -0.58828215954E+02  0.23554801300E+03  0.70817573888E+03  0.75287450599E+03  0.79771669230E+02 0.  0.
         11    1    3    3    0    0 -0.82444865108E+02 -0.17369620272E+03  0.34905120280E+03  0.39850253299E+03  0.00000000000E+00 0.  1.
        -11    1    3    3    0    0 -0.14979585169E+03 -0.11851661616E+03  0.29925638361E+03  0.35502023692E+03  0.00000000000E+00 0. -1.
          4    1    6    6  502    0 -0.76291506605E+02  0.15954466696E+03  0.51675367590E+03  0.54617694595E+03  0.00000000000E+00 0. -1.
          3    1    5    5  503    0  0.25682900362E+03  0.24785737212E+02 -0.14989915199E+03  0.29840446652E+03  0.00000000000E+00 0. -1.
         -4    1    5    5    0  503  0.34239929132E+02  0.31879068675E+02 -0.11554458786E+02  0.48188725699E+02  0.00000000000E+00 0.  1.
         -3    1    6    6    0  502  0.17463290650E+02  0.76003346039E+02  0.19142206298E+03  0.20669756003E+03  0.00000000000E+00 0.  1.
<mgrwt>
<rscale>  0 0.14161489E+04</rscale>
<asrwt>0</asrwt>
<pdfrwt beam="1">  1        1 0.23446309E+00 0.14161489E+04</pdfrwt>
<pdfrwt beam="2">  1       -1 0.50612367E-01 0.14161489E+04</pdfrwt>
<totfact> 0.24042329E+01</totfact>
</mgrwt>
</event>
<event>
12    1  0.1506149E-007  0.1490264E+04  0.7818608E-02  0.8890953E-01
          2   -1    0    0  501    0  0.00000000000E+00  0.00000000000E+00  0.91790736630E+03  0.91790736630E+03  0.00000000000E+00 0. -1.
         -2   -1    0    0    0  501 -0.00000000000E+00 -0.00000000000E+00 -0.60487780052E+03  0.60487780052E+03  0.00000000000E+00 0.  1.
         23    2    1    2    0    0 -0.12618277123E+03  0.43007711511E+03 -0.17338664525E+02  0.45765783986E+03  0.90893632387E+02 0.  0.
        254    2    1    2    0    0  0.12618277123E+03 -0.43007711511E+03  0.33036823031E+03  0.10651273270E+04  0.90800035151E+03 0.  0.
        -24    2    4    4    0    0 -0.25167960637E+03 -0.49134262652E+03  0.37389510465E+03  0.67168614001E+03  0.81268201050E+02 0.  0.
         24    2    4    4    0    0  0.37786237760E+03  0.61265511413E+02 -0.43526874342E+02  0.39344118695E+03  0.79799370290E+02 0.  0.
         11    1    3    3    0    0 -0.11313060954E+03  0.31668261302E+03 -0.47438176880E+02  0.33961271006E+03  0.00000000000E+00 0.  1.
        -11    1    3    3    0    0 -0.13052161691E+02  0.11339450208E+03  0.30099512355E+02  0.11804512981E+03  0.00000000000E+00 0. -1.
          4    1    6    6  502    0  0.20123809808E+03  0.93693227095E+01 -0.55501138438E+02  0.20896155794E+03  0.00000000000E+00 0. -1.
          1    1    5    5  503    0 -0.16338166618E+02 -0.66528993564E+02  0.74310168337E+02  0.10106949981E+03  0.00000000000E+00 0. -1.
         -2    1    5    5    0  503 -0.23534143975E+03 -0.42481363295E+03  0.29958493631E+03  0.57061664020E+03  0.00000000000E+00 0.  1.
         -3    1    6    6    0  502  0.17662427952E+03  0.51896188703E+02  0.11974264097E+02  0.18447962901E+03  0.00000000000E+00 0.  1.
<mgrwt>
<rscale>  0 0.14902641E+04</rscale>
<asrwt>0</asrwt>
<pdfrwt beam="1">  1        2 0.14121652E+00 0.14902641E+04</pdfrwt>
<pdfrwt beam="2">  1       -2 0.93058122E-01 0.14902641E+04</pdfrwt>
<totfact> 0.26974415E+01</totfact>
</mgrwt>
</event>
<event>
12    1  0.1506149E-007  0.1491822E+04  0.7818608E-02  0.8889910E-01
          1   -1    0    0  501    0  0.00000000000E+00  0.00000000000E+00  0.11859569450E+04  0.11859569450E+04  0.00000000000E+00 0. -1.
         -1   -1    0    0    0  501 -0.00000000000E+00 -0.00000000000E+00 -0.46914262692E+03  0.46914262692E+03  0.00000000000E+00 0.  1.
         23    2    1    2    0    0  0.24511563435E+03 -0.50249675925E+02 -0.21089359894E+03  0.33986078759E+03  0.91774401314E+02 0.  0.
        254    2    1    2    0    0 -0.24511563435E+03  0.50249675925E+02  0.92770791700E+03  0.13152387843E+04  0.89811156119E+03 0.  0.
        -24    2    4    4    0    0 -0.47261166278E+03  0.12382468372E+03  0.18341704105E+03  0.52941971651E+03  0.89157664780E+02 0.  0.
         24    2    4    4    0    0  0.22749602843E+03 -0.73575007791E+02  0.74429087595E+03  0.78581906779E+03  0.79843437828E+02 0.  0.
         11    1    3    3    0    0  0.23493614852E+03 -0.32658484119E+02 -0.16291477591E+03  0.28775474744E+03  0.00000000000E+00 0.  1.
        -11    1    3    3    0    0  0.10179485832E+02 -0.17591191806E+02 -0.47978823029E+02  0.52106040151E+02  0.00000000000E+00 0. -1.
          4    1    6    6  502    0  0.12051495946E+03 -0.47063931029E+00  0.30966596340E+03  0.33229066470E+03  0.00000000000E+00 0. -1.
          1    1    5    5  503    0 -0.17876741705E+03  0.46111254413E+01  0.52724827579E+02  0.18643754805E+03  0.00000000000E+00 0. -1.
         -2    1    5    5    0  503 -0.29384424573E+03  0.11921355827E+03  0.13069221347E+03  0.34298216846E+03  0.00000000000E+00 0.  1.
         -3    1    6    6    0  502  0.10698106897E+03 -0.73104368480E+02  0.43462491255E+03  0.45352840310E+03  0.00000000000E+00 0.  1.
<mgrwt>
<rscale>  0 0.14918216E+04</rscale>
<asrwt>0</asrwt>
<pdfrwt beam="1">  1        1 0.18245491E+00 0.14918216E+04</pdfrwt>
<pdfrwt beam="2">  1       -1 0.72175789E-01 0.14918216E+04</pdfrwt>
<totfact> 0.20516117E+01</totfact>
</mgrwt>
</event>
<event>
12    1  0.1506149E-007  0.1402504E+04  0.7818608E-02  0.8952008E-01
         -1   -1    0    0    0  501 -0.00000000000E+00  0.00000000000E+00  0.30000255091E+03  0.30000255091E+03  0.00000000000E+00 0.  1.
          1   -1    0    0  501    0  0.00000000000E+00 -0.00000000000E+00 -0.16391678779E+04  0.16391678779E+04  0.00000000000E+00 0. -1.
         23    2    1    2    0    0 -0.17664706550E+03  0.88225813168E+02  0.89598060265E+02  0.23846246846E+03  0.99239894205E+02 0.  0.
        254    2    1    2    0    0  0.17664706550E+03 -0.88225813168E+02 -0.14287633872E+04  0.17007079603E+04  0.90114081573E+03 0.  0.
        -24    2    4    4    0    0 -0.15686408631E+03 -0.26862136259E+03 -0.13223207213E+03  0.34747561611E+03  0.80561807816E+02 0.  0.
         24    2    4    4    0    0  0.33351115181E+03  0.18039554942E+03 -0.12965313151E+04  0.13532323442E+04  0.80449262017E+02 0.  0.
         13    1    3    3    0    0 -0.33262221637E+02 -0.93751329014E+01 -0.13019734723E+02  0.36929419132E+02  0.00000000000E+00 0. -1.
        -13    1    3    3    0    0 -0.14338484387E+03  0.97600946069E+02  0.10261779499E+03  0.20153304933E+03  0.00000000000E+00 0.  1.
          4    1    6    6  502    0  0.16846375259E+03  0.79547007025E+02 -0.77243637068E+03  0.79458524339E+03  0.00000000000E+00 0. -1.
          1    1    5    5  503    0 -0.39889309889E+02 -0.34313758326E+02 -0.51012813054E+02  0.73286411766E+02  0.00000000000E+00 0. -1.
         -2    1    5    5    0  503 -0.11697477642E+03 -0.23430760426E+03 -0.81219259074E+02  0.27418920435E+03  0.00000000000E+00 0.  1.
         -3    1    6    6    0  502  0.16504739922E+03  0.10084854240E+03 -0.52409494442E+03  0.55864710083E+03  0.00000000000E+00 0.  1.
<mgrwt>
<rscale>  0 0.14025043E+04</rscale>
<asrwt>0</asrwt>
<pdfrwt beam="1">  1        1 0.25217967E+00 0.14025043E+04</pdfrwt>
<pdfrwt beam="2">  1       -1 0.46154239E-01 0.14025043E+04</pdfrwt>
<totfact> 0.23882457E+01</totfact>
</mgrwt>
</event>
<event>
12    1  0.1506149E-007  0.1011466E+04  0.7818608E-02  0.9296058E-01
          1   -1    0    0  501    0  0.00000000000E+00  0.00000000000E+00  0.15855929590E+03  0.15855929590E+03  0.00000000000E+00 0.  1.
         -1   -1    0    0    0  501 -0.00000000000E+00 -0.00000000000E+00 -0.16130601983E+04  0.16130601983E+04  0.00000000000E+00 0. -1.
         23    2    1    2    0    0  0.29323091665E+02 -0.34561305637E+02 -0.88250736450E+02  0.13502329414E+03  0.91590228321E+02 0.  0.
        254    2    1    2    0    0 -0.29323091665E+02  0.34561305637E+02 -0.13662501659E+04  0.16365962000E+04  0.89986292207E+03 0.  0.
        -24    2    4    4    0    0  0.20357094936E+03  0.12313979194E+03 -0.13518622911E+04  0.13747190477E+04  0.75605993997E+02 0.  0.
         24    2    4    4    0    0 -0.23289404103E+03 -0.88578486303E+02 -0.14387874858E+02  0.26187715233E+03  0.79289654990E+02 0.  0.
         13    1    3    3    0    0  0.28002632114E+02  0.27985706114E+02 -0.32352057983E+02  0.51127319583E+02  0.00000000000E+00 0. -1.
        -13    1    3    3    0    0  0.13204595518E+01 -0.62547011751E+02 -0.55898678467E+02  0.83895974556E+02  0.00000000000E+00 0.  1.
          4    1    6    6  502    0 -0.17723701817E+03 -0.37728837403E+02  0.12985902190E+02  0.18167294635E+03  0.00000000000E+00 0. -1.
          1    1    5    5  503    0  0.14539274120E+03  0.66602839266E+02 -0.10516112958E+04  0.10637016991E+04  0.00000000000E+00 0. -1.
         -2    1    5    5    0  503  0.58178208158E+02  0.56536952674E+02 -0.30025099531E+03  0.31101734856E+03  0.00000000000E+00 0.  1.
         -3    1    6    6    0  502 -0.55657022862E+02 -0.50849648900E+02 -0.27373777048E+02  0.80204205980E+02  0.00000000000E+00 0.  1.
<mgrwt>
<rscale>  0 0.10114656E+04</rscale>
<asrwt>0</asrwt>
<pdfrwt beam="1">  1        1 0.24393737E-01 0.10114656E+04</pdfrwt>
<pdfrwt beam="2">  1       -1 0.24816312E+00 0.10114656E+04</pdfrwt>
<totfact> 0.14570766E+01</totfact>
</mgrwt>
</event>
<event>
12    1  0.1506149E-007  0.1843692E+04  0.7818608E-02  0.8683404E-01
         -1   -1    0    0    0  501 -0.00000000000E+00  0.00000000000E+00  0.35016826339E+03  0.35016826339E+03  0.00000000000E+00 0.  1.
          1   -1    0    0  501    0  0.00000000000E+00 -0.00000000000E+00 -0.24268334405E+04  0.24268334405E+04  0.00000000000E+00 0. -1.
         23    2    1    2    0    0 -0.20528808667E+03  0.66847859062E+03 -0.81124256129E+03  0.10740775850E+04  0.80754818638E+02 0.  0.
        254    2    1    2    0    0  0.20528808667E+03 -0.66847859062E+03 -0.12654226158E+04  0.17029241189E+04  0.89980516414E+03 0.  0.
        -24    2    4    4    0    0 -0.17239778177E+03 -0.80167953706E+01  0.35079153542E+02  0.19410498977E+03  0.81614556767E+02 0.  0.
         24    2    4    4    0    0  0.37768586843E+03 -0.66046179525E+03 -0.13005017694E+04  0.15088191291E+04  0.79836796405E+02 0.  0.
         11    1    3    3    0    0 -0.19828019704E+03  0.65233132403E+03 -0.76571754781E+03  0.10252680410E+04  0.00000000000E+00 0. -1.
        -11    1    3    3    0    0 -0.70078896294E+01  0.16147266585E+02 -0.45525013478E+02  0.48809544020E+02  0.00000000000E+00 0.  1.
          4    1    6    6  502    0  0.23113479484E+03 -0.38925275443E+03 -0.84829102041E+03  0.96152933160E+03  0.00000000000E+00 0. -1.
          3    1    5    5  503    0 -0.12777837855E+03 -0.34697765994E+02  0.47474782414E+02  0.14065953204E+03  0.00000000000E+00 0. -1.
         -4    1    5    5    0  503 -0.44619403216E+02  0.26680970624E+02 -0.12395628872E+02  0.53445457729E+02  0.00000000000E+00 0.  1.
         -3    1    6    6    0  502  0.14655107359E+03 -0.27120904082E+03 -0.45221074895E+03  0.54728979751E+03  0.00000000000E+00 0.  1.
<mgrwt>
<rscale>  0 0.18436920E+04</rscale>
<asrwt>0</asrwt>
<pdfrwt beam="1">  1        1 0.37335900E+00 0.18436920E+04</pdfrwt>
<pdfrwt beam="2">  1       -1 0.53872039E-01 0.18436920E+04</pdfrwt>
<totfact> 0.49814516E+00</totfact>
</mgrwt>
</event>
<event>
12    1  0.1506149E-007  0.1641771E+04  0.7818608E-02  0.8795290E-01
          2   -1    0    0  501    0  0.00000000000E+00  0.00000000000E+00  0.10630085532E+04  0.10630085532E+04  0.00000000000E+00 0. -1.
         -2   -1    0    0    0  501 -0.00000000000E+00 -0.00000000000E+00 -0.63391112170E+03  0.63391112170E+03  0.00000000000E+00 0.  1.
         23    2    1    2    0    0  0.53584396134E+03  0.18874024373E+03  0.21338121800E+03  0.61358803922E+03  0.90593085663E+02 0.  0.
        254    2    1    2    0    0 -0.53584396134E+03 -0.18874024373E+03  0.21571621345E+03  0.10833316356E+04  0.89684018504E+03 0.  0.
        -24    2    4    4    0    0 -0.31325944795E+01 -0.41433416600E+03  0.26270672135E+03  0.49711603559E+03  0.80168055577E+02 0.  0.
         24    2    4    4    0    0 -0.53271136686E+03  0.22559392227E+03 -0.46990507895E+02  0.58621560004E+03  0.82259368826E+02 0.  0.
         13    1    3    3    0    0  0.29713479188E+03  0.69290122995E+02  0.81210579498E+02  0.31572989075E+03  0.00000000000E+00 0.  1.
        -13    1    3    3    0    0  0.23870916946E+03  0.11945012074E+03  0.13217063850E+03  0.29785814847E+03  0.00000000000E+00 0. -1.
          2    1    6    6  502    0 -0.36961918103E+03  0.15053917729E+03  0.55973733615E+01  0.39913871457E+03  0.00000000000E+00 0. -1.
          3    1    5    5  503    0  0.22208927487E+02 -0.32098599216E+03  0.17358497069E+03  0.36559128227E+03  0.00000000000E+00 0. -1.
         -4    1    5    5    0  503 -0.25341521966E+02 -0.93348173835E+02  0.89121750656E+02  0.13152475331E+03  0.00000000000E+00 0.  1.
         -1    1    6    6    0  502 -0.16309218583E+03  0.75054744981E+02 -0.52587881256E+02  0.18707688547E+03  0.00000000000E+00 0.  1.
<mgrwt>
<rscale>  0 0.16417709E+04</rscale>
<asrwt>0</asrwt>
<pdfrwt beam="1">  1        2 0.16353978E+00 0.16417709E+04</pdfrwt>
<pdfrwt beam="2">  1       -2 0.97524789E-01 0.16417709E+04</pdfrwt>
<totfact> 0.19247178E+01</totfact>
</mgrwt>
</event>
<event>
12    1  0.1506149E-007  0.3348754E+04  0.7818608E-02  0.8150600E-01
          2   -1    0    0  501    0  0.00000000000E+00  0.00000000000E+00  0.31634466189E+04  0.31634466189E+04  0.00000000000E+00 0. -1.
         -2   -1    0    0    0  501 -0.00000000000E+00 -0.00000000000E+00 -0.88622896809E+03  0.88622896809E+03  0.00000000000E+00 0.  1.
         23    2    1    2    0    0 -0.27966622591E+03  0.96981969828E+03  0.24816868362E+04  0.26804558485E+04  0.85501799564E+02 0.  0.
        254    2    1    2    0    0  0.27966622591E+03 -0.96981969828E+03 -0.20446918539E+03  0.13692197385E+04  0.90232566151E+03 0.  0.
        -24    2    4    4    0    0  0.54152091871E+03 -0.35932342712E+03 -0.24582334920E+03  0.69912689570E+03  0.77401980562E+02 0.  0.
         24    2    4    4    0    0 -0.26185469280E+03 -0.61049627116E+03  0.41354163815E+02  0.67009284280E+03  0.77721772107E+02 0.  0.
         11    1    3    3    0    0 -0.12846775928E+03  0.30133603662E+03  0.79841005852E+03  0.86299825822E+03  0.00000000000E+00 0.  1.
        -11    1    3    3    0    0 -0.15119846664E+03  0.66848366166E+03  0.16832767777E+04  0.18174575903E+04  0.00000000000E+00 0. -1.
          4    1    6    6  502    0 -0.25690978285E+03 -0.58059039020E+03  0.54136748274E+02  0.63719590805E+03  0.00000000000E+00 0. -1.
          3    1    5    5  503    0  0.32263751034E+03 -0.23482810237E+03 -0.18620615861E+03  0.44035432806E+03  0.00000000000E+00 0. -1.
         -4    1    5    5    0  503  0.21888340837E+03 -0.12449532475E+03 -0.59617190594E+02  0.25877256763E+03  0.00000000000E+00 0.  1.
         -3    1    6    6    0  502 -0.49449099447E+01 -0.29905880965E+02 -0.12782584459E+02  0.32896934752E+02  0.00000000000E+00 0.  1.
<mgrwt>
<rscale>  0 0.33487538E+04</rscale>
<asrwt>0</asrwt>
<pdfrwt beam="1">  1        2 0.48668409E+00 0.33487538E+04</pdfrwt>
<pdfrwt beam="2">  1       -2 0.13634292E+00 0.33487538E+04</pdfrwt>
<totfact> 0.43787678E-01</totfact>
</mgrwt>
</event>
<event>
12    1  0.1506149E-007  0.2159087E+04  0.7818608E-02  0.8535653E-01
         -2   -1    0    0    0  501 -0.00000000000E+00  0.00000000000E+00  0.10114275043E+04  0.10114275043E+04  0.00000000000E+00 0.  1.
          2   -1    0    0  501    0  0.00000000000E+00 -0.00000000000E+00 -0.11522468498E+04  0.11522468498E+04  0.00000000000E+00 0. -1.
         23    2    1    2    0    0  0.42305256847E+03 -0.38009646417E+02 -0.83993143676E+03  0.94534716669E+03  0.88194320758E+02 0.  0.
        254    2    1    2    0    0 -0.42305256847E+03  0.38009646417E+02  0.69911209127E+03  0.12183271873E+04  0.90285392525E+03 0.  0.
        -24    2    4    4    0    0 -0.44572451673E+03  0.13081223830E+03  0.88094286550E+03  0.99911966537E+03  0.79984917031E+02 0.  0.
         24    2    4    4    0    0  0.22671948267E+02 -0.92802591879E+02 -0.18183077424E+03  0.21920752196E+03  0.76571332284E+02 0.  0.
         11    1    3    3    0    0  0.28086523768E+03 -0.50340593227E+02 -0.62866666443E+03  0.69039208572E+03  0.00000000000E+00 0. -1.
        -11    1    3    3    0    0  0.14218733079E+03  0.12330946810E+02 -0.21126477232E+03  0.25495508097E+03  0.00000000000E+00 0.  1.
          2    1    6    6  502    0  0.53867319031E+00 -0.34364813678E+02 -0.91474599226E+01  0.35565525597E+02  0.00000000000E+00 0. -1.
          3    1    5    5  503    0 -0.33593631578E+03  0.13085113116E+03  0.64602475763E+03  0.73981295897E+03  0.00000000000E+00 0. -1.
         -4    1    5    5    0  503 -0.10978820095E+03 -0.38892861065E-01  0.23491810787E+03  0.25930670641E+03  0.00000000000E+00 0.  1.
         -1    1    6    6    0  502  0.22133275077E+02 -0.58437778200E+02 -0.17268331431E+03  0.18364199637E+03  0.00000000000E+00 0.  1.
<mgrwt>
<rscale>  0 0.21590870E+04</rscale>
<asrwt>0</asrwt>
<pdfrwt beam="1">  1        2 0.17726875E+00 0.21590870E+04</pdfrwt>
<pdfrwt beam="2">  1       -2 0.15560423E+00 0.21590870E+04</pdfrwt>
<totfact> 0.50424938E+00</totfact>
</mgrwt>
</event>
<event>
12    1  0.1506149E-007  0.1235624E+04  0.7818608E-02  0.9082234E-01
          2   -1    0    0  501    0  0.00000000000E+00  0.00000000000E+00  0.18091154433E+04  0.18091154433E+04  0.00000000000E+00 0. -1.
         -2   -1    0    0    0  501 -0.00000000000E+00 -0.00000000000E+00 -0.21098233204E+03  0.21098233204E+03  0.00000000000E+00 0.  1.
         23    2    1    2    0    0  0.13554015988E+03  0.23212219438E+03  0.56113050865E+03  0.62850672915E+03  0.88889891396E+02 0.  0.
        254    2    1    2    0    0 -0.13554015988E+03 -0.23212219438E+03  0.10370026026E+04  0.13915910462E+04  0.88820008667E+03 0.  0.
        -24    2    4    4    0    0  0.45302294338E+02 -0.54778407213E+03  0.58652012124E+03  0.80786614104E+03  0.80759901342E+02 0.  0.
         24    2    4    4    0    0 -0.18084245422E+03  0.31566187775E+03  0.45048248138E+03  0.58372490517E+03  0.73850420225E+02 0.  0.
         13    1    3    3    0    0  0.71473741753E+02  0.11630401488E+03  0.18605458691E+03  0.23076271134E+03  0.00000000000E+00 0.  1.
        -13    1    3    3    0    0  0.64066418129E+02  0.11581817950E+03  0.37507592174E+03  0.39774401781E+03  0.00000000000E+00 0. -1.
          4    1    6    6  502    0 -0.10225691657E+03  0.24011470735E+03  0.29554960468E+03  0.39428557988E+03  0.00000000000E+00 0. -1.
          3    1    5    5  503    0  0.53333685913E+02 -0.35898710745E+03  0.34051832130E+03  0.49766349325E+03  0.00000000000E+00 0. -1.
         -2    1    5    5    0  503 -0.80313915746E+01 -0.18879696467E+03  0.24600179995E+03  0.31020264779E+03  0.00000000000E+00 0.  1.
         -3    1    6    6    0  502 -0.78585537646E+02  0.75547170396E+02  0.15493287671E+03  0.18943932529E+03  0.00000000000E+00 0.  1.
<mgrwt>
<rscale>  0 0.12356236E+04</rscale>
<asrwt>0</asrwt>
<pdfrwt beam="1">  1        2 0.27832544E+00 0.12356236E+04</pdfrwt>
<pdfrwt beam="2">  1       -2 0.32458822E-01 0.12356236E+04</pdfrwt>
<totfact> 0.74261064E+01</totfact>
</mgrwt>
</event>
<event>
12    1  0.1506149E-007  0.2118309E+04  0.7818608E-02  0.8553221E-01
         -2   -1    0    0    0  501 -0.00000000000E+00  0.00000000000E+00  0.19724202907E+04  0.19724202907E+04  0.00000000000E+00 0.  1.
          2   -1    0    0  501    0  0.00000000000E+00 -0.00000000000E+00 -0.56874715838E+03  0.56874715838E+03  0.00000000000E+00 0. -1.
         23    2    1    2    0    0  0.39675135122E+03 -0.37233985261E+03  0.13916840663E+04  0.14972500809E+04  0.94470438133E+02 0.  0.
        254    2    1    2    0    0 -0.39675135122E+03  0.37233985261E+03  0.11989065971E+02  0.10439173682E+04  0.89082609603E+03 0.  0.
        -24    2    4    4    0    0 -0.91604246420E+02  0.56349199327E+03  0.22434597315E+03  0.61848237892E+03  0.79213464316E+02 0.  0.
         24    2    4    4    0    0 -0.30514710480E+03 -0.19115214066E+03 -0.21235690718E+03  0.42543498926E+03  0.79028966953E+02 0.  0.
         13    1    3    3    0    0  0.37485006098E+03 -0.35324471334E+03  0.12384888992E+04  0.13413236556E+04  0.00000000000E+00 0.  1.
        -13    1    3    3    0    0  0.21901290239E+02 -0.19095139274E+02  0.15319516715E+03  0.15592642527E+03  0.00000000000E+00 0. -1.
          4    1    6    6  502    0 -0.73921432432E+00  0.38721300220E+01 -0.10855719606E+02  0.11549306338E+02  0.00000000000E+00 0. -1.
          3    1    5    5  503    0 -0.63126259027E+02  0.28380454720E+03  0.15252554389E+03  0.32831994629E+03  0.00000000000E+00 0. -1.
         -4    1    5    5    0  503 -0.28477987393E+02  0.27968744607E+03  0.71820429258E+02  0.29016243263E+03  0.00000000000E+00 0.  1.
         -3    1    6    6    0  502 -0.30440789047E+03 -0.19502427068E+03 -0.20150118757E+03  0.41388568293E+03  0.00000000000E+00 0.  1.
<mgrwt>
<rscale>  0 0.21183092E+04</rscale>
<asrwt>0</asrwt>
<pdfrwt beam="1">  1        2 0.87499564E-01 0.21183092E+04</pdfrwt>
<pdfrwt beam="2">  1       -2 0.30344927E+00 0.21183092E+04</pdfrwt>
<totfact> 0.14747308E+00</totfact>
</mgrwt>
</event>
<event>
12    1  0.1506149E-007  0.1613077E+04  0.7818608E-02  0.8812555E-01
          2   -1    0    0  501    0  0.00000000000E+00  0.00000000000E+00  0.22550414911E+04  0.22550414911E+04  0.00000000000E+00 0. -1.
         -2   -1    0    0    0  501 -0.00000000000E+00 -0.00000000000E+00 -0.28846652942E+03  0.28846652942E+03  0.00000000000E+00 0.  1.
         23    2    1    2    0    0 -0.35804352339E+03  0.25135811493E+03  0.12257236748E+04  0.13046238312E+04  0.90932652102E+02 0.  0.
        254    2    1    2    0    0  0.35804352339E+03 -0.25135811493E+03  0.74085128684E+03  0.12388841894E+04  0.89140189524E+03 0.  0.
        -24    2    4    4    0    0  0.49057174464E+03 -0.27870049882E+03  0.86698123239E+03  0.10376084398E+04  0.81487498727E+02 0.  0.
         24    2    4    4    0    0 -0.13252822126E+03  0.27342383891E+02 -0.12612994555E+03  0.20127574950E+03  0.79321048828E+02 0.  0.
         11    1    3    3    0    0 -0.33627408206E+03  0.25121050454E+03  0.11977982769E+04  0.12692153828E+04  0.00000000000E+00 0. -1.
        -11    1    3    3    0    0 -0.21769441327E+02  0.14761039047E+00  0.27925397969E+02  0.35408448374E+02  0.00000000000E+00 0.  1.
          2    1    6    6  502    0 -0.32044979288E+02  0.37822263715E+02 -0.16625076924E+02  0.52285729533E+02  0.00000000000E+00 0. -1.
          3    1    5    5  503    0  0.10541346147E+03 -0.79880498799E+02  0.26057407471E+03  0.29221865162E+03  0.00000000000E+00 0. -1.
         -4    1    5    5    0  503  0.38515828317E+03 -0.19882000002E+03  0.60640715768E+03  0.74538978823E+03  0.00000000000E+00 0.  1.
         -1    1    6    6    0  502 -0.10048324197E+03 -0.10479879824E+02 -0.10950486863E+03  0.14899001997E+03  0.00000000000E+00 0.  1.
<mgrwt>
<rscale>  0 0.16130766E+04</rscale>
<asrwt>0</asrwt>
<pdfrwt beam="1">  1        2 0.34692945E+00 0.16130766E+04</pdfrwt>
<pdfrwt beam="2">  1       -2 0.44379468E-01 0.16130766E+04</pdfrwt>
<totfact> 0.22196219E+01</totfact>
</mgrwt>
</event>
<event>
12    1  0.1506149E-007  0.2013753E+04  0.7818608E-02  0.8600218E-01
          1   -1    0    0  501    0  0.00000000000E+00  0.00000000000E+00  0.12635778682E+04  0.12635778682E+04  0.00000000000E+00 0. -1.
         -1   -1    0    0    0  501 -0.00000000000E+00 -0.00000000000E+00 -0.80232517948E+03  0.80232517948E+03  0.00000000000E+00 0.  1.
         23    2    1    2    0    0 -0.47605255219E+02 -0.49166715267E+03  0.83057225877E+03  0.97157283898E+03  0.10050201529E+03 0.  0.
        254    2    1    2    0    0  0.47605255219E+02  0.49166715267E+03 -0.36931957008E+03  0.10943302087E+04  0.90396836859E+03 0.  0.
        -24    2    4    4    0    0 -0.84599114834E+02 -0.17905833536E+03 -0.34466261037E+03  0.40552349547E+03  0.80237726155E+02 0.  0.
         24    2    4    4    0    0  0.13220437005E+03  0.67072548803E+03 -0.24656959714E+02  0.68880671320E+03  0.80598056599E+02 0.  0.
         11    1    3    3    0    0  0.12047810269E+02 -0.33448834325E+03  0.58462584181E+03  0.67365790756E+03  0.00000000000E+00 0. -1.
        -11    1    3    3    0    0 -0.59653065487E+02 -0.15717880942E+03  0.24594641696E+03  0.29791493143E+03  0.00000000000E+00 0.  1.
          2    1    6    6  502    0  0.10353755084E+03  0.55979845098E+03  0.91008808644E+01  0.56936557341E+03  0.00000000000E+00 0. -1.
          1    1    5    5  503    0 -0.28198040044E+02 -0.14322889133E+03 -0.25296101324E+03  0.29205978668E+03  0.00000000000E+00 0. -1.
         -2    1    5    5    0  503 -0.56401074789E+02 -0.35829444027E+02 -0.91701597127E+02  0.11346370879E+03  0.00000000000E+00 0.  1.
         -1    1    6    6    0  502  0.28666819217E+02  0.11092703705E+03 -0.33757840579E+02  0.11944113978E+03  0.00000000000E+00 0.  1.
<mgrwt>
<rscale>  0 0.20137531E+04</rscale>
<asrwt>0</asrwt>
<pdfrwt beam="1">  1        1 0.19439659E+00 0.20137531E+04</pdfrwt>
<pdfrwt beam="2">  1       -1 0.12343464E+00 0.20137531E+04</pdfrwt>
<totfact> 0.51406356E+00</totfact>
</mgrwt>
</event>
<event>
12    1  0.1506149E-007  0.2025293E+04  0.7818608E-02  0.8594886E-01
          1   -1    0    0  501    0  0.00000000000E+00  0.00000000000E+00  0.63326860476E+03  0.63326860476E+03  0.00000000000E+00 0. -1.
         -1   -1    0    0    0  501 -0.00000000000E+00 -0.00000000000E+00 -0.16193011822E+04  0.16193011822E+04  0.00000000000E+00 0.  1.
         23    2    1    2    0    0 -0.29486834311E+03 -0.74443773246E+03 -0.52806360242E+03  0.96319712054E+03  0.88105888188E+02 0.  0.
        254    2    1    2    0    0  0.29486834311E+03  0.74443773246E+03 -0.45796897500E+03  0.12893726664E+04  0.90089478493E+03 0.  0.
        -24    2    4    4    0    0 -0.14402789158E+03 -0.73511313391E+02 -0.29146530704E+03  0.34284127832E+03  0.80250670792E+02 0.  0.
         24    2    4    4    0    0  0.43889623468E+03  0.81794904585E+03 -0.16650366796E+03  0.94653138807E+03  0.80793878095E+02 0.  0.
         11    1    3    3    0    0 -0.79677628048E+02 -0.23512679455E+03 -0.21112767801E+03  0.32589573540E+03  0.00000000000E+00 0. -1.
        -11    1    3    3    0    0 -0.21519071506E+03 -0.50931093791E+03 -0.31693592441E+03  0.63730138514E+03  0.00000000000E+00 0.  1.
          2    1    6    6  502    0  0.41693560102E+03  0.79773200555E+03 -0.17137605921E+03  0.91628674647E+03  0.00000000000E+00 0. -1.
          1    1    5    5  503    0 -0.11302320817E+03 -0.89936579059E+02 -0.21922238442E+03  0.26252864162E+03  0.00000000000E+00 0. -1.
         -2    1    5    5    0  503 -0.31004683401E+02  0.16425265668E+02 -0.72242922621E+02  0.80312636701E+02  0.00000000000E+00 0.  1.
         -1    1    6    6    0  502  0.21960633661E+02  0.20217040300E+02  0.48723912591E+01  0.30244641605E+02  0.00000000000E+00 0.  1.
<mgrwt>
<rscale>  0 0.20252927E+04</rscale>
<asrwt>0</asrwt>
<pdfrwt beam="1">  1        1 0.97425939E-01 0.20252927E+04</pdfrwt>
<pdfrwt beam="2">  1       -1 0.24912326E+00 0.20252927E+04</pdfrwt>
<totfact> 0.20698434E+00</totfact>
</mgrwt>
</event>
<event>
12    1  0.1506149E-007  0.1689257E+04  0.7818608E-02  0.8767515E-01
         -2   -1    0    0    0  501 -0.00000000000E+00  0.00000000000E+00  0.14595210959E+04  0.14595210959E+04  0.00000000000E+00 0.  1.
          2   -1    0    0  501    0  0.00000000000E+00 -0.00000000000E+00 -0.48878857455E+03  0.48878857455E+03  0.00000000000E+00 0. -1.
         23    2    1    2    0    0 -0.83467895936E+02  0.97836285274E+02  0.10087230518E+04  0.10209978300E+04  0.91518005619E+02 0.  0.
        254    2    1    2    0    0  0.83467895936E+02 -0.97836285274E+02 -0.37990530471E+02  0.92731184039E+03  0.91756478820E+03 0.  0.
        -24    2    4    4    0    0 -0.92983973973E+02  0.38569739330E+03 -0.36329423952E+02  0.40617768915E+03  0.79069523243E+02 0.  0.
         24    2    4    4    0    0  0.17645186991E+03 -0.48353367857E+03 -0.16611065189E+01  0.52113415124E+03  0.81473698870E+02 0.  0.
         13    1    3    3    0    0 -0.33229863039E+02 -0.89841530017E+01  0.13422929950E+03  0.13857288208E+03  0.00000000000E+00 0. -1.
        -13    1    3    3    0    0 -0.50238032897E+02  0.10682043828E+03  0.87449375228E+03  0.88242494795E+03  0.00000000000E+00 0.  1.
          4    1    6    6  502    0  0.97501449861E+02 -0.20390598824E+03  0.33378592511E+02  0.22846950606E+03  0.00000000000E+00 0. -1.
          1    1    5    5  503    0 -0.26795969073E+02  0.24097602186E+03  0.20766566348E+01  0.24247016223E+03  0.00000000000E+00 0. -1.
         -2    1    5    5    0  503 -0.66188004900E+02  0.14472137144E+03 -0.38406080587E+02  0.16370752692E+03  0.00000000000E+00 0.  1.
         -3    1    6    6    0  502  0.78950420048E+02 -0.27962769033E+03 -0.35039699030E+02  0.29266464517E+03  0.00000000000E+00 0.  1.
<mgrwt>
<rscale>  0 0.16892569E+04</rscale>
<asrwt>0</asrwt>
<pdfrwt beam="1">  1        2 0.75198243E-01 0.16892569E+04</pdfrwt>
<pdfrwt beam="2">  1       -2 0.22454171E+00 0.16892569E+04</pdfrwt>
<totfact> 0.55671985E+00</totfact>
</mgrwt>
</event>
<event>
12    1  0.1506149E-007  0.1326861E+04  0.7818608E-02  0.9008531E-01
         -1   -1    0    0    0  501 -0.00000000000E+00  0.00000000000E+00  0.56806249493E+03  0.56806249493E+03  0.00000000000E+00 0.  1.
          1   -1    0    0  501    0  0.00000000000E+00 -0.00000000000E+00 -0.77480934596E+03  0.77480934596E+03  0.00000000000E+00 0. -1.
         23    2    1    2    0    0  0.58892132902E+02 -0.80698779409E+02 -0.43986194817E+03  0.45960712625E+03  0.88202044977E+02 0.  0.
        254    2    1    2    0    0 -0.58892132902E+02  0.80698779409E+02  0.23311509714E+03  0.88326471463E+03  0.84606934189E+03 0.  0.
        -24    2    4    4    0    0 -0.36012478195E+03  0.26722442042E+03  0.81845757275E+01  0.45557931494E+03  0.79917303959E+02 0.  0.
         24    2    4    4    0    0  0.30123264905E+03 -0.18652564101E+03  0.22493052141E+03  0.42768539970E+03  0.82390157453E+02 0.  0.
         11    1    3    3    0    0 -0.20505828174E+02 -0.85826033357E+00 -0.60409787746E+02  0.63801003562E+02  0.00000000000E+00 0.  1.
        -11    1    3    3    0    0  0.79397961076E+02 -0.79840519076E+02 -0.37945216042E+03  0.39580612269E+03  0.00000000000E+00 0. -1.
          2    1    6    6  502    0  0.20878291445E+03 -0.16685832918E+03  0.14600923536E+03  0.30455000278E+03  0.00000000000E+00 0. -1.
          3    1    5    5  503    0 -0.53668580917E+02  0.92503388384E+01 -0.56944040097E+01  0.54756840516E+02  0.00000000000E+00 0. -1.
         -4    1    5    5    0  503 -0.30645620103E+03  0.25797408158E+03  0.13878979737E+02  0.40082247442E+03  0.00000000000E+00 0.  1.
         -1    1    6    6    0  502  0.92449734602E+02 -0.19667311830E+02  0.78921286047E+02  0.12313539692E+03  0.00000000000E+00 0.  1.
<mgrwt>
<rscale>  0 0.13268612E+04</rscale>
<asrwt>0</asrwt>
<pdfrwt beam="1">  1        1 0.11920144E+00 0.13268612E+04</pdfrwt>
<pdfrwt beam="2">  1       -1 0.87394230E-01 0.13268612E+04</pdfrwt>
<totfact> 0.29414588E+01</totfact>
</mgrwt>
</event>
<event>
12    1  0.1506149E-007  0.1234575E+04  0.7818608E-02  0.9083120E-01
          1   -1    0    0  501    0  0.00000000000E+00  0.00000000000E+00  0.19741440692E+03  0.19741440692E+03  0.00000000000E+00 0. -1.
         -1   -1    0    0    0  501 -0.00000000000E+00 -0.00000000000E+00 -0.19301717519E+04  0.19301717519E+04  0.00000000000E+00 0.  1.
         23    2    1    2    0    0  0.14773942426E+02  0.24261717311E+03 -0.18946852598E+03  0.32158663078E+03  0.91860093050E+02 0.  0.
        254    2    1    2    0    0 -0.14773942426E+02 -0.24261717311E+03 -0.15432888190E+04  0.18059995280E+04  0.90598706081E+03 0.  0.
        -24    2    4    4    0    0  0.32860755775E+03 -0.35047209802E+03 -0.49247643057E+03  0.69257325267E+03  0.79442162231E+02 0.  0.
         24    2    4    4    0    0 -0.34338150017E+03  0.10785492491E+03 -0.10508123884E+04  0.11134262754E+04  0.77251896569E+02 0.  0.
         11    1    3    3    0    0 -0.58673905578E+01  0.12807788160E+03 -0.44577464470E+02  0.13574063639E+03  0.00000000000E+00 0. -1.
        -11    1    3    3    0    0  0.20641332984E+02  0.11453929151E+03 -0.14489106151E+03  0.18584599439E+03  0.00000000000E+00 0.  1.
          4    1    6    6  502    0 -0.13045717934E+03  0.53105985516E+02 -0.52351951455E+03  0.54213651736E+03  0.00000000000E+00 0. -1.
          1    1    5    5  503    0  0.26534499683E+03 -0.32113588857E+03 -0.40889638329E+03  0.58372294673E+03  0.00000000000E+00 0. -1.
         -2    1    5    5    0  503  0.63262560920E+02 -0.29336209450E+02 -0.83580047288E+02  0.10885030594E+03  0.00000000000E+00 0.  1.
         -3    1    6    6    0  502 -0.21292432083E+03  0.54748939391E+02 -0.52729287386E+03  0.57128975800E+03  0.00000000000E+00 0.  1.
<mgrwt>
<rscale>  0 0.12345748E+04</rscale>
<asrwt>0</asrwt>
<pdfrwt beam="1">  1        1 0.30371447E-01 0.12345748E+04</pdfrwt>
<pdfrwt beam="2">  1       -1 0.29694951E+00 0.12345748E+04</pdfrwt>
<totfact> 0.51927232E+00</totfact>
</mgrwt>
</event>
<event>
12    1  0.1506149E-007  0.1977620E+04  0.7818608E-02  0.8617156E-01
         -2   -1    0    0    0  501 -0.00000000000E+00  0.00000000000E+00  0.69567390216E+03  0.69567390216E+03  0.00000000000E+00 0. -1.
          2   -1    0    0  501    0  0.00000000000E+00 -0.00000000000E+00 -0.14054648488E+04  0.14054648488E+04  0.00000000000E+00 0.  1.
         23    2    1    2    0    0 -0.72899421388E+03  0.65921516409E+02 -0.57076032872E+03  0.93291880189E+03  0.93765280860E+02 0.  0.
        254    2    1    2    0    0  0.72899421388E+03 -0.65921516409E+02 -0.13903061792E+03  0.11682199491E+04  0.89979449126E+03 0.  0.
        -24    2    4    4    0    0  0.72844369518E+03  0.21768248098E+03 -0.31017718755E+03  0.82493902848E+03  0.79363930392E+02 0.  0.
         24    2    4    4    0    0  0.55051869346E+00 -0.28360399739E+03  0.17114656963E+03  0.34328092060E+03  0.90106113790E+02 0.  0.
         11    1    3    3    0    0 -0.65216090279E+03  0.87325625742E+02 -0.50202116598E+03  0.82762603822E+03  0.00000000000E+00 0. -1.
        -11    1    3    3    0    0 -0.76833311083E+02 -0.21404109333E+02 -0.68739162741E+02  0.10529276368E+03  0.00000000000E+00 0.  1.
          2    1    6    6  502    0 -0.15218613852E+02 -0.17521009256E+03  0.56507511872E+02  0.18472488095E+03  0.00000000000E+00 0. -1.
          1    1    5    5  503    0  0.48336853530E+03  0.15097975204E+03 -0.16617722415E+03  0.53296800680E+03  0.00000000000E+00 0. -1.
         -2    1    5    5    0  503  0.24507515988E+03  0.66702728944E+02 -0.14399996340E+03  0.29197102167E+03  0.00000000000E+00 0.  1.
         -1    1    6    6    0  502  0.15769132546E+02 -0.10839390483E+03  0.11463905776E+03  0.15855603965E+03  0.00000000000E+00 0.  1.
<mgrwt>
<rscale>  0 0.19776200E+04</rscale>
<asrwt>0</asrwt>
<pdfrwt beam="1">  1        2 0.21622536E+00 0.19776200E+04</pdfrwt>
<pdfrwt beam="2">  1       -2 0.10702675E+00 0.19776200E+04</pdfrwt>
<totfact> 0.93886706E+00</totfact>
</mgrwt>
</event>
<event>
12    1  0.1506149E-007  0.1238197E+04  0.7818608E-02  0.9080065E-01
          2   -1    0    0  501    0  0.00000000000E+00  0.00000000000E+00  0.71737550706E+03  0.71737550706E+03  0.00000000000E+00 0. -1.
         -2   -1    0    0    0  501 -0.00000000000E+00 -0.00000000000E+00 -0.53428481496E+03  0.53428481496E+03  0.00000000000E+00 0.  1.
         23    2    1    2    0    0 -0.92285012187E+02 -0.15041579923E+03  0.25542981420E+03  0.32351578741E+03  0.90976033068E+02 0.  0.
        254    2    1    2    0    0  0.92285012187E+02  0.15041579923E+03 -0.72339122103E+02  0.92814453461E+03  0.90833798358E+03 0.  0.
        -24    2    4    4    0    0  0.47930805771E+03 -0.31556237101E+02 -0.75515739149E+02  0.49283469746E+03  0.80320619252E+02 0.  0.
         24    2    4    4    0    0 -0.38702304552E+03  0.18197203633E+03  0.31766170458E+01  0.43530983715E+03  0.81141257407E+02 0.  0.
         11    1    3    3    0    0 -0.73149616156E+02 -0.94403034932E+02  0.22986854169E+03  0.25904120484E+03  0.00000000000E+00 0. -1.
        -11    1    3    3    0    0 -0.19135396031E+02 -0.56012764297E+02  0.25561272509E+02  0.64474582571E+02  0.00000000000E+00 0.  1.
          4    1    6    6  502    0 -0.26011682090E+03  0.15871623129E+03 -0.14634136908E+02  0.30506681326E+03  0.00000000000E+00 0. -1.
          1    1    5    5  503    0  0.20083971540E+03 -0.38223631788E+02 -0.63295604781E+02  0.21401862277E+03  0.00000000000E+00 0. -1.
         -2    1    5    5    0  503  0.27846834231E+03  0.66673946868E+01 -0.12220134368E+02  0.27881607469E+03  0.00000000000E+00 0.  1.
         -3    1    6    6    0  502 -0.12690622462E+03  0.23255805040E+02  0.17810753954E+02  0.13024302389E+03  0.00000000000E+00 0.  1.
<mgrwt>
<rscale>  0 0.12381968E+04</rscale>
<asrwt>0</asrwt>
<pdfrwt beam="1">  1        2 0.11036546E+00 0.12381968E+04</pdfrwt>
<pdfrwt beam="2">  1       -2 0.82197663E-01 0.12381968E+04</pdfrwt>
<totfact> 0.50849072E+01</totfact>
</mgrwt>
</event>
<event>
12    1  0.1506149E-007  0.1571632E+04  0.7818608E-02  0.8838168E-01
         -1   -1    0    0    0  501 -0.00000000000E+00  0.00000000000E+00  0.14125755997E+04  0.14125755997E+04  0.00000000000E+00 0.  1.
          1   -1    0    0  501    0  0.00000000000E+00 -0.00000000000E+00 -0.43714931025E+03  0.43714931025E+03  0.00000000000E+00 0. -1.
         23    2    1    2    0    0  0.25469337552E+03 -0.45323087244E+03  0.44578911722E+03  0.69125459842E+03  0.93904438309E+02 0.  0.
        254    2    1    2    0    0 -0.25469337552E+03  0.45323087244E+03  0.52963717221E+03  0.11584703115E+04  0.88952289977E+03 0.  0.
        -24    2    4    4    0    0 -0.39948646564E+03  0.22702501257E+03  0.69234510444E+03  0.83467900849E+03  0.78851195292E+02 0.  0.
         24    2    4    4    0    0  0.14479309012E+03  0.22620585988E+03 -0.16270793224E+03  0.32379130303E+03  0.78948126747E+02 0.  0.
         11    1    3    3    0    0  0.11132218199E+03 -0.26388792104E+03  0.19905213400E+03  0.34878534247E+03  0.00000000000E+00 0.  1.
        -11    1    3    3    0    0  0.14337119352E+03 -0.18934295141E+03  0.24673698323E+03  0.34246925595E+03  0.00000000000E+00 0. -1.
          2    1    6    6  502    0  0.92493200166E+02  0.19550302360E+03 -0.14579661736E+03  0.26083151256E+03  0.00000000000E+00 0. -1.
          3    1    5    5  503    0 -0.37609826844E+03  0.22510052896E+03  0.67745561499E+03  0.80688677393E+03  0.00000000000E+00 0. -1.
         -4    1    5    5    0  503 -0.23388197199E+02  0.19244836013E+01  0.14889489457E+02  0.27792234556E+02  0.00000000000E+00 0.  1.
         -1    1    6    6    0  502  0.52299889954E+02  0.30702836279E+02 -0.16911314875E+02  0.62959790466E+02  0.00000000000E+00 0.  1.
<mgrwt>
<rscale>  0 0.15716316E+04</rscale>
<asrwt>0</asrwt>
<pdfrwt beam="1">  1        1 0.67253741E-01 0.15716316E+04</pdfrwt>
<pdfrwt beam="2">  1       -1 0.21731932E+00 0.15716316E+04</pdfrwt>
<totfact> 0.58744414E+00</totfact>
</mgrwt>
</event>
<event>
12    1  0.1506149E-007  0.1231228E+04  0.7818608E-02  0.9085954E-01
         -2   -1    0    0    0  501 -0.00000000000E+00  0.00000000000E+00  0.16182735003E+03  0.16182735003E+03  0.00000000000E+00 0.  1.
          2   -1    0    0  501    0  0.00000000000E+00 -0.00000000000E+00 -0.23418811812E+04  0.23418811812E+04  0.00000000000E+00 0. -1.
         23    2    1    2    0    0  0.51224925236E+02 -0.21871180464E+03 -0.82872264724E+03  0.86355702257E+03  0.92144770442E+02 0.  0.
        254    2    1    2    0    0 -0.51224925236E+02  0.21871180464E+03 -0.13513311840E+04  0.16401515087E+04  0.90196571790E+03 0.  0.
        -24    2    4    4    0    0 -0.13694785614E+03  0.41887809969E+03 -0.13343364098E+04  0.14074803500E+04  0.79584568468E+02 0.  0.
         24    2    4    4    0    0  0.85722930905E+02 -0.20016629505E+03 -0.16994774192E+02  0.23267115868E+03  0.80200244232E+02 0.  0.
         13    1    3    3    0    0  0.44479729540E+02 -0.18837581725E+03 -0.54915090053E+03  0.58226334799E+03  0.00000000000E+00 0. -1.
        -13    1    3    3    0    0  0.67451956952E+01 -0.30335987393E+02 -0.27957174671E+03  0.28129367457E+03  0.00000000000E+00 0.  1.
          4    1    6    6  502    0  0.51270196244E+02 -0.45926203047E+02  0.17254024948E+02  0.70961613046E+02  0.00000000000E+00 0. -1.
          3    1    5    5  503    0 -0.38001509576E+02  0.12942219718E+03 -0.53125770006E+03  0.54811400614E+03  0.00000000000E+00 0. -1.
         -4    1    5    5    0  503 -0.98946346565E+02  0.28945590251E+03 -0.80307870970E+03  0.85936634386E+03  0.00000000000E+00 0.  1.
         -3    1    6    6    0  502  0.34452734662E+02 -0.15424009200E+03 -0.34248799140E+02  0.16170954563E+03  0.00000000000E+00 0.  1.
<mgrwt>
<rscale>  0 0.12312277E+04</rscale>
<asrwt>0</asrwt>
<pdfrwt beam="1">  1        2 0.36028941E+00 0.12312277E+04</pdfrwt>
<pdfrwt beam="2">  1       -2 0.24896516E-01 0.12312277E+04</pdfrwt>
<totfact> 0.61331921E+01</totfact>
</mgrwt>
</event>
<event>
12    1  0.1506149E-007  0.2856202E+04  0.7818608E-02  0.8286029E-01
         -2   -1    0    0    0  501 -0.00000000000E+00  0.00000000000E+00  0.16358461385E+04  0.16358461385E+04  0.00000000000E+00 0.  1.
          2   -1    0    0  501    0  0.00000000000E+00 -0.00000000000E+00 -0.12467387469E+04  0.12467387469E+04  0.00000000000E+00 0. -1.
         23    2    1    2    0    0  0.54049678247E+03  0.74392699783E+03 -0.73313193252E+03  0.11797054281E+04  0.93050076695E+02 0.  0.
        254    2    1    2    0    0 -0.54049678247E+03 -0.74392699783E+03  0.11222393241E+04  0.17028794572E+04  0.89152296395E+03 0.  0.
        -24    2    4    4    0    0 -0.65630424092E+03 -0.17477495806E+03  0.71304949844E+03  0.98792186867E+03  0.79173788316E+02 0.  0.
         24    2    4    4    0    0  0.11580745845E+03 -0.56915203977E+03  0.40918982568E+03  0.71495758854E+03  0.79891352269E+02 0.  0.
         11    1    3    3    0    0  0.10830590977E+03  0.16242486582E+03 -0.11002536809E+03  0.22409281281E+03  0.00000000000E+00 0.  1.
        -11    1    3    3    0    0  0.43219087270E+03  0.58150213201E+03 -0.62310656442E+03  0.95561261534E+03  0.00000000000E+00 0. -1.
          2    1    6    6  502    0  0.30662230949E+02 -0.18079820088E+03  0.17527398305E+03  0.25367130500E+03  0.00000000000E+00 0. -1.
          3    1    5    5  503    0 -0.37945131025E+03 -0.95393931825E+02  0.35401953129E+03  0.52764867821E+03  0.00000000000E+00 0. -1.
         -4    1    5    5    0  503 -0.27685293067E+03 -0.79381026232E+02  0.35902996715E+03  0.46027319046E+03  0.00000000000E+00 0.  1.
         -1    1    6    6    0  502  0.85145227506E+02 -0.38835383889E+03  0.23391584263E+03  0.46128628354E+03  0.00000000000E+00 0.  1.
<mgrwt>
<rscale>  0 0.28562022E+04</rscale>
<asrwt>0</asrwt>
<pdfrwt beam="1">  1        2 0.19180596E+00 0.28562022E+04</pdfrwt>
<pdfrwt beam="2">  1       -2 0.25166864E+00 0.28562022E+04</pdfrwt>
<totfact> 0.96578650E-01</totfact>
</mgrwt>
</event>
<event>
12    1  0.1506149E-007  0.2119114E+04  0.7818608E-02  0.8552870E-01
          2   -1    0    0  501    0  0.00000000000E+00  0.00000000000E+00  0.17095336869E+04  0.17095336869E+04  0.00000000000E+00 0. -1.
         -2   -1    0    0    0  501 -0.00000000000E+00 -0.00000000000E+00 -0.65670614967E+03  0.65670614967E+03  0.00000000000E+00 0.  1.
         23    2    1    2    0    0 -0.85922372650E+03  0.60671592232E+02  0.37455241706E+03  0.94368136322E+03  0.91096365868E+02 0.  0.
        254    2    1    2    0    0  0.85922372650E+03 -0.60671592232E+02  0.67827512018E+03  0.14225584734E+04  0.90645960595E+03 0.  0.
        -24    2    4    4    0    0  0.20438888345E+03 -0.21130775240E+03 -0.16109981155E+03  0.34438093255E+03  0.78862510244E+02 0.  0.
         24    2    4    4    0    0  0.65483484305E+03  0.15063616017E+03  0.83937493173E+03  0.10781775408E+04  0.80103739453E+02 0.  0.
         13    1    3    3    0    0 -0.10470790654E+03 -0.10785706792E+02  0.72513084792E+02  0.12782106489E+03  0.00000000000E+00 0.  1.
        -13    1    3    3    0    0 -0.75451581996E+03  0.71457299025E+02  0.30203933227E+03  0.81586029833E+03  0.00000000000E+00 0. -1.
          2    1    6    6  502    0  0.98767172748E+02  0.24344438810E+02  0.17713285635E+03  0.20426368966E+03  0.00000000000E+00 0. -1.
          3    1    5    5  503    0  0.13354609284E+03 -0.10180916252E+03 -0.12412971630E+03  0.20882492896E+03  0.00000000000E+00 0. -1.
         -4    1    5    5    0  503  0.70842790606E+02 -0.10949858988E+03 -0.36970095248E+02  0.13555600359E+03  0.00000000000E+00 0.  1.
         -1    1    6    6    0  502  0.55606767031E+03  0.12629172136E+03  0.66224207538E+03  0.87391385116E+03  0.00000000000E+00 0.  1.
<mgrwt>
<rscale>  0 0.21191142E+04</rscale>
<asrwt>0</asrwt>
<pdfrwt beam="1">  1        2 0.26300518E+00 0.21191142E+04</pdfrwt>
<pdfrwt beam="2">  1       -2 0.10103172E+00 0.21191142E+04</pdfrwt>
<totfact> 0.71856192E+00</totfact>
</mgrwt>
</event>
<event>
12    1  0.1506149E-007  0.1084118E+04  0.7818608E-02  0.9220811E-01
         -2   -1    0    0    0  501 -0.00000000000E+00  0.00000000000E+00  0.64796501537E+03  0.64796501537E+03  0.00000000000E+00 0.  1.
          2   -1    0    0  501    0  0.00000000000E+00 -0.00000000000E+00 -0.45346306658E+03  0.45346306658E+03  0.00000000000E+00 0. -1.
         23    2    1    2    0    0 -0.13673221581E+03 -0.11003298056E+03 -0.83362390358E+02  0.21466474233E+03  0.91261754434E+02 0.  0.
        254    2    1    2    0    0  0.13673221581E+03  0.11003298056E+03  0.27786433915E+03  0.88676333962E+03  0.82361257511E+03 0.  0.
        -24    2    4    4    0    0  0.40523900766E+03  0.15346656000E+03 -0.60759703054E+02  0.44452771933E+03  0.78374188164E+02 0.  0.
         24    2    4    4    0    0 -0.26850679185E+03 -0.43433579441E+02  0.33862404221E+03  0.44223562029E+03  0.83208946663E+02 0.  0.
         13    1    3    3    0    0 -0.11309099803E+03 -0.12418772289E+03 -0.82412777199E+02  0.18709364018E+03  0.00000000000E+00 0. -1.
        -13    1    3    3    0    0 -0.23641217776E+02  0.14154742328E+02 -0.94961315860E+00  0.27571102144E+02  0.00000000000E+00 0.  1.
          2    1    6    6  502    0  0.34198282529E+01  0.43417831093E+01  0.19441552317E+02  0.20211884185E+02  0.00000000000E+00 0. -1.
          1    1    5    5  503    0  0.84007987730E+01 -0.77320281248E+01 -0.54207094512E+01  0.12638899078E+02  0.00000000000E+00 0. -1.
         -2    1    5    5    0  503  0.39683820889E+03  0.16119858813E+03 -0.55338993603E+02  0.43188882025E+03  0.00000000000E+00 0.  1.
         -1    1    6    6    0  502 -0.27192662010E+03 -0.47775362550E+02  0.31918248989E+03  0.42202373611E+03  0.00000000000E+00 0.  1.
<mgrwt>
<rscale>  0 0.10841184E+04</rscale>
<asrwt>0</asrwt>
<pdfrwt beam="1">  1        2 0.69763549E-01 0.10841184E+04</pdfrwt>
<pdfrwt beam="2">  1       -2 0.99686926E-01 0.10841184E+04</pdfrwt>
<totfact> 0.57027785E+01</totfact>
</mgrwt>
</event>
<event>
12    1  0.1506149E-007  0.1764822E+04  0.7818608E-02  0.8725234E-01
         -2   -1    0    0    0  501 -0.00000000000E+00  0.00000000000E+00  0.47522001653E+03  0.47522001653E+03  0.00000000000E+00 0.  1.
          2   -1    0    0  501    0  0.00000000000E+00 -0.00000000000E+00 -0.16385024244E+04  0.16385024244E+04  0.00000000000E+00 0. -1.
         23    2    1    2    0    0  0.82978976168E+02  0.40555699323E+03  0.16206905761E+03  0.45375278533E+03  0.90902285510E+02 0.  0.
        254    2    1    2    0    0 -0.82978976168E+02 -0.40555699323E+03 -0.13253514655E+04  0.16599696556E+04  0.90971466143E+03 0.  0.
        -24    2    4    4    0    0  0.31287833416E+03 -0.27286728679E+03 -0.22289531269E+03  0.47848915830E+03  0.83187414956E+02 0.  0.
         24    2    4    4    0    0 -0.39585731033E+03 -0.13268970645E+03 -0.11024561528E+04  0.11814804973E+04  0.78594073132E+02 0.  0.
         13    1    3    3    0    0  0.73452660413E+01  0.84392158851E+02 -0.31047796276E+01  0.84768089900E+02  0.00000000000E+00 0. -1.
        -13    1    3    3    0    0  0.75633710126E+02  0.32116483438E+03  0.16517383724E+03  0.36898469543E+03  0.00000000000E+00 0.  1.
          4    1    6    6  502    0 -0.39358944869E+03 -0.13167962012E+03 -0.11033615351E+04  0.11788379251E+04  0.00000000000E+00 0. -1.
          3    1    5    5  503    0  0.28831723609E+03 -0.21432451805E+03 -0.19876314009E+03  0.41057108218E+03  0.00000000000E+00 0. -1.
         -4    1    5    5    0  503  0.24561098070E+02 -0.58542768734E+02 -0.24132172607E+02  0.67918076123E+02  0.00000000000E+00 0.  1.
         -3    1    6    6    0  502 -0.22678616339E+01 -0.10100863243E+01  0.90538230967E+00  0.26425722128E+01  0.00000000000E+00 0.  1.
<mgrwt>
<rscale>  0 0.17648220E+04</rscale>
<asrwt>0</asrwt>
<pdfrwt beam="1">  1        2 0.25207729E+00 0.17648220E+04</pdfrwt>
<pdfrwt beam="2">  1       -2 0.73110773E-01 0.17648220E+04</pdfrwt>
<totfact> 0.16973644E+01</totfact>
</mgrwt>
</event>
<event>
12    1  0.1506149E-007  0.1646106E+04  0.7818608E-02  0.8792714E-01
          1   -1    0    0  501    0  0.00000000000E+00  0.00000000000E+00  0.37406275651E+03  0.37406275651E+03  0.00000000000E+00 0. -1.
         -1   -1    0    0    0  501 -0.00000000000E+00 -0.00000000000E+00 -0.18109692991E+04  0.18109692991E+04  0.00000000000E+00 0.  1.
         23    2    1    2    0    0  0.30344238509E+03 -0.73004801564E+02 -0.11416518638E+04  0.11870537613E+04  0.91217717715E+02 0.  0.
        254    2    1    2    0    0 -0.30344238509E+03  0.73004801564E+02 -0.29525467877E+03  0.99797829428E+03  0.90076543472E+03 0.  0.
        -24    2    4    4    0    0 -0.15881290929E+03  0.44274768818E+03 -0.34622691742E+03  0.58967669368E+03  0.81230961922E+02 0.  0.
         24    2    4    4    0    0 -0.14462947579E+03 -0.36974288662E+03  0.50972238652E+02  0.40830160059E+03  0.80526644427E+02 0.  0.
         13    1    3    3    0    0  0.19664590041E+03 -0.57441039848E+01 -0.62624897276E+03  0.65642241032E+03  0.00000000000E+00 0.  1.
        -13    1    3    3    0    0  0.10679648468E+03 -0.67260697579E+02 -0.51540289104E+03  0.53063135101E+03  0.00000000000E+00 0. -1.
          2    1    6    6  502    0 -0.81150769065E+02 -0.10862621757E+03  0.29191845864E+02  0.13869847270E+03  0.00000000000E+00 0. -1.
          1    1    5    5  503    0 -0.86643649491E+01  0.11286344062E+03 -0.10416908243E+03  0.15383245816E+03  0.00000000000E+00 0. -1.
         -2    1    5    5    0  503 -0.15014854434E+03  0.32988424756E+03 -0.24205783500E+03  0.43584423553E+03  0.00000000000E+00 0.  1.
         -1    1    6    6    0  502 -0.63478706727E+02 -0.26111666905E+03  0.21780392787E+02  0.26960312790E+03  0.00000000000E+00 0.  1.
<mgrwt>
<rscale>  0 0.16461059E+04</rscale>
<asrwt>0</asrwt>
<pdfrwt beam="1">  1        1 0.57548117E-01 0.16461059E+04</pdfrwt>
<pdfrwt beam="2">  1       -1 0.27861066E+00 0.16461059E+04</pdfrwt>
<totfact> 0.28519372E+00</totfact>
</mgrwt>
</event>
<event>
12    1  0.1506149E-007  0.3797653E+04  0.7818608E-02  0.8046659E-01
         -2   -1    0    0    0  501 -0.00000000000E+00  0.00000000000E+00  0.20403870100E+04  0.20403870100E+04  0.00000000000E+00 0.  1.
          2   -1    0    0  501    0  0.00000000000E+00 -0.00000000000E+00 -0.17670875917E+04  0.17670875917E+04  0.00000000000E+00 0. -1.
         23    2    1    2    0    0  0.24293227920E+03 -0.17650941581E+04 -0.34402198659E+02  0.17842878459E+04  0.89028797155E+02 0.  0.
        254    2    1    2    0    0 -0.24293227920E+03  0.17650941581E+04  0.30770161693E+03  0.20231867557E+04  0.90776146891E+03 0.  0.
        -24    2    4    4    0    0 -0.18765716414E+03  0.13595156306E+04  0.61383797406E+03  0.15055651756E+04  0.80196500731E+02 0.  0.
         24    2    4    4    0    0 -0.55275115062E+02  0.40557852751E+03 -0.30613635714E+03  0.51762158010E+03  0.81629349498E+02 0.  0.
         11    1    3    3    0    0  0.95918111514E+01 -0.14038857071E+02 -0.41178525167E+01  0.17494257869E+02  0.00000000000E+00 0.  1.
        -11    1    3    3    0    0  0.23334046805E+03 -0.17510553010E+04 -0.30284346142E+02  0.17667935881E+04  0.00000000000E+00 0. -1.
          2    1    6    6  502    0  0.21632596109E+01  0.57126715205E+01 -0.24292917943E+02  0.25049155080E+02  0.00000000000E+00 0. -1.
          3    1    5    5  503    0 -0.20280692142E+02  0.64118001062E+02  0.16234017416E+02  0.69180689903E+02  0.00000000000E+00 0. -1.
         -4    1    5    5    0  503 -0.16737647200E+03  0.12953976295E+04  0.59760395665E+03  0.14363844857E+04  0.00000000000E+00 0.  1.
         -1    1    6    6    0  502 -0.57438374673E+02  0.39986585599E+03 -0.28184343920E+03  0.49257242502E+03  0.00000000000E+00 0.  1.
<mgrwt>
<rscale>  0 0.37976533E+04</rscale>
<asrwt>0</asrwt>
<pdfrwt beam="1">  1        2 0.27185963E+00 0.37976533E+04</pdfrwt>
<pdfrwt beam="2">  1       -2 0.31390569E+00 0.37976533E+04</pdfrwt>
<totfact> 0.18842523E-01</totfact>
</mgrwt>
</event>
<event>
12    1  0.1506149E-007  0.2160983E+04  0.7818608E-02  0.8534845E-01
          2   -1    0    0  501    0  0.00000000000E+00  0.00000000000E+00  0.23895106850E+04  0.23895106850E+04  0.00000000000E+00 0. -1.
         -2   -1    0    0    0  501 -0.00000000000E+00 -0.00000000000E+00 -0.48857793102E+03  0.48857793102E+03  0.00000000000E+00 0.  1.
         23    2    1    2    0    0 -0.80223068586E+03  0.11209324450E+03  0.29344857821E+03  0.86615202309E+03  0.89265280225E+02 0.  0.
        254    2    1    2    0    0  0.80223068586E+03 -0.11209324450E+03  0.16074841758E+04  0.20119365929E+04  0.89874607640E+03 0.  0.
        -24    2    4    4    0    0  0.27665154779E+03 -0.37044261790E+03  0.25112187407E+03  0.53230825319E+03  0.80784087088E+02 0.  0.
         24    2    4    4    0    0  0.52557913806E+03  0.25834937340E+03  0.13563623017E+04  0.14796283397E+04  0.81261929552E+02 0.  0.
         11    1    3    3    0    0 -0.18659045385E+03 -0.89573049431E+01  0.52424896003E+02  0.19402216497E+03  0.00000000000E+00 0. -1.
        -11    1    3    3    0    0 -0.61564023201E+03  0.12105054944E+03  0.24102368221E+03  0.67212985811E+03  0.00000000000E+00 0.  1.
          4    1    6    6  502    0  0.26522786224E+02  0.11524137899E+02  0.12412453218E+03  0.12744866979E+03  0.00000000000E+00 0. -1.
          1    1    5    5  503    0  0.49287629700E+02 -0.23718921381E+02  0.27339375327E+02  0.61149808800E+02  0.00000000000E+00 0. -1.
         -2    1    5    5    0  503  0.22736391809E+03 -0.34672369652E+03  0.22378249875E+03  0.47115844439E+03  0.00000000000E+00 0.  1.
         -3    1    6    6    0  502  0.49905635184E+03  0.24682523550E+03  0.12322377695E+04  0.13521796699E+04  0.00000000000E+00 0.  1.
<mgrwt>
<rscale>  0 0.21609833E+04</rscale>
<asrwt>0</asrwt>
<pdfrwt beam="1">  1        2 0.36761702E+00 0.21609833E+04</pdfrwt>
<pdfrwt beam="2">  1       -2 0.75165837E-01 0.21609833E+04</pdfrwt>
<totfact> 0.58734903E+00</totfact>
</mgrwt>
</event>
<event>
12    1  0.1506149E-007  0.1695494E+04  0.7818608E-02  0.8763939E-01
         -1   -1    0    0    0  501 -0.00000000000E+00  0.00000000000E+00  0.12817602705E+04  0.12817602705E+04  0.00000000000E+00 0.  1.
          1   -1    0    0  501    0  0.00000000000E+00 -0.00000000000E+00 -0.56069365447E+03  0.56069365447E+03  0.00000000000E+00 0. -1.
         23    2    1    2    0    0 -0.25262757083E+03 -0.39930851385E+03 -0.14968993812E+03  0.50411388071E+03  0.91955143239E+02 0.  0.
        254    2    1    2    0    0  0.25262757083E+03  0.39930851385E+03  0.87075655417E+03  0.13383400443E+04  0.89981615829E+03 0.  0.
        -24    2    4    4    0    0  0.21298841671E+03 -0.53097158184E+02  0.84478552905E+03  0.87654658029E+03  0.80547771227E+02 0.  0.
         24    2    4    4    0    0  0.39639154119E+02  0.45240567204E+03  0.25971025110E+02  0.46179346400E+03  0.79602478683E+02 0.  0.
         11    1    3    3    0    0 -0.24694492408E+03 -0.39400367288E+03 -0.12981995085E+03  0.48277728759E+03  0.00000000000E+00 0. -1.
        -11    1    3    3    0    0 -0.56826467520E+01 -0.53048409720E+01 -0.19869987270E+02  0.21336593119E+02  0.00000000000E+00 0.  1.
          4    1    6    6  502    0  0.42973295609E+01  0.34471772433E+03  0.42126417080E+02  0.34730881291E+03  0.00000000000E+00 0. -1.
          1    1    5    5  503    0  0.96891367994E+02 -0.50858743815E+02  0.29523639876E+03  0.31486358978E+03  0.00000000000E+00 0. -1.
         -2    1    5    5    0  503  0.11609704872E+03 -0.22384143694E+01  0.54954913029E+03  0.56168299050E+03  0.00000000000E+00 0.  1.
         -3    1    6    6    0  502  0.35341824558E+02  0.10768794771E+03 -0.16155391970E+02  0.11448465109E+03  0.00000000000E+00 0.  1.
<mgrwt>
<rscale>  0 0.16954939E+04</rscale>
<asrwt>0</asrwt>
<pdfrwt beam="1">  1        1 0.86260563E-01 0.16954939E+04</pdfrwt>
<pdfrwt beam="2">  1       -1 0.19719389E+00 0.16954939E+04</pdfrwt>
<totfact> 0.56543786E+00</totfact>
</mgrwt>
</event>
<event>
12    1  0.1506149E-007  0.2172249E+04  0.7818608E-02  0.8530068E-01
         -2   -1    0    0    0  501 -0.00000000000E+00  0.00000000000E+00  0.41870769290E+03  0.41870769290E+03  0.00000000000E+00 0.  1.
          2   -1    0    0  501    0  0.00000000000E+00 -0.00000000000E+00 -0.28173994322E+04  0.28173994322E+04  0.00000000000E+00 0. -1.
         23    2    1    2    0    0 -0.36434452786E+03 -0.57004072109E+03 -0.19986591299E+03  0.71120342114E+03  0.90391174239E+02 0.  0.
        254    2    1    2    0    0  0.36434452786E+03  0.57004072109E+03 -0.21988258264E+04  0.25249037040E+04  0.10404856276E+04 0.  0.
        -24    2    4    4    0    0 -0.31608715779E+03  0.18452011026E+02 -0.89088911545E+03  0.94867587701E+03  0.77787759727E+02 0.  0.
         24    2    4    4    0    0  0.68043168565E+03  0.55158871007E+03 -0.13079367109E+04  0.15762278270E+04  0.80983572009E+02 0.  0.
         13    1    3    3    0    0 -0.13617578297E+02 -0.30534543386E+02 -0.31774010611E+02  0.46123578881E+02  0.00000000000E+00 0. -1.
        -13    1    3    3    0    0 -0.35072694956E+03 -0.53950617771E+03 -0.16809190237E+03  0.66507984226E+03  0.00000000000E+00 0.  1.
          4    1    6    6  502    0  0.47038991967E+03  0.41998557456E+03 -0.97506923004E+03  0.11612125399E+04  0.00000000000E+00 0. -1.
          3    1    5    5  503    0 -0.11070230105E+03 -0.30252838719E+02 -0.29813168994E+03  0.31945694273E+03  0.00000000000E+00 0. -1.
         -4    1    5    5    0  503 -0.20538485675E+03  0.48704849745E+02 -0.59275742550E+03  0.62921893428E+03  0.00000000000E+00 0.  1.
         -3    1    6    6    0  502  0.21004176598E+03  0.13160313551E+03 -0.33286748087E+03  0.41501528713E+03  0.00000000000E+00 0.  1.
<mgrwt>
<rscale>  0 0.21722494E+04</rscale>
<asrwt>0</asrwt>
<pdfrwt beam="1">  1        2 0.43344607E+00 0.21722494E+04</pdfrwt>
<pdfrwt beam="2">  1       -2 0.64416568E-01 0.21722494E+04</pdfrwt>
<totfact> 0.46059794E+00</totfact>
</mgrwt>
</event>
<event>
12    1  0.1506149E-007  0.2149210E+04  0.7818608E-02  0.8539870E-01
         -3   -1    0    0    0  501 -0.00000000000E+00  0.00000000000E+00  0.93585720777E+03  0.93585720777E+03  0.00000000000E+00 0.  1.
          3   -1    0    0  501    0  0.00000000000E+00 -0.00000000000E+00 -0.12339236457E+04  0.12339236457E+04  0.00000000000E+00 0. -1.
         23    2    1    2    0    0 -0.60292481553E+02  0.82306708358E+03  0.18419372766E+03  0.85067440518E+03  0.92978529284E+02 0.  0.
        254    2    1    2    0    0  0.60292481553E+02 -0.82306708358E+03 -0.48226016564E+03  0.13191064483E+04  0.90906124507E+03 0.  0.
        -24    2    4    4    0    0 -0.24287826881E+03  0.42890808453E+01  0.83913220489E+02  0.26872429273E+03  0.78505205289E+02 0.  0.
         24    2    4    4    0    0  0.30317075036E+03 -0.82735616443E+03 -0.56617338613E+03  0.10503821556E+04  0.79496182089E+02 0.  0.
         13    1    3    3    0    0 -0.62225376861E+02  0.35362130650E+03  0.10904615054E+03  0.37524803649E+03  0.00000000000E+00 0. -1.
        -13    1    3    3    0    0  0.19328953076E+01  0.46944577708E+03  0.75147577120E+02  0.47542636870E+03  0.00000000000E+00 0.  1.
          4    1    6    6  502    0  0.87641654478E+01 -0.28122880946E+01 -0.58019382520E+01  0.10880351456E+02  0.00000000000E+00 0. -1.
          1    1    5    5  503    0 -0.55416854275E+02 -0.64690559789E+01  0.55716292340E+02  0.78849106875E+02  0.00000000000E+00 0. -1.
         -2    1    5    5    0  503 -0.18746141454E+03  0.10758136824E+02  0.28196928149E+02  0.18987518586E+03  0.00000000000E+00 0.  1.
         -3    1    6    6    0  502  0.29440658491E+03 -0.82454387634E+03 -0.56037144787E+03  0.10395018042E+04  0.00000000000E+00 0.  1.
<mgrwt>
<rscale>  0 0.21492104E+04</rscale>
<asrwt>0</asrwt>
<pdfrwt beam="1">  1        3 0.18983441E+00 0.21492104E+04</pdfrwt>
<pdfrwt beam="2">  1       -3 0.14397803E+00 0.21492104E+04</pdfrwt>
<totfact> 0.14697296E-01</totfact>
</mgrwt>
</event>
<event>
12    1  0.1506149E-007  0.1579000E+04  0.7818608E-02  0.8833554E-01
          1   -1    0    0  501    0  0.00000000000E+00  0.00000000000E+00  0.20291265407E+04  0.20291265407E+04  0.00000000000E+00 0. -1.
         -1   -1    0    0    0  501 -0.00000000000E+00 -0.00000000000E+00 -0.30718167879E+03  0.30718167879E+03  0.00000000000E+00 0.  1.
         23    2    1    2    0    0 -0.31073528239E+03  0.16522951594E+03  0.11670539891E+04  0.12224066068E+04  0.91682551522E+02 0.  0.
        254    2    1    2    0    0  0.31073528239E+03 -0.16522951594E+03  0.55489087277E+03  0.11139016126E+04  0.89945300783E+03 0.  0.
        -24    2    4    4    0    0  0.50386495987E+03 -0.28452180524E+03  0.63258679870E+03  0.86111509815E+03  0.80750225630E+02 0.  0.
         24    2    4    4    0    0 -0.19312967748E+03  0.11929228931E+03 -0.77695925924E+02  0.25278651449E+03  0.79590466707E+02 0.  0.
         13    1    3    3    0    0 -0.23489686217E+03  0.12816241498E+03  0.10007413588E+04  0.10358983578E+04  0.00000000000E+00 0. -1.
        -13    1    3    3    0    0 -0.75838420221E+02  0.37067100957E+02  0.16631263029E+03  0.18650824901E+03  0.00000000000E+00 0.  1.
          4    1    6    6  502    0 -0.10196546071E+03  0.73141416989E+02 -0.17916221921E+01  0.12549833452E+03  0.00000000000E+00 0. -1.
          1    1    5    5  503    0  0.24251582972E+03 -0.13744078717E+03  0.24549382530E+03  0.37144463370E+03  0.00000000000E+00 0. -1.
         -2    1    5    5    0  503  0.26134913015E+03 -0.14708101808E+03  0.38709297339E+03  0.48967046446E+03  0.00000000000E+00 0.  1.
         -3    1    6    6    0  502 -0.91164216768E+02  0.46150872319E+02 -0.75904303732E+02  0.12728817997E+03  0.00000000000E+00 0.  1.
<mgrwt>
<rscale>  0 0.15790003E+04</rscale>
<asrwt>0</asrwt>
<pdfrwt beam="1">  1        1 0.31217331E+00 0.15790003E+04</pdfrwt>
<pdfrwt beam="2">  1       -1 0.47258721E-01 0.15790003E+04</pdfrwt>
<totfact> 0.12231703E+01</totfact>
</mgrwt>
</event>
<event>
12    1  0.1506149E-007  0.1438030E+04  0.7818608E-02  0.8926742E-01
         -2   -1    0    0    0  501 -0.00000000000E+00  0.00000000000E+00  0.91482207939E+03  0.91482207939E+03  0.00000000000E+00 0.  1.
          2   -1    0    0  501    0  0.00000000000E+00 -0.00000000000E+00 -0.56511792480E+03  0.56511792480E+03  0.00000000000E+00 0. -1.
         23    2    1    2    0    0 -0.39714535643E+03 -0.96050969025E+02 -0.34859382973E+02  0.42043190818E+03  0.92723190471E+02 0.  0.
        254    2    1    2    0    0  0.39714535643E+03  0.96050969025E+02  0.38456353756E+03  0.10595080960E+04  0.89873136605E+03 0.  0.
        -24    2    4    4    0    0  0.41082047450E+03 -0.24113652539E+03  0.49890890255E+03  0.69436788833E+03  0.79475689080E+02 0.  0.
         24    2    4    4    0    0 -0.13675118079E+02  0.33718749441E+03 -0.11434536500E+03  0.36514020768E+03  0.79812865674E+02 0.  0.
         13    1    3    3    0    0 -0.76800078094E+02  0.14266158553E+01 -0.37713251230E+02  0.85572054705E+02  0.00000000000E+00 0. -1.
        -13    1    3    3    0    0 -0.32034527833E+03 -0.97477584880E+02  0.28538682577E+01  0.33485985347E+03  0.00000000000E+00 0.  1.
          2    1    6    6  502    0  0.13507986497E+02  0.64577527908E+02 -0.52424667898E+02  0.84267838551E+02  0.00000000000E+00 0. -1.
          3    1    5    5  503    0  0.16319030279E+03 -0.89702199349E+02  0.25171110739E+03  0.31310707605E+03  0.00000000000E+00 0. -1.
         -4    1    5    5    0  503  0.24763017171E+03 -0.15143432604E+03  0.24719779516E+03  0.38126081228E+03  0.00000000000E+00 0.  1.
         -1    1    6    6    0  502 -0.27183104576E+02  0.27260996650E+03 -0.61920697099E+02  0.28087236913E+03  0.00000000000E+00 0.  1.
<mgrwt>
<rscale>  0 0.14380297E+04</rscale>
<asrwt>0</asrwt>
<pdfrwt beam="1">  1        2 0.86941219E-01 0.14380297E+04</pdfrwt>
<pdfrwt beam="2">  1       -2 0.14074186E+00 0.14380297E+04</pdfrwt>
<totfact> 0.18315961E+01</totfact>
</mgrwt>
</event>
<event>
12    1  0.1506149E-007  0.2965874E+04  0.7818608E-02  0.8253543E-01
         -2   -1    0    0    0  501 -0.00000000000E+00  0.00000000000E+00  0.17775768343E+04  0.17775768343E+04  0.00000000000E+00 0.  1.
          2   -1    0    0  501    0  0.00000000000E+00 -0.00000000000E+00 -0.12371351583E+04  0.12371351583E+04  0.00000000000E+00 0. -1.
         23    2    1    2    0    0  0.54758890655E+01  0.43866240266E+03 -0.10480229758E+04  0.11394965164E+04  0.87438344337E+02 0.  0.
        254    2    1    2    0    0 -0.54758890655E+01 -0.43866240266E+03  0.15884646518E+04  0.18752154762E+04  0.89485107330E+03 0.  0.
        -24    2    4    4    0    0 -0.15020095553E+03  0.93372135048E+02  0.11493896328E+04  0.11656902164E+04  0.80364605397E+02 0.  0.
         24    2    4    4    0    0  0.14472506647E+03 -0.53203453771E+03  0.43907501900E+03  0.70952525989E+03  0.81444017232E+02 0.  0.
         13    1    3    3    0    0 -0.17088426338E+02  0.36268670654E+03 -0.78726827046E+03  0.86696308520E+03  0.00000000000E+00 0. -1.
        -13    1    3    3    0    0  0.22564315404E+02  0.75975696116E+02 -0.26075470536E+03  0.27253343116E+03  0.00000000000E+00 0.  1.
          2    1    6    6  502    0  0.42003800470E+02 -0.25756669656E+03  0.24557729540E+03  0.35834777862E+03  0.00000000000E+00 0. -1.
          1    1    5    5  503    0 -0.50067651969E+02  0.44784615546E+02  0.23062887956E+03  0.24021263840E+03  0.00000000000E+00 0. -1.
         -2    1    5    5    0  503 -0.10013330356E+03  0.48587519503E+02  0.91876075327E+03  0.92547757795E+03  0.00000000000E+00 0.  1.
         -1    1    6    6    0  502  0.10272126600E+03 -0.27446784115E+03  0.19349772360E+03  0.35117748127E+03  0.00000000000E+00 0.  1.
<mgrwt>
<rscale>  0 0.29658744E+04</rscale>
<asrwt>0</asrwt>
<pdfrwt beam="1">  1        2 0.19032849E+00 0.29658744E+04</pdfrwt>
<pdfrwt beam="2">  1       -2 0.27347336E+00 0.29658744E+04</pdfrwt>
<totfact> 0.71319028E-01</totfact>
</mgrwt>
</event>
<event>
12    1  0.1506149E-007  0.1201224E+04  0.7818608E-02  0.9111786E-01
         -1   -1    0    0    0  501 -0.00000000000E+00  0.00000000000E+00  0.40989467246E+03  0.40989467246E+03  0.00000000000E+00 0.  1.
          1   -1    0    0  501    0  0.00000000000E+00 -0.00000000000E+00 -0.88006696229E+03  0.88006696229E+03  0.00000000000E+00 0. -1.
         23    2    1    2    0    0  0.23890956767E+03  0.76003405962E+02 -0.99293341514E+02  0.28550419946E+03  0.93803949814E+02 0.  0.
        254    2    1    2    0    0 -0.23890956767E+03 -0.76003405962E+02 -0.37087894832E+03  0.10044574353E+04  0.89918254307E+03 0.  0.
        -24    2    4    4    0    0 -0.34537420626E+03 -0.17674401044E+03 -0.59946272884E+03  0.71860612539E+03  0.80730493696E+02 0.  0.
         24    2    4    4    0    0  0.10646463859E+03  0.10074060447E+03  0.22858378052E+03  0.28585130990E+03  0.89314265359E+02 0.  0.
         11    1    3    3    0    0  0.16121629622E+03  0.67689513560E+02 -0.11009543828E+03  0.20662422399E+03  0.00000000000E+00 0. -1.
        -11    1    3    3    0    0  0.77693271449E+02  0.83138924019E+01  0.10802096761E+02  0.78879975468E+02  0.00000000000E+00 0.  1.
          2    1    6    6  502    0  0.49941926213E+02 -0.25991394542E+01  0.97802246994E+02  0.10984639747E+03  0.00000000000E+00 0. -1.
          1    1    5    5  503    0 -0.22615449271E+03 -0.15129887246E+03 -0.37706926367E+03  0.46499293865E+03  0.00000000000E+00 0. -1.
         -2    1    5    5    0  503 -0.11921971354E+03 -0.25445137974E+02 -0.22239346517E+03  0.25361318675E+03  0.00000000000E+00 0.  1.
         -1    1    6    6    0  502  0.56522712377E+02  0.10333974393E+03  0.13078153352E+03  0.17600491243E+03  0.00000000000E+00 0.  1.
<mgrwt>
<rscale>  0 0.12012240E+04</rscale>
<asrwt>0</asrwt>
<pdfrwt beam="1">  1        1 0.13539492E+00 0.12012240E+04</pdfrwt>
<pdfrwt beam="2">  1       -1 0.63060719E-01 0.12012240E+04</pdfrwt>
<totfact> 0.47710082E+01</totfact>
</mgrwt>
</event>
<event>
12    1  0.1506149E-007  0.1170620E+04  0.7818608E-02  0.9138969E-01
         -2   -1    0    0    0  501 -0.00000000000E+00  0.00000000000E+00  0.13895927184E+03  0.13895927184E+03  0.00000000000E+00 0. -1.
          2   -1    0    0  501    0  0.00000000000E+00 -0.00000000000E+00 -0.24653806892E+04  0.24653806892E+04  0.00000000000E+00 0.  1.
         23    2    1    2    0    0 -0.15336350609E+03 -0.24857171110E+02 -0.95654969164E+03  0.97357385742E+03  0.93383613774E+02 0.  0.
        254    2    1    2    0    0  0.15336350609E+03  0.24857171110E+02 -0.13698717257E+04  0.16307661036E+04  0.87104035257E+03 0.  0.
        -24    2    4    4    0    0 -0.31073371446E+03  0.56107549323E+02 -0.23467953932E+03  0.40132179439E+03  0.79254009899E+02 0.  0.
         24    2    4    4    0    0  0.46409722055E+03 -0.31250378213E+02 -0.11351921864E+04  0.12294443092E+04  0.80679570873E+02 0.  0.
         11    1    3    3    0    0 -0.73358093180E+02 -0.47654603829E+02 -0.65291600637E+03  0.65875009106E+03  0.00000000000E+00 0.  1.
        -11    1    3    3    0    0 -0.80005412910E+02  0.22797432718E+02 -0.30363368527E+03  0.31482376636E+03  0.00000000000E+00 0. -1.
          4    1    6    6  502    0  0.25069299853E+03 -0.46589464455E+02 -0.68725720504E+03  0.73303480380E+03  0.00000000000E+00 0. -1.
          3    1    5    5  503    0 -0.23244765077E+03  0.15921880557E+02 -0.19884232257E+03  0.30630652274E+03  0.00000000000E+00 0. -1.
         -4    1    5    5    0  503 -0.78286063681E+02  0.40185668766E+02 -0.35837216746E+02  0.95015271641E+02  0.00000000000E+00 0.  1.
         -1    1    6    6    0  502  0.21340422202E+03  0.15339086242E+02 -0.44793498134E+03  0.49640950540E+03  0.00000000000E+00 0.  1.
<mgrwt>
<rscale>  0 0.11706195E+04</rscale>
<asrwt>0</asrwt>
<pdfrwt beam="1">  1        2 0.37928930E+00 0.11706195E+04</pdfrwt>
<pdfrwt beam="2">  1       -2 0.21378352E-01 0.11706195E+04</pdfrwt>
<totfact> 0.68924564E+01</totfact>
</mgrwt>
</event>
<event>
12    1  0.1506149E-007  0.4207586E+04  0.7818608E-02  0.7963931E-01
         -2   -1    0    0    0  501 -0.00000000000E+00  0.00000000000E+00  0.10554850591E+04  0.10554850591E+04  0.00000000000E+00 0.  1.
          2   -1    0    0  501    0  0.00000000000E+00 -0.00000000000E+00 -0.41932806397E+04  0.41932806397E+04  0.00000000000E+00 0. -1.
         23    2    1    2    0    0 -0.19605667973E+04  0.21688202356E+03 -0.10357037167E+04  0.22298030951E+04  0.92085151676E+02 0.  0.
        254    2    1    2    0    0  0.19605667973E+04 -0.21688202356E+03 -0.21020918638E+04  0.30189626037E+04  0.89693088902E+03 0.  0.
        -24    2    4    4    0    0  0.16235407868E+04  0.17163177432E+03 -0.14541601439E+04  0.21877963335E+04  0.80801736041E+02 0.  0.
         24    2    4    4    0    0  0.33702601051E+03 -0.38851379789E+03 -0.64793171995E+03  0.83116627018E+03  0.80575132964E+02 0.  0.
         13    1    3    3    0    0 -0.16393675543E+03  0.19065148326E+02 -0.58750253466E+02  0.17518656325E+03  0.00000000000E+00 0. -1.
        -13    1    3    3    0    0 -0.17966300419E+04  0.19781687524E+03 -0.97695346328E+03  0.20546165319E+04  0.00000000000E+00 0.  1.
          4    1    6    6  502    0  0.16372734030E+03 -0.14865147831E+03 -0.22987585301E+03  0.31897776061E+03  0.00000000000E+00 0. -1.
          1    1    5    5  503    0  0.46629939960E+03  0.85868272357E+02 -0.42795313743E+03  0.63871149833E+03  0.00000000000E+00 0. -1.
         -2    1    5    5    0  503  0.11572413872E+04  0.85763501967E+02 -0.10262070064E+04  0.15490848352E+04  0.00000000000E+00 0.  1.
         -3    1    6    6    0  502  0.17329867021E+03 -0.23986231958E+03 -0.41805586695E+03  0.51218850957E+03  0.00000000000E+00 0.  1.
<mgrwt>
<rscale>  0 0.42075860E+04</rscale>
<asrwt>0</asrwt>
<pdfrwt beam="1">  1        2 0.64512008E+00 0.42075860E+04</pdfrwt>
<pdfrwt beam="2">  1       -2 0.16238232E+00 0.42075860E+04</pdfrwt>
<totfact> 0.44003566E-02</totfact>
</mgrwt>
</event>
<event>
12    1  0.1506149E-007  0.2104913E+04  0.7818608E-02  0.8559082E-01
          1   -1    0    0  501    0  0.00000000000E+00  0.00000000000E+00  0.30406120154E+04  0.30406120154E+04  0.00000000000E+00 0. -1.
         -1   -1    0    0    0  501 -0.00000000000E+00 -0.00000000000E+00 -0.36428999533E+03  0.36428999533E+03  0.00000000000E+00 0.  1.
         23    2    1    2    0    0  0.19847054622E+03 -0.33369698034E+03  0.23362518033E+04  0.23700922111E+04  0.92305840980E+02 0.  0.
        254    2    1    2    0    0 -0.19847054622E+03  0.33369698034E+03  0.34007021676E+03  0.10348097996E+04  0.89690542235E+03 0.  0.
        -24    2    4    4    0    0  0.42252012959E+02  0.29725688656E+02 -0.28204341613E+03  0.29750617925E+03  0.79325840360E+02 0.  0.
         24    2    4    4    0    0 -0.24072255918E+03  0.30397129169E+03  0.62211363289E+03  0.73730362036E+03  0.79027588225E+02 0.  0.
         13    1    3    3    0    0  0.10286935289E+01 -0.44684242959E+02  0.17163301619E+03  0.17735735684E+03  0.00000000000E+00 0.  1.
        -13    1    3    3    0    0  0.19744185269E+03 -0.28901273739E+03  0.21646187871E+04  0.21927348543E+04  0.00000000000E+00 0. -1.
          4    1    6    6  502    0 -0.40878991161E+02  0.10940361618E+03  0.18136921090E+03  0.21571980394E+03  0.00000000000E+00 0. -1.
          1    1    5    5  503    0  0.57845592187E+02  0.69779075886E+01 -0.24179011599E+03  0.24871120586E+03  0.00000000000E+00 0. -1.
         -2    1    5    5    0  503 -0.15593579228E+02  0.22747781067E+02 -0.40253300134E+02  0.48794973392E+02  0.00000000000E+00 0.  1.
         -3    1    6    6    0  502 -0.19984356802E+03  0.19456767551E+03  0.44074442199E+03  0.52158381642E+03  0.00000000000E+00 0.  1.
<mgrwt>
<rscale>  0 0.21049129E+04</rscale>
<asrwt>0</asrwt>
<pdfrwt beam="1">  1        1 0.46778645E+00 0.21049129E+04</pdfrwt>
<pdfrwt beam="2">  1       -1 0.56044617E-01 0.21049129E+04</pdfrwt>
<totfact> 0.16552005E+00</totfact>
</mgrwt>
</event>
<event>
12    1  0.1506149E-007  0.1484970E+04  0.7818608E-02  0.8894510E-01
          2   -1    0    0  501    0  0.00000000000E+00  0.00000000000E+00  0.16606817563E+04  0.16606817563E+04  0.00000000000E+00 0. -1.
         -2   -1    0    0    0  501 -0.00000000000E+00 -0.00000000000E+00 -0.33196235336E+03  0.33196235336E+03  0.00000000000E+00 0.  1.
         23    2    1    2    0    0 -0.13001025701E+03  0.37853496877E+02  0.99913982742E+03  0.10124151464E+04  0.91479395848E+02 0.  0.
        254    2    1    2    0    0  0.13001025701E+03 -0.37853496877E+02  0.32957957551E+03  0.98022896321E+03  0.91317608902E+03 0.  0.
        -24    2    4    4    0    0 -0.40200855198E+02 -0.19012159743E+03 -0.26488925451E+03  0.33819994465E+03  0.80315346219E+02 0.  0.
         24    2    4    4    0    0  0.17021111221E+03  0.15226810055E+03  0.59446883002E+03  0.64202901855E+03  0.81551662352E+02 0.  0.
         11    1    3    3    0    0 -0.13808770622E+03  0.30769640042E+02  0.98233051540E+03  0.99246573082E+03  0.00000000000E+00 0. -1.
        -11    1    3    3    0    0  0.80774492097E+01  0.70838568353E+01  0.16809312012E+02  0.19949415623E+02  0.00000000000E+00 0.  1.
          2    1    6    6  502    0  0.10660978708E+03  0.44426949176E+02  0.24633302793E+03  0.27206499437E+03  0.00000000000E+00 0. -1.
          3    1    5    5  503    0 -0.50609160984E+02 -0.13336959202E+03 -0.13647496033E+03  0.19741871757E+03  0.00000000000E+00 0. -1.
         -4    1    5    5    0  503  0.10408305786E+02 -0.56752005411E+02 -0.12841429418E+03  0.14078122708E+03  0.00000000000E+00 0.  1.
         -1    1    6    6    0  502  0.63601325121E+02  0.10784115138E+03  0.34813580210E+03  0.36996402418E+03  0.00000000000E+00 0.  1.
<mgrwt>
<rscale>  0 0.14849698E+04</rscale>
<asrwt>0</asrwt>
<pdfrwt beam="1">  1        2 0.25548950E+00 0.14849698E+04</pdfrwt>
<pdfrwt beam="2">  1       -2 0.51071132E-01 0.14849698E+04</pdfrwt>
<totfact> 0.36145963E+01</totfact>
</mgrwt>
</event>
<event>
12    1  0.1506149E-007  0.1718511E+04  0.7818608E-02  0.8750877E-01
          1   -1    0    0  501    0  0.00000000000E+00  0.00000000000E+00  0.62733769653E+03  0.62733769653E+03  0.00000000000E+00 0. -1.
         -1   -1    0    0    0  501 -0.00000000000E+00 -0.00000000000E+00 -0.11769094494E+04  0.11769094494E+04  0.00000000000E+00 0.  1.
         23    2    1    2    0    0  0.13762887407E+03 -0.38736632067E+02 -0.83266911855E+03  0.84965179277E+03  0.90155833578E+02 0.  0.
        254    2    1    2    0    0 -0.13762887407E+03  0.38736632067E+02  0.28309736567E+03  0.95459535318E+03  0.90036988856E+03 0.  0.
        -24    2    4    4    0    0 -0.39652160440E+03  0.73582413146E+02  0.46942739507E+03  0.62390132001E+03  0.79038114755E+02 0.  0.
         24    2    4    4    0    0  0.25889273033E+03 -0.34845781079E+02 -0.18633002940E+03  0.33069403317E+03  0.79999933995E+02 0.  0.
         11    1    3    3    0    0  0.74289614887E+02  0.23351613427E+02 -0.31801123133E+03  0.32740706770E+03  0.00000000000E+00 0. -1.
        -11    1    3    3    0    0  0.63339259182E+02 -0.62088245494E+02 -0.51465788722E+03  0.52224472507E+03  0.00000000000E+00 0.  1.
          2    1    6    6  502    0  0.22948065073E+03 -0.51597866783E+02 -0.14139896305E+03  0.27444011308E+03  0.00000000000E+00 0. -1.
          1    1    5    5  503    0 -0.26471414802E+03  0.47002756044E+02  0.36664986832E+03  0.45465917474E+03  0.00000000000E+00 0. -1.
         -2    1    5    5    0  503 -0.13180745638E+03  0.26579657102E+02  0.10277752675E+03  0.16924214527E+03  0.00000000000E+00 0.  1.
         -1    1    6    6    0  502  0.29412079603E+02  0.16752085704E+02 -0.44931066350E+02  0.56253920089E+02  0.00000000000E+00 0.  1.
<mgrwt>
<rscale>  0 0.17185106E+04</rscale>
<asrwt>0</asrwt>
<pdfrwt beam="1">  1        1 0.96513492E-01 0.17185106E+04</pdfrwt>
<pdfrwt beam="2">  1       -1 0.18106299E+00 0.17185106E+04</pdfrwt>
<totfact> 0.62347863E+00</totfact>
</mgrwt>
</event>
<event>
12    1  0.1506149E-007  0.2208973E+04  0.7818608E-02  0.8514703E-01
         -1   -1    0    0    0  501 -0.00000000000E+00  0.00000000000E+00  0.83531905886E+03  0.83531905886E+03  0.00000000000E+00 0.  1.
          1   -1    0    0  501    0  0.00000000000E+00 -0.00000000000E+00 -0.14603880546E+04  0.14603880546E+04  0.00000000000E+00 0. -1.
         23    2    1    2    0    0 -0.55726252154E+03  0.55290814283E+02 -0.10174501893E+04  0.11648530497E+04  0.89884078279E+02 0.  0.
        254    2    1    2    0    0  0.55726252154E+03 -0.55290814283E+02  0.39238119354E+03  0.11308540638E+04  0.90070490205E+03 0.  0.
        -24    2    4    4    0    0  0.54407850470E+03  0.23638951521E+03  0.52926969247E+03  0.79880219833E+03  0.77827517721E+02 0.  0.
         24    2    4    4    0    0  0.13184016842E+02 -0.29168032949E+03 -0.13688849893E+03  0.33205186549E+03  0.79175421217E+02 0.  0.
         11    1    3    3    0    0 -0.52816897899E+03  0.31727128158E+02 -0.93585162404E+03  0.10750755058E+04  0.00000000000E+00 0. -1.
        -11    1    3    3    0    0 -0.29093542552E+02  0.23563686125E+02 -0.81598565274E+02  0.89777543834E+02  0.00000000000E+00 0.  1.
          4    1    6    6  502    0 -0.21702727314E+02 -0.19578275625E+03 -0.11356594187E+03  0.22737440307E+03  0.00000000000E+00 0. -1.
          3    1    5    5  503    0  0.33756058444E+03  0.12297584590E+03  0.27727730406E+03  0.45382035012E+03  0.00000000000E+00 0. -1.
         -4    1    5    5    0  503  0.20651792027E+03  0.11341366931E+03  0.25199238841E+03  0.34498184821E+03  0.00000000000E+00 0.  1.
         -3    1    6    6    0  502  0.34886744157E+02 -0.95897573246E+02 -0.23322557057E+02  0.10467746243E+03  0.00000000000E+00 0.  1.
<mgrwt>
<rscale>  0 0.22089726E+04</rscale>
<asrwt>0</asrwt>
<pdfrwt beam="1">  1        1 0.22467508E+00 0.22089726E+04</pdfrwt>
<pdfrwt beam="2">  1       -1 0.12851063E+00 0.22089726E+04</pdfrwt>
<totfact> 0.33154047E+00</totfact>
</mgrwt>
</event>
<event>
12    1  0.1506149E-007  0.1274507E+04  0.7818608E-02  0.9050029E-01
         -3   -1    0    0    0  501 -0.00000000000E+00  0.00000000000E+00  0.12032889488E+03  0.12032889488E+03  0.00000000000E+00 0.  1.
          3   -1    0    0  501    0  0.00000000000E+00 -0.00000000000E+00 -0.33748492773E+04  0.33748492773E+04  0.00000000000E+00 0. -1.
         23    2    1    2    0    0  0.88999275251E+02 -0.42989707357E+02 -0.15983744605E+04  0.16040539307E+04  0.91755712864E+02 0.  0.
        254    2    1    2    0    0 -0.88999275251E+02  0.42989707357E+02 -0.16561459219E+04  0.18911242415E+04  0.90761368209E+03 0.  0.
        -24    2    4    4    0    0 -0.34049770145E+03  0.35806918685E+03 -0.97047517996E+03  0.10919467071E+04  0.79833007418E+02 0.  0.
         24    2    4    4    0    0  0.25149842620E+03 -0.31507947949E+03 -0.68567074198E+03  0.79917753431E+03  0.77548875888E+02 0.  0.
         11    1    3    3    0    0  0.27135889513E+02  0.86028154209E+00 -0.95948587652E+02  0.99715736253E+02  0.00000000000E+00 0.  1.
        -11    1    3    3    0    0  0.61863385737E+02 -0.43849988899E+02 -0.15024258728E+04  0.15043381945E+04  0.00000000000E+00 0. -1.
          4    1    6    6  502    0  0.27782349243E+02 -0.81148028622E+02 -0.12109086937E+03  0.14839090310E+03  0.00000000000E+00 0. -1.
          3    1    5    5  503    0 -0.12426842081E+03  0.18366754306E+03 -0.46479277742E+03  0.51498420629E+03  0.00000000000E+00 0. -1.
         -4    1    5    5    0  503 -0.21622928064E+03  0.17440164379E+03 -0.50568240254E+03  0.57696250086E+03  0.00000000000E+00 0.  1.
         -3    1    6    6    0  502  0.22371607695E+03 -0.23393145087E+03 -0.56457987262E+03  0.65078663121E+03  0.00000000000E+00 0.  1.
<mgrwt>
<rscale>  0 0.12745068E+04</rscale>
<asrwt>0</asrwt>
<pdfrwt beam="1">  1        3 0.51920745E+00 0.12745068E+04</pdfrwt>
<pdfrwt beam="2">  1       -3 0.18512142E-01 0.12745068E+04</pdfrwt>
<totfact> 0.19197419E-01</totfact>
</mgrwt>
</event>
<event>
12    1  0.1506149E-007  0.2038985E+04  0.7818608E-02  0.8588608E-01
          2   -1    0    0  501    0  0.00000000000E+00  0.00000000000E+00  0.30828596741E+04  0.30828596741E+04  0.00000000000E+00 0. -1.
         -2   -1    0    0    0  501 -0.00000000000E+00 -0.00000000000E+00 -0.33714309759E+03  0.33714309759E+03  0.00000000000E+00 0.  1.
         23    2    1    2    0    0  0.37804710609E+03 -0.60883543978E+03  0.46165877611E+03  0.85725541098E+03  0.90320578764E+02 0.  0.
        254    2    1    2    0    0 -0.37804710609E+03  0.60883543978E+03  0.22840578004E+04  0.25627473607E+04  0.91496108773E+03 0.  0.
        -24    2    4    4    0    0 -0.63229189224E+03  0.59681037925E+03  0.15169111404E+04  0.17503730368E+04  0.82526930620E+02 0.  0.
         24    2    4    4    0    0  0.25424478615E+03  0.12025060530E+02  0.76714665997E+03  0.81237432388E+03  0.81566113275E+02 0.  0.
         13    1    3    3    0    0  0.66338365199E+02 -0.18182098357E+03  0.13013310003E+03  0.23322579722E+03  0.00000000000E+00 0. -1.
        -13    1    3    3    0    0  0.31170874089E+03 -0.42701445621E+03  0.33152567608E+03  0.62402961377E+03  0.00000000000E+00 0.  1.
          2    1    6    6  502    0  0.11837513365E+03 -0.23997538128E+02  0.27094766818E+03  0.29664995027E+03  0.00000000000E+00 0. -1.
          1    1    5    5  503    0 -0.58704060007E+02  0.67882398144E+02  0.20836277648E+03  0.22686831701E+03  0.00000000000E+00 0. -1.
         -2    1    5    5    0  503 -0.57358783223E+03  0.52892798110E+03  0.13085483639E+04  0.15235047198E+04  0.00000000000E+00 0.  1.
         -1    1    6    6    0  502  0.13586965250E+03  0.36022598658E+02  0.49619899179E+03  0.51572437362E+03  0.00000000000E+00 0.  1.
<mgrwt>
<rscale>  0 0.20389849E+04</rscale>
<asrwt>0</asrwt>
<pdfrwt beam="1">  1        2 0.47428608E+00 0.20389849E+04</pdfrwt>
<pdfrwt beam="2">  1       -2 0.51868171E-01 0.20389849E+04</pdfrwt>
<totfact> 0.50296575E+00</totfact>
</mgrwt>
</event>
<event>
12    1  0.2418158E-007  0.2387643E+04  0.7818608E-02  0.8444144E-01
          2   -1    0    0  501    0  0.00000000000E+00  0.00000000000E+00  0.12371505522E+04  0.12371505522E+04  0.00000000000E+00 0.  1.
         -2   -1    0    0    0  501 -0.00000000000E+00 -0.00000000000E+00 -0.11520100710E+04  0.11520100710E+04  0.00000000000E+00 0. -1.
         23    2    1    2    0    0  0.36830695687E+03 -0.10363964581E+03  0.10098154607E+04  0.10838219001E+04  0.92474080809E+02 0.  0.
        254    2    1    2    0    0 -0.36830695687E+03  0.10363964581E+03 -0.92467497949E+03  0.13053387232E+04  0.83814925509E+03 0.  0.
        -24    2    4    4    0    0 -0.18579172297E+03  0.40995118898E+02 -0.10445993413E+04  0.10647330389E+04  0.79180150176E+02 0.  0.
         24    2    4    4    0    0 -0.18251523390E+03  0.62644526911E+02  0.11992436186E+03  0.24060568421E+03  0.79202874637E+02 0.  0.
         13    1    3    3    0    0  0.30622001110E+03 -0.10816782668E+03  0.76226947445E+03  0.82856847973E+03  0.00000000000E+00 0.  1.
        -13    1    3    3    0    0  0.62086945768E+02  0.45281808666E+01  0.24754598630E+03  0.25525342033E+03  0.00000000000E+00 0. -1.
          2    1    6    6  502    0  0.64895460513E+01  0.67949396395E+01 -0.89127631323E+00  0.94382088408E+01  0.00000000000E+00 0. -1.
          1    1    5    5  503    0 -0.45274909600E+02  0.17555056598E+02 -0.12386951163E+03  0.13304756053E+03  0.00000000000E+00 0. -1.
         -2    1    5    5    0  503 -0.14051681337E+03  0.23440062300E+02 -0.92072982972E+03  0.93168547842E+03  0.00000000000E+00 0.  1.
         -1    1    6    6    0  502 -0.18900477995E+03  0.55849587271E+02  0.12081563817E+03  0.23116747537E+03  0.00000000000E+00 0.  1.
<mgrwt>
<rscale>  0 0.23876431E+04</rscale>
<asrwt>0</asrwt>
<pdfrwt beam="1">  1        2 0.19033086E+00 0.23876431E+04</pdfrwt>
<pdfrwt beam="2">  1       -2 0.17723232E+00 0.23876431E+04</pdfrwt>
<totfact> 0.30710489E+00</totfact>
</mgrwt>
</event>
<event>
12    1  0.1506149E-007  0.2367552E+04  0.7818608E-02  0.8451752E-01
         -2   -1    0    0    0  501 -0.00000000000E+00  0.00000000000E+00  0.98731370703E+03  0.98731370703E+03  0.00000000000E+00 0.  1.
          2   -1    0    0  501    0  0.00000000000E+00 -0.00000000000E+00 -0.14193317074E+04  0.14193317074E+04  0.00000000000E+00 0. -1.
         23    2    1    2    0    0 -0.28495263499E+03  0.67500515309E+03  0.52129828733E+03  0.90377031430E+03  0.90658235986E+02 0.  0.
        254    2    1    2    0    0  0.28495263499E+03 -0.67500515309E+03 -0.95331628772E+03  0.15028751001E+04  0.90166050226E+03 0.  0.
        -24    2    4    4    0    0  0.14952534150E+03  0.15008747643E+03  0.83241535449E+01  0.22605366434E+03  0.78402100096E+02 0.  0.
         24    2    4    4    0    0  0.13542729349E+03 -0.82509262952E+03 -0.96164044127E+03  0.12768214358E+04  0.80014008435E+02 0.  0.
         13    1    3    3    0    0 -0.68210698909E+02  0.11352901280E+03  0.13194547008E+03  0.18695224863E+03  0.00000000000E+00 0. -1.
        -13    1    3    3    0    0 -0.21674193608E+03  0.56147614029E+03  0.38935281725E+03  0.71681806567E+03  0.00000000000E+00 0.  1.
          4    1    6    6  502    0  0.38751549072E+02 -0.27416108862E+03 -0.37634359545E+03  0.46722637651E+03  0.00000000000E+00 0. -1.
          3    1    5    5  503    0  0.15612635532E+03  0.15140630792E+03  0.12976670673E+02  0.21787083992E+03  0.00000000000E+00 0. -1.
         -4    1    5    5    0  503 -0.66010138221E+01 -0.13188314910E+01 -0.46525171282E+01  0.81828244274E+01  0.00000000000E+00 0.  1.
         -3    1    6    6    0  502  0.96675744421E+02 -0.55093154090E+03 -0.58529684581E+03  0.80959505929E+03  0.00000000000E+00 0.  1.
<mgrwt>
<rscale>  0 0.23675520E+04</rscale>
<asrwt>0</asrwt>
<pdfrwt beam="1">  1        2 0.21835872E+00 0.23675520E+04</pdfrwt>
<pdfrwt beam="2">  1       -2 0.15189442E+00 0.23675520E+04</pdfrwt>
<totfact> 0.36863393E+00</totfact>
</mgrwt>
</event>
<event>
12    1  0.1506149E-007  0.1519622E+04  0.7818608E-02  0.8871508E-01
          2   -1    0    0  501    0  0.00000000000E+00  0.00000000000E+00  0.22198563527E+04  0.22198563527E+04  0.00000000000E+00 0.  1.
         -2   -1    0    0    0  501 -0.00000000000E+00 -0.00000000000E+00 -0.26006768331E+03  0.26006768331E+03  0.00000000000E+00 0. -1.
         23    2    1    2    0    0  0.41672385323E+03  0.23613084560E+03  0.90923505178E+03  0.10295588510E+04  0.62181203978E+02 0.  0.
        254    2    1    2    0    0 -0.41672385323E+03 -0.23613084560E+03  0.10505536176E+04  0.14503651851E+04  0.87776974228E+03 0.  0.
        -24    2    4    4    0    0 -0.55903580812E+03 -0.45642728389E+03  0.76579499339E+03  0.10553133529E+04  0.79983752167E+02 0.  0.
         24    2    4    4    0    0  0.14231195489E+03  0.22029643828E+03  0.28475862426E+03  0.39505183221E+03  0.78709991853E+02 0.  0.
         13    1    3    3    0    0  0.13167672169E+03  0.50700326440E+02  0.22715917833E+03  0.26741461149E+03  0.00000000000E+00 0. -1.
        -13    1    3    3    0    0  0.28504713154E+03  0.18543051916E+03  0.68207587345E+03  0.76214423949E+03  0.00000000000E+00 0.  1.
          4    1    6    6  502    0  0.96003445403E+02  0.85303586088E+02  0.16255595058E+03  0.20716611788E+03  0.00000000000E+00 0. -1.
          3    1    5    5  503    0 -0.40833012902E+03 -0.28554166717E+03  0.52726066631E+03  0.72544562042E+03  0.00000000000E+00 0. -1.
         -4    1    5    5    0  503 -0.15070567910E+03 -0.17088561672E+03  0.23853432708E+03  0.32986773245E+03  0.00000000000E+00 0.  1.
         -3    1    6    6    0  502  0.46308509492E+02  0.13499285220E+03  0.12220267368E+03  0.18788571433E+03  0.00000000000E+00 0.  1.
<mgrwt>
<rscale>  0 0.15196222E+04</rscale>
<asrwt>0</asrwt>
<pdfrwt beam="1">  1        2 0.34151635E+00 0.15196222E+04</pdfrwt>
<pdfrwt beam="2">  1       -2 0.40010414E-01 0.15196222E+04</pdfrwt>
<totfact> 0.28731772E+01</totfact>
</mgrwt>
</event>
<event>
12    1  0.1506149E-007  0.1899145E+04  0.7818608E-02  0.8655282E-01
          1   -1    0    0  501    0  0.00000000000E+00  0.00000000000E+00  0.20791795352E+04  0.20791795352E+04  0.00000000000E+00 0. -1.
         -1   -1    0    0    0  501 -0.00000000000E+00 -0.00000000000E+00 -0.43367468304E+03  0.43367468304E+03  0.00000000000E+00 0.  1.
         23    2    1    2    0    0  0.40461763398E+03 -0.13796595141E+03 -0.15058640125E+03  0.46198867793E+03  0.89483187309E+02 0.  0.
        254    2    1    2    0    0 -0.40461763398E+03  0.13796595141E+03  0.17960912534E+04  0.20508655403E+04  0.89294772542E+03 0.  0.
        -24    2    4    4    0    0 -0.37998812055E+03  0.49037101357E+03  0.11954864189E+04  0.13492698963E+04  0.80540503435E+02 0.  0.
         24    2    4    4    0    0 -0.24629513433E+02 -0.35240506216E+03  0.60060483450E+03  0.70159564395E+03  0.81941074020E+02 0.  0.
         13    1    3    3    0    0  0.29499278118E+02 -0.23108100244E+02 -0.39075928820E+02  0.54139818244E+02  0.00000000000E+00 0.  1.
        -13    1    3    3    0    0  0.37511835587E+03 -0.11485785117E+03 -0.11151047243E+03  0.40784885968E+03  0.00000000000E+00 0. -1.
          2    1    6    6  502    0 -0.33022061387E+02 -0.18527869272E+03  0.38623908450E+03  0.42965018435E+03  0.00000000000E+00 0. -1.
          1    1    5    5  503    0 -0.27761147322E+03  0.36568275550E+03  0.95570418409E+03  0.10602652947E+04  0.00000000000E+00 0. -1.
         -2    1    5    5    0  503 -0.10237664733E+03  0.12468825807E+03  0.23978223480E+03  0.28900460160E+03  0.00000000000E+00 0.  1.
         -1    1    6    6    0  502  0.83925479546E+01 -0.16712636944E+03  0.21436575000E+03  0.27194545960E+03  0.00000000000E+00 0.  1.
<mgrwt>
<rscale>  0 0.18991446E+04</rscale>
<asrwt>0</asrwt>
<pdfrwt beam="1">  1        1 0.31987377E+00 0.18991446E+04</pdfrwt>
<pdfrwt beam="2">  1       -1 0.66719183E-01 0.18991446E+04</pdfrwt>
<totfact> 0.56075647E+00</totfact>
</mgrwt>
</event>
<event>
12    1  0.1506149E-007  0.1244270E+04  0.7818608E-02  0.9074965E-01
         -1   -1    0    0    0  501 -0.00000000000E+00  0.00000000000E+00  0.41531214912E+03  0.41531214912E+03  0.00000000000E+00 0.  1.
          1   -1    0    0  501    0  0.00000000000E+00 -0.00000000000E+00 -0.93195500004E+03  0.93195500004E+03  0.00000000000E+00 0. -1.
         23    2    1    2    0    0 -0.16254707213E+03  0.27233098047E+03 -0.10896793368E+03  0.34757396044E+03  0.91367028096E+02 0.  0.
        254    2    1    2    0    0  0.16254707213E+03 -0.27233098047E+03 -0.40767491724E+03  0.99969318872E+03  0.85592167857E+03 0.  0.
        -24    2    4    4    0    0  0.25955103634E+03 -0.54343381878E+03 -0.21387322927E+03  0.64380104948E+03  0.77788027715E+02 0.  0.
         24    2    4    4    0    0 -0.97003964213E+02  0.27110283832E+03 -0.19380168797E+03  0.35589213924E+03  0.78699444058E+02 0.  0.
         11    1    3    3    0    0 -0.16501591792E+03  0.23821042272E+03 -0.11687088393E+03  0.31246321730E+03  0.00000000000E+00 0. -1.
        -11    1    3    3    0    0  0.24688457869E+01  0.34120557749E+02  0.79029502511E+01  0.35110743133E+02  0.00000000000E+00 0.  1.
          2    1    6    6  502    0 -0.81121501492E+02  0.19032278387E+03 -0.96071909603E+02  0.22810802677E+03  0.00000000000E+00 0. -1.
          3    1    5    5  503    0  0.17908593020E+03 -0.40925219207E+03 -0.19034753931E+03  0.48558347669E+03  0.00000000000E+00 0. -1.
         -4    1    5    5    0  503  0.80465106143E+02 -0.13418162671E+03 -0.23525689958E+02  0.15821757280E+03  0.00000000000E+00 0.  1.
         -1    1    6    6    0  502 -0.15882462721E+02  0.80780054450E+02 -0.97729778368E+02  0.12778411247E+03  0.00000000000E+00 0.  1.
<mgrwt>
<rscale>  0 0.12442704E+04</rscale>
<asrwt>0</asrwt>
<pdfrwt beam="1">  1        1 0.14337769E+00 0.12442704E+04</pdfrwt>
<pdfrwt beam="2">  1       -1 0.63894177E-01 0.12442704E+04</pdfrwt>
<totfact> 0.42006526E+01</totfact>
</mgrwt>
</event>
<event>
12    1  0.1506149E-007  0.1953583E+04  0.7818608E-02  0.8628635E-01
         -2   -1    0    0    0  501 -0.00000000000E+00  0.00000000000E+00  0.44202511580E+03  0.44202511580E+03  0.00000000000E+00 0.  1.
          2   -1    0    0  501    0  0.00000000000E+00 -0.00000000000E+00 -0.21585225053E+04  0.21585225053E+04  0.00000000000E+00 0. -1.
         23    2    1    2    0    0  0.73113701232E+03  0.17974635812E+03 -0.86492026351E+03  0.11502968584E+04  0.90695734085E+02 0.  0.
        254    2    1    2    0    0 -0.73113701232E+03 -0.17974635812E+03 -0.85157712601E+03  0.14502507627E+04  0.90065175800E+03 0.  0.
        -24    2    4    4    0    0  0.50309179189E+02 -0.29725689010E+03 -0.38405014299E+02  0.31353935985E+03  0.77066937358E+02 0.  0.
         24    2    4    4    0    0 -0.78144619151E+03  0.11751053197E+03 -0.81317211171E+03  0.11367114029E+04  0.79981590405E+02 0.  0.
         13    1    3    3    0    0  0.66652205879E+03  0.15948461740E+03 -0.74283222034E+03  0.10106862548E+04  0.00000000000E+00 0. -1.
        -13    1    3    3    0    0  0.64614953527E+02  0.20261740716E+02 -0.12208804317E+03  0.13961060362E+03  0.00000000000E+00 0.  1.
          4    1    6    6  502    0 -0.76254327068E+03  0.10593892497E+03 -0.77386952551E+03  0.10915902794E+04  0.00000000000E+00 0. -1.
          3    1    5    5  503    0  0.47478908244E+02 -0.17723210326E+03  0.10777508429E+02  0.18379776887E+03  0.00000000000E+00 0. -1.
         -4    1    5    5    0  503  0.28302709447E+01 -0.12002478684E+03 -0.49182522729E+02  0.12974159098E+03  0.00000000000E+00 0.  1.
         -3    1    6    6    0  502 -0.18902920825E+02  0.11571607007E+02 -0.39302586203E+02  0.45121123509E+02  0.00000000000E+00 0.  1.
<mgrwt>
<rscale>  0 0.19535825E+04</rscale>
<asrwt>0</asrwt>
<pdfrwt beam="1">  1        2 0.33208038E+00 0.19535825E+04</pdfrwt>
<pdfrwt beam="2">  1       -2 0.68003864E-01 0.19535825E+04</pdfrwt>
<totfact> 0.10060465E+01</totfact>
</mgrwt>
</event>
<event>
12    1  0.1506149E-007  0.1291782E+04  0.7818608E-02  0.9036108E-01
         -1   -1    0    0    0  501 -0.00000000000E+00  0.00000000000E+00  0.18182497851E+03  0.18182497851E+03  0.00000000000E+00 0.  1.
          1   -1    0    0  501    0  0.00000000000E+00 -0.00000000000E+00 -0.22943764496E+04  0.22943764496E+04  0.00000000000E+00 0. -1.
         23    2    1    2    0    0 -0.57130630048E+02 -0.31938929425E+03 -0.55689487756E+03  0.65057808640E+03  0.88580537793E+02 0.  0.
        254    2    1    2    0    0  0.57130630048E+02  0.31938929425E+03 -0.15556565936E+04  0.18256233417E+04  0.89864326550E+03 0.  0.
        -24    2    4    4    0    0 -0.26936837841E+03  0.43762055144E+03 -0.12591764424E+04  0.13623396986E+04  0.79831516175E+02 0.  0.
         24    2    4    4    0    0  0.32649900845E+03 -0.11823125719E+03 -0.29648015119E+03  0.46328364316E+03  0.78428446807E+02 0.  0.
         13    1    3    3    0    0 -0.18128119901E+02 -0.26563972028E+03 -0.48062165814E+03  0.54944541858E+03  0.00000000000E+00 0.  1.
        -13    1    3    3    0    0 -0.39002510147E+02 -0.53749573971E+02 -0.76273219421E+02  0.10113266782E+03  0.00000000000E+00 0. -1.
          4    1    6    6  502    0  0.26332550531E+03 -0.10874011625E+03 -0.27478542224E+03  0.39581784056E+03  0.00000000000E+00 0. -1.
          1    1    5    5  503    0 -0.22157863543E+03  0.37319133412E+03 -0.97871355010E+03  0.10706302241E+04  0.00000000000E+00 0. -1.
         -2    1    5    5    0  503 -0.47789742979E+02  0.64429217321E+02 -0.28046289226E+03  0.29170947450E+03  0.00000000000E+00 0.  1.
         -3    1    6    6    0  502  0.63173503144E+02 -0.94911409450E+01 -0.21694728945E+02  0.67465802596E+02  0.00000000000E+00 0.  1.
<mgrwt>
<rscale>  0 0.12917816E+04</rscale>
<asrwt>0</asrwt>
<pdfrwt beam="1">  1        1 0.35298102E+00 0.12917816E+04</pdfrwt>
<pdfrwt beam="2">  1       -1 0.27973071E-01 0.12917816E+04</pdfrwt>
<totfact> 0.21356546E+01</totfact>
</mgrwt>
</event>
<event>
12    1  0.1506149E-007  0.1214656E+04  0.7818608E-02  0.9100124E-01
          1   -1    0    0  501    0  0.00000000000E+00  0.00000000000E+00  0.72646878758E+03  0.72646878758E+03  0.00000000000E+00 0. -1.
         -1   -1    0    0    0  501 -0.00000000000E+00 -0.00000000000E+00 -0.50772592461E+03  0.50772592461E+03  0.00000000000E+00 0.  1.
         23    2    1    2    0    0  0.10875900476E+03  0.11418506322E+03 -0.16273715644E+03  0.24287296562E+03  0.87390763595E+02 0.  0.
        254    2    1    2    0    0 -0.10875900476E+03 -0.11418506322E+03  0.38148001941E+03  0.99132174658E+03  0.90129076898E+03 0.  0.
        -24    2    4    4    0    0 -0.34021114417E+03 -0.35538198711E+03  0.41149150550E+03  0.64644429828E+03  0.80777424423E+02 0.  0.
         24    2    4    4    0    0  0.23145213941E+03  0.24119692389E+03 -0.30011486085E+02  0.34487744830E+03  0.79332944732E+02 0.  0.
         13    1    3    3    0    0  0.44985761153E+02  0.52127450701E+02 -0.13173263382E+03  0.14864210923E+03  0.00000000000E+00 0.  1.
        -13    1    3    3    0    0  0.63773243609E+02  0.62057612523E+02 -0.31004522617E+02  0.94230856386E+02  0.00000000000E+00 0. -1.
          2    1    6    6  502    0  0.21229559908E+03  0.24316394460E+03 -0.20628250787E+02  0.32345579307E+03  0.00000000000E+00 0. -1.
          1    1    5    5  503    0 -0.28467862557E+03 -0.32484578242E+03  0.38168058937E+03  0.57640851357E+03  0.00000000000E+00 0. -1.
         -4    1    5    5    0  503 -0.55532518606E+02 -0.30536204691E+02  0.29810916128E+02  0.70035784710E+02  0.00000000000E+00 0.  1.
         -1    1    6    6    0  502  0.19156540332E+02 -0.19670207166E+01 -0.93832352984E+01  0.21421655227E+02  0.00000000000E+00 0.  1.
<mgrwt>
<rscale>  0 0.12146556E+04</rscale>
<asrwt>0</asrwt>
<pdfrwt beam="1">  1        1 0.11176443E+00 0.12146556E+04</pdfrwt>
<pdfrwt beam="2">  1       -1 0.78111681E-01 0.12146556E+04</pdfrwt>
<totfact> 0.41778609E+01</totfact>
</mgrwt>
</event>
<event>
12    1  0.1506149E-007  0.1188477E+04  0.7818608E-02  0.9123003E-01
         -1   -1    0    0    0  501 -0.00000000000E+00  0.00000000000E+00  0.70130611305E+03  0.70130611305E+03  0.00000000000E+00 0.  1.
          1   -1    0    0  501    0  0.00000000000E+00 -0.00000000000E+00 -0.50351705033E+03  0.50351705033E+03  0.00000000000E+00 0. -1.
         23    2    1    2    0    0 -0.20636744605E+03  0.73467434079E+02  0.91450262651E+02  0.25434221110E+03  0.91333581721E+02 0.  0.
        254    2    1    2    0    0  0.20636744605E+03 -0.73467434079E+02  0.10633880007E+03  0.95048095228E+03  0.91876063998E+03 0.  0.
        -24    2    4    4    0    0  0.46948085589E+03 -0.10464579892E+03  0.33476137607E+03  0.59152135217E+03  0.80432045190E+02 0.  0.
         24    2    4    4    0    0 -0.26311340984E+03  0.31178364838E+02 -0.22842257600E+03  0.35895960010E+03  0.80463435225E+02 0.  0.
         13    1    3    3    0    0 -0.20309535631E+03  0.57757853832E+02  0.60771142755E+02  0.21971987900E+03  0.00000000000E+00 0. -1.
        -13    1    3    3    0    0 -0.32720897374E+01  0.15709580247E+02  0.30679119896E+02  0.34622332105E+02  0.00000000000E+00 0.  1.
          4    1    6    6  502    0 -0.16310225818E+03  0.54070612149E+02 -0.11933515562E+03  0.20920529891E+03  0.00000000000E+00 0. -1.
          3    1    5    5  503    0  0.16896763014E+03 -0.59488238345E+02  0.85542153323E+02  0.19851037890E+03  0.00000000000E+00 0. -1.
         -4    1    5    5    0  503  0.30051322575E+03 -0.45157560572E+02  0.24921922274E+03  0.39301097327E+03  0.00000000000E+00 0.  1.
         -3    1    6    6    0  502 -0.10001115166E+03 -0.22892247311E+02 -0.10908742038E+03  0.14975430120E+03  0.00000000000E+00 0.  1.
<mgrwt>
<rscale>  0 0.11884773E+04</rscale>
<asrwt>0</asrwt>
<pdfrwt beam="1">  1        1 0.77464162E-01 0.11884773E+04</pdfrwt>
<pdfrwt beam="2">  1       -1 0.10789325E+00 0.11884773E+04</pdfrwt>
<totfact> 0.34749756E+01</totfact>
</mgrwt>
</event>
<event>
12    1  0.1506149E-007  0.1506128E+04  0.7818608E-02  0.8880388E-01
          1   -1    0    0  501    0  0.00000000000E+00  0.00000000000E+00  0.23712049262E+04  0.23712049262E+04  0.00000000000E+00 0. -1.
         -1   -1    0    0    0  501 -0.00000000000E+00 -0.00000000000E+00 -0.23916345037E+03  0.23916345037E+03  0.00000000000E+00 0.  1.
         23    2    1    2    0    0  0.10719145290E+03 -0.28900176852E+03  0.13225306272E+04  0.13610731378E+04  0.91764898658E+02 0.  0.
        254    2    1    2    0    0 -0.10719145290E+03  0.28900176852E+03  0.80951084861E+03  0.12492952388E+04  0.90023260877E+03 0.  0.
        -24    2    4    4    0    0  0.31956472394E+03  0.35572052790E+03  0.57481555498E+03  0.75175706935E+03  0.77891349379E+02 0.  0.
         24    2    4    4    0    0 -0.42675617684E+03 -0.66718759380E+02  0.23469529363E+03  0.49753816946E+03  0.76747129519E+02 0.  0.
         11    1    3    3    0    0  0.68801736421E+01 -0.31479715469E+02  0.54835809267E+02  0.63602478358E+02  0.00000000000E+00 0.  1.
        -11    1    3    3    0    0  0.10031127926E+03 -0.25752205305E+03  0.12676948180E+04  0.12974706594E+04  0.00000000000E+00 0. -1.
          4    1    6    6  502    0 -0.29898997578E+02 -0.23330069185E+00 -0.32273850097E+01  0.30073584744E+02  0.00000000000E+00 0. -1.
          3    1    5    5  503    0  0.44504688714E+02  0.21638797323E+02  0.83257189320E+02  0.96853830284E+02  0.00000000000E+00 0. -1.
         -4    1    5    5    0  503  0.27506003523E+03  0.33408173058E+03  0.49155836566E+03  0.65490323906E+03  0.00000000000E+00 0.  1.
         -3    1    6    6    0  502 -0.39685717926E+03 -0.66485458688E+02  0.23792267864E+03  0.46746458471E+03  0.00000000000E+00 0.  1.
<mgrwt>
<rscale>  0 0.15061282E+04</rscale>
<asrwt>0</asrwt>
<pdfrwt beam="1">  1        1 0.36480074E+00 0.15061282E+04</pdfrwt>
<pdfrwt beam="2">  1       -1 0.36794379E-01 0.15061282E+04</pdfrwt>
<totfact> 0.11423990E+01</totfact>
</mgrwt>
</event>
<event>
12    1  0.1506149E-007  0.1198174E+04  0.7818608E-02  0.9114456E-01
          2   -1    0    0  501    0  0.00000000000E+00  0.00000000000E+00  0.18139502689E+04  0.18139502689E+04  0.00000000000E+00 0. -1.
         -2   -1    0    0    0  501 -0.00000000000E+00 -0.00000000000E+00 -0.19785850714E+03  0.19785850714E+03  0.00000000000E+00 0.  1.
         23    2    1    2    0    0 -0.11881546115E+03  0.61264870128E+02  0.90037758653E+01  0.16340770349E+03  0.93544168494E+02 0.  0.
        254    2    1    2    0    0  0.11881546115E+03 -0.61264870128E+02  0.16070879859E+04  0.18484010726E+04  0.90331845576E+03 0.  0.
        -24    2    4    4    0    0  0.23956559876E+03 -0.43095727153E+03  0.10651246478E+04  0.11764380523E+04  0.80000809228E+02 0.  0.
         24    2    4    4    0    0 -0.12075013761E+03  0.36969240140E+03  0.54196333807E+03  0.67196302027E+03  0.80975140719E+02 0.  0.
         13    1    3    3    0    0 -0.46076107455E+02 -0.22258744533E+02  0.12196318966E+02  0.52604273426E+02  0.00000000000E+00 0. -1.
        -13    1    3    3    0    0 -0.72739353695E+02  0.83523614661E+02 -0.31925431006E+01  0.11080343006E+03  0.00000000000E+00 0.  1.
          2    1    6    6  502    0 -0.95821776792E+02  0.30235828915E+03  0.38123161202E+03  0.49592327020E+03  0.00000000000E+00 0. -1.
          1    1    5    5  503    0  0.16512830877E+03 -0.25636411301E+03  0.57520333291E+03  0.65103670479E+03  0.00000000000E+00 0. -1.
         -2    1    5    5    0  503  0.74437289990E+02 -0.17459315851E+03  0.48992131492E+03  0.52540134750E+03  0.00000000000E+00 0.  1.
         -1    1    6    6    0  502 -0.24928360822E+02  0.67334112251E+02  0.16073172604E+03  0.17603975007E+03  0.00000000000E+00 0.  1.
<mgrwt>
<rscale>  0 0.11981744E+04</rscale>
<asrwt>0</asrwt>
<pdfrwt beam="1">  1        2 0.27906926E+00 0.11981744E+04</pdfrwt>
<pdfrwt beam="2">  1       -2 0.30439772E-01 0.11981744E+04</pdfrwt>
<totfact> 0.83499282E+01</totfact>
</mgrwt>
</event>
<event>
12    1  0.1506149E-007  0.2288170E+04  0.7818608E-02  0.8482600E-01
         -1   -1    0    0    0  501 -0.00000000000E+00  0.00000000000E+00  0.68697506867E+03  0.68697506867E+03  0.00000000000E+00 0.  1.
          1   -1    0    0  501    0  0.00000000000E+00 -0.00000000000E+00 -0.19053533939E+04  0.19053533939E+04  0.00000000000E+00 0. -1.
         23    2    1    2    0    0  0.67928861139E+03 -0.35946460998E+03 -0.11703129180E+04  0.14030581471E+04  0.91060499230E+02 0.  0.
        254    2    1    2    0    0 -0.67928861139E+03  0.35946460998E+03 -0.48065407199E+02  0.11892703155E+04  0.90631439169E+03 0.  0.
        -24    2    4    4    0    0 -0.23073321534E+03 -0.25233141554E+03 -0.20903204742E+03  0.40921140438E+03  0.82768452308E+02 0.  0.
         24    2    4    4    0    0 -0.44855539605E+03  0.61179602552E+03  0.16096664022E+03  0.78005891113E+03  0.84174374925E+02 0.  0.
         11    1    3    3    0    0  0.68864579713E+02 -0.69416775753E+02 -0.16129903873E+03  0.18862237139E+03  0.00000000000E+00 0.  1.
        -11    1    3    3    0    0  0.61042403168E+03 -0.29004783423E+03 -0.10090138793E+04  0.12144357757E+04  0.00000000000E+00 0. -1.
          4    1    6    6  502    0 -0.11873937134E+03  0.21777846446E+03  0.74547373262E+02  0.25900542224E+03  0.00000000000E+00 0. -1.
          1    1    5    5  503    0 -0.19462544343E+03 -0.22336456822E+03 -0.14404558257E+03  0.32942362305E+03  0.00000000000E+00 0. -1.
         -4    1    5    5    0  503 -0.36107771912E+02 -0.28966847324E+02 -0.64986464851E+02  0.79787781334E+02  0.00000000000E+00 0.  1.
         -3    1    6    6    0  502 -0.32981602471E+03  0.39401756107E+03  0.86419266956E+02  0.52105348889E+03  0.00000000000E+00 0.  1.
<mgrwt>
<rscale>  0 0.22881698E+04</rscale>
<asrwt>0</asrwt>
<pdfrwt beam="1">  1        1 0.29313129E+00 0.22881698E+04</pdfrwt>
<pdfrwt beam="2">  1       -1 0.10568847E+00 0.22881698E+04</pdfrwt>
<totfact> 0.26207623E+00</totfact>
</mgrwt>
</event>
<event>
12    1  0.1506149E-007  0.2972095E+04  0.7818608E-02  0.8251745E-01
          2   -1    0    0  501    0  0.00000000000E+00  0.00000000000E+00  0.11185846547E+04  0.11185846547E+04  0.00000000000E+00 0.  1.
         -2   -1    0    0    0  501 -0.00000000000E+00 -0.00000000000E+00 -0.19742240048E+04  0.19742240048E+04  0.00000000000E+00 0. -1.
         23    2    1    2    0    0  0.63489743060E+03  0.10233398637E+04 -0.10175362808E+04  0.15792898948E+04  0.91963388806E+02 0.  0.
        254    2    1    2    0    0 -0.63489743060E+03 -0.10233398637E+04  0.16189693081E+03  0.15135187647E+04  0.90233542043E+03 0.  0.
        -24    2    4    4    0    0 -0.33857841236E+03  0.67211505975E+02 -0.58554780396E+02  0.35937239493E+03  0.81037818834E+02 0.  0.
         24    2    4    4    0    0 -0.29631901824E+03 -0.10905513697E+04  0.22045171120E+03  0.11541463698E+04  0.79672049448E+02 0.  0.
         11    1    3    3    0    0  0.63269444687E+03  0.10023384464E+04 -0.10085982139E+04  0.15563595283E+04  0.00000000000E+00 0. -1.
        -11    1    3    3    0    0  0.22029837345E+01  0.21001417340E+02 -0.89380669601E+01  0.22930366517E+02  0.00000000000E+00 0.  1.
          2    1    6    6  502    0 -0.27812897309E+03 -0.10684280823E+04  0.21125935573E+03  0.11240661938E+04  0.00000000000E+00 0. -1.
          3    1    5    5  503    0 -0.78253859603E+02  0.51606546118E+02 -0.17854814577E+02  0.95423773498E+02  0.00000000000E+00 0. -1.
         -4    1    5    5    0  503 -0.26032455275E+03  0.15604959857E+02 -0.40699965820E+02  0.26394862143E+03  0.00000000000E+00 0.  1.
         -1    1    6    6    0  502 -0.18190045159E+02 -0.22123287375E+02  0.91923554760E+01  0.30080175969E+02  0.00000000000E+00 0.  1.
<mgrwt>
<rscale>  0 0.29720947E+04</rscale>
<asrwt>0</asrwt>
<pdfrwt beam="1">  1        2 0.17208995E+00 0.29720947E+04</pdfrwt>
<pdfrwt beam="2">  1       -2 0.30372677E+00 0.29720947E+04</pdfrwt>
<totfact> 0.54896338E-01</totfact>
</mgrwt>
</event>
<event>
12    1  0.1506149E-007  0.1268415E+04  0.7818608E-02  0.9054994E-01
          2   -1    0    0  501    0  0.00000000000E+00  0.00000000000E+00  0.92821319006E+03  0.92821319006E+03  0.00000000000E+00 0.  1.
         -2   -1    0    0    0  501 -0.00000000000E+00 -0.00000000000E+00 -0.43332659414E+03  0.43332659414E+03  0.00000000000E+00 0. -1.
         23    2    1    2    0    0  0.31246355195E+01 -0.23957319332E+03  0.34787958305E+03  0.43038385517E+03  0.82492303754E+02 0.  0.
        254    2    1    2    0    0 -0.31246355195E+01  0.23957319332E+03  0.14700701286E+03  0.93115592903E+03  0.88771348082E+03 0.  0.
        -24    2    4    4    0    0  0.16267434598E+03 -0.29369509066E+03 -0.13185824572E+02  0.34511326014E+03  0.78800680469E+02 0.  0.
         24    2    4    4    0    0 -0.16579898150E+03  0.53326828398E+03  0.16019283743E+03  0.58604266889E+03  0.76940883979E+02 0.  0.
         11    1    3    3    0    0  0.42243151291E+02 -0.12871641626E+03  0.17462800087E+03  0.22101433965E+03  0.00000000000E+00 0. -1.
        -11    1    3    3    0    0 -0.39118515772E+02 -0.11085677706E+03  0.17325158219E+03  0.20936951552E+03  0.00000000000E+00 0.  1.
          4    1    6    6  502    0 -0.44217864059E+02  0.88712101157E+02  0.32599034900E+01  0.99175013811E+02  0.00000000000E+00 0. -1.
          1    1    5    5  503    0  0.42193774792E+02 -0.22817716673E+02 -0.78230053309E+01  0.48602080591E+02  0.00000000000E+00 0. -1.
         -2    1    5    5    0  503  0.12048057118E+03 -0.27087737398E+03 -0.53628192409E+01  0.29651117955E+03  0.00000000000E+00 0.  1.
         -3    1    6    6    0  502 -0.12158111744E+03  0.44455618283E+03  0.15693293394E+03  0.48686765508E+03  0.00000000000E+00 0.  1.
<mgrwt>
<rscale>  0 0.12684155E+04</rscale>
<asrwt>0</asrwt>
<pdfrwt beam="1">  1        2 0.14280203E+00 0.12684155E+04</pdfrwt>
<pdfrwt beam="2">  1       -2 0.66665630E-01 0.12684155E+04</pdfrwt>
<totfact> 0.57009185E+01</totfact>
</mgrwt>
</event>
<event>
12    1  0.1506149E-007  0.1234260E+04  0.7818608E-02  0.9083386E-01
         -2   -1    0    0    0  501 -0.00000000000E+00  0.00000000000E+00  0.21381935654E+03  0.21381935654E+03  0.00000000000E+00 0.  1.
          2   -1    0    0  501    0  0.00000000000E+00 -0.00000000000E+00 -0.17811738209E+04  0.17811738209E+04  0.00000000000E+00 0. -1.
         23    2    1    2    0    0  0.84489442142E+02 -0.17081632062E+03 -0.70576681416E+03  0.73692112135E+03  0.92893820508E+02 0.  0.
        254    2    1    2    0    0 -0.84489442142E+02  0.17081632062E+03 -0.86158765015E+03  0.12580720561E+04  0.89671363216E+03 0.  0.
        -24    2    4    4    0    0 -0.52860536722E+02 -0.17393542511E+03  0.10778376206E+03  0.22544250718E+03  0.78480674230E+02 0.  0.
         24    2    4    4    0    0 -0.31628905420E+02  0.34475174573E+03 -0.96937141222E+03  0.10326295489E+04  0.82393546719E+02 0.  0.
         11    1    3    3    0    0 -0.25128289384E+01 -0.31740825683E+02 -0.25971563762E+03  0.26166009774E+03  0.00000000000E+00 0. -1.
        -11    1    3    3    0    0  0.87002271080E+02 -0.13907549493E+03 -0.44605117654E+03  0.47526102361E+03  0.00000000000E+00 0.  1.
          4    1    6    6  502    0 -0.83678225428E+01  0.28764652354E+03 -0.86257254554E+03  0.90930849511E+03  0.00000000000E+00 0. -1.
          3    1    5    5  503    0 -0.70754996662E+02 -0.15930503874E+03  0.10050037206E+03  0.20120807564E+03  0.00000000000E+00 0. -1.
         -4    1    5    5    0  503  0.17894459940E+02 -0.14630386373E+02  0.72833900073E+01  0.24234431538E+02  0.00000000000E+00 0.  1.
         -3    1    6    6    0  502 -0.23261082877E+02  0.57105222187E+02 -0.10679886667E+03  0.12332105376E+03  0.00000000000E+00 0.  1.
<mgrwt>
<rscale>  0 0.12342600E+04</rscale>
<asrwt>0</asrwt>
<pdfrwt beam="1">  1        2 0.27402673E+00 0.12342600E+04</pdfrwt>
<pdfrwt beam="2">  1       -2 0.32895287E-01 0.12342600E+04</pdfrwt>
<totfact> 0.75038281E+01</totfact>
</mgrwt>
</event>
<event>
12    1  0.1506149E-007  0.1081152E+04  0.7818608E-02  0.9223760E-01
          2   -1    0    0  501    0  0.00000000000E+00  0.00000000000E+00  0.10006859048E+04  0.10006859048E+04  0.00000000000E+00 0. -1.
         -2   -1    0    0    0  501 -0.00000000000E+00 -0.00000000000E+00 -0.29202195964E+03  0.29202195964E+03  0.00000000000E+00 0.  1.
         23    2    1    2    0    0  0.72474410267E+01  0.13783227366E+03  0.20678645020E+03  0.26594701769E+03  0.94429440164E+02 0.  0.
        254    2    1    2    0    0 -0.72474410267E+01 -0.13783227366E+03  0.50187749499E+03  0.10267608468E+04  0.88504607531E+03 0.  0.
        -24    2    4    4    0    0  0.12732488666E+03  0.20459826238E+03 -0.13481160664E+03  0.28770062060E+03  0.80779960857E+02 0.  0.
         24    2    4    4    0    0 -0.13457232769E+03 -0.34243053604E+03  0.63668910163E+03  0.73906022617E+03  0.73950134439E+02 0.  0.
         13    1    3    3    0    0 -0.21975899311E+02  0.47636484887E+02  0.14128209692E+03  0.15070768313E+03  0.00000000000E+00 0.  1.
        -13    1    3    3    0    0  0.29223340338E+02  0.90195788774E+02  0.65504353280E+02  0.11523933457E+03  0.00000000000E+00 0. -1.
          4    1    6    6  502    0 -0.70152568616E+02 -0.12392762105E+03  0.30586460751E+03  0.33739086571E+03  0.00000000000E+00 0. -1.
          1    1    5    5  503    0 -0.27816498713E+01  0.92735934868E+01 -0.28415238202E+02  0.30019374981E+02  0.00000000000E+00 0. -1.
         -2    1    5    5    0  503  0.13010653654E+03  0.19532466889E+03 -0.10639636844E+03  0.25768124562E+03  0.00000000000E+00 0.  1.
         -1    1    6    6    0  502 -0.64419759075E+02 -0.21850291499E+03  0.33082449412E+03  0.40166936046E+03  0.00000000000E+00 0.  1.
<mgrwt>
<rscale>  0 0.10811517E+04</rscale>
<asrwt>0</asrwt>
<pdfrwt beam="1">  1        2 0.15395168E+00 0.10811517E+04</pdfrwt>
<pdfrwt beam="2">  1       -2 0.44926456E-01 0.10811517E+04</pdfrwt>
<totfact> 0.11745870E+02</totfact>
</mgrwt>
</event>
<event>
12    1  0.1506149E-007  0.1216806E+04  0.7818608E-02  0.9098272E-01
         -2   -1    0    0    0  501 -0.00000000000E+00  0.00000000000E+00  0.31528194276E+03  0.31528194276E+03  0.00000000000E+00 0.  1.
          2   -1    0    0  501    0  0.00000000000E+00 -0.00000000000E+00 -0.11740411476E+04  0.11740411476E+04  0.00000000000E+00 0. -1.
         23    2    1    2    0    0  0.25147129911E+03 -0.23313063098E+02 -0.12842710020E+03  0.29878413871E+03  0.94853193373E+02 0.  0.
        254    2    1    2    0    0 -0.25147129911E+03  0.23313063098E+02 -0.73033210467E+03  0.11905389517E+04  0.90565815800E+03 0.  0.
        -24    2    4    4    0    0 -0.33379433158E+03  0.39453502770E+03 -0.27210270809E+03  0.58941561936E+03  0.79336906400E+02 0.  0.
         24    2    4    4    0    0  0.82323032472E+02 -0.37122196461E+03 -0.45822939659E+03  0.60112333232E+03  0.82415120444E+02 0.  0.
         11    1    3    3    0    0  0.20502357102E+03 -0.49216479025E+02 -0.76060860573E+02  0.22414767675E+03  0.00000000000E+00 0.  1.
        -11    1    3    3    0    0  0.46447728089E+02  0.25903415926E+02 -0.52366239630E+02  0.74636461962E+02  0.00000000000E+00 0. -1.
          2    1    6    6  502    0 -0.16295393726E+02 -0.35524111150E+02 -0.41989677467E+02  0.57364059684E+02  0.00000000000E+00 0. -1.
          3    1    5    5  503    0 -0.37252307462E+01  0.33632811272E+01  0.52615796922E+01  0.72713977274E+01  0.00000000000E+00 0. -1.
         -4    1    5    5    0  503 -0.33006910083E+03  0.39117174658E+03 -0.27736428778E+03  0.58214422163E+03  0.00000000000E+00 0.  1.
         -1    1    6    6    0  502  0.98618426198E+02 -0.33569785346E+03 -0.41623971912E+03  0.54375927263E+03  0.00000000000E+00 0.  1.
<mgrwt>
<rscale>  0 0.12168056E+04</rscale>
<asrwt>0</asrwt>
<pdfrwt beam="1">  1        2 0.18062172E+00 0.12168056E+04</pdfrwt>
<pdfrwt beam="2">  1       -2 0.48504913E-01 0.12168056E+04</pdfrwt>
<totfact> 0.77880154E+01</totfact>
</mgrwt>
</event>
<event>
12    1  0.1506149E-007  0.2242817E+04  0.7818608E-02  0.8500815E-01
         -2   -1    0    0    0  501 -0.00000000000E+00  0.00000000000E+00  0.14506270474E+04  0.14506270474E+04  0.00000000000E+00 0.  1.
          2   -1    0    0  501    0  0.00000000000E+00 -0.00000000000E+00 -0.86690555895E+03  0.86690555895E+03  0.00000000000E+00 0. -1.
         23    2    1    2    0    0 -0.27386194733E+03 -0.70391312474E+03  0.82189143418E+03  0.11198417686E+04  0.89699519774E+02 0.  0.
        254    2    1    2    0    0  0.27386194733E+03  0.70391312474E+03 -0.23816994568E+03  0.11976908377E+04  0.89846778819E+03 0.  0.
        -24    2    4    4    0    0 -0.25500321103E+03  0.14633058215E+02 -0.18143261370E+03  0.32345264020E+03  0.80393116045E+02 0.  0.
         24    2    4    4    0    0  0.52886515836E+03  0.68928006653E+03 -0.56737331982E+02  0.87423819755E+03  0.79170293539E+02 0.  0.
         11    1    3    3    0    0 -0.12945243225E+03 -0.21652626629E+03  0.26932035095E+03  0.36901898006E+03  0.00000000000E+00 0. -1.
        -11    1    3    3    0    0 -0.14440951508E+03 -0.48738685846E+03  0.55257108322E+03  0.75082278858E+03  0.00000000000E+00 0.  1.
          4    1    6    6  502    0  0.49833126695E+03  0.61163942940E+03 -0.53031613304E+02  0.79072700423E+03  0.00000000000E+00 0. -1.
          3    1    5    5  503    0 -0.24517960997E+03 -0.15909965880E+01 -0.18050638158E+03  0.30446366977E+03  0.00000000000E+00 0. -1.
         -4    1    5    5    0  503 -0.98236010574E+01  0.16224054803E+02 -0.92623211811E+00  0.18988970428E+02  0.00000000000E+00 0.  1.
         -3    1    6    6    0  502  0.30533891408E+02  0.77640637128E+02 -0.37057186774E+01  0.83511193316E+02  0.00000000000E+00 0.  1.
<mgrwt>
<rscale>  0 0.22428167E+04</rscale>
<asrwt>0</asrwt>
<pdfrwt beam="1">  1        2 0.13337009E+00 0.22428167E+04</pdfrwt>
<pdfrwt beam="2">  1       -2 0.22317339E+00 0.22428167E+04</pdfrwt>
<totfact> 0.26545216E+00</totfact>
</mgrwt>
</event>
<event>
12    1  0.1506149E-007  0.2047314E+04  0.7818608E-02  0.8584814E-01
         -1   -1    0    0    0  501 -0.00000000000E+00  0.00000000000E+00  0.33745495600E+03  0.33745495600E+03  0.00000000000E+00 0.  1.
          1   -1    0    0  501    0  0.00000000000E+00 -0.00000000000E+00 -0.31052258674E+04  0.31052258674E+04  0.00000000000E+00 0. -1.
         23    2    1    2    0    0  0.28974599620E+02 -0.11775510727E+03 -0.25709857022E+04  0.25754430352E+04  0.90738931647E+02 0.  0.
        254    2    1    2    0    0 -0.28974599620E+02  0.11775510727E+03 -0.19678520922E+03  0.86723778826E+03  0.83586552154E+03 0.  0.
        -24    2    4    4    0    0 -0.32599993878E+03 -0.14344870803E+03 -0.27400903961E+03  0.45636716284E+03  0.79602396973E+02 0.  0.
         24    2    4    4    0    0  0.29702533916E+03  0.26120381530E+03  0.77223830393E+02  0.41087062542E+03  0.79997910069E+02 0.  0.
         13    1    3    3    0    0  0.11671910919E+02 -0.11756415472E+03 -0.24808473418E+04  0.24836588126E+04  0.00000000000E+00 0. -1.
        -13    1    3    3    0    0  0.17302688701E+02 -0.19095254737E+00 -0.90138360437E+02  0.91784222617E+02  0.00000000000E+00 0.  1.
          4    1    6    6  502    0  0.31469218309E+02  0.10549619980E+02 -0.11415543883E+02  0.35098729676E+02  0.00000000000E+00 0. -1.
          1    1    5    5  503    0 -0.95500931689E+02 -0.10474026821E+02 -0.48815829957E+02  0.10776417979E+03  0.00000000000E+00 0. -1.
         -2    1    5    5    0  503 -0.23049900709E+03 -0.13297468121E+03 -0.22519320966E+03  0.34860298305E+03  0.00000000000E+00 0.  1.
         -3    1    6    6    0  502  0.26555612085E+03  0.25065419533E+03  0.88639374276E+02  0.37577189574E+03  0.00000000000E+00 0.  1.
<mgrwt>
<rscale>  0 0.20473142E+04</rscale>
<asrwt>0</asrwt>
<pdfrwt beam="1">  1        1 0.47772707E+00 0.20473142E+04</pdfrwt>
<pdfrwt beam="2">  1       -1 0.51916145E-01 0.20473142E+04</pdfrwt>
<totfact> 0.17295774E+00</totfact>
</mgrwt>
</event>
<event>
12    1  0.1506149E-007  0.1322921E+04  0.7818608E-02  0.9011584E-01
          1   -1    0    0  501    0  0.00000000000E+00  0.00000000000E+00  0.10286395782E+04  0.10286395782E+04  0.00000000000E+00 0. -1.
         -1   -1    0    0    0  501 -0.00000000000E+00 -0.00000000000E+00 -0.42534788277E+03  0.42534788277E+03  0.00000000000E+00 0.  1.
         23    2    1    2    0    0  0.25956369876E+03 -0.38172776018E+02  0.41823073390E+03  0.50237982534E+03  0.92941205025E+02 0.  0.
        254    2    1    2    0    0 -0.25956369876E+03  0.38172776018E+02  0.18506096151E+03  0.95160763561E+03  0.89581195467E+03 0.  0.
        -24    2    4    4    0    0 -0.38083180687E+03 -0.34116546202E+03  0.17151189780E+03  0.54528519346E+03  0.80578368867E+02 0.  0.
         24    2    4    4    0    0  0.12126810811E+03  0.37933823804E+03  0.13549063712E+02  0.40632244214E+03  0.79441154203E+02 0.  0.
         11    1    3    3    0    0  0.40768596267E+02 -0.42788204409E+02  0.78419712786E+02  0.98196538797E+02  0.00000000000E+00 0.  1.
        -11    1    3    3    0    0  0.21879510250E+03  0.46154283911E+01  0.33981102111E+03  0.40418328655E+03  0.00000000000E+00 0. -1.
          2    1    6    6  502    0  0.10522642773E+03  0.37488854706E+03  0.11465955054E+02  0.38954523734E+03  0.00000000000E+00 0. -1.
          3    1    5    5  503    0 -0.36693217238E+03 -0.30559154429E+03  0.17060538163E+03  0.50708146023E+03  0.00000000000E+00 0. -1.
         -4    1    5    5    0  503 -0.13899634490E+02 -0.35573917731E+02  0.90651616971E+00  0.38203733237E+02  0.00000000000E+00 0.  1.
         -1    1    6    6    0  502  0.16041680380E+02  0.44496909713E+01  0.20831086579E+01  0.16777204798E+02  0.00000000000E+00 0.  1.
<mgrwt>
<rscale>  0 0.13229205E+04</rscale>
<asrwt>0</asrwt>
<pdfrwt beam="1">  1        1 0.15825224E+00 0.13229205E+04</pdfrwt>
<pdfrwt beam="2">  1       -1 0.65438136E-01 0.13229205E+04</pdfrwt>
<totfact> 0.33378814E+01</totfact>
</mgrwt>
</event>
<event>
12    1  0.1506149E-007  0.2707118E+04  0.7818608E-02  0.8332699E-01
         -1   -1    0    0    0  501 -0.00000000000E+00  0.00000000000E+00  0.11118351193E+04  0.11118351193E+04  0.00000000000E+00 0.  1.
          1   -1    0    0  501    0  0.00000000000E+00 -0.00000000000E+00 -0.16478356294E+04  0.16478356294E+04  0.00000000000E+00 0. -1.
         23    2    1    2    0    0 -0.41641558124E+03 -0.20364652800E+02 -0.13883076529E+04  0.14528348593E+04  0.97541447110E+02 0.  0.
        254    2    1    2    0    0  0.41641558124E+03  0.20364652800E+02  0.85230714285E+03  0.13068358894E+04  0.89865228020E+03 0.  0.
        -24    2    4    4    0    0  0.26345436526E+03  0.37802015945E+03  0.13429829381E+03  0.48638869949E+03  0.78933464073E+02 0.  0.
         24    2    4    4    0    0  0.15296121598E+03 -0.35765550665E+03  0.71800884904E+03  0.82044718991E+03  0.79260892617E+02 0.  0.
         11    1    3    3    0    0 -0.34117648636E+03 -0.54394687151E+02 -0.11073228923E+04  0.11599673119E+04  0.00000000000E+00 0. -1.
        -11    1    3    3    0    0 -0.75239094881E+02  0.34030034352E+02 -0.28098476061E+03  0.29286754742E+03  0.00000000000E+00 0.  1.
          2    1    6    6  502    0  0.13134593523E+03 -0.23099530326E+03  0.52761292494E+03  0.59075035624E+03  0.00000000000E+00 0. -1.
          3    1    5    5  503    0  0.79806022962E+01  0.22556087693E+02 -0.93314588620E+01  0.25681573735E+02  0.00000000000E+00 0. -1.
         -4    1    5    5    0  503  0.25547376296E+03  0.35546407176E+03  0.14362975267E+03  0.46070712576E+03  0.00000000000E+00 0.  1.
         -1    1    6    6    0  502  0.21615280745E+02 -0.12666020340E+03  0.19039592410E+03  0.22969683368E+03  0.00000000000E+00 0.  1.
<mgrwt>
<rscale>  0 0.27071177E+04</rscale>
<asrwt>0</asrwt>
<pdfrwt beam="1">  1        1 0.25351317E+00 0.27071177E+04</pdfrwt>
<pdfrwt beam="2">  1       -1 0.17105156E+00 0.27071177E+04</pdfrwt>
<totfact> 0.10914082E+00</totfact>
</mgrwt>
</event>
<event>
12    1  0.1506149E-007  0.1254095E+04  0.7818608E-02  0.9066782E-01
         -2   -1    0    0    0  501 -0.00000000000E+00  0.00000000000E+00  0.21600140337E+03  0.21600140337E+03  0.00000000000E+00 0.  1.
          2   -1    0    0  501    0  0.00000000000E+00 -0.00000000000E+00 -0.18203061448E+04  0.18203061448E+04  0.00000000000E+00 0. -1.
         23    2    1    2    0    0 -0.25354985905E+02  0.29062744492E+03 -0.47051512694E+03  0.56118405033E+03  0.91846973860E+02 0.  0.
        254    2    1    2    0    0  0.25354985905E+02 -0.29062744492E+03 -0.11337896145E+04  0.14751234979E+04  0.89744262042E+03 0.  0.
        -24    2    4    4    0    0  0.29242574420E+03  0.10581068387E+02 -0.39618701812E+02  0.30639855463E+03  0.81765872273E+02 0.  0.
         24    2    4    4    0    0 -0.26707075829E+03 -0.30120851331E+03 -0.10941709127E+04  0.11687249432E+04  0.81576027888E+02 0.  0.
         11    1    3    3    0    0  0.98270686845E+01  0.19069927656E+03 -0.23398792591E+03  0.30201512351E+03  0.00000000000E+00 0.  1.
        -11    1    3    3    0    0 -0.35182054589E+02  0.99928168362E+02 -0.23652720103E+03  0.25916892681E+03  0.00000000000E+00 0. -1.
          2    1    6    6  502    0 -0.35147389737E+02 -0.56383972350E+02 -0.27374372947E+03  0.28169153478E+03  0.00000000000E+00 0. -1.
          3    1    5    5  503    0  0.67131430635E+02 -0.18211601591E+02  0.18456103339E+02  0.71964707754E+02  0.00000000000E+00 0. -1.
         -4    1    5    5    0  503  0.22529431356E+03  0.28792669978E+02 -0.58074805151E+02  0.23443384688E+03  0.00000000000E+00 0.  1.
         -1    1    6    6    0  502 -0.23192336856E+03 -0.24482454096E+03 -0.82042718322E+03  0.88703340845E+03  0.00000000000E+00 0.  1.
<mgrwt>
<rscale>  0 0.12540952E+04</rscale>
<asrwt>0</asrwt>
<pdfrwt beam="1">  1        2 0.28004710E+00 0.12540952E+04</pdfrwt>
<pdfrwt beam="2">  1       -2 0.33230985E-01 0.12540952E+04</pdfrwt>
<totfact> 0.69929683E+01</totfact>
</mgrwt>
</event>
<event>
12    1  0.1506149E-007  0.1446662E+04  0.7818608E-02  0.8920718E-01
          2   -1    0    0  501    0  0.00000000000E+00  0.00000000000E+00  0.80327265063E+03  0.80327265063E+03  0.00000000000E+00 0.  1.
         -2   -1    0    0    0  501 -0.00000000000E+00 -0.00000000000E+00 -0.65134552664E+03  0.65134552664E+03  0.00000000000E+00 0. -1.
         23    2    1    2    0    0  0.23084346831E+03 -0.57344331453E+02  0.41625540878E+03  0.48757549421E+03  0.88793119136E+02 0.  0.
        254    2    1    2    0    0 -0.23084346831E+03  0.57344331453E+02 -0.26432828479E+03  0.96704268306E+03  0.89929140411E+03 0.  0.
        -24    2    4    4    0    0 -0.91002852694E+02 -0.36621197509E+03 -0.33044456580E+03  0.50781780787E+03  0.79325815577E+02 0.  0.
         24    2    4    4    0    0 -0.13984061562E+03  0.42355630655E+03  0.66116281014E+02  0.45922487519E+03  0.86952750332E+02 0.  0.
         11    1    3    3    0    0  0.22197273620E+03 -0.65558061883E+02  0.41530961732E+03  0.47544908595E+03  0.00000000000E+00 0.  1.
        -11    1    3    3    0    0  0.88707321157E+01  0.82137304297E+01  0.94579145890E+00  0.12126408261E+02  0.00000000000E+00 0. -1.
          4    1    6    6  502    0 -0.70540396066E+02  0.29255167418E+03  0.11108905567E+02  0.30114089281E+03  0.00000000000E+00 0. -1.
          1    1    5    5  503    0 -0.11074249167E+02 -0.12458999372E+02  0.73682840484E+00  0.16685579884E+02  0.00000000000E+00 0. -1.
         -2    1    5    5    0  503 -0.79928603527E+02 -0.35375297572E+03 -0.33118139421E+03  0.49113222798E+03  0.00000000000E+00 0.  1.
         -3    1    6    6    0  502 -0.69300219553E+02  0.13100463237E+03  0.55007375447E+02  0.15808398238E+03  0.00000000000E+00 0.  1.
<mgrwt>
<rscale>  0 0.14466624E+04</rscale>
<asrwt>0</asrwt>
<pdfrwt beam="1">  1        2 0.12358041E+00 0.14466624E+04</pdfrwt>
<pdfrwt beam="2">  1       -2 0.10020700E+00 0.14466624E+04</pdfrwt>
<totfact> 0.27321331E+01</totfact>
</mgrwt>
</event>
<event>
12    1  0.1506149E-007  0.1992902E+04  0.7818608E-02  0.8609946E-01
         -2   -1    0    0    0  501 -0.00000000000E+00  0.00000000000E+00  0.47426218005E+03  0.47426218005E+03  0.00000000000E+00 0.  1.
          2   -1    0    0  501    0  0.00000000000E+00 -0.00000000000E+00 -0.20935982680E+04  0.20935982680E+04  0.00000000000E+00 0. -1.
         23    2    1    2    0    0 -0.32798061207E+03 -0.40603451827E+03  0.11762332514E+03  0.54364472769E+03  0.96327729124E+02 0.  0.
        254    2    1    2    0    0  0.32798061207E+03  0.40603451827E+03 -0.17369594131E+04  0.20242157204E+04  0.89888039691E+03 0.  0.
        -24    2    4    4    0    0 -0.26729429801E+03  0.32020884709E+03 -0.84693859609E+03  0.94726844537E+03  0.77669650030E+02 0.  0.
         24    2    4    4    0    0  0.59527491008E+03  0.85825671180E+02 -0.89002081701E+03  0.10769472750E+04  0.77201774841E+02 0.  0.
         13    1    3    3    0    0 -0.25355669799E+03 -0.28555166634E+03  0.12505877394E+03  0.40183385893E+03  0.00000000000E+00 0.  1.
        -13    1    3    3    0    0 -0.74423914081E+02 -0.12048285193E+03 -0.74354488010E+01  0.14181086875E+03  0.00000000000E+00 0. -1.
          2    1    6    6  502    0  0.26070570982E+03  0.47852112119E+00 -0.40173367522E+03  0.47891297949E+03  0.00000000000E+00 0. -1.
          3    1    5    5  503    0  0.35937406048E+01  0.59046500364E+01 -0.32463435095E+02  0.33191180783E+02  0.00000000000E+00 0. -1.
         -4    1    5    5    0  503 -0.27088803862E+03  0.31430419706E+03 -0.81447516100E+03  0.91407726459E+03  0.00000000000E+00 0.  1.
         -1    1    6    6    0  502  0.33456920026E+03  0.85347150059E+02 -0.48828714179E+03  0.59803429552E+03  0.00000000000E+00 0.  1.
<mgrwt>
<rscale>  0 0.19929019E+04</rscale>
<asrwt>0</asrwt>
<pdfrwt beam="1">  1        2 0.32209204E+00 0.19929019E+04</pdfrwt>
<pdfrwt beam="2">  1       -2 0.72963412E-01 0.19929019E+04</pdfrwt>
<totfact> 0.93461597E+00</totfact>
</mgrwt>
</event>
<event>
12    1  0.1506149E-007  0.1625047E+04  0.7818608E-02  0.8805307E-01
          3   -1    0    0  501    0  0.00000000000E+00  0.00000000000E+00  0.12209794836E+04  0.12209794836E+04  0.00000000000E+00 0. -1.
         -3   -1    0    0    0  501 -0.00000000000E+00 -0.00000000000E+00 -0.54070900175E+03  0.54070900175E+03  0.00000000000E+00 0.  1.
         23    2    1    2    0    0 -0.43554341687E+03  0.34904554080E+03  0.25187645825E+03  0.61911069601E+03  0.91243882867E+02 0.  0.
        254    2    1    2    0    0  0.43554341687E+03 -0.34904554080E+03  0.42839402356E+03  0.11425777893E+04  0.90023980564E+03 0.  0.
        -24    2    4    4    0    0  0.21925790703E+03 -0.40328810669E+03  0.66229645609E+03  0.80981699663E+03  0.80322135715E+02 0.  0.
         24    2    4    4    0    0  0.21628550984E+03  0.54242565892E+02 -0.23390243252E+03  0.33276079268E+03  0.79358172150E+02 0.  0.
         11    1    3    3    0    0 -0.73309891693E-01  0.59191276135E+01  0.15170101547E+02  0.16284146493E+02  0.00000000000E+00 0. -1.
        -11    1    3    3    0    0 -0.43547010698E+03  0.34312641319E+03  0.23670635671E+03  0.60282654952E+03  0.00000000000E+00 0.  1.
          4    1    6    6  502    0  0.93644630587E+02  0.11446691122E+02 -0.47662809600E+02  0.10569809362E+03  0.00000000000E+00 0. -1.
          1    1    5    5  503    0  0.11413037478E+03 -0.14958905058E+03  0.31695695148E+03  0.36859779651E+03  0.00000000000E+00 0. -1.
         -2    1    5    5    0  503  0.10512753226E+03 -0.25369905611E+03  0.34533950460E+03  0.44121920012E+03  0.00000000000E+00 0.  1.
         -3    1    6    6    0  502  0.12264087925E+03  0.42795874771E+02 -0.18623962292E+03  0.22706269906E+03  0.00000000000E+00 0.  1.
<mgrwt>
<rscale>  0 0.16250472E+04</rscale>
<asrwt>0</asrwt>
<pdfrwt beam="1">  1        3 0.18784300E+00 0.16250472E+04</pdfrwt>
<pdfrwt beam="2">  1       -3 0.83186001E-01 0.16250472E+04</pdfrwt>
<totfact> 0.58852716E-01</totfact>
</mgrwt>
</event>
<event>
12    1  0.1506149E-007  0.1681626E+04  0.7818608E-02  0.8771914E-01
          2   -1    0    0  501    0  0.00000000000E+00  0.00000000000E+00  0.41991948856E+03  0.41991948856E+03  0.00000000000E+00 0. -1.
         -2   -1    0    0    0  501 -0.00000000000E+00 -0.00000000000E+00 -0.16835753334E+04  0.16835753334E+04  0.00000000000E+00 0.  1.
         23    2    1    2    0    0 -0.43597472515E+03  0.11085047074E+03 -0.95547982262E+03  0.10601976392E+04  0.93357135976E+02 0.  0.
        254    2    1    2    0    0  0.43597472515E+03 -0.11085047074E+03 -0.30817602226E+03  0.10432971828E+04  0.88945756683E+03 0.  0.
        -24    2    4    4    0    0 -0.58341781219E+02  0.18931010892E+03  0.18351477437E+03  0.28013190001E+03  0.74526023767E+02 0.  0.
         24    2    4    4    0    0  0.49431650637E+03 -0.30016057965E+03 -0.49169079663E+03  0.76316528283E+03  0.78843055361E+02 0.  0.
         11    1    3    3    0    0 -0.38321279553E+02  0.45395041189E+00 -0.37041584566E+02  0.53299207543E+02  0.00000000000E+00 0. -1.
        -11    1    3    3    0    0 -0.39765344559E+03  0.11039652033E+03 -0.91843823805E+03  0.10068984316E+04  0.00000000000E+00 0.  1.
          2    1    6    6  502    0  0.16649096519E+03 -0.13925567227E+03 -0.15782096468E+03  0.26836326246E+03  0.00000000000E+00 0. -1.
          3    1    5    5  503    0  0.79178880111E+01  0.54459980881E+02  0.21263536593E+02  0.58997630940E+02  0.00000000000E+00 0. -1.
         -4    1    5    5    0  503 -0.66259669230E+02  0.13485012803E+03  0.16225123778E+03  0.22113426907E+03  0.00000000000E+00 0.  1.
         -1    1    6    6    0  502  0.32782554117E+03 -0.16090490739E+03 -0.33386983196E+03  0.49480202037E+03  0.00000000000E+00 0.  1.
<mgrwt>
<rscale>  0 0.16816255E+04</rscale>
<asrwt>0</asrwt>
<pdfrwt beam="1">  1        2 0.64603000E-01 0.16816255E+04</pdfrwt>
<pdfrwt beam="2">  1       -2 0.25901158E+00 0.16816255E+04</pdfrwt>
<totfact> 0.40591564E+00</totfact>
</mgrwt>
</event>
<event>
12    1  0.1506149E-007  0.2000332E+04  0.7818608E-02  0.8606465E-01
          1   -1    0    0  501    0  0.00000000000E+00  0.00000000000E+00  0.75886369252E+03  0.75886369252E+03  0.00000000000E+00 0. -1.
         -1   -1    0    0    0  501 -0.00000000000E+00 -0.00000000000E+00 -0.13181975280E+04  0.13181975280E+04  0.00000000000E+00 0.  1.
         23    2    1    2    0    0 -0.42251695549E+03  0.37126237472E+03  0.36371284301E+03  0.67585876846E+03  0.90231447827E+02 0.  0.
        254    2    1    2    0    0  0.42251695549E+03 -0.37126237472E+03 -0.92304667845E+03  0.14012024520E+04  0.89162593747E+03 0.  0.
        -24    2    4    4    0    0  0.46752749544E+03 -0.50273350990E+03 -0.29174981090E+03  0.75009553516E+03  0.78755436256E+02 0.  0.
         24    2    4    4    0    0 -0.45010539953E+02  0.13147113518E+03 -0.63129686755E+03  0.65110691685E+03  0.78063269803E+02 0.  0.
         11    1    3    3    0    0 -0.87645466659E+00  0.16375937194E+02  0.17129318386E+01  0.16488590820E+02  0.00000000000E+00 0. -1.
        -11    1    3    3    0    0 -0.42164050082E+03  0.35488643753E+03  0.36199991118E+03  0.65937017764E+03  0.00000000000E+00 0.  1.
          2    1    6    6  502    0 -0.86539663305E+01  0.24109162391E+02 -0.31055028670E+02  0.40256150463E+02  0.00000000000E+00 0. -1.
          1    1    5    5  503    0  0.11051334168E+03 -0.13064240629E+03 -0.37584845161E+02  0.17519491316E+03  0.00000000000E+00 0. -1.
         -2    1    5    5    0  503  0.35701415376E+03 -0.37209110361E+03 -0.25416496574E+03  0.57490062200E+03  0.00000000000E+00 0.  1.
         -1    1    6    6    0  502 -0.36356573623E+02  0.10736197279E+03 -0.60024183888E+03  0.61085076638E+03  0.00000000000E+00 0.  1.
<mgrwt>
<rscale>  0 0.20003322E+04</rscale>
<asrwt>0</asrwt>
<pdfrwt beam="1">  1        1 0.11674826E+00 0.20003322E+04</pdfrwt>
<pdfrwt beam="2">  1       -1 0.20279962E+00 0.20003322E+04</pdfrwt>
<totfact> 0.32108485E+00</totfact>
</mgrwt>
</event>
<event>
12    1  0.1506149E-007  0.1369567E+04  0.7818608E-02  0.8976147E-01
         -1   -1    0    0    0  501 -0.00000000000E+00  0.00000000000E+00  0.72377712254E+03  0.72377712254E+03  0.00000000000E+00 0.  1.
          1   -1    0    0  501    0  0.00000000000E+00 -0.00000000000E+00 -0.64789090463E+03  0.64789090463E+03  0.00000000000E+00 0. -1.
         23    2    1    2    0    0 -0.26502439232E+03 -0.15368778908E+03  0.24984406827E+03  0.40748231435E+03  0.98802393805E+02 0.  0.
        254    2    1    2    0    0  0.26502439232E+03  0.15368778908E+03 -0.17395785036E+03  0.96418571282E+03  0.89751595532E+03 0.  0.
        -24    2    4    4    0    0  0.10089586266E+03  0.51389622323E+03 -0.18281566574E+03  0.56023068416E+03  0.78533741026E+02 0.  0.
         24    2    4    4    0    0  0.16412852966E+03 -0.36020843414E+03  0.88578153794E+01  0.40395502866E+03  0.80080671904E+02 0.  0.
         11    1    3    3    0    0 -0.22210646475E+03 -0.91584660413E+02  0.22172108972E+03  0.32692395650E+03  0.00000000000E+00 0.  1.
        -11    1    3    3    0    0 -0.42917927569E+02 -0.62103128670E+02  0.28122978556E+02  0.80558357856E+02  0.00000000000E+00 0. -1.
          4    1    6    6  502    0  0.10262941807E+03 -0.14322319409E+03 -0.16660873529E+02  0.17698380007E+03  0.00000000000E+00 0. -1.
          1    1    5    5  503    0  0.76282404684E+02  0.48597680829E+03 -0.16414498833E+03  0.51859043633E+03  0.00000000000E+00 0. -1.
         -2    1    5    5    0  503  0.24613457974E+02  0.27919414938E+02 -0.18670677411E+02  0.41640247825E+02  0.00000000000E+00 0.  1.
         -3    1    6    6    0  502  0.61499111590E+02 -0.21698524005E+03  0.25518688909E+02  0.22697122860E+03  0.00000000000E+00 0.  1.
<mgrwt>
<rscale>  0 0.13695673E+04</rscale>
<asrwt>0</asrwt>
<pdfrwt beam="1">  1        1 0.99675523E-01 0.13695673E+04</pdfrwt>
<pdfrwt beam="2">  1       -1 0.11135033E+00 0.13695673E+04</pdfrwt>
<totfact> 0.22185700E+01</totfact>
</mgrwt>
</event>
<event>
12    1  0.1506149E-007  0.1504075E+04  0.7818608E-02  0.8881748E-01
          2   -1    0    0  501    0  0.00000000000E+00  0.00000000000E+00  0.14915671179E+04  0.14915671179E+04  0.00000000000E+00 0.  1.
         -2   -1    0    0    0  501 -0.00000000000E+00 -0.00000000000E+00 -0.37917178541E+03  0.37917178541E+03  0.00000000000E+00 0. -1.
         23    2    1    2    0    0  0.29087362631E+03  0.32927730659E+03  0.13463896277E+03  0.46826837403E+03  0.90092223324E+02 0.  0.
        254    2    1    2    0    0 -0.29087362631E+03 -0.32927730659E+03  0.97775636972E+03  0.14024705293E+04  0.90436997729E+03 0.  0.
        -24    2    4    4    0    0 -0.28365551696E+03  0.25326943457E+03  0.55956420486E+03  0.68085127728E+03  0.76423187714E+02 0.  0.
         24    2    4    4    0    0 -0.72181093470E+01 -0.58254674117E+03  0.41819216487E+03  0.72161925199E+03  0.80229990332E+02 0.  0.
         13    1    3    3    0    0  0.92322909283E+02  0.12357939029E+03  0.49512337194E+01  0.15433696900E+03  0.00000000000E+00 0. -1.
        -13    1    3    3    0    0  0.19855071703E+03  0.20569791630E+03  0.12968772905E+03  0.31393140504E+03  0.00000000000E+00 0.  1.
          2    1    6    6  502    0 -0.29510132784E+02 -0.21846758306E+03  0.12348047806E+03  0.25267837511E+03  0.00000000000E+00 0. -1.
          1    1    5    5  503    0 -0.32361629282E+02  0.21043951507E+02  0.24448753630E+02  0.45693155930E+02  0.00000000000E+00 0. -1.
         -2    1    5    5    0  503 -0.25129388768E+03  0.23222548306E+03  0.53511545123E+03  0.63515812135E+03  0.00000000000E+00 0.  1.
         -1    1    6    6    0  502  0.22292023437E+02 -0.36407915811E+03  0.29471168680E+03  0.46894087689E+03  0.00000000000E+00 0.  1.
<mgrwt>
<rscale>  0 0.15040747E+04</rscale>
<asrwt>0</asrwt>
<pdfrwt beam="1">  1        2 0.22947186E+00 0.15040747E+04</pdfrwt>
<pdfrwt beam="2">  1       -2 0.58334121E-01 0.15040747E+04</pdfrwt>
<totfact> 0.34067246E+01</totfact>
</mgrwt>
</event>
<event>
12    1  0.1506149E-007  0.1485263E+04  0.7818608E-02  0.8894313E-01
          1   -1    0    0  501    0  0.00000000000E+00  0.00000000000E+00  0.36770641339E+04  0.36770641339E+04  0.00000000000E+00 0.  1.
         -1   -1    0    0    0  501 -0.00000000000E+00 -0.00000000000E+00 -0.14998416001E+03  0.14998416001E+03  0.00000000000E+00 0. -1.
         23    2    1    2    0    0 -0.31839987600E+02  0.71554307659E+02 -0.59063375527E+02  0.13471228848E+03  0.92331547064E+02 0.  0.
        254    2    1    2    0    0  0.31839987600E+02 -0.71554307659E+02  0.35861433495E+04  0.36923360055E+04  0.87566389141E+03 0.  0.
        -24    2    4    4    0    0  0.35153392705E+03 -0.87207654424E+02  0.29767135842E+04  0.29998110747E+04  0.82833839512E+02 0.  0.
         24    2    4    4    0    0 -0.31969393945E+03  0.15653346765E+02  0.60942976530E+03  0.69252493076E+03  0.75742317886E+02 0.  0.
         11    1    3    3    0    0  0.12478641919E+02  0.96279375048E+01 -0.56349989201E+02  0.58512690655E+02  0.00000000000E+00 0. -1.
        -11    1    3    3    0    0 -0.44318629519E+02  0.61926370154E+02 -0.27133863256E+01  0.76199597822E+02  0.00000000000E+00 0.  1.
          2    1    6    6  502    0 -0.19630409519E+03 -0.25553044396E+02  0.34283042381E+03  0.39587997595E+03  0.00000000000E+00 0. -1.
          1    1    5    5  503    0  0.26072121456E+03 -0.29724750355E+02  0.19777437960E+04  0.19950763482E+04  0.00000000000E+00 0. -1.
         -2    1    5    5    0  503  0.90812712488E+02 -0.57482904069E+02  0.99896978813E+03  0.10047347265E+04  0.00000000000E+00 0.  1.
         -1    1    6    6    0  502 -0.12338984426E+03  0.41206391161E+02  0.26659934148E+03  0.29664495481E+03  0.00000000000E+00 0.  1.
<mgrwt>
<rscale>  0 0.14852628E+04</rscale>
<asrwt>0</asrwt>
<pdfrwt beam="1">  1        1 0.56570211E+00 0.14852628E+04</pdfrwt>
<pdfrwt beam="2">  1       -1 0.23074489E-01 0.14852628E+04</pdfrwt>
<totfact> 0.28443299E+00</totfact>
</mgrwt>
</event>
<event>
12    1  0.1506149E-007  0.1435218E+04  0.7818608E-02  0.8928713E-01
         -1   -1    0    0    0  501 -0.00000000000E+00  0.00000000000E+00  0.31131896291E+03  0.31131896291E+03  0.00000000000E+00 0.  1.
          1   -1    0    0  501    0  0.00000000000E+00 -0.00000000000E+00 -0.16541327178E+04  0.16541327178E+04  0.00000000000E+00 0. -1.
         23    2    1    2    0    0 -0.53185154527E+02  0.37519712048E+03 -0.39732372435E+03  0.55651275772E+03  0.90767657754E+02 0.  0.
        254    2    1    2    0    0  0.53185154527E+02 -0.37519712048E+03 -0.94549003049E+03  0.14089389229E+04  0.97342485634E+03 0.  0.
        -24    2    4    4    0    0 -0.35407506056E+03 -0.42056759880E+03 -0.27841880062E+03  0.62170457702E+03  0.82178457531E+02 0.  0.
         24    2    4    4    0    0  0.40726021509E+03  0.45370478316E+02 -0.66707122987E+03  0.78723434592E+03  0.82671195604E+02 0.  0.
         11    1    3    3    0    0  0.11649015420E+02  0.94454614428E+02 -0.58376726853E+02  0.11164773166E+03  0.00000000000E+00 0.  1.
        -11    1    3    3    0    0 -0.64834169947E+02  0.28074250605E+03 -0.33894699750E+03  0.44486502606E+03  0.00000000000E+00 0. -1.
          4    1    6    6  502    0  0.10978064954E+03  0.39466426597E+02 -0.23852178971E+03  0.26552219117E+03  0.00000000000E+00 0. -1.
          1    1    5    5  503    0 -0.53881410601E+02 -0.11607224766E+03 -0.55360481339E+02  0.13943011145E+03  0.00000000000E+00 0. -1.
         -2    1    5    5    0  503 -0.30019364996E+03 -0.30449535113E+03 -0.22305831928E+03  0.48227446557E+03  0.00000000000E+00 0.  1.
         -3    1    6    6    0  502  0.29747956555E+03  0.59040517186E+01 -0.42854944017E+03  0.52171215475E+03  0.00000000000E+00 0.  1.
<mgrwt>
<rscale>  0 0.14352183E+04</rscale>
<asrwt>0</asrwt>
<pdfrwt beam="1">  1        1 0.25448195E+00 0.14352183E+04</pdfrwt>
<pdfrwt beam="2">  1       -1 0.47895225E-01 0.14352183E+04</pdfrwt>
<totfact> 0.21697161E+01</totfact>
</mgrwt>
</event>
<event>
12    1  0.1506149E-007  0.1907246E+04  0.7818608E-02  0.8651258E-01
          2   -1    0    0  501    0  0.00000000000E+00  0.00000000000E+00  0.77729908925E+03  0.77729908925E+03  0.00000000000E+00 0. -1.
         -2   -1    0    0    0  501 -0.00000000000E+00 -0.00000000000E+00 -0.11699448851E+04  0.11699448851E+04  0.00000000000E+00 0.  1.
         23    2    1    2    0    0 -0.53828190926E+03 -0.30343284700E+03 -0.59108047163E+03  0.85970529536E+03  0.88871617836E+02 0.  0.
        254    2    1    2    0    0  0.53828190926E+03  0.30343284700E+03  0.19843467576E+03  0.10875386790E+04  0.87266554379E+03 0.  0.
        -24    2    4    4    0    0  0.10355910174E+03  0.46762047202E+03  0.34215169013E+03  0.59420399959E+03  0.81346300912E+02 0.  0.
         24    2    4    4    0    0  0.43472280752E+03 -0.16418762502E+03 -0.14371701437E+03  0.49333467941E+03  0.82359153115E+02 0.  0.
         13    1    3    3    0    0 -0.28866276428E+03 -0.20724007867E+03 -0.36561394312E+03  0.50985115190E+03  0.00000000000E+00 0.  1.
        -13    1    3    3    0    0 -0.24961914498E+03 -0.96192768322E+02 -0.22546652851E+03  0.34985414347E+03  0.00000000000E+00 0. -1.
          2    1    6    6  502    0  0.47640618063E+02 -0.30701007079E+02  0.68227777322E+01  0.57085292511E+02  0.00000000000E+00 0. -1.
          3    1    5    5  503    0  0.17341971693E+02  0.10426474713E+02  0.18805883073E+02  0.27624565070E+02  0.00000000000E+00 0. -1.
         -2    1    5    5    0  503  0.86217130051E+02  0.45719399731E+03  0.32334580705E+03  0.56657943452E+03  0.00000000000E+00 0.  1.
         -1    1    6    6    0  502  0.38708218946E+03 -0.13348661794E+03 -0.15053979210E+03  0.43624938690E+03  0.00000000000E+00 0.  1.
<mgrwt>
<rscale>  0 0.19072463E+04</rscale>
<asrwt>0</asrwt>
<pdfrwt beam="1">  1        2 0.11958447E+00 0.19072463E+04</pdfrwt>
<pdfrwt beam="2">  1       -2 0.17999152E+00 0.19072463E+04</pdfrwt>
<totfact> 0.60712124E+00</totfact>
</mgrwt>
</event>
<event>
12    1  0.1506149E-007  0.2564261E+04  0.7818608E-02  0.8380443E-01
          3   -1    0    0  501    0  0.00000000000E+00  0.00000000000E+00  0.12106649469E+04  0.12106649469E+04  0.00000000000E+00 0. -1.
         -3   -1    0    0    0  501 -0.00000000000E+00 -0.00000000000E+00 -0.13578148419E+04  0.13578148419E+04  0.00000000000E+00 0.  1.
         23    2    1    2    0    0 -0.55014323814E+03 -0.43723592221E+02 -0.10467613854E+04  0.11867902482E+04  0.90511657932E+02 0.  0.
        254    2    1    2    0    0  0.55014323814E+03  0.43723592221E+02  0.89961149043E+03  0.13816895406E+04  0.89173752754E+03 0.  0.
        -24    2    4    4    0    0  0.79443582178E+02  0.38036283912E+03  0.61394417862E+03  0.73141815478E+03  0.84011252569E+02 0.  0.
         24    2    4    4    0    0  0.47069965596E+03 -0.33663924690E+03  0.28566731181E+03  0.65027138586E+03  0.79767872958E+02 0.  0.
         13    1    3    3    0    0 -0.93319776856E+02 -0.28656950075E+02 -0.13180302705E+03  0.16401780233E+03  0.00000000000E+00 0. -1.
        -13    1    3    3    0    0 -0.45682346128E+03 -0.15066642146E+02 -0.91495835833E+03  0.10227724458E+04  0.00000000000E+00 0.  1.
          2    1    6    6  502    0  0.37804648379E+03 -0.23219099228E+03  0.23233856671E+03  0.50081235047E+03  0.00000000000E+00 0. -1.
          1    1    5    5  503    0  0.39355260908E+02  0.28609334063E+03  0.39119312485E+03  0.48624098659E+03  0.00000000000E+00 0. -1.
         -4    1    5    5    0  503  0.40088321271E+02  0.94269498490E+02  0.22275105377E+03  0.24517716819E+03  0.00000000000E+00 0.  1.
         -1    1    6    6    0  502  0.92653172173E+02 -0.10444825461E+03  0.53328745100E+02  0.14945903539E+03  0.00000000000E+00 0.  1.
<mgrwt>
<rscale>  0 0.25642612E+04</rscale>
<asrwt>0</asrwt>
<pdfrwt beam="1">  1        3 0.18625615E+00 0.25642612E+04</pdfrwt>
<pdfrwt beam="2">  1       -3 0.20889459E+00 0.25642612E+04</pdfrwt>
<totfact> 0.53683869E-02</totfact>
</mgrwt>
</event>
<event>
12    1  0.1506149E-007  0.1788348E+04  0.7818608E-02  0.8712521E-01
          2   -1    0    0  501    0  0.00000000000E+00  0.00000000000E+00  0.13173239186E+04  0.13173239186E+04  0.00000000000E+00 0. -1.
         -2   -1    0    0    0  501 -0.00000000000E+00 -0.00000000000E+00 -0.60694785412E+03  0.60694785412E+03  0.00000000000E+00 0.  1.
         23    2    1    2    0    0  0.43578624652E+03  0.23152464683E+03 -0.19161239007E+03  0.53706214892E+03  0.90593206278E+02 0.  0.
        254    2    1    2    0    0 -0.43578624652E+03 -0.23152464683E+03  0.90198845459E+03  0.13872096238E+04  0.93126476016E+03 0.  0.
        -24    2    4    4    0    0 -0.67488062614E+02  0.12427570945E+03  0.85066132305E+03  0.86647925725E+03  0.84631709012E+02 0.  0.
         24    2    4    4    0    0 -0.36829818391E+03 -0.35580035628E+03  0.51327131544E+02  0.52073036659E+03  0.79298136514E+02 0.  0.
         11    1    3    3    0    0  0.16863245353E+03  0.75926716414E+02 -0.27281619511E+02  0.18693864612E+03  0.00000000000E+00 0. -1.
        -11    1    3    3    0    0  0.26715379299E+03  0.15559793041E+03 -0.16433077056E+03  0.35012350280E+03  0.00000000000E+00 0.  1.
          2    1    6    6  502    0 -0.21373188551E+02 -0.29710494376E+02  0.24119266998E+02  0.43832245042E+02  0.00000000000E+00 0. -1.
          3    1    5    5  503    0  0.11275616204E+02 -0.23317994260E+01  0.13265561213E+03  0.13315437747E+03  0.00000000000E+00 0. -1.
         -4    1    5    5    0  503 -0.78763678818E+02  0.12660750888E+03  0.71800571091E+03  0.73332487979E+03  0.00000000000E+00 0.  1.
         -3    1    6    6    0  502 -0.34692499536E+03 -0.32608986191E+03  0.27207864546E+02  0.47689812155E+03  0.00000000000E+00 0.  1.
<mgrwt>
<rscale>  0 0.17883478E+04</rscale>
<asrwt>0</asrwt>
<pdfrwt beam="1">  1        2 0.20266522E+00 0.17883478E+04</pdfrwt>
<pdfrwt beam="2">  1       -2 0.93376593E-01 0.17883478E+04</pdfrwt>
<totfact> 0.14810499E+01</totfact>
</mgrwt>
</event>
<event>
12    1  0.1506149E-007  0.1453440E+04  0.7818608E-02  0.8916019E-01
         -2   -1    0    0    0  501 -0.00000000000E+00  0.00000000000E+00  0.15584529009E+03  0.15584529009E+03  0.00000000000E+00 0.  1.
          2   -1    0    0  501    0  0.00000000000E+00 -0.00000000000E+00 -0.33887569203E+04  0.33887569203E+04  0.00000000000E+00 0. -1.
         23    2    1    2    0    0 -0.51664761089E+02  0.38180492841E+03 -0.15325675945E+04  0.15833232059E+04  0.98512393781E+02 0.  0.
        254    2    1    2    0    0  0.51664761089E+02 -0.38180492841E+03 -0.17003440358E+04  0.19612790046E+04  0.89833247899E+03 0.  0.
        -24    2    4    4    0    0  0.19949355460E+03 -0.61297889034E+03 -0.88763592748E+03  0.10998176696E+04  0.78489288361E+02 0.  0.
         24    2    4    4    0    0 -0.14782879351E+03  0.23117396193E+03 -0.81270810830E+03  0.86146133491E+03  0.79538728790E+02 0.  0.
         11    1    3    3    0    0 -0.61704243754E+01  0.32037217158E+03 -0.11957466136E+04  0.12379363337E+04  0.00000000000E+00 0. -1.
        -11    1    3    3    0    0 -0.45494336713E+02  0.61432756833E+02 -0.33682098087E+03  0.34538687213E+03  0.00000000000E+00 0.  1.
          2    1    6    6  502    0 -0.43233253131E+02  0.72925733455E+02 -0.15179491680E+03  0.17386481399E+03  0.00000000000E+00 0. -1.
          1    1    5    5  503    0 -0.31732640908E+01 -0.61210784205E+02 -0.93601788733E+02  0.11188442502E+03  0.00000000000E+00 0. -1.
         -2    1    5    5    0  503  0.20266681869E+03 -0.55176810613E+03 -0.79403413874E+03  0.98793324463E+03  0.00000000000E+00 0.  1.
         -1    1    6    6    0  502 -0.10459554038E+03  0.15824822848E+03 -0.66091319150E+03  0.68759652092E+03  0.00000000000E+00 0.  1.
<mgrwt>
<rscale>  0 0.14534398E+04</rscale>
<asrwt>0</asrwt>
<pdfrwt beam="1">  1        2 0.52134720E+00 0.14534398E+04</pdfrwt>
<pdfrwt beam="2">  1       -2 0.23976199E-01 0.14534398E+04</pdfrwt>
<totfact> 0.14759042E+01</totfact>
</mgrwt>
</event>
<event>
12    1  0.1506149E-007  0.1653868E+04  0.7818608E-02  0.8788121E-01
         -2   -1    0    0    0  501 -0.00000000000E+00  0.00000000000E+00  0.85457358264E+03  0.85457358264E+03  0.00000000000E+00 0.  1.
          2   -1    0    0  501    0  0.00000000000E+00 -0.00000000000E+00 -0.80018871898E+03  0.80018871898E+03  0.00000000000E+00 0. -1.
         23    2    1    2    0    0 -0.51959715823E+03  0.15662232564E+03  0.20442436596E+03  0.58733215837E+03  0.93048283864E+02 0.  0.
        254    2    1    2    0    0  0.51959715823E+03 -0.15662232564E+03 -0.15003950230E+03  0.10674301432E+04  0.90685362586E+03 0.  0.
        -24    2    4    4    0    0  0.34094834778E+03 -0.46930688501E+03  0.13562099215E+03  0.60118504600E+03  0.80843539370E+02 0.  0.
         24    2    4    4    0    0  0.17864881045E+03  0.31268455937E+03 -0.28566049444E+03  0.46624509724E+03  0.78073948750E+02 0.  0.
         11    1    3    3    0    0 -0.51102983687E+03  0.14173582046E+03  0.20823483842E+03  0.56973878656E+03  0.00000000000E+00 0.  1.
        -11    1    3    3    0    0 -0.85673213600E+01  0.14886505173E+02 -0.38104724556E+01  0.17593371817E+02  0.00000000000E+00 0. -1.
          2    1    6    6  502    0 -0.66280521450E+01  0.23615565952E+01 -0.62312603326E+01  0.93987568392E+01  0.00000000000E+00 0. -1.
          3    1    5    5  503    0  0.25292296617E+03 -0.30793122830E+03  0.62521535296E+02  0.40336163744E+03  0.00000000000E+00 0. -1.
         -4    1    5    5    0  503  0.88025381607E+02 -0.16137565671E+03  0.73099456851E+02  0.19782340857E+03  0.00000000000E+00 0.  1.
         -1    1    6    6    0  502  0.18527686259E+03  0.31032300277E+03 -0.27942923411E+03  0.45684634040E+03  0.00000000000E+00 0.  1.
<mgrwt>
<rscale>  0 0.16538684E+04</rscale>
<asrwt>0</asrwt>
<pdfrwt beam="1">  1        2 0.12310596E+00 0.16538684E+04</pdfrwt>
<pdfrwt beam="2">  1       -2 0.13147286E+00 0.16538684E+04</pdfrwt>
<totfact> 0.13876459E+01</totfact>
</mgrwt>
</event>
<event>
12    1  0.1506149E-007  0.1528170E+04  0.7818608E-02  0.8865933E-01
         -1   -1    0    0    0  501 -0.00000000000E+00  0.00000000000E+00  0.18887468718E+03  0.18887468718E+03  0.00000000000E+00 0.  1.
          1   -1    0    0  501    0  0.00000000000E+00 -0.00000000000E+00 -0.30910770690E+04  0.30910770690E+04  0.00000000000E+00 0. -1.
         23    2    1    2    0    0  0.13864360524E+03  0.12713862084E+03  0.26999597705E+02  0.21071277246E+03  0.91019866060E+02 0.  0.
        254    2    1    2    0    0 -0.13864360524E+03 -0.12713862084E+03 -0.29292019795E+04  0.30692389837E+04  0.89700469570E+03 0.  0.
        -24    2    4    4    0    0 -0.32540464434E+03  0.28190420292E+03 -0.11023762901E+04  0.11861137514E+04  0.79209747851E+02 0.  0.
         24    2    4    4    0    0  0.18676103910E+03 -0.40904282376E+03 -0.18268256894E+04  0.18831252323E+04  0.81687352475E+02 0.  0.
         11    1    3    3    0    0  0.10840621136E+03  0.38129948853E+02  0.12448866129E+02  0.11558881403E+03  0.00000000000E+00 0. -1.
        -11    1    3    3    0    0  0.30237393882E+02  0.89008671988E+02  0.14550731577E+02  0.95123958429E+02  0.00000000000E+00 0.  1.
          4    1    6    6  502    0  0.16105081272E+03 -0.39379546276E+03 -0.16607640889E+04  0.17143948173E+04  0.00000000000E+00 0. -1.
          3    1    5    5  503    0 -0.29354223435E+03  0.26017594725E+03 -0.10514501973E+04  0.11222326338E+04  0.00000000000E+00 0. -1.
         -4    1    5    5    0  503 -0.31862409990E+02  0.21728255663E+02 -0.50926092741E+02  0.63881117604E+02  0.00000000000E+00 0.  1.
         -3    1    6    6    0  502  0.25710226370E+02 -0.15247360995E+02 -0.16606160057E+03  0.16873041498E+03  0.00000000000E+00 0.  1.
<mgrwt>
<rscale>  0 0.15281704E+04</rscale>
<asrwt>0</asrwt>
<pdfrwt beam="1">  1        1 0.47555033E+00 0.15281704E+04</pdfrwt>
<pdfrwt beam="2">  1       -1 0.29057643E-01 0.15281704E+04</pdfrwt>
<totfact> 0.53722047E+00</totfact>
</mgrwt>
</event>
<event>
12    1  0.1506149E-007  0.1131913E+04  0.7818608E-02  0.9174634E-01
         -2   -1    0    0    0  501 -0.00000000000E+00  0.00000000000E+00  0.10756316605E+03  0.10756316605E+03  0.00000000000E+00 0.  1.
          2   -1    0    0  501    0  0.00000000000E+00 -0.00000000000E+00 -0.29778459299E+04  0.29778459299E+04  0.00000000000E+00 0. -1.
         23    2    1    2    0    0 -0.16392873350E+03  0.74392832745E+02 -0.10980234562E+04  0.11168421915E+04  0.96301853745E+02 0.  0.
        254    2    1    2    0    0  0.16392873350E+03 -0.74392832745E+02 -0.17722593077E+04  0.19685669045E+04  0.83782198629E+03 0.  0.
        -24    2    4    4    0    0  0.33989970449E+03 -0.36584917787E+03 -0.10794458311E+04  0.11922377365E+04  0.82765259238E+02 0.  0.
         24    2    4    4    0    0 -0.17597097099E+03  0.29145634513E+03 -0.69281347660E+03  0.77632916799E+03  0.82364312440E+02 0.  0.
         11    1    3    3    0    0  0.14949501559E+01  0.16687360783E+02 -0.26833871004E+03  0.26886123966E+03  0.00000000000E+00 0.  1.
        -11    1    3    3    0    0 -0.16542368366E+03  0.57705471963E+02 -0.82968474617E+03  0.84798095181E+03  0.00000000000E+00 0. -1.
          2    1    6    6  502    0 -0.15500700706E+03  0.25393203802E+03 -0.52845572736E+03  0.60644382094E+03  0.00000000000E+00 0. -1.
          1    1    5    5  503    0  0.67317136408E+02 -0.70377972200E+02 -0.29706760182E+03  0.31262408077E+03  0.00000000000E+00 0. -1.
         -2    1    5    5    0  503  0.27258256808E+03 -0.29547120567E+03 -0.78237822926E+03  0.87961365577E+03  0.00000000000E+00 0.  1.
         -1    1    6    6    0  502 -0.20963963925E+02  0.37524307103E+02 -0.16435774924E+03  0.16988534705E+03  0.00000000000E+00 0.  1.
<mgrwt>
<rscale>  0 0.11319126E+04</rscale>
<asrwt>0</asrwt>
<pdfrwt beam="1">  1        2 0.45813014E+00 0.11319126E+04</pdfrwt>
<pdfrwt beam="2">  1       -2 0.16548180E-01 0.11319126E+04</pdfrwt>
<totfact> 0.53807737E+01</totfact>
</mgrwt>
</event>
<event>
12    1  0.2318715E-007  0.2159393E+04  0.7818608E-02  0.8535522E-01
          1   -1    0    0  501    0  0.00000000000E+00  0.00000000000E+00  0.10288257486E+04  0.10288257486E+04  0.00000000000E+00 0. -1.
         -1   -1    0    0    0  501 -0.00000000000E+00 -0.00000000000E+00 -0.11330821705E+04  0.11330821705E+04  0.00000000000E+00 0.  1.
         23    2    1    2    0    0  0.17728289147E+02  0.83259131313E+03 -0.35410005396E+03  0.90942287494E+03  0.90224887473E+02 0.  0.
        254    2    1    2    0    0 -0.17728289147E+02 -0.83259131313E+03  0.24984363202E+03  0.12524850441E+04  0.90153999266E+03 0.  0.
        -24    2    4    4    0    0  0.14737073532E+03 -0.56243048014E+03  0.55312261837E+03  0.80647006436E+03  0.80019717195E+02 0.  0.
         24    2    4    4    0    0 -0.16509902446E+03 -0.27016083298E+03 -0.30327898635E+03  0.44601497976E+03  0.81894169848E+02 0.  0.
         13    1    3    3    0    0  0.33115352826E+02  0.63241205451E+03 -0.30416290182E+03  0.70253590949E+03  0.00000000000E+00 0. -1.
        -13    1    3    3    0    0 -0.15387063680E+02  0.20017925861E+03 -0.49937152147E+02  0.20688696545E+03  0.00000000000E+00 0.  1.
          2    1    6    6  502    0 -0.13206535124E+03 -0.17586817383E+03 -0.24932412638E+03  0.33246562463E+03  0.00000000000E+00 0. -1.
          3    1    5    5  503    0  0.14423559465E+03 -0.54963832652E+03  0.51783181859E+03  0.76880165783E+03  0.00000000000E+00 0. -1.
         -4    1    5    5    0  503  0.31351406690E+01 -0.12792153621E+02  0.35290799781E+02  0.37668406529E+02  0.00000000000E+00 0.  1.
         -1    1    6    6    0  502 -0.33033673225E+02 -0.94292659157E+02 -0.53954859967E+02  0.11354935514E+03  0.00000000000E+00 0.  1.
<mgrwt>
<rscale>  0 0.21593926E+04</rscale>
<asrwt>0</asrwt>
<pdfrwt beam="1">  1        1 0.15828088E+00 0.21593926E+04</pdfrwt>
<pdfrwt beam="2">  1       -1 0.17432033E+00 0.21593926E+04</pdfrwt>
<totfact> 0.30079034E+00</totfact>
</mgrwt>
</event>
<event>
12    1  0.1506149E-007  0.1712673E+04  0.7818608E-02  0.8754170E-01
         -2   -1    0    0    0  501 -0.00000000000E+00  0.00000000000E+00  0.28961125889E+03  0.28961125889E+03  0.00000000000E+00 0.  1.
          2   -1    0    0  501    0  0.00000000000E+00 -0.00000000000E+00 -0.25320557016E+04  0.25320557016E+04  0.00000000000E+00 0. -1.
         23    2    1    2    0    0 -0.85474593077E+02 -0.10464379341E+03  0.17663335299E+03  0.24069975914E+03  0.92091275918E+02 0.  0.
        254    2    1    2    0    0  0.85474593077E+02  0.10464379341E+03 -0.24190777957E+04  0.25809672013E+04  0.88949316085E+03 0.  0.
        -24    2    4    4    0    0  0.36815899759E+03  0.79700040869E+02 -0.45918204463E+03  0.59905145157E+03  0.78239040714E+02 0.  0.
         24    2    4    4    0    0 -0.28268440452E+03  0.24943752546E+02 -0.19598957511E+04  0.19819157498E+04  0.79158201110E+02 0.  0.
         11    1    3    3    0    0 -0.57071035430E+02 -0.25439039201E+02  0.13062222110E+03  0.14479783301E+03  0.00000000000E+00 0.  1.
        -11    1    3    3    0    0 -0.28403557648E+02 -0.79204754214E+02  0.46011131890E+02  0.95901926127E+02  0.00000000000E+00 0. -1.
          2    1    6    6  502    0 -0.16048257149E+03 -0.22854101955E+02 -0.11746071602E+04  0.11857398309E+04  0.00000000000E+00 0. -1.
          3    1    5    5  503    0  0.54646637262E+02  0.17473355022E+02 -0.11992811653E+03  0.13294482402E+03  0.00000000000E+00 0. -1.
         -4    1    5    5    0  503  0.31351236033E+03  0.62226685846E+02 -0.33925392811E+03  0.46610662755E+03  0.00000000000E+00 0.  1.
         -1    1    6    6    0  502 -0.12220183303E+03  0.47797854501E+02 -0.78528859088E+03  0.79617591891E+03  0.00000000000E+00 0.  1.
<mgrwt>
<rscale>  0 0.17126726E+04</rscale>
<asrwt>0</asrwt>
<pdfrwt beam="1">  1        2 0.38954702E+00 0.17126726E+04</pdfrwt>
<pdfrwt beam="2">  1       -2 0.44555580E-01 0.17126726E+04</pdfrwt>
<totfact> 0.15170553E+01</totfact>
</mgrwt>
</event>
<event>
12    1  0.1506149E-007  0.2211323E+04  0.7818608E-02  0.8513730E-01
          2   -1    0    0  501    0  0.00000000000E+00  0.00000000000E+00  0.93756663725E+03  0.93756663725E+03  0.00000000000E+00 0. -1.
         -2   -1    0    0    0  501 -0.00000000000E+00 -0.00000000000E+00 -0.13038943216E+04  0.13038943216E+04  0.00000000000E+00 0.  1.
         23    2    1    2    0    0 -0.54520596838E+03  0.26613689568E+03 -0.85398620118E+03  0.10514538582E+04  0.90467613128E+02 0.  0.
        254    2    1    2    0    0  0.54520596838E+03 -0.26613689568E+03  0.48765851684E+03  0.11900071006E+04  0.90012647736E+03 0.  0.
        -24    2    4    4    0    0 -0.14367500064E+03  0.80756748536E+02 -0.10813887476E+03  0.21219987244E+03  0.78553239189E+02 0.  0.
         24    2    4    4    0    0  0.68888096901E+03 -0.34689364422E+03  0.59579739159E+03  0.97780722816E+03  0.78995276750E+02 0.  0.
         11    1    3    3    0    0 -0.35740449227E+03  0.13260266672E+03 -0.57018020779E+03  0.68587674379E+03  0.00000000000E+00 0. -1.
        -11    1    3    3    0    0 -0.18780147611E+03  0.13353422896E+03 -0.28380599338E+03  0.36557711445E+03  0.00000000000E+00 0.  1.
          4    1    6    6  502    0  0.36375402252E+02 -0.23038195243E+02  0.58495391418E+02  0.72633595162E+02  0.00000000000E+00 0. -1.
          3    1    5    5  503    0 -0.83046342149E+02  0.40013253816E+01 -0.35692889771E+02  0.90480317912E+02  0.00000000000E+00 0. -1.
         -4    1    5    5    0  503 -0.60628658487E+02  0.76755423155E+02 -0.72445984986E+02  0.12171955453E+03  0.00000000000E+00 0.  1.
         -3    1    6    6    0  502  0.65250556676E+03 -0.32385544897E+03  0.53730200018E+03  0.90517363300E+03  0.00000000000E+00 0.  1.
<mgrwt>
<rscale>  0 0.22113234E+04</rscale>
<asrwt>0</asrwt>
<pdfrwt beam="1">  1        2 0.14424102E+00 0.22113234E+04</pdfrwt>
<pdfrwt beam="2">  1       -2 0.20059913E+00 0.22113234E+04</pdfrwt>
<totfact> 0.33292076E+00</totfact>
</mgrwt>
</event>
<event>
12    1  0.1506149E-007  0.2033708E+04  0.7818608E-02  0.8591021E-01
          2   -1    0    0  501    0  0.00000000000E+00  0.00000000000E+00  0.12671892408E+04  0.12671892408E+04  0.00000000000E+00 0. -1.
         -2   -1    0    0    0  501 -0.00000000000E+00 -0.00000000000E+00 -0.81597312294E+03  0.81597312294E+03  0.00000000000E+00 0.  1.
         23    2    1    2    0    0 -0.37524130014E+03  0.57001196316E+03 -0.26681007498E+03  0.73843382961E+03  0.91527226128E+02 0.  0.
        254    2    1    2    0    0  0.37524130014E+03 -0.57001196316E+03  0.71802619285E+03  0.13447285341E+04  0.90940285102E+03 0.  0.
        -24    2    4    4    0    0  0.30262254018E+03 -0.15442654010E+03  0.83014635815E+03  0.90071566421E+03  0.81962025906E+02 0.  0.
         24    2    4    4    0    0  0.72618759957E+02 -0.41558542306E+03 -0.11212016531E+03  0.44401286993E+03  0.81189710169E+02 0.  0.
         13    1    3    3    0    0 -0.24077941746E+03  0.29675852217E+03 -0.17527629308E+03  0.42043088287E+03  0.00000000000E+00 0.  1.
        -13    1    3    3    0    0 -0.13446188268E+03  0.27325344099E+03 -0.91533781897E+02  0.31800294673E+03  0.00000000000E+00 0. -1.
          2    1    6    6  502    0  0.76296197483E+02 -0.22981741181E+03 -0.82760129340E+02  0.25590309011E+03  0.00000000000E+00 0. -1.
          1    1    5    5  503    0  0.28577128000E+03 -0.12702426776E+03  0.78729831044E+03  0.84713577347E+03  0.00000000000E+00 0. -1.
         -2    1    5    5    0  503  0.16851260181E+02 -0.27402272339E+02  0.42848047711E+02  0.53579890739E+02  0.00000000000E+00 0.  1.
         -1    1    6    6    0  502 -0.36774375253E+01 -0.18576801125E+03 -0.29360035967E+02  0.18810977982E+03  0.00000000000E+00 0.  1.
<mgrwt>
<rscale>  0 0.20337083E+04</rscale>
<asrwt>0</asrwt>
<pdfrwt beam="1">  1        2 0.19495219E+00 0.20337083E+04</pdfrwt>
<pdfrwt beam="2">  1       -2 0.12553433E+00 0.20337083E+04</pdfrwt>
<totfact> 0.75960338E+00</totfact>
</mgrwt>
</event>
<event>
12    1  0.1506149E-007  0.1581452E+04  0.7818608E-02  0.8832025E-01
         -2   -1    0    0    0  501 -0.00000000000E+00  0.00000000000E+00  0.15017610590E+04  0.15017610590E+04  0.00000000000E+00 0.  1.
          2   -1    0    0  501    0  0.00000000000E+00 -0.00000000000E+00 -0.41634288992E+03  0.41634288992E+03  0.00000000000E+00 0. -1.
         23    2    1    2    0    0 -0.48271139012E+03 -0.14036972537E+03  0.58126830233E+03  0.77396820049E+03  0.91869418881E+02 0.  0.
        254    2    1    2    0    0  0.48271139012E+03  0.14036972537E+03  0.50414986674E+03  0.11441357484E+04  0.89563696704E+03 0.  0.
        -24    2    4    4    0    0  0.43764866513E+03 -0.14905151562E+03  0.65517825736E+03  0.80527187723E+03  0.73834537605E+02 0.  0.
         24    2    4    4    0    0  0.45062724992E+02  0.28942124099E+03 -0.15102839062E+03  0.33886387119E+03  0.78891346205E+02 0.  0.
         13    1    3    3    0    0 -0.85438253813E+02  0.15143034964E+01  0.13585245918E+03  0.16049261352E+03  0.00000000000E+00 0. -1.
        -13    1    3    3    0    0 -0.39727313631E+03 -0.14188402886E+03  0.44541584315E+03  0.61347558697E+03  0.00000000000E+00 0.  1.
          4    1    6    6  502    0  0.23409819635E+02  0.11144364319E+03 -0.17273918961E+02  0.11517852899E+03  0.00000000000E+00 0. -1.
          1    1    5    5  503    0  0.17678496602E+03 -0.39695501188E+02  0.20488113263E+03  0.27350490953E+03  0.00000000000E+00 0. -1.
         -2    1    5    5    0  503  0.26086369911E+03 -0.10935601443E+03  0.45029712473E+03  0.53176696770E+03  0.00000000000E+00 0.  1.
         -3    1    6    6    0  502  0.21652905357E+02  0.17797759779E+03 -0.13375447166E+03  0.22368534220E+03  0.00000000000E+00 0.  1.
<mgrwt>
<rscale>  0 0.15814519E+04</rscale>
<asrwt>0</asrwt>
<pdfrwt beam="1">  1        2 0.64052753E-01 0.15814519E+04</pdfrwt>
<pdfrwt beam="2">  1       -2 0.23104016E+00 0.15814519E+04</pdfrwt>
<totfact> 0.61442241E+00</totfact>
</mgrwt>
</event>
<event>
12    1  0.1506149E-007  0.1315906E+04  0.7818608E-02  0.9017046E-01
         -1   -1    0    0    0  501 -0.00000000000E+00  0.00000000000E+00  0.44528795130E+03  0.44528795130E+03  0.00000000000E+00 0.  1.
          1   -1    0    0  501    0  0.00000000000E+00 -0.00000000000E+00 -0.97218479772E+03  0.97218479772E+03  0.00000000000E+00 0. -1.
         23    2    1    2    0    0  0.10691785509E+03  0.28782635418E+03 -0.30165728312E+03  0.43992020889E+03  0.90869333887E+02 0.  0.
        254    2    1    2    0    0 -0.10691785509E+03 -0.28782635418E+03 -0.22523956330E+03  0.97755254013E+03  0.90033364368E+03 0.  0.
        -24    2    4    4    0    0  0.31925421632E+03  0.12540487133E+03 -0.11344354650E+03  0.36828345876E+03  0.71509659237E+02 0.  0.
         24    2    4    4    0    0 -0.42617207141E+03 -0.41323122551E+03 -0.11179601680E+03  0.60926908136E+03  0.79547369205E+02 0.  0.
         11    1    3    3    0    0 -0.25270413092E+01  0.10780779498E+02  0.52228540666E+01  0.12242930571E+02  0.00000000000E+00 0.  1.
        -11    1    3    3    0    0  0.10944489640E+03  0.27704557468E+03 -0.30688013718E+03  0.42767727832E+03  0.00000000000E+00 0. -1.
          4    1    6    6  502    0 -0.96147737599E+02 -0.70452193826E+02 -0.50707790057E+02  0.12953447044E+03  0.00000000000E+00 0. -1.
          3    1    5    5  503    0  0.55484778947E+02 -0.45391568119E+01 -0.26518809770E+02  0.61663700108E+02  0.00000000000E+00 0. -1.
         -4    1    5    5    0  503  0.26376943737E+03  0.12994402814E+03 -0.86924736725E+02  0.30661975865E+03  0.00000000000E+00 0.  1.
         -3    1    6    6    0  502 -0.33002433381E+03 -0.34277903168E+03 -0.61088226743E+02  0.47973461092E+03  0.00000000000E+00 0.  1.
<mgrwt>
<rscale>  0 0.13159060E+04</rscale>
<asrwt>0</asrwt>
<pdfrwt beam="1">  1        1 0.14956689E+00 0.13159060E+04</pdfrwt>
<pdfrwt beam="2">  1       -1 0.68505839E-01 0.13159060E+04</pdfrwt>
<totfact> 0.33686085E+01</totfact>
</mgrwt>
</event>
<event>
12    1  0.1506149E-007  0.3743002E+04  0.7818608E-02  0.8058498E-01
         -2   -1    0    0    0  501 -0.00000000000E+00  0.00000000000E+00  0.12187862381E+04  0.12187862381E+04  0.00000000000E+00 0.  1.
          2   -1    0    0  501    0  0.00000000000E+00 -0.00000000000E+00 -0.28737733934E+04  0.28737733934E+04  0.00000000000E+00 0. -1.
         23    2    1    2    0    0  0.10843348016E+04 -0.11035282263E+04  0.14033696168E+03  0.15561160733E+04  0.90808933869E+02 0.  0.
        254    2    1    2    0    0 -0.10843348016E+04  0.11035282263E+04 -0.17953241170E+04  0.25364435582E+04  0.90377028645E+03 0.  0.
        -24    2    4    4    0    0 -0.76494740719E+02 -0.14572525614E+03 -0.21871512856E+03  0.28505892560E+03  0.79592637684E+02 0.  0.
         24    2    4    4    0    0 -0.10078400609E+04  0.12492534824E+04 -0.15766089884E+04  0.22513846326E+04  0.81615009602E+02 0.  0.
         13    1    3    3    0    0  0.92047246876E+03 -0.89514933620E+03  0.13417021507E+03  0.12909545098E+04  0.00000000000E+00 0.  1.
        -13    1    3    3    0    0  0.16386233287E+03 -0.20837889007E+03  0.61667466116E+01  0.26516156344E+03  0.00000000000E+00 0. -1.
          4    1    6    6  502    0 -0.77250995383E+03  0.95087621472E+03 -0.11540299554E+04  0.16830693220E+04  0.00000000000E+00 0. -1.
          3    1    5    5  503    0  0.14181822631E+02 -0.21684389308E+02 -0.53469451007E+02  0.59416487811E+02  0.00000000000E+00 0. -1.
         -4    1    5    5    0  503 -0.90676563350E+02 -0.12404086683E+03 -0.16524567755E+03  0.22564243779E+03  0.00000000000E+00 0.  1.
         -3    1    6    6    0  502 -0.23533010709E+03  0.29837726768E+03 -0.42257903299E+03  0.56831531063E+03  0.00000000000E+00 0.  1.
<mgrwt>
<rscale>  0 0.37430017E+04</rscale>
<asrwt>0</asrwt>
<pdfrwt beam="1">  1        2 0.44211898E+00 0.37430017E+04</pdfrwt>
<pdfrwt beam="2">  1       -2 0.18750558E+00 0.37430017E+04</pdfrwt>
<totfact> 0.27049386E-01</totfact>
</mgrwt>
</event>
<event>
12    1  0.1506149E-007  0.2702926E+04  0.7818608E-02  0.8334056E-01
         -2   -1    0    0    0  501 -0.00000000000E+00  0.00000000000E+00  0.78523803418E+03  0.78523803418E+03  0.00000000000E+00 0.  1.
          2   -1    0    0  501    0  0.00000000000E+00 -0.00000000000E+00 -0.23259848801E+04  0.23259848801E+04  0.00000000000E+00 0. -1.
         23    2    1    2    0    0 -0.31025441916E+03 -0.58242468123E+03 -0.18212571428E+04  0.19392913701E+04  0.91635822508E+02 0.  0.
        254    2    1    2    0    0  0.31025441916E+03  0.58242468123E+03  0.28051029690E+03  0.11719315442E+04  0.92696343167E+03 0.  0.
        -24    2    4    4    0    0  0.57603714608E+03  0.42878159203E+03 -0.36715446047E+02  0.72328151320E+03  0.78202787844E+02 0.  0.
         24    2    4    4    0    0 -0.26578272693E+03  0.15364308920E+03  0.31722574295E+03  0.44865003098E+03  0.80050118759E+02 0.  0.
         13    1    3    3    0    0 -0.25061363034E+01 -0.31341819900E+02 -0.51443109404E+02  0.60290827652E+02  0.00000000000E+00 0.  1.
        -13    1    3    3    0    0 -0.30774828285E+03 -0.55108286133E+03 -0.17698140334E+04  0.18790005424E+04  0.00000000000E+00 0. -1.
          2    1    6    6  502    0 -0.60385913226E+02  0.64886471229E+01  0.36053492350E+02  0.70628714899E+02  0.00000000000E+00 0. -1.
          1    1    5    5  503    0  0.18649055726E+02  0.46238230681E+01 -0.11527627461E+02  0.22406544002E+02  0.00000000000E+00 0. -1.
         -2    1    5    5    0  503  0.55738809036E+03  0.42415776896E+03 -0.25187818586E+02  0.70087496920E+03  0.00000000000E+00 0.  1.
         -1    1    6    6    0  502 -0.20539681370E+03  0.14715444208E+03  0.28117225060E+03  0.37802131608E+03  0.00000000000E+00 0.  1.
<mgrwt>
<rscale>  0 0.27029257E+04</rscale>
<asrwt>0</asrwt>
<pdfrwt beam="1">  1        2 0.35784383E+00 0.27029257E+04</pdfrwt>
<pdfrwt beam="2">  1       -2 0.12080585E+00 0.27029257E+04</pdfrwt>
<totfact> 0.20068272E+00</totfact>
</mgrwt>
</event>
<event>
12    1  0.1506149E-007  0.2302798E+04  0.7818608E-02  0.8476819E-01
          2   -1    0    0  501    0  0.00000000000E+00  0.00000000000E+00  0.10621022388E+04  0.10621022388E+04  0.00000000000E+00 0. -1.
         -2   -1    0    0    0  501 -0.00000000000E+00 -0.00000000000E+00 -0.12482031934E+04  0.12482031934E+04  0.00000000000E+00 0.  1.
         23    2    1    2    0    0 -0.62475861681E+03 -0.21095601180E+03  0.63219387681E+03  0.91818372844E+03  0.92555351538E+02 0.  0.
        254    2    1    2    0    0  0.62475861681E+03  0.21095601180E+03 -0.81829483147E+03  0.13921217038E+04  0.91300089744E+03 0.  0.
        -24    2    4    4    0    0  0.79201944079E+03  0.18418901485E+03 -0.87429814081E+03  0.11966065915E+04  0.79055095056E+02 0.  0.
         24    2    4    4    0    0 -0.16726082398E+03  0.26766996956E+02  0.56003309345E+02  0.19551511226E+03  0.79982079868E+02 0.  0.
         13    1    3    3    0    0 -0.55886881173E+03 -0.16669573239E+03  0.58393718637E+03  0.82529052675E+03  0.00000000000E+00 0. -1.
        -13    1    3    3    0    0 -0.65889805083E+02 -0.44260279410E+02  0.48256690435E+02  0.92893201684E+02  0.00000000000E+00 0.  1.
          2    1    6    6  502    0 -0.16369208611E+03  0.39202507160E+02  0.64256980639E+02  0.18016907388E+03  0.00000000000E+00 0. -1.
          1    1    5    5  503    0  0.37639814796E+03  0.55113598987E+02 -0.44248604105E+03  0.58352975169E+03  0.00000000000E+00 0. -1.
         -2    1    5    5    0  503  0.41562129283E+03  0.12907541586E+03 -0.43181209976E+03  0.61307683983E+03  0.00000000000E+00 0.  1.
         -1    1    6    6    0  502 -0.35687378676E+01 -0.12435510204E+02 -0.82536712946E+01  0.15346038376E+02  0.00000000000E+00 0.  1.
<mgrwt>
<rscale>  0 0.23027978E+04</rscale>
<asrwt>0</asrwt>
<pdfrwt beam="1">  1        2 0.16340035E+00 0.23027978E+04</pdfrwt>
<pdfrwt beam="2">  1       -2 0.19203126E+00 0.23027978E+04</pdfrwt>
<totfact> 0.31314625E+00</totfact>
</mgrwt>
</event>
<event>
12    1  0.1506149E-007  0.2087159E+04  0.7818608E-02  0.8566921E-01
          2   -1    0    0  501    0  0.00000000000E+00  0.00000000000E+00  0.19449361616E+04  0.19449361616E+04  0.00000000000E+00 0.  1.
         -2   -1    0    0    0  501 -0.00000000000E+00 -0.00000000000E+00 -0.55994542126E+03  0.55994542126E+03  0.00000000000E+00 0. -1.
         23    2    1    2    0    0 -0.15315600497E+03  0.17726052958E+03  0.15407165149E+04  0.15612510021E+04  0.93910888370E+02 0.  0.
        254    2    1    2    0    0  0.15315600497E+03 -0.17726052958E+03 -0.15572577459E+03  0.94363058076E+03  0.90072753864E+03 0.  0.
        -24    2    4    4    0    0 -0.57235109269E+02 -0.38397455391E+03  0.22427641737E+03  0.45550364148E+03  0.80444640796E+02 0.  0.
         24    2    4    4    0    0  0.21039111424E+03  0.20671402433E+03 -0.38000219196E+03  0.48812693928E+03  0.82892304553E+02 0.  0.
         11    1    3    3    0    0 -0.14518094454E+02 -0.76411461959E+01  0.20793073090E+03  0.20857696669E+03  0.00000000000E+00 0. -1.
        -11    1    3    3    0    0 -0.13863791052E+03  0.18490167578E+03  0.13327857840E+04  0.13526740354E+04  0.00000000000E+00 0.  1.
          2    1    6    6  502    0  0.72732735553E+02  0.27935731156E+02 -0.12821531415E+03  0.15003207217E+03  0.00000000000E+00 0. -1.
          3    1    5    5  503    0 -0.69008541049E+01 -0.13514285342E+02 -0.61055549595E+01  0.16356512374E+02  0.00000000000E+00 0. -1.
         -4    1    5    5    0  503 -0.50334255165E+02 -0.37046026857E+03  0.23038197233E+03  0.43914712911E+03  0.00000000000E+00 0.  1.
         -1    1    6    6    0  502  0.13765837869E+03  0.17877829317E+03 -0.25178687780E+03  0.33809486711E+03  0.00000000000E+00 0.  1.
<mgrwt>
<rscale>  0 0.20871589E+04</rscale>
<asrwt>0</asrwt>
<pdfrwt beam="1">  1        2 0.29922095E+00 0.20871589E+04</pdfrwt>
<pdfrwt beam="2">  1       -2 0.86145450E-01 0.20871589E+04</pdfrwt>
<totfact> 0.77285619E+00</totfact>
</mgrwt>
</event>
<event>
12    1  0.1506149E-007  0.1465064E+04  0.7818608E-02  0.8908023E-01
         -2   -1    0    0    0  501 -0.00000000000E+00  0.00000000000E+00  0.25431600057E+03  0.25431600057E+03  0.00000000000E+00 0.  1.
          2   -1    0    0  501    0  0.00000000000E+00 -0.00000000000E+00 -0.21099853572E+04  0.21099853572E+04  0.00000000000E+00 0. -1.
         23    2    1    2    0    0 -0.14044912622E+03 -0.32596453025E+03 -0.10266833392E+04  0.10903594129E+04  0.93947529143E+02 0.  0.
        254    2    1    2    0    0  0.14044912622E+03  0.32596453025E+03 -0.82898601740E+03  0.12739419449E+04  0.89985078197E+03 0.  0.
        -24    2    4    4    0    0 -0.33705082353E+03 -0.48653936231E+02 -0.24051342795E+03  0.42467157419E+03  0.80800827633E+02 0.  0.
         24    2    4    4    0    0  0.47749994975E+03  0.37461846648E+03 -0.58847258945E+03  0.84927037068E+03  0.81332506000E+02 0.  0.
         13    1    3    3    0    0 -0.12081952392E+03 -0.17650662773E+03 -0.66384453374E+03  0.69745359127E+03  0.00000000000E+00 0. -1.
        -13    1    3    3    0    0 -0.19629602305E+02 -0.14945790252E+03 -0.36283880543E+03  0.39290582159E+03  0.00000000000E+00 0.  1.
          2    1    6    6  502    0  0.43838964282E+03  0.32805245863E+03 -0.55594252131E+03  0.78030505672E+03  0.00000000000E+00 0. -1.
          1    1    5    5  503    0 -0.30585687569E+03 -0.66877395039E+02 -0.22391378502E+03  0.38491349352E+03  0.00000000000E+00 0. -1.
         -2    1    5    5    0  503 -0.31193947843E+02  0.18223458808E+02 -0.16599642930E+02  0.39758080667E+02  0.00000000000E+00 0.  1.
         -1    1    6    6    0  502  0.39110306936E+02  0.46566007853E+02 -0.32530068139E+02  0.68965313956E+02  0.00000000000E+00 0.  1.
<mgrwt>
<rscale>  0 0.14650639E+04</rscale>
<asrwt>0</asrwt>
<pdfrwt beam="1">  1        2 0.32461312E+00 0.14650639E+04</pdfrwt>
<pdfrwt beam="2">  1       -2 0.39125540E-01 0.14650639E+04</pdfrwt>
<totfact> 0.34731785E+01</totfact>
</mgrwt>
</event>
<event>
12    1  0.1506149E-007  0.1990340E+04  0.7818608E-02  0.8611150E-01
          1   -1    0    0  501    0  0.00000000000E+00  0.00000000000E+00  0.18400226314E+04  0.18400226314E+04  0.00000000000E+00 0. -1.
         -1   -1    0    0    0  501 -0.00000000000E+00 -0.00000000000E+00 -0.53823427657E+03  0.53823427657E+03  0.00000000000E+00 0.  1.
         23    2    1    2    0    0  0.11761300657E+03 -0.78163836914E+03  0.46893578525E+03  0.92426816472E+03  0.97874972262E+02 0.  0.
        254    2    1    2    0    0 -0.11761300657E+03  0.78163836914E+03  0.83285256955E+03  0.14539887432E+04  0.89199131353E+03 0.  0.
        -24    2    4    4    0    0 -0.46687611537E+03  0.25510858201E+03  0.25931555826E+03  0.59706737029E+03  0.78684116473E+02 0.  0.
         24    2    4    4    0    0  0.34926310880E+03  0.52652978713E+03  0.57353701129E+03  0.85692137295E+03  0.78429587500E+02 0.  0.
         11    1    3    3    0    0  0.98055779846E+02 -0.65322425611E+03  0.34714853275E+03  0.74620973494E+03  0.00000000000E+00 0.  1.
        -11    1    3    3    0    0  0.19557226726E+02 -0.12841411303E+03  0.12178725250E+03  0.17805842978E+03  0.00000000000E+00 0. -1.
          2    1    6    6  502    0  0.17229363097E+03  0.26250051699E+03  0.23230520196E+03  0.39058587218E+03  0.00000000000E+00 0. -1.
          1    1    5    5  503    0 -0.12557390398E+03  0.10271894303E+03  0.56374736460E+02  0.17175010198E+03  0.00000000000E+00 0. -1.
         -2    1    5    5    0  503 -0.34130221139E+03  0.15238963898E+03  0.20294082180E+03  0.42531726831E+03  0.00000000000E+00 0.  1.
         -1    1    6    6    0  502  0.17696947783E+03  0.26402927013E+03  0.34123180934E+03  0.46633550077E+03  0.00000000000E+00 0.  1.
<mgrwt>
<rscale>  0 0.19903399E+04</rscale>
<asrwt>0</asrwt>
<pdfrwt beam="1">  1        1 0.28308040E+00 0.19903399E+04</pdfrwt>
<pdfrwt beam="2">  1       -1 0.82805274E-01 0.19903399E+04</pdfrwt>
<totfact> 0.51466734E+00</totfact>
</mgrwt>
</event>
<event>
12    1  0.1506149E-007  0.1528106E+04  0.7818608E-02  0.8865975E-01
          2   -1    0    0  501    0  0.00000000000E+00  0.00000000000E+00  0.11799013040E+04  0.11799013040E+04  0.00000000000E+00 0. -1.
         -2   -1    0    0    0  501 -0.00000000000E+00 -0.00000000000E+00 -0.49476770384E+03  0.49476770384E+03  0.00000000000E+00 0.  1.
         23    2    1    2    0    0  0.46091932049E+03  0.17790242430E+03  0.27861483634E+03  0.57375627362E+03  0.86453119749E+02 0.  0.
        254    2    1    2    0    0 -0.46091932049E+03 -0.17790242430E+03  0.40651876383E+03  0.11009127342E+04  0.89591040315E+03 0.  0.
        -24    2    4    4    0    0  0.21735410386E+03 -0.21974095189E+03  0.23528268041E+03  0.39569845174E+03  0.75434956149E+02 0.  0.
         24    2    4    4    0    0 -0.67827342436E+03  0.41838527588E+02  0.17123608342E+03  0.70521428249E+03  0.78740633612E+02 0.  0.
         11    1    3    3    0    0  0.43793595268E+03  0.15909088613E+03  0.23733225285E+03  0.52289999707E+03  0.00000000000E+00 0. -1.
        -11    1    3    3    0    0  0.22983367815E+02  0.18811538168E+02  0.41282583492E+02  0.50856276547E+02  0.00000000000E+00 0.  1.
          2    1    6    6  502    0 -0.14964606383E+03 -0.21553305945E+02  0.26702571877E+02  0.15353018193E+03  0.00000000000E+00 0. -1.
          1    1    5    5  503    0  0.27753350992E+02 -0.23403338258E+02  0.15205227650E+01  0.36335612316E+02  0.00000000000E+00 0. -1.
         -2    1    5    5    0  503  0.18960075287E+03 -0.19633761363E+03  0.23376215764E+03  0.35936283943E+03  0.00000000000E+00 0.  1.
         -1    1    6    6    0  502 -0.52862736052E+03  0.63391833533E+02  0.14453351154E+03  0.55168410056E+03  0.00000000000E+00 0.  1.
<mgrwt>
<rscale>  0 0.15281061E+04</rscale>
<asrwt>0</asrwt>
<pdfrwt beam="1">  1        2 0.18152328E+00 0.15281061E+04</pdfrwt>
<pdfrwt beam="2">  1       -2 0.76118109E-01 0.15281061E+04</pdfrwt>
<totfact> 0.29015783E+01</totfact>
</mgrwt>
</event>
<event>
12    1  0.1506149E-007  0.1761038E+04  0.7818608E-02  0.8727298E-01
         -1   -1    0    0    0  501 -0.00000000000E+00  0.00000000000E+00  0.39260780750E+03  0.39260780750E+03  0.00000000000E+00 0.  1.
          1   -1    0    0  501    0  0.00000000000E+00 -0.00000000000E+00 -0.19747802024E+04  0.19747802024E+04  0.00000000000E+00 0. -1.
         23    2    1    2    0    0 -0.25159617035E+03  0.18490743150E+03 -0.13411459120E+04  0.13801408942E+04  0.92871628355E+02 0.  0.
        254    2    1    2    0    0  0.25159617035E+03 -0.18490743150E+03 -0.24102648296E+03  0.98724711578E+03  0.90502580680E+03 0.  0.
        -24    2    4    4    0    0  0.45522404140E+03  0.12367638587E+03 -0.35166047887E+03  0.59342116324E+03  0.77193317712E+02 0.  0.
         24    2    4    4    0    0 -0.20362787104E+03 -0.30858381737E+03  0.11063399591E+03  0.39382595254E+03  0.78553915445E+02 0.  0.
         13    1    3    3    0    0 -0.17277907668E+03  0.16880312074E+03 -0.10892299621E+04  0.11156921678E+04  0.00000000000E+00 0. -1.
        -13    1    3    3    0    0 -0.78817093676E+02  0.16104310760E+02 -0.25191594989E+03  0.26444872639E+03  0.00000000000E+00 0.  1.
          2    1    6    6  502    0 -0.13969521323E+03 -0.14049128505E+03  0.58919235699E+02  0.20669791995E+03  0.00000000000E+00 0. -1.
          1    1    5    5  503    0  0.10568732082E+03  0.43210892768E+00 -0.99424893466E+02  0.14510446562E+03  0.00000000000E+00 0. -1.
         -2    1    5    5    0  503  0.34953672058E+03  0.12324427694E+03 -0.25223558540E+03  0.44831669763E+03  0.00000000000E+00 0.  1.
         -1    1    6    6    0  502 -0.63932657811E+02 -0.16809253233E+03  0.51714760211E+02  0.18712803259E+03  0.00000000000E+00 0.  1.
<mgrwt>
<rscale>  0 0.17610385E+04</rscale>
<asrwt>0</asrwt>
<pdfrwt beam="1">  1        1 0.30381233E+00 0.17610385E+04</pdfrwt>
<pdfrwt beam="2">  1       -1 0.60401202E-01 0.17610385E+04</pdfrwt>
<totfact> 0.81582372E+00</totfact>
</mgrwt>
</event>
<event>
12    1  0.1506149E-007  0.2689543E+04  0.7818608E-02  0.8338406E-01
         -2   -1    0    0    0  501 -0.00000000000E+00  0.00000000000E+00  0.10290953334E+04  0.10290953334E+04  0.00000000000E+00 0.  1.
          2   -1    0    0  501    0  0.00000000000E+00 -0.00000000000E+00 -0.17572823073E+04  0.17572823073E+04  0.00000000000E+00 0. -1.
         23    2    1    2    0    0  0.61221099524E+03 -0.82323188478E+03  0.30565953195E+03  0.10746096537E+04  0.94048495797E+02 0.  0.
        254    2    1    2    0    0 -0.61221099524E+03  0.82323188478E+03 -0.10338465058E+04  0.17117679870E+04  0.89933197696E+03 0.  0.
        -24    2    4    4    0    0 -0.37862605635E+03 -0.99060777956E+02 -0.40274382314E+03  0.56716919015E+03  0.79420242427E+02 0.  0.
         24    2    4    4    0    0 -0.23358493889E+03  0.92229266274E+03 -0.63110268268E+03  0.11445987968E+04  0.81425611182E+02 0.  0.
         13    1    3    3    0    0  0.32910152306E+03 -0.36442486884E+03  0.15174094046E+03  0.51394417063E+03  0.00000000000E+00 0.  1.
        -13    1    3    3    0    0  0.28310947218E+03 -0.45880701594E+03  0.15391859149E+03  0.56066548308E+03  0.00000000000E+00 0. -1.
          4    1    6    6  502    0 -0.20251978632E+03  0.80764173647E+03 -0.58292349274E+03  0.10164148940E+04  0.00000000000E+00 0. -1.
          3    1    5    5  503    0 -0.35616541707E+03 -0.70778941961E+02 -0.36255688120E+03  0.51313833909E+03  0.00000000000E+00 0. -1.
         -4    1    5    5    0  503 -0.22460639284E+02 -0.28281835994E+02 -0.40186941938E+02  0.54030851063E+02  0.00000000000E+00 0.  1.
         -3    1    6    6    0  502 -0.31065152577E+02  0.11465092626E+03 -0.48179189935E+02  0.12818390281E+03  0.00000000000E+00 0.  1.
<mgrwt>
<rscale>  0 0.26895435E+04</rscale>
<asrwt>0</asrwt>
<pdfrwt beam="1">  1        2 0.27035112E+00 0.26895435E+04</pdfrwt>
<pdfrwt beam="2">  1       -2 0.15832236E+00 0.26895435E+04</pdfrwt>
<totfact> 0.20745761E+00</totfact>
</mgrwt>
</event>
<event>
12    1  0.1506149E-007  0.1920227E+04  0.7818608E-02  0.8644853E-01
         -2   -1    0    0    0  501 -0.00000000000E+00  0.00000000000E+00  0.64792161477E+03  0.64792161477E+03  0.00000000000E+00 0.  1.
          2   -1    0    0  501    0  0.00000000000E+00 -0.00000000000E+00 -0.14227308981E+04  0.14227308981E+04  0.00000000000E+00 0. -1.
         23    2    1    2    0    0 -0.55598447588E+02 -0.33317053753E+03  0.39183678013E+03  0.52526858773E+03  0.90979297300E+02 0.  0.
        254    2    1    2    0    0  0.55598447588E+02  0.33317053753E+03 -0.11666460634E+04  0.15453839251E+04  0.95553892868E+03 0.  0.
        -24    2    4    4    0    0  0.33908481551E+02  0.66058655983E+03 -0.66604163432E+03  0.94165182681E+03  0.74647947961E+02 0.  0.
         24    2    4    4    0    0  0.21689966037E+02 -0.32741602230E+03 -0.50060442913E+03  0.60373209832E+03  0.78841269556E+02 0.  0.
         11    1    3    3    0    0  0.14061579146E+02 -0.68358018987E+01  0.12232974529E+02  0.19851998930E+02  0.00000000000E+00 0. -1.
        -11    1    3    3    0    0 -0.69660026734E+02 -0.32633473563E+03  0.37960380560E+03  0.50541658880E+03  0.00000000000E+00 0.  1.
          4    1    6    6  502    0  0.45836635833E+02 -0.25262829116E+03 -0.35285075900E+03  0.43637794262E+03  0.00000000000E+00 0. -1.
          1    1    5    5  503    0  0.10904634878E+02  0.56948365386E+03 -0.54404582759E+03  0.78766516084E+03  0.00000000000E+00 0. -1.
         -2    1    5    5    0  503  0.23003846674E+02  0.91102905971E+02 -0.12199580672E+03  0.15398666597E+03  0.00000000000E+00 0.  1.
         -3    1    6    6    0  502 -0.24146669796E+02 -0.74787731148E+02 -0.14775367013E+03  0.16735415570E+03  0.00000000000E+00 0.  1.
<mgrwt>
<rscale>  0 0.19202272E+04</rscale>
<asrwt>0</asrwt>
<pdfrwt beam="1">  1        2 0.21888168E+00 0.19202272E+04</pdfrwt>
<pdfrwt beam="2">  1       -2 0.99680249E-01 0.19202272E+04</pdfrwt>
<totfact> 0.10930904E+01</totfact>
</mgrwt>
</event>
<event>
12    1  0.1506149E-007  0.1522733E+04  0.7818608E-02  0.8869475E-01
         -1   -1    0    0    0  501 -0.00000000000E+00  0.00000000000E+00  0.70565842482E+03  0.70565842482E+03  0.00000000000E+00 0.  1.
          1   -1    0    0  501    0  0.00000000000E+00 -0.00000000000E+00 -0.82147247288E+03  0.82147247288E+03  0.00000000000E+00 0. -1.
         23    2    1    2    0    0  0.18866696487E+03  0.36454666424E+03  0.24134204385E+03  0.48491542302E+03  0.91692373232E+02 0.  0.
        254    2    1    2    0    0 -0.18866696487E+03 -0.36454666424E+03 -0.35715609191E+03  0.10422154747E+04  0.88891120347E+03 0.  0.
        -24    2    4    4    0    0 -0.26150821795E+02 -0.27833641290E+03 -0.63672082594E+03  0.70019895513E+03  0.81915458549E+02 0.  0.
         24    2    4    4    0    0 -0.16251614307E+03 -0.86210251336E+02  0.27956473403E+03  0.34201651956E+03  0.70534778250E+02 0.  0.
         13    1    3    3    0    0  0.28818492738E+01  0.49152558120E+01  0.25600255054E+02  0.26226663031E+02  0.00000000000E+00 0. -1.
        -13    1    3    3    0    0  0.18578511560E+03  0.35963140843E+03  0.21574178880E+03  0.45868875999E+03  0.00000000000E+00 0.  1.
          4    1    6    6  502    0 -0.17335541905E+02 -0.33114875011E+02  0.27806073579E+02  0.46586410980E+02  0.00000000000E+00 0. -1.
          1    1    5    5  503    0  0.49947853416E+01 -0.72418907374E+02 -0.93126304971E+02  0.11807605474E+03  0.00000000000E+00 0. -1.
         -2    1    5    5    0  503 -0.31145607136E+02 -0.20591750553E+03 -0.54359452097E+03  0.58212290039E+03  0.00000000000E+00 0.  1.
         -3    1    6    6    0  502 -0.14518060117E+03 -0.53095376325E+02  0.25175866045E+03  0.29543010858E+03  0.00000000000E+00 0.  1.
<mgrwt>
<rscale>  0 0.15227330E+04</rscale>
<asrwt>0</asrwt>
<pdfrwt beam="1">  1        1 0.12638038E+00 0.15227330E+04</pdfrwt>
<pdfrwt beam="2">  1       -1 0.10856284E+00 0.15227330E+04</pdfrwt>
<totfact> 0.16107044E+01</totfact>
</mgrwt>
</event>
<event>
12    1  0.1506149E-007  0.2299532E+04  0.7818608E-02  0.8478106E-01
          2   -1    0    0  501    0  0.00000000000E+00  0.00000000000E+00  0.17804024662E+04  0.17804024662E+04  0.00000000000E+00 0. -1.
         -2   -1    0    0    0  501 -0.00000000000E+00 -0.00000000000E+00 -0.74250704249E+03  0.74250704249E+03  0.00000000000E+00 0.  1.
         23    2    1    2    0    0  0.90935667063E+03  0.23559032956E+03  0.70676230485E+03  0.11792269210E+04  0.92902194519E+02 0.  0.
        254    2    1    2    0    0 -0.90935667063E+03 -0.23559032956E+03  0.33113311883E+03  0.13436825877E+04  0.90188768497E+03 0.  0.
        -24    2    4    4    0    0  0.70541438891E+02 -0.29453587938E+03  0.12672293235E+03  0.33781041514E+03  0.79559387568E+02 0.  0.
         24    2    4    4    0    0 -0.97989810952E+03  0.58945549827E+02  0.20441018648E+03  0.10058721726E+04  0.79501071076E+02 0.  0.
         11    1    3    3    0    0  0.57342828647E+03  0.18816651776E+03  0.48059723820E+03  0.77149228350E+03  0.00000000000E+00 0. -1.
        -11    1    3    3    0    0  0.33592838416E+03  0.47423811797E+02  0.22616506665E+03  0.40773463746E+03  0.00000000000E+00 0.  1.
          4    1    6    6  502    0 -0.15887490012E+02 -0.68753680332E+00 -0.66338724069E+01  0.17230592238E+02  0.00000000000E+00 0. -1.
          3    1    5    5  503    0  0.19324232169E+02 -0.10766979127E+02  0.21527671746E+02  0.30867368518E+02  0.00000000000E+00 0. -1.
         -4    1    5    5    0  503  0.51217206722E+02 -0.28376890026E+03  0.10519526060E+03  0.30694304662E+03  0.00000000000E+00 0.  1.
         -3    1    6    6    0  502 -0.96401061951E+03  0.59633086631E+02  0.21104405889E+03  0.98864158032E+03  0.00000000000E+00 0.  1.
<mgrwt>
<rscale>  0 0.22995316E+04</rscale>
<asrwt>0</asrwt>
<pdfrwt beam="1">  1        2 0.27390807E+00 0.22995316E+04</pdfrwt>
<pdfrwt beam="2">  1       -2 0.11423185E+00 0.22995316E+04</pdfrwt>
<totfact> 0.48084196E+00</totfact>
</mgrwt>
</event>
<event>
12    1  0.1506149E-007  0.1900384E+04  0.7818608E-02  0.8654665E-01
         -1   -1    0    0    0  501 -0.00000000000E+00  0.00000000000E+00  0.98020946083E+03  0.98020946083E+03  0.00000000000E+00 0.  1.
          1   -1    0    0  501    0  0.00000000000E+00 -0.00000000000E+00 -0.92109400366E+03  0.92109400366E+03  0.00000000000E+00 0. -1.
         23    2    1    2    0    0  0.54342199568E+03 -0.36469064558E+03 -0.29950047310E+03  0.72563391025E+03  0.92397542992E+02 0.  0.
        254    2    1    2    0    0 -0.54342199568E+03  0.36469064558E+03  0.35861593027E+03  0.11756695542E+04  0.90845296133E+03 0.  0.
        -24    2    4    4    0    0 -0.40219763316E+03  0.32713883899E+02  0.60445559815E+03  0.73176142929E+03  0.85294108470E+02 0.  0.
         24    2    4    4    0    0 -0.14122436252E+03  0.33197676168E+03 -0.24583966788E+03  0.44390812495E+03  0.80401431781E+02 0.  0.
         11    1    3    3    0    0  0.10818098708E+03 -0.11899561829E+03 -0.82690474461E+02  0.18083361885E+03  0.00000000000E+00 0.  1.
        -11    1    3    3    0    0  0.43524100860E+03 -0.24569502729E+03 -0.21680999864E+03  0.54480029140E+03  0.00000000000E+00 0. -1.
          4    1    6    6  502    0  0.26947794436E+01 -0.35762073373E+01 -0.24236093150E+01  0.50916576162E+01  0.00000000000E+00 0. -1.
          3    1    5    5  503    0 -0.26942639568E+02  0.22928673641E+02  0.72774844975E+02  0.80918526698E+02  0.00000000000E+00 0. -1.
         -4    1    5    5    0  503 -0.37525499360E+03  0.97852102588E+01  0.53168075317E+03  0.65084290259E+03  0.00000000000E+00 0.  1.
         -1    1    6    6    0  502 -0.14391914196E+03  0.33555296902E+03 -0.24341605856E+03  0.43881646734E+03  0.00000000000E+00 0.  1.
<mgrwt>
<rscale>  0 0.19003842E+04</rscale>
<asrwt>0</asrwt>
<pdfrwt beam="1">  1        1 0.14170677E+00 0.19003842E+04</pdfrwt>
<pdfrwt beam="2">  1       -1 0.15080146E+00 0.19003842E+04</pdfrwt>
<totfact> 0.56276036E+00</totfact>
</mgrwt>
</event>
<event>
12    1  0.1506149E-007  0.1707253E+04  0.7818608E-02  0.8757238E-01
         -2   -1    0    0    0  501 -0.00000000000E+00  0.00000000000E+00  0.28022270620E+03  0.28022270620E+03  0.00000000000E+00 0.  1.
          2   -1    0    0  501    0  0.00000000000E+00 -0.00000000000E+00 -0.26003542370E+04  0.26003542370E+04  0.00000000000E+00 0. -1.
         23    2    1    2    0    0  0.15469605995E+03  0.46211559210E+03 -0.22063247944E+03  0.54272755647E+03  0.91612325271E+02 0.  0.
        254    2    1    2    0    0 -0.15469605995E+03 -0.46211559210E+03 -0.20994990513E+04  0.23378493867E+04  0.90562784681E+03 0.  0.
        -24    2    4    4    0    0 -0.97810797727E+02 -0.22198704173E+03 -0.34255381528E+02  0.25672958272E+03  0.76755772621E+02 0.  0.
         24    2    4    4    0    0 -0.56885262220E+02 -0.24012855037E+03 -0.20652436698E+04  0.20811198040E+04  0.70218011179E+02 0.  0.
         11    1    3    3    0    0  0.60405109681E+02  0.94098982985E+02 -0.80590448107E+02  0.13783401685E+03  0.00000000000E+00 0. -1.
        -11    1    3    3    0    0  0.94290950266E+02  0.36801660912E+03 -0.14004203133E+03  0.40489353962E+03  0.00000000000E+00 0.  1.
          4    1    6    6  502    0 -0.57380770633E+02 -0.21253074438E+03 -0.19597243578E+04  0.19720500573E+04  0.00000000000E+00 0. -1.
          1    1    5    5  503    0 -0.95428391453E+02 -0.21410320697E+03 -0.49339389018E+02  0.23954360028E+03  0.00000000000E+00 0. -1.
         -2    1    5    5    0  503 -0.23824062734E+01 -0.78838347636E+01  0.15084007490E+02  0.17185982433E+02  0.00000000000E+00 0.  1.
         -3    1    6    6    0  502  0.49550841315E+00 -0.27597805997E+02 -0.10551931206E+03  0.10906974668E+03  0.00000000000E+00 0.  1.
<mgrwt>
<rscale>  0 0.17072531E+04</rscale>
<asrwt>0</asrwt>
<pdfrwt beam="1">  1        2 0.40005452E+00 0.17072531E+04</pdfrwt>
<pdfrwt beam="2">  1       -2 0.43111183E-01 0.17072531E+04</pdfrwt>
<totfact> 0.14788252E+01</totfact>
</mgrwt>
</event>
<event>
12    1  0.1506149E-007  0.2075398E+04  0.7818608E-02  0.8572159E-01
         -2   -1    0    0    0  501 -0.00000000000E+00  0.00000000000E+00  0.48814605263E+03  0.48814605263E+03  0.00000000000E+00 0.  1.
          2   -1    0    0  501    0  0.00000000000E+00 -0.00000000000E+00 -0.22059368981E+04  0.22059368981E+04  0.00000000000E+00 0. -1.
         23    2    1    2    0    0  0.76673428314E+03 -0.19551715458E+03 -0.32912881123E+03  0.86189977525E+03  0.91853304362E+02 0.  0.
        254    2    1    2    0    0 -0.76673428314E+03  0.19551715458E+03 -0.13886620342E+04  0.18321831755E+04  0.89577035253E+03 0.  0.
        -24    2    4    4    0    0 -0.87081684841E+03  0.35660982947E+03 -0.12994403930E+04  0.16063238507E+04  0.78983696445E+02 0.  0.
         24    2    4    4    0    0  0.10408256527E+03 -0.16109267489E+03 -0.89221641195E+02  0.22585932477E+03  0.79170089252E+02 0.  0.
         11    1    3    3    0    0  0.26600904731E+03 -0.41616314677E+02 -0.15041425041E+03  0.30841072878E+03  0.00000000000E+00 0. -1.
        -11    1    3    3    0    0  0.50072523582E+03 -0.15390083990E+03 -0.17871456081E+03  0.55348904647E+03  0.00000000000E+00 0.  1.
          4    1    6    6  502    0  0.65163796721E+02 -0.60679084046E+02 -0.50648049395E+01  0.89184773885E+02  0.00000000000E+00 0. -1.
          3    1    5    5  503    0 -0.73193106636E+03  0.30315772019E+03 -0.11397500821E+04  0.13880410437E+04  0.00000000000E+00 0. -1.
         -4    1    5    5    0  503 -0.13888578205E+03  0.53452109274E+02 -0.15969031090E+03  0.21828280701E+03  0.00000000000E+00 0.  1.
         -3    1    6    6    0  502  0.38918768550E+02 -0.10041359085E+03 -0.84156836256E+02  0.13667455089E+03  0.00000000000E+00 0.  1.
<mgrwt>
<rscale>  0 0.20753982E+04</rscale>
<asrwt>0</asrwt>
<pdfrwt beam="1">  1        2 0.33937491E+00 0.20753982E+04</pdfrwt>
<pdfrwt beam="2">  1       -2 0.75099392E-01 0.20753982E+04</pdfrwt>
<totfact> 0.75331603E+00</totfact>
</mgrwt>
</event>
<event>
12    1  0.1506149E-007  0.1273374E+04  0.7818608E-02  0.9050950E-01
         -1   -1    0    0    0  501 -0.00000000000E+00  0.00000000000E+00  0.18133493130E+04  0.18133493130E+04  0.00000000000E+00 0.  1.
          1   -1    0    0  501    0  0.00000000000E+00 -0.00000000000E+00 -0.22354788479E+03  0.22354788479E+03  0.00000000000E+00 0. -1.
         23    2    1    2    0    0 -0.10626023488E+03 -0.11080245935E+02 -0.63322447599E+02  0.15330507302E+03  0.89881609218E+02 0.  0.
        254    2    1    2    0    0  0.10626023488E+03  0.11080245935E+02  0.16531238758E+04  0.18835921248E+04  0.89648576920E+03 0.  0.
        -24    2    4    4    0    0  0.22611262174E+03  0.18038369900E+03  0.16331119682E+04  0.16603924851E+04  0.78634007093E+02 0.  0.
         24    2    4    4    0    0 -0.11985238685E+03 -0.16930345307E+03  0.20011907564E+02  0.22319963970E+03  0.79933402689E+02 0.  0.
         13    1    3    3    0    0 -0.92577898644E+02  0.25355579312E+02 -0.26150795038E+02  0.99485862316E+02  0.00000000000E+00 0. -1.
        -13    1    3    3    0    0 -0.13682336239E+02 -0.36435825247E+02 -0.37171652561E+02  0.53819210701E+02  0.00000000000E+00 0.  1.
          2    1    6    6  502    0 -0.12743500867E+02  0.59941684406E+01  0.10469107867E+02  0.17547908399E+02  0.00000000000E+00 0. -1.
          3    1    5    5  503    0  0.19280818442E+02 -0.67682440843E+01  0.92167748723E+02  0.94405788977E+02  0.00000000000E+00 0. -1.
         -4    1    5    5    0  503  0.20683180329E+03  0.18715194308E+03  0.15409442195E+04  0.15659866961E+04  0.00000000000E+00 0.  1.
         -1    1    6    6    0  502 -0.10710888599E+03 -0.17529762151E+03  0.95427996967E+01  0.20565173131E+03  0.00000000000E+00 0.  1.
<mgrwt>
<rscale>  0 0.12733741E+04</rscale>
<asrwt>0</asrwt>
<pdfrwt beam="1">  1        1 0.34391983E-01 0.12733741E+04</pdfrwt>
<pdfrwt beam="2">  1       -1 0.27897681E+00 0.12733741E+04</pdfrwt>
<totfact> 0.57443933E+00</totfact>
</mgrwt>
</event>
<event>
12    1  0.1506149E-007  0.1058447E+04  0.7818608E-02  0.9246666E-01
         -2   -1    0    0    0  501 -0.00000000000E+00  0.00000000000E+00  0.10611272676E+04  0.10611272676E+04  0.00000000000E+00 0.  1.
          2   -1    0    0  501    0  0.00000000000E+00 -0.00000000000E+00 -0.26394361302E+03  0.26394361302E+03  0.00000000000E+00 0. -1.
         23    2    1    2    0    0 -0.71054154322E+02  0.37116830384E+02  0.35104605541E+03  0.37150464744E+03  0.91411258086E+02 0.  0.
        254    2    1    2    0    0  0.71054154322E+02 -0.37116830384E+02  0.44613759920E+03  0.95356623322E+03  0.83894186436E+03 0.  0.
        -24    2    4    4    0    0 -0.21245348050E+02  0.11266535753E+03  0.65447209333E+03  0.66929321244E+03  0.80466363612E+02 0.  0.
         24    2    4    4    0    0  0.92299502371E+02 -0.14978218791E+03 -0.20833449413E+03  0.28427302078E+03  0.80336709827E+02 0.  0.
         11    1    3    3    0    0 -0.64708295108E+02  0.22227895994E+02  0.10753257224E+03  0.12745390111E+03  0.00000000000E+00 0. -1.
        -11    1    3    3    0    0 -0.63458592137E+01  0.14888934390E+02  0.24351348317E+03  0.24405074633E+03  0.00000000000E+00 0.  1.
          4    1    6    6  502    0  0.91978516519E+02 -0.81504216516E+02 -0.11255777266E+03  0.16665004349E+03  0.00000000000E+00 0. -1.
          3    1    5    5  503    0  0.10010634024E+01 -0.10367928899E+02  0.11734952967E+03  0.11781090014E+03  0.00000000000E+00 0. -1.
         -4    1    5    5    0  503 -0.22246411452E+02  0.12303328643E+03  0.53712256366E+03  0.55148231230E+03  0.00000000000E+00 0.  1.
         -3    1    6    6    0  502  0.32098585260E+00 -0.68277971398E+02 -0.95776721470E+02  0.11762297729E+03  0.00000000000E+00 0.  1.
<mgrwt>
<rscale>  0 0.10584475E+04</rscale>
<asrwt>0</asrwt>
<pdfrwt beam="1">  1        2 0.40606710E-01 0.10584475E+04</pdfrwt>
<pdfrwt beam="2">  1       -2 0.16325035E+00 0.10584475E+04</pdfrwt>
<totfact> 0.30022971E+01</totfact>
</mgrwt>
</event>
<event>
12    1  0.1506149E-007  0.2672829E+04  0.7818608E-02  0.8343875E-01
          1   -1    0    0  501    0  0.00000000000E+00  0.00000000000E+00  0.15406736679E+04  0.15406736679E+04  0.00000000000E+00 0. -1.
         -1   -1    0    0    0  501 -0.00000000000E+00 -0.00000000000E+00 -0.11592353896E+04  0.11592353896E+04  0.00000000000E+00 0.  1.
         23    2    1    2    0    0 -0.79314768945E+03 -0.82216611564E+03 -0.14078998028E+03  0.11548372986E+04  0.93738939117E+02 0.  0.
        254    2    1    2    0    0  0.79314768945E+03  0.82216611564E+03  0.52222825858E+03  0.15450717590E+04  0.89971329170E+03 0.  0.
        -24    2    4    4    0    0  0.95777364113E+03  0.74299209062E+03  0.31049633167E+03  0.12540579922E+04  0.82981210871E+02 0.  0.
         24    2    4    4    0    0 -0.16462595168E+03  0.79174025016E+02  0.21173192691E+03  0.29101376679E+03  0.80550439988E+02 0.  0.
         13    1    3    3    0    0 -0.37920355250E+03 -0.39663744099E+03 -0.20526235701E+02  0.54912468546E+03  0.00000000000E+00 0.  1.
        -13    1    3    3    0    0 -0.41394413695E+03 -0.42552867465E+03 -0.12026374458E+03  0.60571261314E+03  0.00000000000E+00 0. -1.
          2    1    6    6  502    0 -0.12500114109E+03  0.83819241310E+02  0.12535949083E+03  0.19587228601E+03  0.00000000000E+00 0. -1.
          3    1    5    5  503    0  0.46114231577E+03  0.30546918789E+03  0.14298075195E+03  0.57132053663E+03  0.00000000000E+00 0. -1.
         -4    1    5    5    0  503  0.49663132537E+03  0.43752290273E+03  0.16751557972E+03  0.68273745554E+03  0.00000000000E+00 0.  1.
         -3    1    6    6    0  502 -0.39624810590E+02 -0.46452162941E+01  0.86372436084E+02  0.95141480774E+02  0.00000000000E+00 0.  1.
<mgrwt>
<rscale>  0 0.26728288E+04</rscale>
<asrwt>0</asrwt>
<pdfrwt beam="1">  1        1 0.23702672E+00 0.26728288E+04</pdfrwt>
<pdfrwt beam="2">  1       -1 0.17834391E+00 0.26728288E+04</pdfrwt>
<totfact> 0.11478337E+00</totfact>
</mgrwt>
</event>
<event>
12    1  0.1506149E-007  0.2394664E+04  0.7818608E-02  0.8441504E-01
          1   -1    0    0  501    0  0.00000000000E+00  0.00000000000E+00  0.17968656590E+04  0.17968656590E+04  0.00000000000E+00 0. -1.
         -1   -1    0    0    0  501 -0.00000000000E+00 -0.00000000000E+00 -0.79783592786E+03  0.79783592786E+03  0.00000000000E+00 0.  1.
         23    2    1    2    0    0 -0.22684229594E+03  0.50254989454E+02  0.15141211474E+04  0.15344258264E+04  0.88976269330E+02 0.  0.
        254    2    1    2    0    0  0.22684229594E+03 -0.50254989454E+02 -0.51509141626E+03  0.10602757605E+04  0.89715245635E+03 0.  0.
        -24    2    4    4    0    0  0.49901824010E+02 -0.12591679414E+03 -0.73913407061E+03  0.75569014783E+03  0.80019960665E+02 0.  0.
         24    2    4    4    0    0  0.17694047193E+03  0.75661804685E+02  0.22404265435E+03  0.30458561264E+03  0.74462374128E+02 0.  0.
         13    1    3    3    0    0 -0.14029126257E+03  0.63589321056E+02  0.11299473616E+04  0.11403974220E+04  0.00000000000E+00 0. -1.
        -13    1    3    3    0    0 -0.86551033367E+02 -0.13334331602E+02  0.38417378584E+03  0.39402840443E+03  0.00000000000E+00 0.  1.
          2    1    6    6  502    0  0.90666796968E+02  0.63800829463E+02  0.16711145321E+03  0.20054239379E+03  0.00000000000E+00 0. -1.
          1    1    5    5  503    0  0.69715122733E+02 -0.11116400781E+03 -0.65455122519E+03  0.66757392203E+03  0.00000000000E+00 0. -1.
         -2    1    5    5    0  503 -0.19813298723E+02 -0.14752786333E+02 -0.84582845421E+02  0.88116225807E+02  0.00000000000E+00 0.  1.
         -1    1    6    6    0  502  0.86273674959E+02  0.11860975223E+02  0.56931201140E+02  0.10404321884E+03  0.00000000000E+00 0.  1.
<mgrwt>
<rscale>  0 0.23946641E+04</rscale>
<asrwt>0</asrwt>
<pdfrwt beam="1">  1        1 0.27644087E+00 0.23946641E+04</pdfrwt>
<pdfrwt beam="2">  1       -1 0.12274399E+00 0.23946641E+04</pdfrwt>
<totfact> 0.21489544E+00</totfact>
</mgrwt>
</event>
<event>
12    1  0.1506149E-007  0.2606707E+04  0.7818608E-02  0.8365927E-01
         -2   -1    0    0    0  501 -0.00000000000E+00  0.00000000000E+00  0.28516627634E+04  0.28516627634E+04  0.00000000000E+00 0.  1.
          2   -1    0    0  501    0  0.00000000000E+00 -0.00000000000E+00 -0.59569810683E+03  0.59569810683E+03  0.00000000000E+00 0. -1.
         23    2    1    2    0    0 -0.33082490484E+03 -0.91790940003E+03  0.17924182929E+04  0.20428755050E+04  0.92597019262E+02 0.  0.
        254    2    1    2    0    0  0.33082490484E+03  0.91790940003E+03  0.46354636374E+03  0.14044853653E+04  0.89760855922E+03 0.  0.
        -24    2    4    4    0    0  0.47473689115E+03  0.89487976482E+03  0.60937189088E+03  0.11848214450E+04  0.79264404007E+02 0.  0.
         24    2    4    4    0    0 -0.14391198632E+03  0.23029635210E+02 -0.14582552715E+03  0.21966392030E+03  0.75803229549E+02 0.  0.
         13    1    3    3    0    0 -0.65219513524E+02 -0.27101566470E+03  0.45296569857E+03  0.53186558409E+03  0.00000000000E+00 0. -1.
        -13    1    3    3    0    0 -0.26560539131E+03 -0.64689373533E+03  0.13394525943E+04  0.15110099209E+04  0.00000000000E+00 0.  1.
          2    1    6    6  502    0 -0.16962496155E+02  0.31259872175E+02 -0.44879118960E+02  0.57262912979E+02  0.00000000000E+00 0. -1.
          3    1    5    5  503    0  0.35816609446E+03  0.72085876092E+03  0.51080174538E+03  0.95333033493E+03  0.00000000000E+00 0. -1.
         -4    1    5    5    0  503  0.11657079669E+03  0.17402100390E+03  0.98570145498E+02  0.23149111003E+03  0.00000000000E+00 0.  1.
         -1    1    6    6    0  502 -0.12694949016E+03 -0.82302369649E+01 -0.10094640819E+03  0.16240100732E+03  0.00000000000E+00 0.  1.
<mgrwt>
<rscale>  0 0.26067068E+04</rscale>
<asrwt>0</asrwt>
<pdfrwt beam="1">  1        2 0.91645864E-01 0.26067068E+04</pdfrwt>
<pdfrwt beam="2">  1       -2 0.43871734E+00 0.26067068E+04</pdfrwt>
<totfact> 0.18218481E-01</totfact>
</mgrwt>
</event>
<event>
12    1  0.1506149E-007  0.1275696E+04  0.7818608E-02  0.9049064E-01
          2   -1    0    0  501    0  0.00000000000E+00  0.00000000000E+00  0.60678078608E+03  0.60678078608E+03  0.00000000000E+00 0. -1.
         -2   -1    0    0    0  501 -0.00000000000E+00 -0.00000000000E+00 -0.67050557338E+03  0.67050557338E+03  0.00000000000E+00 0.  1.
         23    2    1    2    0    0 -0.13128180781E+03 -0.12969756010E+03 -0.27148667322E+03  0.34046597020E+03  0.90308875369E+02 0.  0.
        254    2    1    2    0    0  0.13128180781E+03  0.12969756010E+03  0.20776188591E+03  0.93682038926E+03  0.89465695679E+03 0.  0.
        -24    2    4    4    0    0  0.47866944319E+03 -0.88713426295E+02  0.13800046213E+03  0.51306793526E+03  0.84853230913E+02 0.  0.
         24    2    4    4    0    0 -0.34738763537E+03  0.21841098640E+03  0.69761423778E+02  0.42375245400E+03  0.79485582571E+02 0.  0.
         13    1    3    3    0    0 -0.99286932182E+02 -0.12812302315E+03 -0.17377152142E+03  0.23763405821E+03  0.00000000000E+00 0. -1.
        -13    1    3    3    0    0 -0.31994875631E+02 -0.15745369503E+01 -0.97715151797E+02  0.10283191199E+03  0.00000000000E+00 0.  1.
          4    1    6    6  502    0 -0.33436976849E+03  0.18660704779E+03  0.70630552586E+02  0.38937643396E+03  0.00000000000E+00 0. -1.
          1    1    5    5  503    0  0.34738258559E+03 -0.72363808964E+02  0.61161959177E+02  0.36007216898E+03  0.00000000000E+00 0. -1.
         -2    1    5    5    0  503  0.13128685759E+03 -0.16349617330E+02  0.76838502958E+02  0.15299576628E+03  0.00000000000E+00 0.  1.
         -1    1    6    6    0  502 -0.13017866886E+02  0.31803938609E+02 -0.86912880837E+00  0.34376020046E+02  0.00000000000E+00 0.  1.
<mgrwt>
<rscale>  0 0.12756957E+04</rscale>
<asrwt>0</asrwt>
<pdfrwt beam="1">  1        2 0.93350891E-01 0.12756957E+04</pdfrwt>
<pdfrwt beam="2">  1       -2 0.10315470E+00 0.12756957E+04</pdfrwt>
<totfact> 0.36849448E+01</totfact>
</mgrwt>
</event>
<event>
12    1  0.1506149E-007  0.1359226E+04  0.7818608E-02  0.8983873E-01
          2   -1    0    0  501    0  0.00000000000E+00  0.00000000000E+00  0.23361965016E+03  0.23361965016E+03  0.00000000000E+00 0. -1.
         -2   -1    0    0    0  501 -0.00000000000E+00 -0.00000000000E+00 -0.19770333953E+04  0.19770333953E+04  0.00000000000E+00 0.  1.
         23    2    1    2    0    0  0.25562146355E+03 -0.26719266344E+03 -0.49608080682E+03  0.62524551359E+03  0.90008518158E+02 0.  0.
        254    2    1    2    0    0 -0.25562146355E+03  0.26719266344E+03 -0.12473329383E+04  0.15854075319E+04  0.90605923156E+03 0.  0.
        -24    2    4    4    0    0  0.32671383178E+03  0.13651239985E+03 -0.34473132615E+03  0.50064579176E+03  0.80180785633E+02 0.  0.
         24    2    4    4    0    0 -0.58233529533E+03  0.13068026358E+03 -0.90260161217E+03  0.10847617401E+04  0.76332398485E+02 0.  0.
         11    1    3    3    0    0  0.14994253653E+03 -0.17395551264E+03 -0.37353105289E+03  0.43848458595E+03  0.00000000000E+00 0. -1.
        -11    1    3    3    0    0  0.10567892702E+03 -0.93237150794E+02 -0.12254975394E+03  0.18676092764E+03  0.00000000000E+00 0.  1.
          4    1    6    6  502    0 -0.11824664644E+02  0.15596743763E+02 -0.33112097683E+02  0.38464166739E+02  0.00000000000E+00 0. -1.
          3    1    5    5  503    0  0.25868330992E+02 -0.10100218760E+02 -0.19140191331E+02  0.33727316696E+02  0.00000000000E+00 0. -1.
         -4    1    5    5    0  503  0.30084550079E+03  0.14661261861E+03 -0.32559113482E+03  0.46691847506E+03  0.00000000000E+00 0.  1.
         -1    1    6    6    0  502 -0.57051063069E+03  0.11508351982E+03 -0.86948951449E+03  0.10462975734E+04  0.00000000000E+00 0.  1.
<mgrwt>
<rscale>  0 0.13592260E+04</rscale>
<asrwt>0</asrwt>
<pdfrwt beam="1">  1        2 0.35941483E-01 0.13592260E+04</pdfrwt>
<pdfrwt beam="2">  1       -2 0.30415899E+00 0.13592260E+04</pdfrwt>
<totfact> 0.42734288E+00</totfact>
</mgrwt>
</event>
<event>
12    1  0.1506149E-007  0.1296348E+04  0.7818608E-02  0.9032466E-01
         -1   -1    0    0    0  501 -0.00000000000E+00  0.00000000000E+00  0.39918483984E+03  0.39918483984E+03  0.00000000000E+00 0.  1.
          1   -1    0    0  501    0  0.00000000000E+00 -0.00000000000E+00 -0.10524691393E+04  0.10524691393E+04  0.00000000000E+00 0. -1.
         23    2    1    2    0    0 -0.28301402477E+03  0.97733439288E+02 -0.86631605376E+02  0.32425131671E+03  0.89359487271E+02 0.  0.
        254    2    1    2    0    0  0.28301402477E+03 -0.97733439288E+02 -0.56665269408E+03  0.11274026624E+04  0.92751966242E+03 0.  0.
        -24    2    4    4    0    0 -0.19162118399E+03  0.13257873987E+03  0.10660481750E+03  0.26837634055E+03  0.79783912127E+02 0.  0.
         24    2    4    4    0    0  0.47463520876E+03 -0.23031217916E+03 -0.67325751158E+03  0.85902632188E+03  0.79550383577E+02 0.  0.
         13    1    3    3    0    0 -0.24577873915E+03  0.10895882490E+03 -0.93729853561E+02  0.28471828110E+03  0.00000000000E+00 0.  1.
        -13    1    3    3    0    0 -0.37235285615E+02 -0.11225385613E+02  0.70982481852E+01  0.39533035607E+02  0.00000000000E+00 0. -1.
          2    1    6    6  502    0  0.39046847412E+03 -0.21677055465E+03 -0.53890240813E+03  0.69990778545E+03  0.00000000000E+00 0. -1.
          3    1    5    5  503    0 -0.95161943997E+02  0.97523438111E+02  0.92710263569E+02  0.16480840251E+03  0.00000000000E+00 0. -1.
         -4    1    5    5    0  503 -0.96459239992E+02  0.35055301761E+02  0.13894553927E+02  0.10356793804E+03  0.00000000000E+00 0.  1.
         -1    1    6    6    0  502  0.84166734636E+02 -0.13541624515E+02 -0.13435510345E+03  0.15911853643E+03  0.00000000000E+00 0.  1.
<mgrwt>
<rscale>  0 0.12963483E+04</rscale>
<asrwt>0</asrwt>
<pdfrwt beam="1">  1        1 0.16191833E+00 0.12963483E+04</pdfrwt>
<pdfrwt beam="2">  1       -1 0.61413053E-01 0.12963483E+04</pdfrwt>
<totfact> 0.36417094E+01</totfact>
</mgrwt>
</event>
<event>
12    1  0.1506149E-007  0.1406789E+04  0.7818608E-02  0.8948919E-01
         -1   -1    0    0    0  501 -0.00000000000E+00  0.00000000000E+00  0.42865898265E+03  0.42865898265E+03  0.00000000000E+00 0.  1.
          1   -1    0    0  501    0  0.00000000000E+00 -0.00000000000E+00 -0.11542133771E+04  0.11542133771E+04  0.00000000000E+00 0. -1.
         23    2    1    2    0    0 -0.22645287295E+03 -0.17180099118E+01 -0.60416532394E+03  0.65132622167E+03  0.89029507232E+02 0.  0.
        254    2    1    2    0    0  0.22645287295E+03  0.17180099118E+01 -0.12138907047E+03  0.93154613804E+03  0.89540998746E+03 0.  0.
        -24    2    4    4    0    0 -0.12660464808E+03 -0.36172211109E+03 -0.14804531312E+03  0.41849320732E+03  0.79671370433E+02 0.  0.
         24    2    4    4    0    0  0.35305752103E+03  0.36344012100E+03  0.26656242651E+02  0.51305293072E+03  0.75989602836E+02 0.  0.
         13    1    3    3    0    0 -0.34859394237E+02  0.18113097481E+02 -0.44079231479E+02  0.59044392746E+02  0.00000000000E+00 0.  1.
        -13    1    3    3    0    0 -0.19159347871E+03 -0.19831107393E+02 -0.56008609246E+03  0.59228182892E+03  0.00000000000E+00 0. -1.
          4    1    6    6  502    0  0.84335869181E+02  0.13238914410E+03 -0.65459545058E+01  0.15710593186E+03  0.00000000000E+00 0. -1.
          1    1    5    5  503    0 -0.20046042410E+02 -0.16719497221E+03 -0.80435265622E+02  0.18661681196E+03  0.00000000000E+00 0. -1.
         -2    1    5    5    0  503 -0.10655860567E+03 -0.19452713888E+03 -0.67610047498E+02  0.23187639536E+03  0.00000000000E+00 0.  1.
         -3    1    6    6    0  502  0.26872165185E+03  0.23105097690E+03  0.33202197156E+02  0.35594699886E+03  0.00000000000E+00 0.  1.
<mgrwt>
<rscale>  0 0.14067892E+04</rscale>
<asrwt>0</asrwt>
<pdfrwt beam="1">  1        1 0.17757129E+00 0.14067892E+04</pdfrwt>
<pdfrwt beam="2">  1       -1 0.65947536E-01 0.14067892E+04</pdfrwt>
<totfact> 0.26229850E+01</totfact>
</mgrwt>
</event>
<event>
12    1  0.1506149E-007  0.1372558E+04  0.7818608E-02  0.8973926E-01
          1   -1    0    0  501    0  0.00000000000E+00  0.00000000000E+00  0.16400912835E+04  0.16400912835E+04  0.00000000000E+00 0. -1.
         -1   -1    0    0    0  501 -0.00000000000E+00 -0.00000000000E+00 -0.28716613432E+03  0.28716613432E+03  0.00000000000E+00 0.  1.
         23    2    1    2    0    0 -0.26131946081E+03 -0.15715538578E+03  0.62463563180E+02  0.32397703575E+03  0.89854032144E+02 0.  0.
        254    2    1    2    0    0  0.26131946081E+03  0.15715538578E+03  0.12904615860E+04  0.16032803821E+04  0.90123870465E+03 0.  0.
        -24    2    4    4    0    0 -0.32888639863E+03  0.12630271809E+02  0.45875040455E+03  0.57013087151E+03  0.79192739638E+02 0.  0.
         24    2    4    4    0    0  0.59020585944E+03  0.14452511397E+03  0.83171118149E+03  0.10331495106E+04  0.80149589920E+02 0.  0.
         13    1    3    3    0    0 -0.12083424055E+03 -0.11668970108E+03  0.58001109689E+02  0.17771192631E+03  0.00000000000E+00 0.  1.
        -13    1    3    3    0    0 -0.14048522025E+03 -0.40465684697E+02  0.44624534914E+01  0.14626510944E+03  0.00000000000E+00 0. -1.
          2    1    6    6  502    0  0.16252878406E+03  0.32238965811E+02  0.17081052080E+03  0.23797308793E+03  0.00000000000E+00 0. -1.
          1    1    5    5  503    0 -0.35410186471E+02  0.24050453358E+02  0.81256912993E+02  0.91842209914E+02  0.00000000000E+00 0. -1.
         -2    1    5    5    0  503 -0.29347621216E+03 -0.11420181549E+02  0.37749349155E+03  0.47828866160E+03  0.00000000000E+00 0.  1.
         -3    1    6    6    0  502  0.42767707538E+03  0.11228614816E+03  0.66090066069E+03  0.79517642267E+03  0.00000000000E+00 0.  1.
<mgrwt>
<rscale>  0 0.13725577E+04</rscale>
<asrwt>0</asrwt>
<pdfrwt beam="1">  1        1 0.25232173E+00 0.13725577E+04</pdfrwt>
<pdfrwt beam="2">  1       -1 0.44179406E-01 0.13725577E+04</pdfrwt>
<totfact> 0.25941863E+01</totfact>
</mgrwt>
</event>
<event>
12    1  0.1506149E-007  0.1956322E+04  0.7818608E-02  0.8627318E-01
          2   -1    0    0  501    0  0.00000000000E+00  0.00000000000E+00  0.11523383556E+04  0.11523383556E+04  0.00000000000E+00 0. -1.
         -2   -1    0    0    0  501 -0.00000000000E+00 -0.00000000000E+00 -0.83031067687E+03  0.83031067687E+03  0.00000000000E+00 0.  1.
         23    2    1    2    0    0  0.73787013005E+03 -0.19964952222E+03  0.20533527876E+03  0.79580506854E+03  0.82649076564E+02 0.  0.
        254    2    1    2    0    0 -0.73787013005E+03  0.19964952222E+03  0.11669239996E+03  0.11868439639E+04  0.90037171097E+03 0.  0.
        -24    2    4    4    0    0  0.13060423669E+03  0.45657715329E+02  0.24431309392E+03  0.29211361814E+03  0.80618759789E+02 0.  0.
         24    2    4    4    0    0 -0.86847436675E+03  0.15399180689E+03 -0.12762069396E+03  0.89473034577E+03  0.79335665604E+02 0.  0.
         13    1    3    3    0    0  0.51161928975E+03 -0.15065613031E+03  0.18015336084E+03  0.56294475809E+03  0.00000000000E+00 0.  1.
        -13    1    3    3    0    0  0.22625084031E+03 -0.48993391916E+02  0.25181917919E+02  0.23286031045E+03  0.00000000000E+00 0. -1.
          2    1    6    6  502    0 -0.41455288907E+03  0.40870541902E+02 -0.36739849714E+02  0.41817976468E+03  0.00000000000E+00 0. -1.
          3    1    5    5  503    0  0.18469636148E+02 -0.73715802599E+01  0.21139831469E+01  0.19998414430E+02  0.00000000000E+00 0. -1.
         -4    1    5    5    0  503  0.11213460054E+03  0.53029295589E+02  0.24219911077E+03  0.27211520371E+03  0.00000000000E+00 0.  1.
         -1    1    6    6    0  502 -0.45392147767E+03  0.11312126499E+03 -0.90880844251E+02  0.47655058109E+03  0.00000000000E+00 0.  1.
<mgrwt>
<rscale>  0 0.19563219E+04</rscale>
<asrwt>0</asrwt>
<pdfrwt beam="1">  1        2 0.17728282E+00 0.19563219E+04</pdfrwt>
<pdfrwt beam="2">  1       -2 0.12774010E+00 0.19563219E+04</pdfrwt>
<totfact> 0.85666486E+00</totfact>
</mgrwt>
</event>
<event>
12    1  0.1506149E-007  0.1311621E+04  0.7818608E-02  0.9020400E-01
          2   -1    0    0  501    0  0.00000000000E+00  0.00000000000E+00  0.11842433430E+04  0.11842433430E+04  0.00000000000E+00 0. -1.
         -2   -1    0    0    0  501 -0.00000000000E+00 -0.00000000000E+00 -0.36317471965E+03  0.36317471965E+03  0.00000000000E+00 0.  1.
         23    2    1    2    0    0  0.31795880536E+03  0.64430943781E+01  0.34704883388E+03  0.47958649731E+03  0.91766006451E+02 0.  0.
        254    2    1    2    0    0 -0.31795880536E+03 -0.64430943781E+01  0.47401978946E+03  0.10678315653E+04  0.90245785262E+03 0.  0.
        -24    2    4    4    0    0 -0.33306727889E+02  0.11250568814E+03  0.67559799024E+03  0.69000399719E+03  0.76850528557E+02 0.  0.
         24    2    4    4    0    0 -0.28465207747E+03 -0.11894878251E+03 -0.20157820078E+03  0.37782756814E+03  0.83332359550E+02 0.  0.
         11    1    3    3    0    0  0.92555177740E+02 -0.11925395715E+02  0.48853652540E+02  0.10533449272E+03  0.00000000000E+00 0.  1.
        -11    1    3    3    0    0  0.22540362762E+03  0.18368490093E+02  0.29819518134E+03  0.37425200460E+03  0.00000000000E+00 0. -1.
          4    1    6    6  502    0 -0.19219860270E+02 -0.30302669562E+02 -0.43614305653E+02  0.56478867454E+02  0.00000000000E+00 0. -1.
          3    1    5    5  503    0 -0.16106632164E+02  0.11443710688E+02  0.27578262928E+02  0.33925546423E+02  0.00000000000E+00 0. -1.
         -4    1    5    5    0  503 -0.17200095726E+02  0.10106197745E+03  0.64801972731E+03  0.65607845077E+03  0.00000000000E+00 0.  1.
         -3    1    6    6    0  502 -0.26543221720E+03 -0.88646112952E+02 -0.15796389513E+03  0.32134870069E+03  0.00000000000E+00 0.  1.
<mgrwt>
<rscale>  0 0.13116207E+04</rscale>
<asrwt>0</asrwt>
<pdfrwt beam="1">  1        2 0.18219128E+00 0.13116207E+04</pdfrwt>
<pdfrwt beam="2">  1       -2 0.55873034E-01 0.13116207E+04</pdfrwt>
<totfact> 0.57033312E+01</totfact>
</mgrwt>
</event>
<event>
12    1  0.1506149E-007  0.1605461E+04  0.7818608E-02  0.8817200E-01
          2   -1    0    0  501    0  0.00000000000E+00  0.00000000000E+00  0.63305658875E+03  0.63305658875E+03  0.00000000000E+00 0. -1.
         -2   -1    0    0    0  501 -0.00000000000E+00 -0.00000000000E+00 -0.10178814583E+04  0.10178814583E+04  0.00000000000E+00 0.  1.
         23    2    1    2    0    0  0.33915158050E+03 -0.93834584307E+00  0.30518137728E+03  0.46565888291E+03  0.93154963040E+02 0.  0.
        254    2    1    2    0    0 -0.33915158050E+03  0.93834584307E+00 -0.69000624681E+03  0.11852791641E+04  0.90208281283E+03 0.  0.
        -24    2    4    4    0    0 -0.50465155899E+03 -0.28158061039E+03 -0.59835166954E+03  0.83546086907E+03  0.77519721068E+02 0.  0.
         24    2    4    4    0    0  0.16549997849E+03  0.28251895624E+03 -0.91654577264E+02  0.34981829505E+03  0.82250072961E+02 0.  0.
         11    1    3    3    0    0  0.14040987606E+03  0.12418014359E+02  0.69757977640E+02  0.15727465091E+03  0.00000000000E+00 0. -1.
        -11    1    3    3    0    0  0.19874170445E+03 -0.13356360202E+02  0.23542339964E+03  0.30838423200E+03  0.00000000000E+00 0.  1.
          4    1    6    6  502    0  0.16185677302E+03  0.21346488776E+03 -0.80886753955E+02  0.27983484458E+03  0.00000000000E+00 0. -1.
          3    1    5    5  503    0 -0.32639281483E+03 -0.14774862040E+03 -0.40107328606E+03  0.53779336663E+03  0.00000000000E+00 0. -1.
         -4    1    5    5    0  503 -0.17825874416E+03 -0.13383199000E+03 -0.19727838349E+03  0.29766750244E+03  0.00000000000E+00 0.  1.
         -3    1    6    6    0  502  0.36432054678E+01  0.69054068478E+02 -0.10767823310E+02  0.69983450460E+02  0.00000000000E+00 0.  1.
<mgrwt>
<rscale>  0 0.16054614E+04</rscale>
<asrwt>0</asrwt>
<pdfrwt beam="1">  1        2 0.97393322E-01 0.16054614E+04</pdfrwt>
<pdfrwt beam="2">  1       -2 0.15659715E+00 0.16054614E+04</pdfrwt>
<totfact> 0.11881221E+01</totfact>
</mgrwt>
</event>
<event>
12    1  0.1808616E-007  0.2260783E+04  0.7818608E-02  0.8493546E-01
          2   -1    0    0  501    0  0.00000000000E+00  0.00000000000E+00  0.27126931287E+04  0.27126931287E+04  0.00000000000E+00 0. -1.
         -2   -1    0    0    0  501 -0.00000000000E+00 -0.00000000000E+00 -0.47103941235E+03  0.47103941235E+03  0.00000000000E+00 0.  1.
         23    2    1    2    0    0 -0.27511555427E+03  0.52152210804E+03  0.19949166728E+04  0.20821270700E+04  0.88807244156E+02 0.  0.
        254    2    1    2    0    0  0.27511555427E+03 -0.52152210804E+03  0.24673704355E+03  0.11016054711E+04  0.89720765039E+03 0.  0.
        -24    2    4    4    0    0  0.21893061864E+03  0.12906392050E+03  0.34529260152E+03  0.43640462794E+03  0.81448801501E+02 0.  0.
         24    2    4    4    0    0  0.56184935626E+02 -0.65058602854E+03 -0.98555557971E+02  0.66520084317E+03  0.79749835223E+02 0.  0.
         11    1    3    3    0    0 -0.28209500039E+03  0.50994652370E+03  0.19499802577E+04  0.20352017226E+04  0.00000000000E+00 0. -1.
        -11    1    3    3    0    0  0.69794461228E+01  0.11575584346E+02  0.44936415160E+02  0.46925347400E+02  0.00000000000E+00 0.  1.
          2    1    6    6  502    0  0.36864396786E+02 -0.59902688473E+03 -0.73283452309E+02  0.60461777741E+03  0.00000000000E+00 0. -1.
          1    1    5    5  503    0  0.20131079507E+03  0.91400254381E+02  0.25839353180E+03  0.34006949288E+03  0.00000000000E+00 0. -1.
         -2    1    5    5    0  503  0.17619823577E+02  0.37663666116E+02  0.86899069719E+02  0.96335135056E+02  0.00000000000E+00 0.  1.
         -1    1    6    6    0  502  0.19320538841E+02 -0.51559143808E+02 -0.25272105662E+02  0.60583065752E+02  0.00000000000E+00 0.  1.
<mgrwt>
<rscale>  0 0.22607834E+04</rscale>
<asrwt>0</asrwt>
<pdfrwt beam="1">  1        2 0.41733740E+00 0.22607834E+04</pdfrwt>
<pdfrwt beam="2">  1       -2 0.72467603E-01 0.22607834E+04</pdfrwt>
<totfact> 0.40902734E+00</totfact>
</mgrwt>
</event>
<event>
12    1  0.1506149E-007  0.2452534E+04  0.7818608E-02  0.8420093E-01
         -2   -1    0    0    0  501 -0.00000000000E+00  0.00000000000E+00  0.86986322274E+03  0.86986322274E+03  0.00000000000E+00 0. -1.
          2   -1    0    0  501    0  0.00000000000E+00 -0.00000000000E+00 -0.17286976545E+04  0.17286976545E+04  0.00000000000E+00 0.  1.
         23    2    1    2    0    0  0.22490184372E+03 -0.69598344852E+03 -0.11846717870E+04  0.13951495736E+04  0.89561653770E+02 0.  0.
        254    2    1    2    0    0 -0.22490184372E+03  0.69598344852E+03  0.32583735520E+03  0.12034113037E+04  0.89836239008E+03 0.  0.
        -24    2    4    4    0    0 -0.38019826468E+03 -0.27610304415E+02 -0.38659131058E+01  0.38938398405E+03  0.79321449645E+02 0.  0.
         24    2    4    4    0    0  0.15529642096E+03  0.72359375294E+03  0.32970326830E+03  0.81402731965E+03  0.78938801327E+02 0.  0.
         11    1    3    3    0    0  0.11329617073E+03 -0.23581614809E+03 -0.46848237980E+03  0.53658272259E+03  0.00000000000E+00 0. -1.
        -11    1    3    3    0    0  0.11160567299E+03 -0.46016730043E+03 -0.71618940718E+03  0.85856685097E+03  0.00000000000E+00 0.  1.
          2    1    6    6  502    0  0.92443323391E+02  0.57349236541E+03  0.27139712807E+03  0.64116742147E+03  0.00000000000E+00 0. -1.
          1    1    5    5  503    0 -0.29475494815E+03 -0.49007674606E+02  0.15482300799E+02  0.29920216120E+03  0.00000000000E+00 0. -1.
         -2    1    5    5    0  503 -0.85443316528E+02  0.21397370192E+02 -0.19348213905E+02  0.90181822845E+02  0.00000000000E+00 0.  1.
         -1    1    6    6    0  502  0.62853097572E+02  0.15010138752E+03  0.58306140231E+02  0.17285989818E+03  0.00000000000E+00 0.  1.
<mgrwt>
<rscale>  0 0.24525338E+04</rscale>
<asrwt>0</asrwt>
<pdfrwt beam="1">  1        2 0.26595348E+00 0.24525338E+04</pdfrwt>
<pdfrwt beam="2">  1       -2 0.13382511E+00 0.24525338E+04</pdfrwt>
<totfact> 0.34149518E+00</totfact>
</mgrwt>
</event>
<event>
12    1  0.1506149E-007  0.1993764E+04  0.7818608E-02  0.8609542E-01
         -3   -1    0    0    0  501 -0.00000000000E+00  0.00000000000E+00  0.56417986286E+03  0.56417986286E+03  0.00000000000E+00 0.  1.
          3   -1    0    0  501    0  0.00000000000E+00 -0.00000000000E+00 -0.17614489911E+04  0.17614489911E+04  0.00000000000E+00 0. -1.
         23    2    1    2    0    0 -0.56903996905E+03 -0.28663185128E+01 -0.11201995596E+04  0.12596772344E+04  0.90138666790E+02 0.  0.
        254    2    1    2    0    0  0.56903996905E+03  0.28663185128E+01 -0.77069568632E+02  0.10659516196E+04  0.89805257908E+03 0.  0.
        -24    2    4    4    0    0 -0.89475990097E+02 -0.27644916218E+03  0.11198959933E+03  0.32161038352E+03  0.80383308940E+02 0.  0.
         24    2    4    4    0    0  0.65851595914E+03  0.27931548069E+03 -0.18905916796E+03  0.74434123610E+03  0.81486812244E+02 0.  0.
         13    1    3    3    0    0 -0.15813879145E+03  0.23942679554E+02 -0.38724300882E+03  0.41897288354E+03  0.00000000000E+00 0.  1.
        -13    1    3    3    0    0 -0.41090117760E+03 -0.26808998067E+02 -0.73295655080E+03  0.84070435082E+03  0.00000000000E+00 0. -1.
          4    1    6    6  502    0  0.56283411147E+03  0.22612668596E+03 -0.13146601038E+03  0.62064388100E+03  0.00000000000E+00 0. -1.
          1    1    5    5  503    0 -0.80875010859E+02 -0.22753195645E+03  0.12260638239E+03  0.27082075916E+03  0.00000000000E+00 0. -1.
         -2    1    5    5    0  503 -0.86009792385E+01 -0.48917205725E+02 -0.10616783064E+02  0.50789624358E+02  0.00000000000E+00 0.  1.
         -3    1    6    6    0  502  0.95681847673E+02  0.53188794730E+02 -0.57593157575E+02  0.12369735510E+03  0.00000000000E+00 0.  1.
<mgrwt>
<rscale>  0 0.19937643E+04</rscale>
<asrwt>0</asrwt>
<pdfrwt beam="1">  1        3 0.27099215E+00 0.19937643E+04</pdfrwt>
<pdfrwt beam="2">  1       -3 0.86796902E-01 0.19937643E+04</pdfrwt>
<totfact> 0.16512464E-01</totfact>
</mgrwt>
</event>
<event>
12    1  0.1506149E-007  0.1331590E+04  0.7818608E-02  0.9004882E-01
          1   -1    0    0  501    0  0.00000000000E+00  0.00000000000E+00  0.38384978486E+03  0.38384978486E+03  0.00000000000E+00 0. -1.
         -1   -1    0    0    0  501 -0.00000000000E+00 -0.00000000000E+00 -0.11548349780E+04  0.11548349780E+04  0.00000000000E+00 0.  1.
         23    2    1    2    0    0 -0.23168581190E+03  0.12111811360E+03 -0.46646575218E+03  0.54248972494E+03  0.91416031541E+02 0.  0.
        254    2    1    2    0    0  0.23168581190E+03 -0.12111811360E+03 -0.30451944094E+03  0.99619503792E+03  0.91177000981E+03 0.  0.
        -24    2    4    4    0    0 -0.11487075331E+03  0.32597255607E+03 -0.16383320292E+02  0.35617560772E+03  0.84494100836E+02 0.  0.
         24    2    4    4    0    0  0.34655656520E+03 -0.44709066967E+03 -0.28813612065E+03  0.64001943019E+03  0.81307608541E+02 0.  0.
         11    1    3    3    0    0 -0.17206062391E+03  0.11075481129E+03 -0.28248706329E+03  0.34881288314E+03  0.00000000000E+00 0. -1.
        -11    1    3    3    0    0 -0.59625187988E+02  0.10363302314E+02 -0.18397868890E+03  0.19367684179E+03  0.00000000000E+00 0.  1.
          2    1    6    6  502    0  0.65492308733E+00 -0.23540332700E+02 -0.44472397306E+01  0.23965686494E+02  0.00000000000E+00 0. -1.
          1    1    5    5  503    0 -0.27849403683E+01 -0.42753007068E+01 -0.51421797843E+01  0.72440390614E+01  0.00000000000E+00 0. -1.
         -2    1    5    5    0  503 -0.11208581294E+03  0.33024785678E+03 -0.11241140507E+02  0.34893156866E+03  0.00000000000E+00 0.  1.
         -1    1    6    6    0  502  0.34590164212E+03 -0.42355033697E+03 -0.28368888092E+03  0.61605374370E+03  0.00000000000E+00 0.  1.
<mgrwt>
<rscale>  0 0.13315903E+04</rscale>
<asrwt>0</asrwt>
<pdfrwt beam="1">  1        1 0.59053815E-01 0.13315903E+04</pdfrwt>
<pdfrwt beam="2">  1       -1 0.17766691E+00 0.13315903E+04</pdfrwt>
<totfact> 0.13438673E+01</totfact>
</mgrwt>
</event>
<event>
12    1  0.1782025E-007  0.2122679E+04  0.7818608E-02  0.8551319E-01
         -2   -1    0    0    0  501 -0.00000000000E+00  0.00000000000E+00  0.48761181139E+03  0.48761181139E+03  0.00000000000E+00 0.  1.
          2   -1    0    0  501    0  0.00000000000E+00 -0.00000000000E+00 -0.23101184665E+04  0.23101184665E+04  0.00000000000E+00 0. -1.
         23    2    1    2    0    0  0.21554496975E+03  0.12410956037E+03  0.34521962654E+03  0.43638737796E+03  0.96925415316E+02 0.  0.
        254    2    1    2    0    0 -0.21554496975E+03 -0.12410956037E+03 -0.21677262817E+04  0.23613429000E+04  0.90279579196E+03 0.  0.
        -24    2    4    4    0    0  0.81167130792E+02 -0.36177230513E+03 -0.39890754994E+03  0.55030604830E+03  0.79007654786E+02 0.  0.
         24    2    4    4    0    0 -0.29671210054E+03  0.23766274476E+03 -0.17688187318E+04  0.18110368517E+04  0.81321101159E+02 0.  0.
         13    1    3    3    0    0  0.61256455760E+02  0.24795062662E+02  0.32105815239E+02  0.73470619140E+02  0.00000000000E+00 0. -1.
        -13    1    3    3    0    0  0.15428851399E+03  0.99314497704E+02  0.31311381130E+03  0.36291675882E+03  0.00000000000E+00 0.  1.
          4    1    6    6  502    0 -0.50400220659E+02  0.62365281387E+01 -0.23161556166E+03  0.23711778703E+03  0.00000000000E+00 0. -1.
          1    1    5    5  503    0  0.17147912937E+02 -0.30825864193E+02 -0.12238296104E+02  0.37337122450E+02  0.00000000000E+00 0. -1.
         -2    1    5    5    0  503  0.64019217855E+02 -0.33094644094E+03 -0.38666925384E+03  0.51296892585E+03  0.00000000000E+00 0.  1.
         -3    1    6    6    0  502 -0.24631187988E+03  0.23142621663E+03 -0.15372031701E+04  0.15739190646E+04  0.00000000000E+00 0.  1.
<mgrwt>
<rscale>  0 0.21226785E+04</rscale>
<asrwt>0</asrwt>
<pdfrwt beam="1">  1        2 0.35540284E+00 0.21226785E+04</pdfrwt>
<pdfrwt beam="2">  1       -2 0.75017202E-01 0.21226785E+04</pdfrwt>
<totfact> 0.65681743E+00</totfact>
</mgrwt>
</event>
<event>
12    1  0.1506149E-007  0.1672773E+04  0.7818608E-02  0.8777047E-01
          2   -1    0    0  501    0  0.00000000000E+00  0.00000000000E+00  0.97447823145E+03  0.97447823145E+03  0.00000000000E+00 0. -1.
         -2   -1    0    0    0  501 -0.00000000000E+00 -0.00000000000E+00 -0.71786333718E+03  0.71786333718E+03  0.00000000000E+00 0.  1.
         23    2    1    2    0    0 -0.33038433039E+03  0.36289581269E+03  0.32855598057E+03  0.59713396655E+03  0.88163286007E+02 0.  0.
        254    2    1    2    0    0  0.33038433039E+03 -0.36289581269E+03 -0.71941086311E+02  0.10952076021E+04  0.97645122516E+03 0.  0.
        -24    2    4    4    0    0  0.14363165722E+02 -0.41870042920E+03  0.35526113558E+03  0.55495113906E+03  0.79018620308E+02 0.  0.
         24    2    4    4    0    0  0.31602116467E+03  0.55804616507E+02 -0.42720222189E+03  0.54025646302E+03  0.79948581606E+02 0.  0.
         11    1    3    3    0    0 -0.80311994290E+01 -0.50116075731E+01  0.64553837911E+01  0.11458113048E+02  0.00000000000E+00 0.  1.
        -11    1    3    3    0    0 -0.32235313096E+03  0.36790742027E+03  0.32210059678E+03  0.58567585350E+03  0.00000000000E+00 0. -1.
          2    1    6    6  502    0  0.10420050449E+03 -0.81001130322E+01 -0.95752904667E+02  0.14174616651E+03  0.00000000000E+00 0. -1.
          1    1    5    5  503    0  0.45850963476E+02 -0.29516105677E+03  0.24235176036E+03  0.38465144746E+03  0.00000000000E+00 0. -1.
         -2    1    5    5    0  503 -0.31487797754E+02 -0.12353937243E+03  0.11290937522E+03  0.17029969161E+03  0.00000000000E+00 0.  1.
         -1    1    6    6    0  502  0.21182066018E+03  0.63904729539E+02 -0.33144931722E+03  0.39851029651E+03  0.00000000000E+00 0.  1.
<mgrwt>
<rscale>  0 0.16727728E+04</rscale>
<asrwt>0</asrwt>
<pdfrwt beam="1">  1        2 0.14991973E+00 0.16727728E+04</pdfrwt>
<pdfrwt beam="2">  1       -2 0.11044051E+00 0.16727728E+04</pdfrwt>
<totfact> 0.16236866E+01</totfact>
</mgrwt>
</event>
<event>
12    1  0.1506149E-007  0.1271226E+04  0.7818608E-02  0.9052700E-01
         -1   -1    0    0    0  501 -0.00000000000E+00  0.00000000000E+00  0.13719882578E+03  0.13719882578E+03  0.00000000000E+00 0.  1.
          1   -1    0    0  501    0  0.00000000000E+00 -0.00000000000E+00 -0.29446602000E+04  0.29446602000E+04  0.00000000000E+00 0. -1.
         23    2    1    2    0    0  0.25939468659E+03  0.15231259348E+03 -0.30636510039E+03  0.43941791763E+03  0.93508299261E+02 0.  0.
        254    2    1    2    0    0 -0.25939468659E+03 -0.15231259348E+03 -0.25010962738E+04  0.26424411081E+04  0.79782686686E+03 0.  0.
        -24    2    4    4    0    0  0.22540184097E+03  0.13126606856E+03 -0.61875705024E+03  0.67636142742E+03  0.81041487016E+02 0.  0.
         24    2    4    4    0    0 -0.48479652756E+03 -0.28357866204E+03 -0.18823392236E+04  0.19660796807E+04  0.82606462107E+02 0.  0.
         13    1    3    3    0    0  0.25636354143E+03  0.12286895700E+03 -0.26570281486E+03  0.38912341460E+03  0.00000000000E+00 0.  1.
        -13    1    3    3    0    0  0.30311451644E+01  0.29443636473E+02 -0.40662285531E+02  0.50294503024E+02  0.00000000000E+00 0. -1.
          4    1    6    6  502    0 -0.18619331483E+03 -0.14211695288E+03 -0.88263673023E+03  0.91318824803E+03  0.00000000000E+00 0. -1.
          3    1    5    5  503    0  0.68916974913E+02  0.49867270373E+02 -0.11814800579E+03  0.14558586936E+03  0.00000000000E+00 0. -1.
         -4    1    5    5    0  503  0.15648486605E+03  0.81398798188E+02 -0.50060904445E+03  0.53077555806E+03  0.00000000000E+00 0.  1.
         -1    1    6    6    0  502 -0.29860321273E+03 -0.14146170916E+03 -0.99970249335E+03  0.10528914327E+04  0.00000000000E+00 0.  1.
<mgrwt>
<rscale>  0 0.12712261E+04</rscale>
<asrwt>0</asrwt>
<pdfrwt beam="1">  1        1 0.45302465E+00 0.12712261E+04</pdfrwt>
<pdfrwt beam="2">  1       -1 0.21107511E-01 0.12712261E+04</pdfrwt>
<totfact> 0.12186666E+01</totfact>
</mgrwt>
</event>
<event>
12    1  0.1506149E-007  0.1406408E+04  0.7818608E-02  0.8949193E-01
         -2   -1    0    0    0  501 -0.00000000000E+00  0.00000000000E+00  0.63227603394E+03  0.63227603394E+03  0.00000000000E+00 0.  1.
          2   -1    0    0  501    0  0.00000000000E+00 -0.00000000000E+00 -0.78208858709E+03  0.78208858709E+03  0.00000000000E+00 0. -1.
         23    2    1    2    0    0  0.34576417072E+03  0.12187848375E+03 -0.21979188445E+03  0.43679552615E+03  0.89858959712E+02 0.  0.
        254    2    1    2    0    0 -0.34576417072E+03 -0.12187848375E+03  0.69979331300E+02  0.97756909488E+03  0.90351369768E+03 0.  0.
        -24    2    4    4    0    0 -0.49075460918E+03 -0.27713176565E+03  0.30872902773E+03  0.64750157527E+03  0.79388761478E+02 0.  0.
         24    2    4    4    0    0  0.14499043846E+03  0.15525328190E+03 -0.23874969643E+03  0.33006751961E+03  0.82567191844E+02 0.  0.
         11    1    3    3    0    0  0.72885881968E+02 -0.73469564499E+01 -0.24643005996E+02  0.77289115041E+02  0.00000000000E+00 0.  1.
        -11    1    3    3    0    0  0.27287828875E+03  0.12922544020E+03 -0.19514887845E+03  0.35950641111E+03  0.00000000000E+00 0. -1.
          2    1    6    6  502    0  0.52907820984E+02  0.64749012326E+02 -0.39099544862E+02  0.92306264830E+02  0.00000000000E+00 0. -1.
          3    1    5    5  503    0 -0.42893490146E+01  0.16854780625E+01 -0.34449634919E+01  0.57538791028E+01  0.00000000000E+00 0. -1.
         -4    1    5    5    0  503 -0.48646526017E+03 -0.27881724371E+03  0.31217399122E+03  0.64174769617E+03  0.00000000000E+00 0.  1.
         -1    1    6    6    0  502  0.92082617478E+02  0.90504269574E+02 -0.19965015157E+03  0.23776125478E+03  0.00000000000E+00 0.  1.
<mgrwt>
<rscale>  0 0.14064080E+04</rscale>
<asrwt>0</asrwt>
<pdfrwt beam="1">  1        2 0.12032132E+00 0.14064080E+04</pdfrwt>
<pdfrwt beam="2">  1       -2 0.97273236E-01 0.14064080E+04</pdfrwt>
<totfact> 0.30456731E+01</totfact>
</mgrwt>
</event>
<event>
12    1  0.1506149E-007  0.2041118E+04  0.7818608E-02  0.8587634E-01
          1   -1    0    0  501    0  0.00000000000E+00  0.00000000000E+00  0.95713596737E+03  0.95713596737E+03  0.00000000000E+00 0. -1.
         -1   -1    0    0    0  501 -0.00000000000E+00 -0.00000000000E+00 -0.10881851300E+04  0.10881851300E+04  0.00000000000E+00 0.  1.
         23    2    1    2    0    0  0.31113026786E+03 -0.75432532190E+03  0.33806932819E+02  0.82158107185E+03  0.89687312781E+02 0.  0.
        254    2    1    2    0    0 -0.31113026786E+03  0.75432532190E+03 -0.16485609541E+03  0.12237400255E+04  0.89696899777E+03 0.  0.
        -24    2    4    4    0    0 -0.39646384313E+03 -0.43331252079E+02 -0.41941227092E+02  0.40864024529E+03  0.78527748094E+02 0.  0.
         24    2    4    4    0    0  0.85333575276E+02  0.79765657398E+03 -0.12291486832E+03  0.81509978020E+03  0.75774387150E+02 0.  0.
         13    1    3    3    0    0  0.26189937582E+03 -0.69427395617E+03  0.17502699921E+02  0.74223578045E+03  0.00000000000E+00 0.  1.
        -13    1    3    3    0    0  0.49230892037E+02 -0.60051365724E+02  0.16304232899E+02  0.79345291394E+02  0.00000000000E+00 0. -1.
          4    1    6    6  502    0  0.20813500848E+02  0.61535790667E+02  0.50591389253E+01  0.65157119620E+02  0.00000000000E+00 0. -1.
          3    1    5    5  503    0 -0.59157690355E+02  0.17681597144E+02  0.79328370534E+01  0.62251113319E+02  0.00000000000E+00 0. -1.
         -4    1    5    5    0  503 -0.33730615278E+03 -0.61012849223E+02 -0.49874064145E+02  0.34638913197E+03  0.00000000000E+00 0.  1.
         -3    1    6    6    0  502  0.64520074429E+02  0.73612078331E+03 -0.12797400724E+03  0.74994266058E+03  0.00000000000E+00 0.  1.
<mgrwt>
<rscale>  0 0.20411184E+04</rscale>
<asrwt>0</asrwt>
<pdfrwt beam="1">  1        1 0.14725169E+00 0.20411184E+04</pdfrwt>
<pdfrwt beam="2">  1       -1 0.16741310E+00 0.20411184E+04</pdfrwt>
<totfact> 0.38882765E+00</totfact>
</mgrwt>
</event>
<event>
12    1  0.1506149E-007  0.1098517E+04  0.7818608E-02  0.9206639E-01
         -2   -1    0    0    0  501 -0.00000000000E+00  0.00000000000E+00  0.50623076615E+03  0.50623076615E+03  0.00000000000E+00 0.  1.
          2   -1    0    0  501    0  0.00000000000E+00 -0.00000000000E+00 -0.59594336645E+03  0.59594336645E+03  0.00000000000E+00 0. -1.
         23    2    1    2    0    0 -0.13085581750E+03  0.81945284319E+02 -0.19100392058E+02  0.18097027742E+03  0.92450753023E+02 0.  0.
        254    2    1    2    0    0  0.13085581750E+03 -0.81945284319E+02 -0.70612208242E+02  0.92120385518E+03  0.90542375949E+03 0.  0.
        -24    2    4    4    0    0 -0.20884069446E+03  0.25445909205E+03 -0.23260353163E+03  0.41129747366E+03  0.81837300298E+02 0.  0.
         24    2    4    4    0    0  0.33969651196E+03 -0.33640437637E+03  0.16199132339E+03  0.50990638153E+03  0.72122842364E+02 0.  0.
         11    1    3    3    0    0 -0.11651130265E+03  0.42738136447E+02 -0.44804936451E+02  0.13194284476E+03  0.00000000000E+00 0. -1.
        -11    1    3    3    0    0 -0.14344514853E+02  0.39207147872E+02  0.25704544393E+02  0.49027432658E+02  0.00000000000E+00 0.  1.
          2    1    6    6  502    0  0.21072674254E+03 -0.20682280719E+03  0.62659111508E+02  0.30184035159E+03  0.00000000000E+00 0. -1.
          3    1    5    5  503    0 -0.10615732947E+03  0.11505840672E+03 -0.62452886149E+02  0.16854725909E+03  0.00000000000E+00 0. -1.
         -4    1    5    5    0  503 -0.10268336498E+03  0.13940068534E+03 -0.17015064548E+03  0.24275021457E+03  0.00000000000E+00 0.  1.
         -1    1    6    6    0  502  0.12896976942E+03 -0.12958156918E+03  0.99332211880E+02  0.20806602994E+03  0.00000000000E+00 0.  1.
<mgrwt>
<rscale>  0 0.10985169E+04</rscale>
<asrwt>0</asrwt>
<pdfrwt beam="1">  1        2 0.91683594E-01 0.10985169E+04</pdfrwt>
<pdfrwt beam="2">  1       -2 0.77881657E-01 0.10985169E+04</pdfrwt>
<totfact> 0.72943345E+01</totfact>
</mgrwt>
</event>
<event>
12    1  0.1506149E-007  0.1856405E+04  0.7818608E-02  0.8676866E-01
         -2   -1    0    0    0  501 -0.00000000000E+00  0.00000000000E+00  0.53626590687E+03  0.53626590687E+03  0.00000000000E+00 0.  1.
          2   -1    0    0  501    0  0.00000000000E+00 -0.00000000000E+00 -0.16065907035E+04  0.16065907035E+04  0.00000000000E+00 0. -1.
         23    2    1    2    0    0  0.56093807422E+03  0.35522326718E+03 -0.69034109582E+03  0.96208055471E+03  0.90515592680E+02 0.  0.
        254    2    1    2    0    0 -0.56093807422E+03 -0.35522326718E+03 -0.37998370080E+03  0.11807760556E+04  0.89944949166E+03 0.  0.
        -24    2    4    4    0    0 -0.38919613209E+03 -0.34377869857E+03  0.20604959026E+03  0.56434384373E+03  0.79813015774E+02 0.  0.
         24    2    4    4    0    0 -0.17174194213E+03 -0.11444568610E+02 -0.58603329106E+03  0.61643221191E+03  0.83230888564E+02 0.  0.
         11    1    3    3    0    0  0.45289362143E+03  0.32594947159E+03 -0.58279917475E+03  0.80685225937E+03  0.00000000000E+00 0. -1.
        -11    1    3    3    0    0  0.10804445280E+03  0.29273795598E+02 -0.10754192106E+03  0.15522829534E+03  0.00000000000E+00 0.  1.
          2    1    6    6  502    0 -0.11975849205E+03  0.27006903654E+02 -0.43830437853E+03  0.45517271172E+03  0.00000000000E+00 0. -1.
          3    1    5    5  503    0 -0.37075641638E+03 -0.32674720435E+03  0.17464950656E+03  0.52414359290E+03  0.00000000000E+00 0. -1.
         -4    1    5    5    0  503 -0.18439715717E+02 -0.17031494219E+02  0.31400083693E+02  0.40200250832E+02  0.00000000000E+00 0.  1.
         -1    1    6    6    0  502 -0.51983450079E+02 -0.38451472264E+02 -0.14772891253E+03  0.16125950018E+03  0.00000000000E+00 0.  1.
<mgrwt>
<rscale>  0 0.18564049E+04</rscale>
<asrwt>0</asrwt>
<pdfrwt beam="1">  1        2 0.24716780E+00 0.18564049E+04</pdfrwt>
<pdfrwt beam="2">  1       -2 0.82502448E-01 0.18564049E+04</pdfrwt>
<totfact> 0.13399228E+01</totfact>
</mgrwt>
</event>
<event>
12    1  0.1506149E-007  0.1196249E+04  0.7818608E-02  0.9116146E-01
         -2   -1    0    0    0  501 -0.00000000000E+00  0.00000000000E+00  0.20911928222E+03  0.20911928222E+03  0.00000000000E+00 0. -1.
          2   -1    0    0  501    0  0.00000000000E+00 -0.00000000000E+00 -0.17107607776E+04  0.17107607776E+04  0.00000000000E+00 0.  1.
         23    2    1    2    0    0  0.12115339922E+03 -0.13972822991E+03 -0.58294692021E+03  0.61835230404E+03  0.91270673005E+02 0.  0.
        254    2    1    2    0    0 -0.12115339922E+03  0.13972822991E+03 -0.91869457521E+03  0.13015277558E+04  0.90320133542E+03 0.  0.
        -24    2    4    4    0    0  0.29428673469E+03 -0.14584898780E+03 -0.13147732061E+03  0.36330049189E+03  0.82609636961E+02 0.  0.
         24    2    4    4    0    0 -0.41544013391E+03  0.28557721771E+03 -0.78721725460E+03  0.93822726393E+03  0.80090827901E+02 0.  0.
         11    1    3    3    0    0 -0.11068181688E+02 -0.11567608955E+01 -0.13156078273E+02  0.17231515812E+02  0.00000000000E+00 0. -1.
        -11    1    3    3    0    0  0.13222158091E+03 -0.13857146901E+03 -0.56979084194E+03  0.60112078823E+03  0.00000000000E+00 0.  1.
          2    1    6    6  502    0 -0.16982462477E+01 -0.31558448510E+00  0.18443151795E+01  0.25268819455E+01  0.00000000000E+00 0. -1.
          3    1    5    5  503    0  0.14241385666E+02  0.67041712169E+01 -0.20055445651E+02  0.25494781380E+02  0.00000000000E+00 0. -1.
         -4    1    5    5    0  503  0.28004534903E+03 -0.15255315902E+03 -0.11142187496E+03  0.33780571051E+03  0.00000000000E+00 0.  1.
         -3    1    6    6    0  502 -0.41374188766E+03  0.28589280219E+03 -0.78906156978E+03  0.93570038199E+03  0.00000000000E+00 0.  1.
<mgrwt>
<rscale>  0 0.11962492E+04</rscale>
<asrwt>0</asrwt>
<pdfrwt beam="1">  1        2 0.26319397E+00 0.11962492E+04</pdfrwt>
<pdfrwt beam="2">  1       -2 0.32172196E-01 0.11962492E+04</pdfrwt>
<totfact> 0.85838148E+01</totfact>
</mgrwt>
</event>
<event>
12    1  0.1506149E-007  0.1902155E+04  0.7818608E-02  0.8653784E-01
         -2   -1    0    0    0  501 -0.00000000000E+00  0.00000000000E+00  0.43132675708E+03  0.43132675708E+03  0.00000000000E+00 0.  1.
          2   -1    0    0  501    0  0.00000000000E+00 -0.00000000000E+00 -0.20971312383E+04  0.20971312383E+04  0.00000000000E+00 0. -1.
         23    2    1    2    0    0 -0.67062086779E+03 -0.17025438465E+03 -0.32715539357E+03  0.77057224647E+03  0.89621602738E+02 0.  0.
        254    2    1    2    0    0  0.67062086779E+03  0.17025438465E+03 -0.13386490876E+04  0.17578857489E+04  0.90524141673E+03 0.  0.
        -24    2    4    4    0    0  0.74105539031E+02  0.45865506672E+03 -0.56309726408E+03  0.73444572920E+03  0.80472971782E+02 0.  0.
         24    2    4    4    0    0  0.59651532876E+03 -0.28840068207E+03 -0.77555182356E+03  0.10234400197E+04  0.83326778628E+02 0.  0.
         11    1    3    3    0    0 -0.55959202927E+03 -0.17313571598E+03 -0.28863643217E+03  0.65301623666E+03  0.00000000000E+00 0.  1.
        -11    1    3    3    0    0 -0.11102883852E+03  0.28813313383E+01 -0.38518961400E+02  0.11755600980E+03  0.00000000000E+00 0. -1.
          4    1    6    6  502    0  0.45884576506E+03 -0.24382084958E+03 -0.56114304783E+03  0.76476765291E+03  0.00000000000E+00 0. -1.
          3    1    5    5  503    0  0.84531705651E+02  0.40872174177E+03 -0.47221833456E+03  0.63022950339E+03  0.00000000000E+00 0. -1.
         -4    1    5    5    0  503 -0.10426166619E+02  0.49933324952E+02 -0.90878929520E+02  0.10421622581E+03  0.00000000000E+00 0.  1.
         -3    1    6    6    0  502  0.13766956370E+03 -0.44579832494E+02 -0.21440877573E+03  0.25867236680E+03  0.00000000000E+00 0.  1.
<mgrwt>
<rscale>  0 0.19021554E+04</rscale>
<asrwt>0</asrwt>
<pdfrwt beam="1">  1        2 0.32263558E+00 0.19021554E+04</pdfrwt>
<pdfrwt beam="2">  1       -2 0.66357963E-01 0.19021554E+04</pdfrwt>
<totfact> 0.11530684E+01</totfact>
</mgrwt>
</event>
<event>
12    1  0.1506149E-007  0.1806518E+04  0.7818608E-02  0.8702841E-01
          2   -1    0    0  501    0  0.00000000000E+00  0.00000000000E+00  0.73032272650E+03  0.73032272650E+03  0.00000000000E+00 0. -1.
         -2   -1    0    0    0  501 -0.00000000000E+00 -0.00000000000E+00 -0.11171452576E+04  0.11171452576E+04  0.00000000000E+00 0.  1.
         23    2    1    2    0    0 -0.37219676338E+02  0.32733053445E+03  0.46054397526E+03  0.57353499523E+03  0.91164985146E+02 0.  0.
        254    2    1    2    0    0  0.37219676338E+02 -0.32733053445E+03 -0.84736650634E+03  0.12739329888E+04  0.89238146603E+03 0.  0.
        -24    2    4    4    0    0  0.22490793868E+03 -0.26688858308E+03  0.40887805204E+02  0.36059210604E+03  0.80881132919E+02 0.  0.
         24    2    4    4    0    0 -0.18768826234E+03 -0.60441951366E+02 -0.88825431154E+03  0.91334088281E+03  0.79471585634E+02 0.  0.
         13    1    3    3    0    0  0.74461424748E+01  0.21854251410E+02  0.56452454608E+01  0.23768090768E+02  0.00000000000E+00 0.  1.
        -13    1    3    3    0    0 -0.44665818813E+02  0.30547628304E+03  0.45489872980E+03  0.54976690446E+03  0.00000000000E+00 0. -1.
          2    1    6    6  502    0 -0.13855271005E+03 -0.79375869937E+02 -0.64804653170E+03  0.66742916436E+03  0.00000000000E+00 0. -1.
          3    1    5    5  503    0  0.14559749023E+02 -0.58750852094E+02 -0.66029436011E+01  0.60887172521E+02  0.00000000000E+00 0. -1.
         -4    1    5    5    0  503  0.21034818966E+03 -0.20813773099E+03  0.47490748805E+02  0.29970493352E+03  0.00000000000E+00 0.  1.
         -1    1    6    6    0  502 -0.49135552299E+02  0.18933918571E+02 -0.24020777984E+03  0.24591171845E+03  0.00000000000E+00 0.  1.
<mgrwt>
<rscale>  0 0.18065177E+04</rscale>
<asrwt>0</asrwt>
<pdfrwt beam="1">  1        2 0.11235734E+00 0.18065177E+04</pdfrwt>
<pdfrwt beam="2">  1       -2 0.17186850E+00 0.18065177E+04</pdfrwt>
<totfact> 0.75657945E+00</totfact>
</mgrwt>
</event>
<event>
12    1  0.1506149E-007  0.1260158E+04  0.7818608E-02  0.9061771E-01
         -2   -1    0    0    0  501 -0.00000000000E+00  0.00000000000E+00  0.23453308318E+03  0.23453308318E+03  0.00000000000E+00 0.  1.
          2   -1    0    0  501    0  0.00000000000E+00 -0.00000000000E+00 -0.16927242288E+04  0.16927242288E+04  0.00000000000E+00 0. -1.
         23    2    1    2    0    0 -0.59526997985E+02 -0.20284673406E+03 -0.36279660415E+02  0.23276407322E+03  0.90402649385E+02 0.  0.
        254    2    1    2    0    0  0.59526997985E+02  0.20284673406E+03 -0.14219114853E+04  0.16944932388E+04  0.89709798989E+03 0.  0.
        -24    2    4    4    0    0 -0.43139281405E+02  0.52640483718E+03 -0.61341657862E+03  0.81381275566E+03  0.83953869052E+02 0.  0.
         24    2    4    4    0    0  0.10266627939E+03 -0.32355810313E+03 -0.80849490663E+03  0.88068048315E+03  0.81877276039E+02 0.  0.
         13    1    3    3    0    0  0.14728948277E+02 -0.80890725194E+02  0.96258841507E+01  0.82782298745E+02  0.00000000000E+00 0.  1.
        -13    1    3    3    0    0 -0.74255946263E+02 -0.12195600886E+03 -0.45905544566E+02  0.14998177448E+03  0.00000000000E+00 0. -1.
          2    1    6    6  502    0  0.11426010045E+03 -0.25557930970E+03 -0.66218889097E+03  0.71893691060E+03  0.00000000000E+00 0. -1.
          3    1    5    5  503    0  0.17540305773E+02  0.29534957567E+03 -0.33443266786E+03  0.44652462811E+03  0.00000000000E+00 0. -1.
         -4    1    5    5    0  503 -0.60679587177E+02  0.23105526151E+03 -0.27898391077E+03  0.36728812755E+03  0.00000000000E+00 0.  1.
         -1    1    6    6    0  502 -0.11593821056E+02 -0.67978793429E+02 -0.14630601566E+03  0.16174357255E+03  0.00000000000E+00 0.  1.
<mgrwt>
<rscale>  0 0.12601585E+04</rscale>
<asrwt>0</asrwt>
<pdfrwt beam="1">  1        2 0.26041911E+00 0.12601585E+04</pdfrwt>
<pdfrwt beam="2">  1       -2 0.36082013E-01 0.12601585E+04</pdfrwt>
<totfact> 0.70284231E+01</totfact>
</mgrwt>
</event>
<event>
12    1  0.1506149E-007  0.1430650E+04  0.7818608E-02  0.8931926E-01
         -2   -1    0    0    0  501 -0.00000000000E+00  0.00000000000E+00  0.72182768375E+03  0.72182768375E+03  0.00000000000E+00 0.  1.
          2   -1    0    0  501    0  0.00000000000E+00 -0.00000000000E+00 -0.70888100890E+03  0.70888100890E+03  0.00000000000E+00 0. -1.
         23    2    1    2    0    0 -0.37784773056E+03 -0.13935942546E+03 -0.12721305804E+03  0.43248998877E+03  0.93136841771E+02 0.  0.
        254    2    1    2    0    0  0.37784773056E+03  0.13935942546E+03  0.14015973288E+03  0.99821870388E+03  0.90255519117E+03 0.  0.
        -24    2    4    4    0    0  0.33412055424E+03  0.13653981601E+03  0.50294057944E+03  0.62417428339E+03  0.79778715707E+02 0.  0.
         24    2    4    4    0    0  0.43727176316E+02  0.28196094501E+01 -0.36278084656E+03  0.37404442049E+03  0.79870330667E+02 0.  0.
         11    1    3    3    0    0 -0.62686509429E+02 -0.28190742562E+02  0.13213336374E+02  0.69992204486E+02  0.00000000000E+00 0.  1.
        -11    1    3    3    0    0 -0.31516122113E+03 -0.11116868289E+03 -0.14042639441E+03  0.36249778428E+03  0.00000000000E+00 0. -1.
          2    1    6    6  502    0  0.57295260993E+02 -0.18402935304E+02 -0.30696327192E+03  0.31280643419E+03  0.00000000000E+00 0. -1.
          3    1    5    5  503    0  0.42950267173E+02  0.13823470976E+02  0.11692188396E+03  0.12532573857E+03  0.00000000000E+00 0. -1.
         -4    1    5    5    0  503  0.29117028707E+03  0.12271634503E+03  0.38601869548E+03  0.49884854482E+03  0.00000000000E+00 0.  1.
         -1    1    6    6    0  502 -0.13568084677E+02  0.21222544754E+02 -0.55817574642E+02  0.61237986304E+02  0.00000000000E+00 0.  1.
<mgrwt>
<rscale>  0 0.14306501E+04</rscale>
<asrwt>0</asrwt>
<pdfrwt beam="1">  1        2 0.10905862E+00 0.14306501E+04</pdfrwt>
<pdfrwt beam="2">  1       -2 0.11105041E+00 0.14306501E+04</pdfrwt>
<totfact> 0.25142470E+01</totfact>
</mgrwt>
</event>
<event>
12    1  0.1506149E-007  0.1592303E+04  0.7818608E-02  0.8825290E-01
          2   -1    0    0  501    0  0.00000000000E+00  0.00000000000E+00  0.12928118435E+04  0.12928118435E+04  0.00000000000E+00 0. -1.
         -2   -1    0    0    0  501 -0.00000000000E+00 -0.00000000000E+00 -0.49029363294E+03  0.49029363294E+03  0.00000000000E+00 0.  1.
         23    2    1    2    0    0 -0.52317432830E+03  0.46106764212E+02  0.40762181469E+03  0.67113668303E+03  0.91824245217E+02 0.  0.
        254    2    1    2    0    0  0.52317432830E+03 -0.46106764212E+02  0.39489639589E+03  0.11119687934E+04  0.89704750295E+03 0.  0.
        -24    2    4    4    0    0  0.29954919305E+03  0.64101132333E+02 -0.25801309262E+03  0.40844122424E+03  0.80092468235E+02 0.  0.
         24    2    4    4    0    0  0.22362513524E+03 -0.11020789654E+03  0.65290948851E+03  0.70352756918E+03  0.80661383814E+02 0.  0.
         13    1    3    3    0    0 -0.34605584520E+02 -0.10331750384E+02  0.69699877094E+01  0.36781412080E+02  0.00000000000E+00 0. -1.
        -13    1    3    3    0    0 -0.48856874378E+03  0.56438514595E+02  0.40065182698E+03  0.63435527095E+03  0.00000000000E+00 0.  1.
          4    1    6    6  502    0  0.27414030585E+01 -0.17834142880E+02  0.90434427852E+02  0.92216905630E+02  0.00000000000E+00 0. -1.
          3    1    5    5  503    0  0.11527417745E+03  0.64854376135E+02 -0.11251593146E+03  0.17364924683E+03  0.00000000000E+00 0. -1.
         -4    1    5    5    0  503  0.18427501560E+03 -0.75324380204E+00 -0.14549716116E+03  0.23479197741E+03  0.00000000000E+00 0.  1.
         -3    1    6    6    0  502  0.22088373219E+03 -0.92373753665E+02  0.56247506066E+03  0.61131066355E+03  0.00000000000E+00 0.  1.
<mgrwt>
<rscale>  0 0.15923033E+04</rscale>
<asrwt>0</asrwt>
<pdfrwt beam="1">  1        2 0.19889413E+00 0.15923033E+04</pdfrwt>
<pdfrwt beam="2">  1       -2 0.75429790E-01 0.15923033E+04</pdfrwt>
<totfact> 0.25253444E+01</totfact>
</mgrwt>
</event>
<event>
12    1  0.1506149E-007  0.1099927E+04  0.7818608E-02  0.9205263E-01
         -1   -1    0    0    0  501 -0.00000000000E+00  0.00000000000E+00  0.10295615602E+03  0.10295615602E+03  0.00000000000E+00 0.  1.
          1   -1    0    0  501    0  0.00000000000E+00 -0.00000000000E+00 -0.29377516561E+04  0.29377516561E+04  0.00000000000E+00 0. -1.
         23    2    1    2    0    0  0.80078215945E+02 -0.10175100542E+03 -0.71497738485E+03  0.73192792632E+03  0.88091093286E+02 0.  0.
        254    2    1    2    0    0 -0.80078215945E+02  0.10175100542E+03 -0.21198181152E+04  0.23087798858E+04  0.90557712625E+03 0.  0.
        -24    2    4    4    0    0 -0.48588793795E+03  0.84055699412E+02 -0.10861593431E+04  0.11952834386E+04  0.76209784801E+02 0.  0.
         24    2    4    4    0    0  0.40580972200E+03  0.17695306009E+02 -0.10336587722E+04  0.11134964472E+04  0.80182455803E+02 0.  0.
         11    1    3    3    0    0  0.88689798404E+02 -0.51717489270E+02 -0.54268670161E+03  0.55231280552E+03  0.00000000000E+00 0. -1.
        -11    1    3    3    0    0 -0.86115824591E+01 -0.50033516151E+02 -0.17229068324E+03  0.17961512080E+03  0.00000000000E+00 0.  1.
          4    1    6    6  502    0  0.55521330322E+01 -0.30246103626E+01 -0.63431270492E+02  0.63745592203E+02  0.00000000000E+00 0. -1.
          3    1    5    5  503    0 -0.59451888836E+02  0.16009470113E+02 -0.20419967818E+03  0.21327995402E+03  0.00000000000E+00 0. -1.
         -4    1    5    5    0  503 -0.42643604911E+03  0.68046229300E+02 -0.88195966489E+03  0.98200348461E+03  0.00000000000E+00 0.  1.
         -3    1    6    6    0  502  0.40025758897E+03  0.20719916371E+02 -0.97022750169E+03  0.10497508550E+04  0.00000000000E+00 0.  1.
<mgrwt>
<rscale>  0 0.10999266E+04</rscale>
<asrwt>0</asrwt>
<pdfrwt beam="1">  1        1 0.45196183E+00 0.10999266E+04</pdfrwt>
<pdfrwt beam="2">  1       -1 0.15839407E-01 0.10999266E+04</pdfrwt>
<totfact> 0.20225114E+01</totfact>
</mgrwt>
</event>
<event>
12    1  0.1506149E-007  0.3197516E+04  0.7818608E-02  0.8189474E-01
          1   -1    0    0  501    0  0.00000000000E+00  0.00000000000E+00  0.24981572776E+04  0.24981572776E+04  0.00000000000E+00 0. -1.
         -1   -1    0    0    0  501 -0.00000000000E+00 -0.00000000000E+00 -0.10231647488E+04  0.10231647488E+04  0.00000000000E+00 0.  1.
         23    2    1    2    0    0  0.92803859991E+03 -0.11308924673E+04  0.53148943892E+03  0.15575766737E+04  0.58229332095E+02 0.  0.
        254    2    1    2    0    0 -0.92803859991E+03  0.11308924673E+04  0.94350308989E+03  0.19637453527E+04  0.90880378190E+03 0.  0.
        -24    2    4    4    0    0 -0.80125340797E+02  0.79756825746E+03  0.39397052959E+03  0.89672432662E+03  0.79790627392E+02 0.  0.
         24    2    4    4    0    0 -0.84791325911E+03  0.33332420988E+03  0.54953256030E+03  0.10670210261E+04  0.80535156226E+02 0.  0.
         13    1    3    3    0    0  0.57088228793E+03 -0.72848737046E+03  0.35608938904E+03  0.99166531077E+03  0.00000000000E+00 0.  1.
        -13    1    3    3    0    0  0.35715631198E+03 -0.40240509688E+03  0.17540004988E+03  0.56591136292E+03  0.00000000000E+00 0. -1.
          2    1    6    6  502    0 -0.71706469296E+03  0.24969977431E+03  0.45223901498E+03  0.88377139456E+03  0.00000000000E+00 0. -1.
          3    1    5    5  503    0 -0.81030064310E+02  0.79422733258E+03  0.39745349245E+03  0.89181399731E+03  0.00000000000E+00 0. -1.
         -4    1    5    5    0  503  0.90472351294E+00  0.33409248744E+01 -0.34829628538E+01  0.49103293059E+01  0.00000000000E+00 0.  1.
         -1    1    6    6    0  502 -0.13084856616E+03  0.83624435568E+02  0.97293545323E+02  0.18324963151E+03  0.00000000000E+00 0.  1.
<mgrwt>
<rscale>  0 0.31975156E+04</rscale>
<asrwt>0</asrwt>
<pdfrwt beam="1">  1        1 0.38433189E+00 0.31975156E+04</pdfrwt>
<pdfrwt beam="2">  1       -1 0.15740996E+00 0.31975156E+04</pdfrwt>
<totfact> 0.34761369E-01</totfact>
</mgrwt>
</event>
<event>
12    1  0.1506149E-007  0.1766737E+04  0.7818608E-02  0.8724191E-01
         -1   -1    0    0    0  501 -0.00000000000E+00  0.00000000000E+00  0.16739383150E+04  0.16739383150E+04  0.00000000000E+00 0.  1.
          1   -1    0    0  501    0  0.00000000000E+00 -0.00000000000E+00 -0.46616980415E+03  0.46616980415E+03  0.00000000000E+00 0. -1.
         23    2    1    2    0    0 -0.56279583205E+02 -0.80732224538E+02 -0.32929837052E+03  0.35535460702E+03  0.90301696212E+02 0.  0.
        254    2    1    2    0    0  0.56279583205E+02  0.80732224538E+02  0.15370668814E+04  0.17847535121E+04  0.90171249171E+03 0.  0.
        -24    2    4    4    0    0  0.16612648934E+03  0.20079104931E+03  0.38442873859E+02  0.27534516073E+03  0.80137675538E+02 0.  0.
         24    2    4    4    0    0 -0.10984690614E+03 -0.12005882477E+03  0.14986240075E+04  0.15094083514E+04  0.77195797962E+02 0.  0.
         13    1    3    3    0    0 -0.42072485284E+02 -0.96637361085E+02 -0.30659450627E+03  0.32420528196E+03  0.00000000000E+00 0. -1.
        -13    1    3    3    0    0 -0.14207097921E+02  0.15905136547E+02 -0.22703864252E+02  0.31149325062E+02  0.00000000000E+00 0.  1.
          2    1    6    6  502    0 -0.10211773786E+02 -0.54841275115E+02  0.32438031372E+03  0.32914196588E+03  0.00000000000E+00 0. -1.
          3    1    5    5  503    0  0.50676756686E+02  0.13391687474E+02  0.41203052847E+01  0.52578017053E+02  0.00000000000E+00 0. -1.
         -4    1    5    5    0  503  0.11544973266E+03  0.18739936183E+03  0.34322568574E+02  0.22276714367E+03  0.00000000000E+00 0.  1.
         -1    1    6    6    0  502 -0.99635132353E+02 -0.65217549654E+02  0.11742436938E+04  0.11802663855E+04  0.00000000000E+00 0.  1.
<mgrwt>
<rscale>  0 0.17667365E+04</rscale>
<asrwt>0</asrwt>
<pdfrwt beam="1">  1        1 0.71718432E-01 0.17667365E+04</pdfrwt>
<pdfrwt beam="2">  1       -1 0.25752897E+00 0.17667365E+04</pdfrwt>
<totfact> 0.28761427E+00</totfact>
</mgrwt>
</event>
<event>
12    1  0.1506149E-007  0.1947179E+04  0.7818608E-02  0.8631722E-01
          2   -1    0    0  501    0  0.00000000000E+00  0.00000000000E+00  0.23174779676E+04  0.23174779676E+04  0.00000000000E+00 0. -1.
         -2   -1    0    0    0  501 -0.00000000000E+00 -0.00000000000E+00 -0.40901203285E+03  0.40901203285E+03  0.00000000000E+00 0.  1.
         23    2    1    2    0    0  0.31513720608E+03 -0.49684119901E+03  0.14359995443E+04  0.15542329150E+04  0.85922215926E+02 0.  0.
        254    2    1    2    0    0 -0.31513720608E+03  0.49684119901E+03  0.47246639039E+03  0.11722570854E+04  0.89710620802E+03 0.  0.
        -24    2    4    4    0    0 -0.52725814424E+02 -0.22702208282E+03 -0.31437337821E+02  0.24835662467E+03  0.79835262978E+02 0.  0.
         24    2    4    4    0    0 -0.26241139166E+03  0.72386328183E+03  0.50390372821E+03  0.92390046070E+03  0.82675901716E+02 0.  0.
         13    1    3    3    0    0  0.87271821619E+02 -0.75341968014E+02  0.29268050138E+03  0.31457059443E+03  0.00000000000E+00 0.  1.
        -13    1    3    3    0    0  0.22786538446E+03 -0.42149923099E+03  0.11433190429E+04  0.12396623206E+04  0.00000000000E+00 0. -1.
          4    1    6    6  502    0 -0.21211151682E+03  0.58205150444E+03  0.36445807060E+03  0.71875234581E+03  0.00000000000E+00 0. -1.
          3    1    5    5  503    0 -0.69996858407E+02 -0.19001965063E+03 -0.11275020011E+02  0.20281556619E+03  0.00000000000E+00 0. -1.
         -4    1    5    5    0  503  0.17271043983E+02 -0.37002432186E+02 -0.20162317809E+02  0.45541058479E+02  0.00000000000E+00 0.  1.
         -3    1    6    6    0  502 -0.50299874837E+02  0.14181177739E+03  0.13944565761E+03  0.20514811488E+03  0.00000000000E+00 0.  1.
<mgrwt>
<rscale>  0 0.19471789E+04</rscale>
<asrwt>0</asrwt>
<pdfrwt beam="1">  1        2 0.35653507E+00 0.19471789E+04</pdfrwt>
<pdfrwt beam="2">  1       -2 0.62924929E-01 0.19471789E+04</pdfrwt>
<totfact> 0.96790519E+00</totfact>
</mgrwt>
</event>
<event>
12    1  0.1506149E-007  0.1558681E+04  0.7818608E-02  0.8846342E-01
         -2   -1    0    0    0  501 -0.00000000000E+00  0.00000000000E+00  0.80512602955E+03  0.80512602955E+03  0.00000000000E+00 0. -1.
          2   -1    0    0  501    0  0.00000000000E+00 -0.00000000000E+00 -0.75438043030E+03  0.75438043030E+03  0.00000000000E+00 0.  1.
         23    2    1    2    0    0 -0.31807537415E+03 -0.39044999788E+03  0.16354640072E+03  0.53645684085E+03  0.86112556734E+02 0.  0.
        254    2    1    2    0    0  0.31807537415E+03  0.39044999788E+03 -0.11280080146E+03  0.10230496190E+04  0.88333649174E+03 0.  0.
        -24    2    4    4    0    0  0.17459937267E+03  0.42358051117E+03  0.31662948157E+03  0.56252673444E+03  0.79225677531E+02 0.  0.
         24    2    4    4    0    0  0.14347600148E+03 -0.33130513285E+02 -0.42943028303E+03  0.46052288456E+03  0.77381944357E+02 0.  0.
         13    1    3    3    0    0 -0.81568904731E+02 -0.14035734080E+03  0.85625131832E+02  0.18353564378E+03  0.00000000000E+00 0. -1.
        -13    1    3    3    0    0 -0.23650646941E+03 -0.25009265708E+03  0.77921268885E+02  0.35292119708E+03  0.00000000000E+00 0.  1.
          2    1    6    6  502    0 -0.23853074061E+01 -0.15549377323E+02 -0.19462406962E+02  0.25025149576E+02  0.00000000000E+00 0. -1.
          3    1    5    5  503    0  0.56668084389E+01  0.47738884125E+02  0.60790607132E+02  0.77502333454E+02  0.00000000000E+00 0. -1.
         -4    1    5    5    0  503  0.16893256423E+03  0.37584162704E+03  0.25583887444E+03  0.48502440098E+03  0.00000000000E+00 0.  1.
         -1    1    6    6    0  502  0.14586130888E+03 -0.17581135962E+02 -0.40996787607E+03  0.43549773499E+03  0.00000000000E+00 0.  1.
<mgrwt>
<rscale>  0 0.15586806E+04</rscale>
<asrwt>0</asrwt>
<pdfrwt beam="1">  1        2 0.11605853E+00 0.15586806E+04</pdfrwt>
<pdfrwt beam="2">  1       -2 0.12386554E+00 0.15586806E+04</pdfrwt>
<totfact> 0.17560423E+01</totfact>
</mgrwt>
</event>
<event>
12    1  0.1506149E-007  0.1878841E+04  0.7818608E-02  0.8665461E-01
          2   -1    0    0  501    0  0.00000000000E+00  0.00000000000E+00  0.20721591988E+04  0.20721591988E+04  0.00000000000E+00 0. -1.
         -2   -1    0    0    0  501 -0.00000000000E+00 -0.00000000000E+00 -0.42588940106E+03  0.42588940106E+03  0.00000000000E+00 0.  1.
         23    2    1    2    0    0 -0.19277471463E+03 -0.69299224061E+03  0.71472622388E+03  0.10182310476E+04  0.92523267448E+02 0.  0.
        254    2    1    2    0    0  0.19277471463E+03  0.69299224061E+03  0.93154357389E+03  0.14798175523E+04  0.89704304352E+03 0.  0.
        -24    2    4    4    0    0  0.52997303186E+03  0.48667695789E+03  0.73396439552E+03  0.10307678677E+04  0.77799661209E+02 0.  0.
         24    2    4    4    0    0 -0.33719831723E+03  0.20631528271E+03  0.19757917837E+03  0.44904968464E+03  0.79620264573E+02 0.  0.
         11    1    3    3    0    0 -0.11748648802E+03 -0.32044032885E+03  0.28604337913E+03  0.44531549936E+03  0.00000000000E+00 0.  1.
        -11    1    3    3    0    0 -0.75288226608E+02 -0.37255191175E+03  0.42868284475E+03  0.57291554823E+03  0.00000000000E+00 0. -1.
          4    1    6    6  502    0 -0.20184981653E+03  0.77233922652E+02  0.10110627040E+03  0.23860198063E+03  0.00000000000E+00 0. -1.
          1    1    5    5  503    0  0.50511792235E+03  0.44914072075E+03  0.66354070437E+03  0.94718412617E+03  0.00000000000E+00 0. -1.
         -2    1    5    5    0  503  0.24855109509E+02  0.37536237148E+02  0.70423691146E+02  0.83583741496E+02  0.00000000000E+00 0.  1.
         -3    1    6    6    0  502 -0.13534850069E+03  0.12908136006E+03  0.96472907967E+02  0.21044770402E+03  0.00000000000E+00 0.  1.
<mgrwt>
<rscale>  0 0.18788407E+04</rscale>
<asrwt>0</asrwt>
<pdfrwt beam="1">  1        2 0.31879372E+00 0.18788407E+04</pdfrwt>
<pdfrwt beam="2">  1       -2 0.65521448E-01 0.18788407E+04</pdfrwt>
<totfact> 0.12260532E+01</totfact>
</mgrwt>
</event>
<event>
12    1  0.1506149E-007  0.1155131E+04  0.7818608E-02  0.9153063E-01
          1   -1    0    0  501    0  0.00000000000E+00  0.00000000000E+00  0.79198064060E+03  0.79198064060E+03  0.00000000000E+00 0. -1.
         -1   -1    0    0    0  501 -0.00000000000E+00 -0.00000000000E+00 -0.42119991695E+03  0.42119991695E+03  0.00000000000E+00 0.  1.
         23    2    1    2    0    0  0.20032093279E+03 -0.55040923675E+02 -0.15810949289E+02  0.23111306339E+03  0.10002640930E+03 0.  0.
        254    2    1    2    0    0 -0.20032093279E+03  0.55040923675E+02  0.38659167294E+03  0.98206749417E+03  0.87854735906E+03 0.  0.
        -24    2    4    4    0    0 -0.54820760064E+02 -0.30324713417E+03 -0.11982808399E+03  0.33996270167E+03  0.79067873961E+02 0.  0.
         24    2    4    4    0    0 -0.14550017273E+03  0.35828805785E+03  0.50641975693E+03  0.64210479250E+03  0.79353397393E+02 0.  0.
         13    1    3    3    0    0  0.14716400938E+03 -0.24225331713E+01  0.19376779517E+02  0.14845394541E+03  0.00000000000E+00 0. -1.
        -13    1    3    3    0    0  0.53156923412E+02 -0.52618390503E+02 -0.35187728805E+02  0.82659117974E+02  0.00000000000E+00 0.  1.
          2    1    6    6  502    0 -0.74909823587E+02  0.26777306506E+03  0.38623526053E+03  0.47591130740E+03  0.00000000000E+00 0. -1.
          1    1    5    5  503    0 -0.49203096028E+02 -0.30504633646E+03 -0.12378281613E+03  0.33286092834E+03  0.00000000000E+00 0. -1.
         -2    1    5    5    0  503 -0.56176640357E+01  0.17992022858E+01  0.39547321396E+01  0.71017733264E+01  0.00000000000E+00 0.  1.
         -1    1    6    6    0  502 -0.70590349143E+02  0.90514992790E+02  0.12018449641E+03  0.16619348510E+03  0.00000000000E+00 0.  1.
<mgrwt>
<rscale>  0 0.11551315E+04</rscale>
<asrwt>0</asrwt>
<pdfrwt beam="1">  1        1 0.12184318E+00 0.11551315E+04</pdfrwt>
<pdfrwt beam="2">  1       -1 0.64799987E-01 0.11551315E+04</pdfrwt>
<totfact> 0.53879249E+01</totfact>
</mgrwt>
</event>
<event>
12    1  0.1506149E-007  0.2023881E+04  0.7818608E-02  0.8595536E-01
         -1   -1    0    0    0  501 -0.00000000000E+00  0.00000000000E+00  0.53485036061E+03  0.53485036061E+03  0.00000000000E+00 0.  1.
          1   -1    0    0  501    0  0.00000000000E+00 -0.00000000000E+00 -0.19145989928E+04  0.19145989928E+04  0.00000000000E+00 0. -1.
         23    2    1    2    0    0  0.23647619805E+02 -0.18534975800E+03 -0.15029458388E+04  0.15172873247E+04  0.91656361261E+02 0.  0.
        254    2    1    2    0    0 -0.23647619805E+02  0.18534975800E+03  0.12319720666E+03  0.93216202868E+03  0.90489488521E+03 0.  0.
        -24    2    4    4    0    0  0.27998555715E+03  0.32107430003E+03  0.31885535833E+03  0.53820148417E+03  0.80693739963E+02 0.  0.
         24    2    4    4    0    0 -0.30363317696E+03 -0.13572454203E+03 -0.19565815167E+03  0.39396054451E+03  0.79426323472E+02 0.  0.
         11    1    3    3    0    0 -0.32808600075E+02 -0.37833243246E+02 -0.38158477951E+03  0.38485672982E+03  0.00000000000E+00 0.  1.
        -11    1    3    3    0    0  0.56456219880E+02 -0.14751651475E+03 -0.11213610593E+04  0.11324305949E+04  0.00000000000E+00 0. -1.
          4    1    6    6  502    0  0.28719531668E+00 -0.14135355473E+02 -0.12447800000E+02  0.18837156907E+02  0.00000000000E+00 0. -1.
          1    1    5    5  503    0  0.56465410072E+02  0.10944507717E+03  0.65232736596E+02  0.13936239584E+03  0.00000000000E+00 0. -1.
         -4    1    5    5    0  503  0.22352014708E+03  0.21162922286E+03  0.25362262174E+03  0.39883908832E+03  0.00000000000E+00 0.  1.
         -3    1    6    6    0  502 -0.30392037227E+03 -0.12158918656E+03 -0.18321035167E+03  0.37512338761E+03  0.00000000000E+00 0.  1.
<mgrwt>
<rscale>  0 0.20238814E+04</rscale>
<asrwt>0</asrwt>
<pdfrwt beam="1">  1        1 0.29455369E+00 0.20238814E+04</pdfrwt>
<pdfrwt beam="2">  1       -1 0.82284671E-01 0.20238814E+04</pdfrwt>
<totfact> 0.46294684E+00</totfact>
</mgrwt>
</event>
<event>
12    1  0.1506149E-007  0.2646780E+04  0.7818608E-02  0.8352482E-01
          2   -1    0    0  501    0  0.00000000000E+00  0.00000000000E+00  0.13558120434E+04  0.13558120434E+04  0.00000000000E+00 0. -1.
         -2   -1    0    0    0  501 -0.00000000000E+00 -0.00000000000E+00 -0.12917437297E+04  0.12917437297E+04  0.00000000000E+00 0.  1.
         23    2    1    2    0    0 -0.92236574388E+03 -0.66265613566E+03  0.30104729816E+03  0.11785347677E+04  0.91885816879E+02 0.  0.
        254    2    1    2    0    0  0.92236574388E+03  0.66265613566E+03 -0.23697898442E+03  0.14690210054E+04  0.90110596242E+03 0.  0.
        -24    2    4    4    0    0  0.10952778600E+04  0.56696217086E+03 -0.20549516089E+03  0.12527850951E+04  0.78501844473E+02 0.  0.
         24    2    4    4    0    0 -0.17291211615E+03  0.95693964805E+02 -0.31483823531E+02  0.21623591023E+03  0.81919490460E+02 0.  0.
         13    1    3    3    0    0 -0.14100826645E+03 -0.79376091254E+02  0.71013495939E+02  0.17671109664E+03  0.00000000000E+00 0.  1.
        -13    1    3    3    0    0 -0.78135747743E+03 -0.58328004441E+03  0.23003380222E+03  0.10018236711E+04  0.00000000000E+00 0. -1.
          2    1    6    6  502    0 -0.17982314739E+02  0.10842650354E+02 -0.33550866953E+02  0.39580138749E+02  0.00000000000E+00 0. -1.
          3    1    5    5  503    0  0.25286332246E+03  0.10166548406E+03 -0.65342820096E+02  0.28025954869E+03  0.00000000000E+00 0. -1.
         -4    1    5    5    0  503  0.84241453757E+03  0.46529668680E+03 -0.14015234079E+03  0.97252554644E+03  0.00000000000E+00 0.  1.
         -1    1    6    6    0  502 -0.15492980141E+03  0.84851314451E+02  0.20670434213E+01  0.17665577148E+03  0.00000000000E+00 0.  1.
<mgrwt>
<rscale>  0 0.26467805E+04</rscale>
<asrwt>0</asrwt>
<pdfrwt beam="1">  1        2 0.20858647E+00 0.26467805E+04</pdfrwt>
<pdfrwt beam="2">  1       -2 0.19872980E+00 0.26467805E+04</pdfrwt>
<totfact> 0.18331439E+00</totfact>
</mgrwt>
</event>
<event>
12    1  0.1506149E-007  0.1925268E+04  0.7818608E-02  0.8642380E-01
         -1   -1    0    0    0  501 -0.00000000000E+00  0.00000000000E+00  0.92984385995E+03  0.92984385995E+03  0.00000000000E+00 0.  1.
          1   -1    0    0  501    0  0.00000000000E+00 -0.00000000000E+00 -0.99658069347E+03  0.99658069347E+03  0.00000000000E+00 0. -1.
         23    2    1    2    0    0  0.53482982985E+03  0.44330015800E+03  0.25317270828E+03  0.74496414797E+03  0.91198599557E+02 0.  0.
        254    2    1    2    0    0 -0.53482982985E+03 -0.44330015800E+03 -0.31990954181E+03  0.11814604055E+04  0.90052684454E+03 0.  0.
        -24    2    4    4    0    0 -0.43894119036E+03  0.18447431644E+03 -0.23485077579E+03  0.53582807562E+03  0.72503087599E+02 0.  0.
         24    2    4    4    0    0 -0.95888639485E+02 -0.62777447443E+03 -0.85058766017E+02  0.64563232984E+03  0.79439849690E+02 0.  0.
         11    1    3    3    0    0  0.66975082796E+01  0.25320365343E+02  0.17051342729E+02  0.31252612805E+02  0.00000000000E+00 0. -1.
        -11    1    3    3    0    0  0.52813232157E+03  0.41797979266E+03  0.23612136555E+03  0.71371153516E+03  0.00000000000E+00 0.  1.
          4    1    6    6  502    0 -0.10001086426E+03 -0.60672126220E+03 -0.68863831064E+02  0.61875285066E+03  0.00000000000E+00 0. -1.
          3    1    5    5  503    0 -0.24140324611E+03  0.14023461893E+03 -0.13460047527E+03  0.30993315977E+03  0.00000000000E+00 0. -1.
         -4    1    5    5    0  503 -0.19753794425E+03  0.44239697507E+02 -0.10025030052E+03  0.22589491585E+03  0.00000000000E+00 0.  1.
         -3    1    6    6    0  502  0.41222247705E+01 -0.21053212233E+02 -0.16194934953E+02  0.26879479171E+02  0.00000000000E+00 0.  1.
<mgrwt>
<rscale>  0 0.19252682E+04</rscale>
<asrwt>0</asrwt>
<pdfrwt beam="1">  1        1 0.15332011E+00 0.19252682E+04</pdfrwt>
<pdfrwt beam="2">  1       -1 0.14305290E+00 0.19252682E+04</pdfrwt>
<totfact> 0.56296256E+00</totfact>
</mgrwt>
</event>
<event>
12    1  0.1506149E-007  0.1497720E+04  0.7818608E-02  0.8885970E-01
          1   -1    0    0  501    0  0.00000000000E+00  0.00000000000E+00  0.23280100106E+04  0.23280100106E+04  0.00000000000E+00 0. -1.
         -1   -1    0    0    0  501 -0.00000000000E+00 -0.00000000000E+00 -0.24088872786E+03  0.24088872786E+03  0.00000000000E+00 0.  1.
         23    2    1    2    0    0  0.23700116795E+03  0.78670572604E+02  0.13552982671E+04  0.13812821639E+04  0.93532940042E+02 0.  0.
        254    2    1    2    0    0 -0.23700116795E+03 -0.78670572604E+02  0.73182301565E+03  0.11876165746E+04  0.90139313809E+03 0.  0.
        -24    2    4    4    0    0  0.26241216067E+03  0.16685506175E+03  0.46568841334E+03  0.56552760262E+03  0.79088667359E+02 0.  0.
         24    2    4    4    0    0 -0.49941332862E+03 -0.24552563435E+03  0.26613460232E+03  0.62208897198E+03  0.80439745002E+02 0.  0.
         13    1    3    3    0    0  0.18632447765E+03  0.86949669584E+02  0.12059546550E+04  0.12233575462E+04  0.00000000000E+00 0. -1.
        -13    1    3    3    0    0  0.50676690302E+02 -0.82790969801E+01  0.14934361210E+03  0.15792461766E+03  0.00000000000E+00 0.  1.
          2    1    6    6  502    0 -0.15057344681E+03 -0.97231873551E+02  0.12072233961E+03  0.21610248356E+03  0.00000000000E+00 0. -1.
          1    1    5    5  503    0  0.18576404026E+03  0.12391113177E+03  0.26557012948E+03  0.34697224803E+03  0.00000000000E+00 0. -1.
         -2    1    5    5    0  503  0.76648120406E+02  0.42943929979E+02  0.20011828385E+03  0.21855535458E+03  0.00000000000E+00 0.  1.
         -1    1    6    6    0  502 -0.34883988181E+03 -0.14829376080E+03  0.14541226271E+03  0.40598648842E+03  0.00000000000E+00 0.  1.
<mgrwt>
<rscale>  0 0.14977201E+04</rscale>
<asrwt>0</asrwt>
<pdfrwt beam="1">  1        1 0.35815537E+00 0.14977201E+04</pdfrwt>
<pdfrwt beam="2">  1       -1 0.37059806E-01 0.14977201E+04</pdfrwt>
<totfact> 0.12080682E+01</totfact>
</mgrwt>
</event>
<event>
12    1  0.1506149E-007  0.1294904E+04  0.7818608E-02  0.9033616E-01
         -2   -1    0    0    0  501 -0.00000000000E+00  0.00000000000E+00  0.50139617921E+03  0.50139617921E+03  0.00000000000E+00 0.  1.
          2   -1    0    0  501    0  0.00000000000E+00 -0.00000000000E+00 -0.83605354858E+03  0.83605354858E+03  0.00000000000E+00 0. -1.
         23    2    1    2    0    0  0.90721308431E+02 -0.43030012709E+02  0.23723096668E+03  0.27257505948E+03  0.89088123239E+02 0.  0.
        254    2    1    2    0    0 -0.90721308431E+02  0.43030012709E+02 -0.57188833605E+03  0.10648746683E+04  0.89264766427E+03 0.  0.
        -24    2    4    4    0    0 -0.18192668252E+03 -0.13187265109E+03  0.16999838208E+03  0.29308064160E+03  0.80678985196E+02 0.  0.
         24    2    4    4    0    0  0.91205374087E+02  0.17490266380E+03 -0.74188671813E+03  0.77179402672E+03  0.79754342117E+02 0.  0.
         13    1    3    3    0    0  0.91072023908E+02 -0.64544787148E+01  0.20252247910E+03  0.22215113859E+03  0.00000000000E+00 0.  1.
        -13    1    3    3    0    0 -0.35071547703E+00 -0.36575533994E+02  0.34708487575E+02  0.50423920892E+02  0.00000000000E+00 0. -1.
          4    1    6    6  502    0  0.96218701007E+02  0.10883681957E+03 -0.46924432757E+03  0.49121658225E+03  0.00000000000E+00 0. -1.
          1    1    5    5  503    0 -0.15193322716E+03 -0.13162166597E+03  0.16972235652E+03  0.26308486610E+03  0.00000000000E+00 0. -1.
         -2    1    5    5    0  503 -0.29993455354E+02 -0.25098511698E+00  0.27602556454E+00  0.29995775498E+02  0.00000000000E+00 0.  1.
         -3    1    6    6    0  502 -0.50133269201E+01  0.66065844222E+02 -0.27264239056E+03  0.28057744448E+03  0.00000000000E+00 0.  1.
<mgrwt>
<rscale>  0 0.12949039E+04</rscale>
<asrwt>0</asrwt>
<pdfrwt beam="1">  1        2 0.12862362E+00 0.12949039E+04</pdfrwt>
<pdfrwt beam="2">  1       -2 0.77137874E-01 0.12949039E+04</pdfrwt>
<totfact> 0.47762793E+01</totfact>
</mgrwt>
</event>
<event>
12    1  0.1506149E-007  0.1286788E+04  0.7818608E-02  0.9040109E-01
          2   -1    0    0  501    0  0.00000000000E+00  0.00000000000E+00  0.41354254180E+04  0.41354254180E+04  0.00000000000E+00 0. -1.
         -2   -1    0    0    0  501 -0.00000000000E+00 -0.00000000000E+00 -0.10009987918E+03  0.10009987918E+03  0.00000000000E+00 0.  1.
         23    2    1    2    0    0  0.26311746493E+03  0.65489261714E+02  0.16852249473E+04  0.17093366336E+04  0.91263136532E+02 0.  0.
        254    2    1    2    0    0 -0.26311746493E+03 -0.65489261714E+02  0.23501005915E+04  0.25261886636E+04  0.88607941530E+03 0.  0.
        -24    2    4    4    0    0 -0.34133537353E+03  0.28718583222E+03  0.69056951521E+03  0.82591161891E+03  0.79108832982E+02 0.  0.
         24    2    4    4    0    0  0.78217908600E+02 -0.35267509394E+03  0.16595310763E+04  0.17002770447E+04  0.80005452604E+02 0.  0.
         11    1    3    3    0    0  0.18016015858E+03  0.42724807586E+02  0.86391760623E+03  0.88353648610E+03  0.00000000000E+00 0. -1.
        -11    1    3    3    0    0  0.82957306350E+02  0.22764454128E+02  0.82130734108E+03  0.82580014747E+03  0.00000000000E+00 0.  1.
          2    1    6    6  502    0  0.50009191198E+02 -0.25108367977E+03  0.13256116877E+04  0.13501075068E+04  0.00000000000E+00 0. -1.
          1    1    5    5  503    0 -0.22226070996E+03  0.18008222348E+03  0.37120474312E+03  0.46863887133E+03  0.00000000000E+00 0. -1.
         -2    1    5    5    0  503 -0.11907466357E+03  0.10710360875E+03  0.31936477209E+03  0.35727274758E+03  0.00000000000E+00 0.  1.
         -1    1    6    6    0  502  0.28208717402E+02 -0.10159141417E+03  0.33391938862E+03  0.35016953790E+03  0.00000000000E+00 0.  1.
<mgrwt>
<rscale>  0 0.12867876E+04</rscale>
<asrwt>0</asrwt>
<pdfrwt beam="1">  1        2 0.63621916E+00 0.12867876E+04</pdfrwt>
<pdfrwt beam="2">  1       -2 0.15399985E-01 0.12867876E+04</pdfrwt>
<totfact> 0.90433349E+00</totfact>
</mgrwt>
</event>
<event>
12    1  0.1506149E-007  0.1982867E+04  0.7818608E-02  0.8614673E-01
          2   -1    0    0  501    0  0.00000000000E+00  0.00000000000E+00  0.24076642762E+04  0.24076642762E+04  0.00000000000E+00 0. -1.
         -2   -1    0    0    0  501 -0.00000000000E+00 -0.00000000000E+00 -0.40825466426E+03  0.40825466426E+03  0.00000000000E+00 0.  1.
         23    2    1    2    0    0  0.68650737903E+03 -0.38675916165E+02  0.27501748017E+03  0.74604420123E+03  0.90327890689E+02 0.  0.
        254    2    1    2    0    0 -0.68650737903E+03  0.38675916165E+02  0.17243921317E+04  0.20698747392E+04  0.91545890349E+03 0.  0.
        -24    2    4    4    0    0 -0.84325503826E+03  0.80586898582E+02  0.16803365589E+04  0.18834355380E+04  0.78899728227E+02 0.  0.
         24    2    4    4    0    0  0.15674765923E+03 -0.41910982417E+02  0.44055572864E+02  0.18643920114E+03  0.80574953317E+02 0.  0.
         13    1    3    3    0    0  0.61369946548E+02  0.72007622031E+00  0.54209383052E+02  0.81886788068E+02  0.00000000000E+00 0. -1.
        -13    1    3    3    0    0  0.62513743248E+03 -0.39395992385E+02  0.22080809711E+03  0.66415741316E+03  0.00000000000E+00 0.  1.
          2    1    6    6  502    0  0.13028063263E+03 -0.59392296674E+02  0.54264044299E+02  0.15311784561E+03  0.00000000000E+00 0. -1.
          1    1    5    5  503    0 -0.37878559973E+03  0.24572389475E+02  0.83635530212E+03  0.91846204292E+03  0.00000000000E+00 0. -1.
         -2    1    5    5    0  503 -0.46446943853E+03  0.56014509108E+02  0.84398125675E+03  0.96497349513E+03  0.00000000000E+00 0.  1.
         -1    1    6    6    0  502  0.26467026603E+02  0.17481314257E+02 -0.10208471435E+02  0.33321355531E+02  0.00000000000E+00 0.  1.
<mgrwt>
<rscale>  0 0.19828668E+04</rscale>
<asrwt>0</asrwt>
<pdfrwt beam="1">  1        2 0.37040988E+00 0.19828668E+04</pdfrwt>
<pdfrwt beam="2">  1       -2 0.62808411E-01 0.19828668E+04</pdfrwt>
<totfact> 0.86066781E+00</totfact>
</mgrwt>
</event>
<event>
12    1  0.1506149E-007  0.1936730E+04  0.7818608E-02  0.8636786E-01
         -2   -1    0    0    0  501 -0.00000000000E+00  0.00000000000E+00  0.34937670465E+03  0.34937670465E+03  0.00000000000E+00 0.  1.
          2   -1    0    0  501    0  0.00000000000E+00 -0.00000000000E+00 -0.26840110062E+04  0.26840110062E+04  0.00000000000E+00 0. -1.
         23    2    1    2    0    0  0.54069332729E+03  0.31118100595E+02 -0.89683171006E+02  0.55670728098E+03  0.92532778914E+02 0.  0.
        254    2    1    2    0    0 -0.54069332729E+03 -0.31118100595E+02 -0.22449511306E+04  0.24766804299E+04  0.89488701119E+03 0.  0.
        -24    2    4    4    0    0 -0.19767329694E+03  0.34984702964E+03 -0.45142316195E+03  0.60960436363E+03  0.79793060746E+02 0.  0.
         24    2    4    4    0    0 -0.34302003035E+03 -0.38096513023E+03 -0.17935279686E+04  0.18670760663E+04  0.80207800796E+02 0.  0.
         11    1    3    3    0    0  0.15268051579E+02 -0.83547747104E+01 -0.17844390110E+02  0.24926650755E+02  0.00000000000E+00 0. -1.
        -11    1    3    3    0    0  0.52542527571E+03  0.39472875305E+02 -0.71838780895E+02  0.53178063022E+03  0.00000000000E+00 0.  1.
          4    1    6    6  502    0 -0.60176170827E+02 -0.46649754937E+02 -0.18631256067E+03  0.20127031931E+03  0.00000000000E+00 0. -1.
          3    1    5    5  503    0 -0.26802024632E+02  0.73531139401E+02 -0.48714823288E+02  0.92186284197E+02  0.00000000000E+00 0. -1.
         -4    1    5    5    0  503 -0.17087127230E+03  0.27631589024E+03 -0.40270833866E+03  0.51741807943E+03  0.00000000000E+00 0.  1.
         -3    1    6    6    0  502 -0.28284385953E+03 -0.33431537530E+03 -0.16072154080E+04  0.16658057470E+04  0.00000000000E+00 0.  1.
<mgrwt>
<rscale>  0 0.19367302E+04</rscale>
<asrwt>0</asrwt>
<pdfrwt beam="1">  1        2 0.41292477E+00 0.19367302E+04</pdfrwt>
<pdfrwt beam="2">  1       -2 0.53750262E-01 0.19367302E+04</pdfrwt>
<totfact> 0.82766977E+00</totfact>
</mgrwt>
</event>
<event>
12    1  0.1506149E-007  0.1990790E+04  0.7818608E-02  0.8610939E-01
         -2   -1    0    0    0  501 -0.00000000000E+00  0.00000000000E+00  0.55576821623E+03  0.55576821623E+03  0.00000000000E+00 0.  1.
          2   -1    0    0  501    0  0.00000000000E+00 -0.00000000000E+00 -0.17827776733E+04  0.17827776733E+04  0.00000000000E+00 0. -1.
         23    2    1    2    0    0 -0.11782196444E+03  0.71609306137E+03 -0.86002918760E+03  0.11290165656E+04  0.91416157902E+02 0.  0.
        254    2    1    2    0    0  0.11782196444E+03 -0.71609306137E+03 -0.36698026945E+03  0.12095293240E+04  0.89532976020E+03 0.  0.
        -24    2    4    4    0    0  0.42302800115E+03 -0.71393857616E+03 -0.21908724620E+03  0.86204248295E+03  0.80355713379E+02 0.  0.
         24    2    4    4    0    0 -0.30520603671E+03 -0.21544852108E+01 -0.14789302325E+03  0.34748684101E+03  0.75626659953E+02 0.  0.
         11    1    3    3    0    0 -0.95900850570E+00  0.40954858749E+02 -0.21875631340E+02  0.46440966818E+02  0.00000000000E+00 0.  1.
        -11    1    3    3    0    0 -0.11686295593E+03  0.67513820262E+03 -0.83815355626E+03  0.10825755987E+04  0.00000000000E+00 0. -1.
          4    1    6    6  502    0 -0.19875847067E+03 -0.68123551483E+01 -0.55542978458E+02  0.20648573873E+03  0.00000000000E+00 0. -1.
          1    1    5    5  503    0  0.42424502866E+03 -0.69933976567E+03 -0.20894966888E+03  0.84422740794E+03  0.00000000000E+00 0. -1.
         -2    1    5    5    0  503 -0.12170275082E+01 -0.14598810492E+02 -0.10137577320E+02  0.17815075011E+02  0.00000000000E+00 0.  1.
         -3    1    6    6    0  502 -0.10644756604E+03  0.46578699374E+01 -0.92350044793E+02  0.14100110227E+03  0.00000000000E+00 0.  1.
<mgrwt>
<rscale>  0 0.19907900E+04</rscale>
<asrwt>0</asrwt>
<pdfrwt beam="1">  1        2 0.27427349E+00 0.19907900E+04</pdfrwt>
<pdfrwt beam="2">  1       -2 0.85502802E-01 0.19907900E+04</pdfrwt>
<totfact> 0.97492237E+00</totfact>
</mgrwt>
</event>
<event>
12    1  0.1506149E-007  0.2319001E+04  0.7818608E-02  0.8470467E-01
          2   -1    0    0  501    0  0.00000000000E+00  0.00000000000E+00  0.14138494293E+04  0.14138494293E+04  0.00000000000E+00 0. -1.
         -2   -1    0    0    0  501 -0.00000000000E+00 -0.00000000000E+00 -0.95090819403E+03  0.95090819403E+03  0.00000000000E+00 0.  1.
         23    2    1    2    0    0 -0.13792297062E+03  0.29395790539E+03  0.11422996981E+04  0.11918948951E+04  0.10164076342E+03 0.  0.
        254    2    1    2    0    0  0.13792297062E+03 -0.29395790539E+03 -0.67935846286E+03  0.11728627282E+04  0.89924694168E+03 0.  0.
        -24    2    4    4    0    0 -0.18557438173E+03 -0.23207187985E+03  0.99611053838E+02  0.32336688133E+03  0.79677909894E+02 0.  0.
         24    2    4    4    0    0  0.32349735235E+03 -0.61886025540E+02 -0.77896951670E+03  0.84949584684E+03  0.79807698374E+02 0.  0.
         13    1    3    3    0    0 -0.68750864991E+02  0.24749191211E+03  0.87109411647E+03  0.90817613255E+03  0.00000000000E+00 0. -1.
        -13    1    3    3    0    0 -0.69172105626E+02  0.46465993279E+02  0.27120558164E+03  0.28371876258E+03  0.00000000000E+00 0.  1.
          4    1    6    6  502    0  0.79706569267E+02  0.13467622395E+02 -0.14338529006E+03  0.16460211251E+03  0.00000000000E+00 0. -1.
          1    1    5    5  503    0  0.44003169557E+01  0.14875584907E+01  0.69597450511E+01  0.83674172090E+01  0.00000000000E+00 0. -1.
         -2    1    5    5    0  503 -0.18997469869E+03 -0.23355943834E+03  0.92651308787E+02  0.31499946412E+03  0.00000000000E+00 0.  1.
         -3    1    6    6    0  502  0.24379078308E+03 -0.75353647935E+02 -0.63558422664E+03  0.68489373434E+03  0.00000000000E+00 0.  1.
<mgrwt>
<rscale>  0 0.23190007E+04</rscale>
<asrwt>0</asrwt>
<pdfrwt beam="1">  1        2 0.21751530E+00 0.23190007E+04</pdfrwt>
<pdfrwt beam="2">  1       -2 0.14629357E+00 0.23190007E+04</pdfrwt>
<totfact> 0.41179270E+00</totfact>
</mgrwt>
</event>
<event>
12    1  0.1506149E-007  0.2053713E+04  0.7818608E-02  0.8581912E-01
          1   -1    0    0  501    0  0.00000000000E+00  0.00000000000E+00  0.15529456130E+04  0.15529456130E+04  0.00000000000E+00 0. -1.
         -1   -1    0    0    0  501 -0.00000000000E+00 -0.00000000000E+00 -0.67899015111E+03  0.67899015111E+03  0.00000000000E+00 0.  1.
         23    2    1    2    0    0 -0.34272224957E+03 -0.11154467482E+02  0.11538942605E+04  0.12074969712E+04  0.94836746171E+02 0.  0.
        254    2    1    2    0    0  0.34272224957E+03  0.11154467482E+02 -0.27993879869E+03  0.10244387929E+04  0.92386478819E+03 0.  0.
        -24    2    4    4    0    0  0.26651264710E+03 -0.28180027993E+03  0.20599132436E+03  0.44646084617E+03  0.80339732526E+02 0.  0.
         24    2    4    4    0    0  0.76209602469E+02  0.29295474741E+03 -0.48593012305E+03  0.57797794670E+03  0.79372758866E+02 0.  0.
         11    1    3    3    0    0 -0.19526086076E+03  0.34500560641E+02  0.72676378316E+03  0.75332774338E+03  0.00000000000E+00 0. -1.
        -11    1    3    3    0    0 -0.14746138881E+03 -0.45655028122E+02  0.42713047738E+03  0.45416922781E+03  0.00000000000E+00 0.  1.
          4    1    6    6  502    0  0.81954687843E+01  0.10128641555E+03 -0.22714371885E+03  0.24883804512E+03  0.00000000000E+00 0. -1.
          1    1    5    5  503    0  0.27075398148E+03 -0.28073652548E+03  0.20755842669E+03  0.44181581651E+03  0.00000000000E+00 0. -1.
         -2    1    5    5    0  503 -0.42413343835E+01 -0.10637544479E+01 -0.15671023283E+01  0.46450296646E+01  0.00000000000E+00 0.  1.
         -1    1    6    6    0  502  0.68014133685E+02  0.19166833186E+03 -0.25878640420E+03  0.32913990159E+03  0.00000000000E+00 0.  1.
<mgrwt>
<rscale>  0 0.20537135E+04</rscale>
<asrwt>0</asrwt>
<pdfrwt beam="1">  1        1 0.23891471E+00 0.20537135E+04</pdfrwt>
<pdfrwt beam="2">  1       -1 0.10446002E+00 0.20537135E+04</pdfrwt>
<totfact> 0.47833847E+00</totfact>
</mgrwt>
</event>
<event>
12    1  0.1506149E-007  0.1233010E+04  0.7818608E-02  0.9084443E-01
         -1   -1    0    0    0  501 -0.00000000000E+00  0.00000000000E+00  0.93008091885E+03  0.93008091885E+03  0.00000000000E+00 0.  1.
          1   -1    0    0  501    0  0.00000000000E+00 -0.00000000000E+00 -0.40865119279E+03  0.40865119279E+03  0.00000000000E+00 0. -1.
         23    2    1    2    0    0 -0.17795276933E+03 -0.66593311834E+02 -0.10762456969E+03  0.23670967581E+03  0.91359538778E+02 0.  0.
        254    2    1    2    0    0  0.17795276933E+03  0.66593311834E+02  0.62905429575E+03  0.11020224358E+04  0.88467072111E+03 0.  0.
        -24    2    4    4    0    0 -0.16829056881E+03 -0.23143401448E+03 -0.27498760773E+02  0.29829049421E+03  0.79609160784E+02 0.  0.
         24    2    4    4    0    0  0.34624333815E+03  0.29802732631E+03  0.65655305652E+03  0.80373194162E+03  0.78856715112E+02 0.  0.
         13    1    3    3    0    0 -0.17085793303E+03 -0.84182130120E+02 -0.10519406259E+03  0.21758872929E+03  0.00000000000E+00 0. -1.
        -13    1    3    3    0    0 -0.70948363017E+01  0.17588818286E+02 -0.24305071010E+01  0.19120946515E+02  0.00000000000E+00 0.  1.
          4    1    6    6  502    0  0.12044404550E+03  0.85959524348E+02  0.15549087712E+03  0.21464673487E+03  0.00000000000E+00 0. -1.
          1    1    5    5  503    0 -0.42780419177E+02 -0.35908671805E+02  0.23201703936E+02  0.60480708010E+02  0.00000000000E+00 0. -1.
         -2    1    5    5    0  503 -0.12551014964E+03 -0.19552534268E+03 -0.50700464709E+02  0.23780978620E+03  0.00000000000E+00 0.  1.
         -3    1    6    6    0  502  0.22579929265E+03  0.21206780197E+03  0.50106217940E+03  0.58908520675E+03  0.00000000000E+00 0.  1.
<mgrwt>
<rscale>  0 0.12330104E+04</rscale>
<asrwt>0</asrwt>
<pdfrwt beam="1">  1        1 0.62869415E-01 0.12330104E+04</pdfrwt>
<pdfrwt beam="2">  1       -1 0.14308937E+00 0.12330104E+04</pdfrwt>
<totfact> 0.22786646E+01</totfact>
</mgrwt>
</event>
<event>
12    1  0.1506149E-007  0.1538073E+04  0.7818608E-02  0.8859522E-01
          1   -1    0    0  501    0  0.00000000000E+00  0.00000000000E+00  0.27241187855E+04  0.27241187855E+04  0.00000000000E+00 0. -1.
         -1   -1    0    0    0  501 -0.00000000000E+00 -0.00000000000E+00 -0.21710395243E+03  0.21710395243E+03  0.00000000000E+00 0.  1.
         23    2    1    2    0    0 -0.38390952105E+03  0.29410800170E+03  0.58746738028E+03  0.76641292687E+03  0.91568633084E+02 0.  0.
        254    2    1    2    0    0  0.38390952105E+03 -0.29410800170E+03  0.19195474528E+04  0.21748098111E+04  0.90069376247E+03 0.  0.
        -24    2    4    4    0    0 -0.50199670949E+02  0.27189234007E+03  0.74380199867E+03  0.79744328219E+03  0.78923529611E+02 0.  0.
         24    2    4    4    0    0  0.43410919200E+03 -0.56600034178E+03  0.11757454542E+04  0.13773665289E+04  0.77162196145E+02 0.  0.
         13    1    3    3    0    0 -0.16345305693E+03  0.75039945262E+02  0.24525480830E+03  0.30413453635E+03  0.00000000000E+00 0. -1.
        -13    1    3    3    0    0 -0.22045646412E+03  0.21906805644E+03  0.34221257198E+03  0.46227839052E+03  0.00000000000E+00 0.  1.
          4    1    6    6  502    0  0.27559630739E+02 -0.70718152577E+02  0.14558752196E+03  0.16418379001E+03  0.00000000000E+00 0. -1.
          3    1    5    5  503    0  0.42069030630E+01  0.10065397372E+03  0.18756528507E+03  0.21290762462E+03  0.00000000000E+00 0. -1.
         -4    1    5    5    0  503 -0.54406574012E+02  0.17123836635E+03  0.55623671360E+03  0.58453565757E+03  0.00000000000E+00 0.  1.
         -3    1    6    6    0  502  0.40654956126E+03 -0.49528218920E+03  0.10301579322E+04  0.12131827389E+04  0.00000000000E+00 0.  1.
<mgrwt>
<rscale>  0 0.15380728E+04</rscale>
<asrwt>0</asrwt>
<pdfrwt beam="1">  1        1 0.41909517E+00 0.15380728E+04</pdfrwt>
<pdfrwt beam="2">  1       -1 0.33400610E-01 0.15380728E+04</pdfrwt>
<totfact> 0.77058131E+00</totfact>
</mgrwt>
</event>
<event>
12    1  0.1506149E-007  0.1703074E+04  0.7818608E-02  0.8759613E-01
          4   -1    0    0  501    0  0.00000000000E+00  0.00000000000E+00  0.63713311924E+03  0.63713311924E+03  0.00000000000E+00 0. -1.
         -4   -1    0    0    0  501 -0.00000000000E+00 -0.00000000000E+00 -0.11380912463E+04  0.11380912463E+04  0.00000000000E+00 0.  1.
         23    2    1    2    0    0  0.16892455511E+03 -0.43210624120E+02 -0.80058181966E+03  0.82477174164E+03  0.94416695985E+02 0.  0.
        254    2    1    2    0    0 -0.16892455511E+03  0.43210624120E+02  0.29962369264E+03  0.95045262386E+03  0.88497636672E+03 0.  0.
        -24    2    4    4    0    0 -0.21914876914E+03 -0.36385017400E+03  0.31098969397E+03  0.53257396410E+03  0.80667870566E+02 0.  0.
         24    2    4    4    0    0  0.50224214031E+02  0.40706079812E+03 -0.11366001328E+02  0.41787865977E+03  0.79198631668E+02 0.  0.
         13    1    3    3    0    0 -0.93190056916E+01  0.37254803353E+01 -0.94388070208E+02  0.94920128889E+02  0.00000000000E+00 0. -1.
        -13    1    3    3    0    0  0.17824356080E+03 -0.46936104456E+02 -0.70619374945E+03  0.72985161275E+03  0.00000000000E+00 0.  1.
          4    1    6    6  502    0  0.44855659989E+02  0.30861884812E+03 -0.41915437367E+02  0.31466573938E+03  0.00000000000E+00 0. -1.
          1    1    5    5  503    0 -0.13118735676E+03 -0.26941873370E+03  0.18470090488E+03  0.35200994433E+03  0.00000000000E+00 0. -1.
         -2    1    5    5    0  503 -0.87961412378E+02 -0.94431440302E+02  0.12628878909E+03  0.18056401977E+03  0.00000000000E+00 0.  1.
         -3    1    6    6    0  502  0.53685540418E+01  0.98441950001E+02  0.30549436039E+02  0.10321292039E+03  0.00000000000E+00 0.  1.
<mgrwt>
<rscale>  0 0.17030744E+04</rscale>
<asrwt>0</asrwt>
<pdfrwt beam="1">  1        4 0.98020481E-01 0.17030744E+04</pdfrwt>
<pdfrwt beam="2">  1       -4 0.17509096E+00 0.17030744E+04</pdfrwt>
<totfact> 0.32067905E-01</totfact>
</mgrwt>
</event>
<event>
12    1  0.1506149E-007  0.1161400E+04  0.7818608E-02  0.9147330E-01
         -1   -1    0    0    0  501 -0.00000000000E+00  0.00000000000E+00  0.17694955094E+03  0.17694955094E+03  0.00000000000E+00 0.  1.
          1   -1    0    0  501    0  0.00000000000E+00 -0.00000000000E+00 -0.19056999880E+04  0.19056999880E+04  0.00000000000E+00 0. -1.
         23    2    1    2    0    0  0.52684259446E+01  0.20724760739E+03 -0.55883362033E+03  0.60246760618E+03  0.87709031453E+02 0.  0.
        254    2    1    2    0    0 -0.52684259446E+01 -0.20724760739E+03 -0.11699168167E+04  0.14801819327E+04  0.88275357202E+03 0.  0.
        -24    2    4    4    0    0 -0.93373699063E+02 -0.43757100857E+03 -0.11284360906E+04  0.12165205104E+04  0.79794151379E+02 0.  0.
         24    2    4    4    0    0  0.88105273118E+02  0.23032340118E+03 -0.41480726127E+02  0.26366142230E+03  0.83578027527E+02 0.  0.
         13    1    3    3    0    0 -0.43650161910E+01  0.11858023114E+03 -0.19852594394E+03  0.23128526758E+03  0.00000000000E+00 0.  1.
        -13    1    3    3    0    0  0.96334421356E+01  0.88667376256E+02 -0.36030767639E+03  0.37118233860E+03  0.00000000000E+00 0. -1.
          4    1    6    6  502    0 -0.80000556069E+01  0.44826232427E+02  0.13757144040E+02  0.47567331389E+02  0.00000000000E+00 0. -1.
          1    1    5    5  503    0 -0.19296457755E+02 -0.16249056416E+03 -0.32096893889E+03  0.36027294716E+03  0.00000000000E+00 0. -1.
         -2    1    5    5    0  503 -0.74077241308E+02 -0.27508044441E+03 -0.80746715167E+03  0.85624756327E+03  0.00000000000E+00 0.  1.
         -3    1    6    6    0  502  0.96105328725E+02  0.18549716875E+03 -0.55237870167E+02  0.21609409091E+03  0.00000000000E+00 0.  1.
<mgrwt>
<rscale>  0 0.11614005E+04</rscale>
<asrwt>0</asrwt>
<pdfrwt beam="1">  1        1 0.29318460E+00 0.11614005E+04</pdfrwt>
<pdfrwt beam="2">  1       -1 0.27223009E-01 0.11614005E+04</pdfrwt>
<totfact> 0.41500761E+01</totfact>
</mgrwt>
</event>
<event>
12    1  0.1506149E-007  0.2686288E+04  0.7818608E-02  0.8339468E-01
         -1   -1    0    0    0  501 -0.00000000000E+00  0.00000000000E+00  0.10816430977E+04  0.10816430977E+04  0.00000000000E+00 0.  1.
          1   -1    0    0  501    0  0.00000000000E+00 -0.00000000000E+00 -0.16678660767E+04  0.16678660767E+04  0.00000000000E+00 0. -1.
         23    2    1    2    0    0 -0.77520361184E+03  0.83953062325E+03  0.84229756197E+02  0.11493849834E+04  0.90768282252E+02 0.  0.
        254    2    1    2    0    0  0.77520361184E+03 -0.83953062325E+03 -0.67045273514E+03  0.16001241910E+04  0.89729496231E+03 0.  0.
        -24    2    4    4    0    0  0.31714746705E+03 -0.58073254456E+03 -0.81165716348E+03  0.10500326100E+04  0.77125396451E+02 0.  0.
         24    2    4    4    0    0  0.45805614479E+03 -0.25879807868E+03  0.14120442834E+03  0.55009158104E+03  0.76617097555E+02 0.  0.
         13    1    3    3    0    0 -0.62622264920E+03  0.67228467669E+03  0.31591261966E+02  0.91930381307E+03  0.00000000000E+00 0.  1.
        -13    1    3    3    0    0 -0.14898096263E+03  0.16724594655E+03  0.52638494231E+02  0.23008117033E+03  0.00000000000E+00 0. -1.
          4    1    6    6  502    0  0.30918897723E+03 -0.18451682361E+03  0.13190243496E+03  0.38346125513E+03  0.00000000000E+00 0. -1.
          1    1    5    5  503    0  0.23682644213E+03 -0.49236674335E+03 -0.65195569081E+03  0.85062212317E+03  0.00000000000E+00 0. -1.
         -2    1    5    5    0  503  0.80321024912E+02 -0.88365801212E+02 -0.15970147267E+03  0.19941048678E+03  0.00000000000E+00 0.  1.
         -3    1    6    6    0  502  0.14886716756E+03 -0.74281255073E+02  0.93019933805E+01  0.16663032591E+03  0.00000000000E+00 0.  1.
<mgrwt>
<rscale>  0 0.26862880E+04</rscale>
<asrwt>0</asrwt>
<pdfrwt beam="1">  1        1 0.25659478E+00 0.26862880E+04</pdfrwt>
<pdfrwt beam="2">  1       -1 0.16640663E+00 0.26862880E+04</pdfrwt>
<totfact> 0.11464522E+00</totfact>
</mgrwt>
</event>
<event>
12    1  0.1506149E-007  0.1646664E+04  0.7818608E-02  0.8792382E-01
          2   -1    0    0  501    0  0.00000000000E+00  0.00000000000E+00  0.25267909866E+04  0.25267909866E+04  0.00000000000E+00 0. -1.
         -2   -1    0    0    0  501 -0.00000000000E+00 -0.00000000000E+00 -0.26827537943E+03  0.26827537943E+03  0.00000000000E+00 0.  1.
         23    2    1    2    0    0  0.19741966423E+02 -0.41344733694E+03  0.14742104736E+04  0.15335381999E+04  0.84347167280E+02 0.  0.
        254    2    1    2    0    0 -0.19741966423E+02  0.41344733694E+03  0.78430513356E+03  0.12615281661E+04  0.89721253088E+03 0.  0.
        -24    2    4    4    0    0 -0.36079967511E+03 -0.57944858728E+02  0.45390378972E+03  0.58833442543E+03  0.81084731083E+02 0.  0.
         24    2    4    4    0    0  0.34105770868E+03  0.47139219567E+03  0.33040134384E+03  0.67319374063E+03  0.74120183604E+02 0.  0.
         11    1    3    3    0    0 -0.46566694219E+01 -0.18091243898E+02  0.25243304524E+02  0.31403854846E+02  0.00000000000E+00 0.  1.
        -11    1    3    3    0    0  0.24398635845E+02 -0.39535609304E+03  0.14489671690E+04  0.15021343451E+04  0.00000000000E+00 0. -1.
          2    1    6    6  502    0  0.31409207729E+03  0.43105399835E+03  0.32451496400E+03  0.62431670198E+03  0.00000000000E+00 0. -1.
          1    1    5    5  503    0 -0.16795458410E+03 -0.67942405749E+02  0.21596761883E+03  0.28189878539E+03  0.00000000000E+00 0. -1.
         -4    1    5    5    0  503 -0.19284509100E+03  0.99975470210E+01  0.23793617089E+03  0.30643564004E+03  0.00000000000E+00 0.  1.
         -1    1    6    6    0  502  0.26965631396E+02  0.40338197317E+02  0.58863798407E+01  0.48877038648E+02  0.00000000000E+00 0.  1.
<mgrwt>
<rscale>  0 0.16466643E+04</rscale>
<asrwt>0</asrwt>
<pdfrwt beam="1">  1        2 0.38873706E+00 0.16466643E+04</pdfrwt>
<pdfrwt beam="2">  1       -2 0.41273137E-01 0.16466643E+04</pdfrwt>
<totfact> 0.17882061E+01</totfact>
</mgrwt>
</event>
<event>
12    1  0.1506149E-007  0.1562586E+04  0.7818608E-02  0.8843868E-01
         -2   -1    0    0    0  501 -0.00000000000E+00  0.00000000000E+00  0.45429514566E+03  0.45429514566E+03  0.00000000000E+00 0. -1.
          2   -1    0    0  501    0  0.00000000000E+00 -0.00000000000E+00 -0.13436615139E+04  0.13436615139E+04  0.00000000000E+00 0.  1.
         23    2    1    2    0    0 -0.19523434250E+03 -0.27958110468E+03  0.14648888004E+03  0.38326759721E+03  0.95671398588E+02 0.  0.
        254    2    1    2    0    0  0.19523434250E+03  0.27958110468E+03 -0.10358552482E+04  0.14146890623E+04  0.90114760452E+03 0.  0.
        -24    2    4    4    0    0  0.52654339603E+03  0.94469183648E+02 -0.41106409293E+03  0.67927608797E+03  0.79182956720E+02 0.  0.
         24    2    4    4    0    0 -0.33130905353E+03  0.18511192103E+03 -0.62479115532E+03  0.73541297434E+03  0.80225574531E+02 0.  0.
         11    1    3    3    0    0 -0.72842043594E+02 -0.95237254336E+02  0.10232679892E+03  0.15762890505E+03  0.00000000000E+00 0.  1.
        -11    1    3    3    0    0 -0.12239229891E+03 -0.18434385034E+03  0.44162081116E+02  0.22563869216E+03  0.00000000000E+00 0. -1.
          2    1    6    6  502    0 -0.73581501960E+02  0.18462248020E+02 -0.80916347436E+02  0.11091684865E+03  0.00000000000E+00 0. -1.
          3    1    5    5  503    0  0.22757731890E+03  0.46266200065E+02 -0.22783044191E+03  0.32532861480E+03  0.00000000000E+00 0. -1.
         -4    1    5    5    0  503  0.29896607713E+03  0.48202983583E+02 -0.18323365102E+03  0.35394747318E+03  0.00000000000E+00 0.  1.
         -3    1    6    6    0  502 -0.25772755157E+03  0.16664967301E+03 -0.54387480788E+03  0.62449612569E+03  0.00000000000E+00 0.  1.
<mgrwt>
<rscale>  0 0.15625862E+04</rscale>
<asrwt>0</asrwt>
<pdfrwt beam="1">  1        2 0.20671716E+00 0.15625862E+04</pdfrwt>
<pdfrwt beam="2">  1       -2 0.69891560E-01 0.15625862E+04</pdfrwt>
<totfact> 0.27969414E+01</totfact>
</mgrwt>
</event>
<event>
12    1  0.1506149E-007  0.2021583E+04  0.7818608E-02  0.8596596E-01
         -2   -1    0    0    0  501 -0.00000000000E+00  0.00000000000E+00  0.20484577981E+04  0.20484577981E+04  0.00000000000E+00 0.  1.
          2   -1    0    0  501    0  0.00000000000E+00 -0.00000000000E+00 -0.49876535212E+03  0.49876535212E+03  0.00000000000E+00 0. -1.
         23    2    1    2    0    0  0.52862760295E+03  0.21158199372E+03 -0.10143731009E+03  0.58562530292E+03  0.91942291023E+02 0.  0.
        254    2    1    2    0    0 -0.52862760295E+03 -0.21158199372E+03  0.16511297561E+04  0.19615978473E+04  0.89298519609E+03 0.  0.
        -24    2    4    4    0    0 -0.59710223310E+03 -0.12244636301E+03  0.47509371876E+03  0.77739301356E+03  0.84271390961E+02 0.  0.
         24    2    4    4    0    0  0.68474630153E+02 -0.89135630705E+02  0.11760360373E+04  0.11842048337E+04  0.81525404263E+02 0.  0.
         11    1    3    3    0    0  0.32858058134E+03  0.15661513169E+03 -0.26183598550E+02  0.36493708874E+03  0.00000000000E+00 0. -1.
        -11    1    3    3    0    0  0.20004702161E+03  0.54966862023E+02 -0.75253711542E+02  0.22068821418E+03  0.00000000000E+00 0.  1.
          4    1    6    6  502    0  0.76251363742E+02 -0.35517332342E+02  0.66256549561E+03  0.66788381275E+03  0.00000000000E+00 0. -1.
          1    1    5    5  503    0 -0.17641087085E+03 -0.75368963275E+01  0.17046897400E+03  0.24543282433E+03  0.00000000000E+00 0. -1.
         -2    1    5    5    0  503 -0.42069136226E+03 -0.11490946668E+03  0.30462474476E+03  0.53196018923E+03  0.00000000000E+00 0.  1.
         -3    1    6    6    0  502 -0.77767335892E+01 -0.53618298363E+02  0.51347054170E+03  0.51632102097E+03  0.00000000000E+00 0.  1.
<mgrwt>
<rscale>  0 0.20215833E+04</rscale>
<asrwt>0</asrwt>
<pdfrwt beam="1">  1        2 0.76733132E-01 0.20215833E+04</pdfrwt>
<pdfrwt beam="2">  1       -2 0.31514735E+00 0.20215833E+04</pdfrwt>
<totfact> 0.14713772E+00</totfact>
</mgrwt>
</event>
<event>
12    1  0.1506149E-007  0.2220674E+04  0.7818608E-02  0.8509872E-01
          2   -1    0    0  501    0  0.00000000000E+00  0.00000000000E+00  0.47245992627E+03  0.47245992627E+03  0.00000000000E+00 0. -1.
         -2   -1    0    0    0  501 -0.00000000000E+00 -0.00000000000E+00 -0.26094239617E+04  0.26094239617E+04  0.00000000000E+00 0.  1.
         23    2    1    2    0    0 -0.28262110827E+03 -0.46199341517E+03  0.14690624581E+03  0.56855835826E+03  0.91457942139E+02 0.  0.
        254    2    1    2    0    0  0.28262110827E+03  0.46199341517E+03 -0.22838702812E+04  0.25133255297E+04  0.89857061504E+03 0.  0.
        -24    2    4    4    0    0  0.48109637477E+03  0.50895800833E+03 -0.10834596956E+04  0.12925356966E+04  0.79193679932E+02 0.  0.
         24    2    4    4    0    0 -0.19847526650E+03 -0.46964593154E+02 -0.12004105857E+04  0.12207898331E+04  0.88000784334E+02 0.  0.
         11    1    3    3    0    0 -0.26375291863E+03 -0.37824463677E+03  0.10453614142E+03  0.47282387017E+03  0.00000000000E+00 0. -1.
        -11    1    3    3    0    0 -0.18868189638E+02 -0.83748778400E+02  0.42370104394E+02  0.95734488091E+02  0.00000000000E+00 0.  1.
          2    1    6    6  502    0 -0.61477262941E+02 -0.45129583351E+02 -0.27846897355E+03  0.28872322799E+03  0.00000000000E+00 0. -1.
          3    1    5    5  503    0  0.43031249692E+02  0.71585465585E+02 -0.16510040304E+03  0.18502516158E+03  0.00000000000E+00 0. -1.
         -4    1    5    5    0  503  0.43806512508E+03  0.43737254274E+03 -0.91835929251E+03  0.11075105350E+04  0.00000000000E+00 0.  1.
         -1    1    6    6    0  502 -0.13699800356E+03 -0.18350098029E+01 -0.92194161212E+03  0.93206660513E+03  0.00000000000E+00 0.  1.
<mgrwt>
<rscale>  0 0.22206740E+04</rscale>
<asrwt>0</asrwt>
<pdfrwt beam="1">  1        2 0.72686143E-01 0.22206740E+04</pdfrwt>
<pdfrwt beam="2">  1       -2 0.40144984E+00 0.22206740E+04</pdfrwt>
<totfact> 0.43639130E-01</totfact>
</mgrwt>
</event>
<event>
12    1  0.1506149E-007  0.1811884E+04  0.7818608E-02  0.8700005E-01
         -2   -1    0    0    0  501 -0.00000000000E+00  0.00000000000E+00  0.41365012440E+03  0.41365012440E+03  0.00000000000E+00 0.  1.
          2   -1    0    0  501    0  0.00000000000E+00 -0.00000000000E+00 -0.19841180391E+04  0.19841180391E+04  0.00000000000E+00 0. -1.
         23    2    1    2    0    0 -0.43475040034E+03 -0.75388910910E+02 -0.12812005005E+04  0.13579848465E+04  0.89200461109E+02 0.  0.
        254    2    1    2    0    0  0.43475040034E+03  0.75388910910E+02 -0.28926741420E+03  0.10397833170E+04  0.89598120013E+03 0.  0.
        -24    2    4    4    0    0  0.45047503321E+03  0.49782543201E+02 -0.57742746412E+03  0.73872114218E+03  0.82948130973E+02 0.  0.
         24    2    4    4    0    0 -0.15724632877E+02  0.25606367709E+02  0.28816004993E+03  0.30106217485E+03  0.81849059891E+02 0.  0.
         13    1    3    3    0    0 -0.11739546486E+03 -0.61061161464E+02 -0.36041564883E+03  0.38393957927E+03  0.00000000000E+00 0.  1.
        -13    1    3    3    0    0 -0.31735493548E+03 -0.14327749446E+02 -0.92078485169E+03  0.97404526721E+03  0.00000000000E+00 0. -1.
          4    1    6    6  502    0  0.18351518628E+02  0.16501747542E+02  0.24053691991E+03  0.24179970172E+03  0.00000000000E+00 0. -1.
          3    1    5    5  503    0  0.32755809456E+03  0.34468413327E+02 -0.47483620452E+03  0.57788562705E+03  0.00000000000E+00 0. -1.
         -4    1    5    5    0  503  0.12291693865E+03  0.15314129874E+02 -0.10259125960E+03  0.16083551513E+03  0.00000000000E+00 0.  1.
         -3    1    6    6    0  502 -0.34076151505E+02  0.91046201677E+01  0.47623130013E+02  0.59262473134E+02  0.00000000000E+00 0.  1.
<mgrwt>
<rscale>  0 0.18118837E+04</rscale>
<asrwt>0</asrwt>
<pdfrwt beam="1">  1        2 0.30524893E+00 0.18118837E+04</pdfrwt>
<pdfrwt beam="2">  1       -2 0.63638481E-01 0.18118837E+04</pdfrwt>
<totfact> 0.14692716E+01</totfact>
</mgrwt>
</event>
<event>
12    1  0.1506149E-007  0.1180123E+04  0.7818608E-02  0.9130435E-01
          2   -1    0    0  501    0  0.00000000000E+00  0.00000000000E+00  0.13593122265E+04  0.13593122265E+04  0.00000000000E+00 0. -1.
         -2   -1    0    0    0  501 -0.00000000000E+00 -0.00000000000E+00 -0.25613870161E+03  0.25613870161E+03  0.00000000000E+00 0.  1.
         23    2    1    2    0    0  0.15618029522E+03  0.83333280419E+02  0.46863990476E+03  0.50898007314E+03  0.90003523684E+02 0.  0.
        254    2    1    2    0    0 -0.15618029522E+03 -0.83333280419E+02  0.63453362010E+03  0.11064708549E+04  0.88899275451E+03 0.  0.
        -24    2    4    4    0    0  0.27143217005E+03 -0.27288029164E+03  0.44998632107E+03  0.59733531452E+03  0.78630225263E+02 0.  0.
         24    2    4    4    0    0 -0.42761246526E+03  0.18954701122E+03  0.18454729903E+03  0.50913554043E+03  0.79879928854E+02 0.  0.
         11    1    3    3    0    0 -0.36185665223E+01  0.28983690258E+02  0.56158073302E+02  0.63299901435E+02  0.00000000000E+00 0.  1.
        -11    1    3    3    0    0  0.15979886174E+03  0.54349590161E+02  0.41248183146E+03  0.44568017170E+03  0.00000000000E+00 0. -1.
          4    1    6    6  502    0 -0.72972959800E+02  0.37888153846E+02  0.66559264778E+02  0.10578610869E+03  0.00000000000E+00 0. -1.
          3    1    5    5  503    0  0.52451274210E+02 -0.10333110884E+03  0.13079743528E+03  0.17474674044E+03  0.00000000000E+00 0. -1.
         -4    1    5    5    0  503  0.21898089584E+03 -0.16954918280E+03  0.31918888579E+03  0.42258857407E+03  0.00000000000E+00 0.  1.
         -3    1    6    6    0  502 -0.35463950546E+03  0.15165885737E+03  0.11798803426E+03  0.40334943174E+03  0.00000000000E+00 0.  1.
<mgrwt>
<rscale>  0 0.11801228E+04</rscale>
<asrwt>0</asrwt>
<pdfrwt beam="1">  1        2 0.20912495E+00 0.11801228E+04</pdfrwt>
<pdfrwt beam="2">  1       -2 0.39405955E-01 0.11801228E+04</pdfrwt>
<totfact> 0.91828514E+01</totfact>
</mgrwt>
</event>
<event>
12    1  0.1820525E-007  0.2426118E+04  0.7818608E-02  0.8429790E-01
          2   -1    0    0  501    0  0.00000000000E+00  0.00000000000E+00  0.19202638571E+04  0.19202638571E+04  0.00000000000E+00 0. -1.
         -2   -1    0    0    0  501 -0.00000000000E+00 -0.00000000000E+00 -0.76630705891E+03  0.76630705891E+03  0.00000000000E+00 0.  1.
         23    2    1    2    0    0 -0.50444852254E+03 -0.41479995241E+03  0.13996111220E+04  0.15472161911E+04  0.91865862943E+02 0.  0.
        254    2    1    2    0    0  0.50444852254E+03  0.41479995241E+03 -0.24565432381E+03  0.11393547249E+04  0.90069741310E+03 0.  0.
        -24    2    4    4    0    0  0.62939036760E+02 -0.20907471374E+03 -0.28820946201E+03  0.36967220070E+03  0.76936881287E+02 0.  0.
         24    2    4    4    0    0  0.44150948578E+03  0.62387466615E+03  0.42555138202E+02  0.76968252421E+03  0.80312036438E+02 0.  0.
         11    1    3    3    0    0 -0.44824062958E+03 -0.38377507349E+03  0.13120712792E+04  0.14386570164E+04  0.00000000000E+00 0. -1.
        -11    1    3    3    0    0 -0.56207892957E+02 -0.31024878926E+02  0.87539842836E+02  0.10855917477E+03  0.00000000000E+00 0.  1.
          4    1    6    6  502    0  0.33221581723E+03  0.49848394484E+03  0.45593414075E+01  0.59906124902E+03  0.00000000000E+00 0. -1.
          1    1    5    5  503    0  0.43448531829E+02 -0.20595111316E+03 -0.27317372312E+03  0.34485869415E+03  0.00000000000E+00 0. -1.
         -4    1    5    5    0  503  0.19490504931E+02 -0.31236005812E+01 -0.15035738890E+02  0.24813506544E+02  0.00000000000E+00 0.  1.
         -3    1    6    6    0  502  0.10929366855E+03  0.12539072131E+03  0.37995796794E+02  0.17062127520E+03  0.00000000000E+00 0.  1.
<mgrwt>
<rscale>  0 0.24261177E+04</rscale>
<asrwt>0</asrwt>
<pdfrwt beam="1">  1        2 0.29542521E+00 0.24261177E+04</pdfrwt>
<pdfrwt beam="2">  1       -2 0.11789339E+00 0.24261177E+04</pdfrwt>
<totfact> 0.36837899E+00</totfact>
</mgrwt>
</event>
<event>
12    1  0.1506149E-007  0.1545752E+04  0.7818608E-02  0.8854586E-01
          2   -1    0    0  501    0  0.00000000000E+00  0.00000000000E+00  0.49431890737E+03  0.49431890737E+03  0.00000000000E+00 0. -1.
         -2   -1    0    0    0  501 -0.00000000000E+00 -0.00000000000E+00 -0.12084040189E+04  0.12084040189E+04  0.00000000000E+00 0.  1.
         23    2    1    2    0    0 -0.42618589341E+03 -0.15313003313E+03 -0.46708793956E+03  0.65681284174E+03  0.90270388320E+02 0.  0.
        254    2    1    2    0    0  0.42618589341E+03  0.15313003313E+03 -0.24699717200E+03  0.10459100846E+04  0.90985552657E+03 0.  0.
        -24    2    4    4    0    0  0.42849494721E+03 -0.30107628441E+03 -0.24788420297E+03  0.58488473428E+03  0.79929503279E+02 0.  0.
         24    2    4    4    0    0 -0.23090538024E+01  0.45420631754E+03  0.88703097113E+00  0.46102535028E+03  0.78961231960E+02 0.  0.
         11    1    3    3    0    0 -0.21781890296E+03 -0.89534818987E+02 -0.30465925923E+03  0.38506989305E+03  0.00000000000E+00 0.  1.
        -11    1    3    3    0    0 -0.20836699045E+03 -0.63595214142E+02 -0.16242868033E+03  0.27174294869E+03  0.00000000000E+00 0. -1.
          4    1    6    6  502    0  0.32945797740E+02  0.22629165484E+03  0.20345700888E+02  0.22958067467E+03  0.00000000000E+00 0. -1.
          3    1    5    5  503    0  0.18570252858E+03 -0.16961732316E+03 -0.14453202177E+03  0.29007752542E+03  0.00000000000E+00 0. -1.
         -4    1    5    5    0  503  0.24279241863E+03 -0.13145896125E+03 -0.10335218120E+03  0.29480720886E+03  0.00000000000E+00 0.  1.
         -3    1    6    6    0  502 -0.35254851542E+02  0.22791466270E+03 -0.19458669917E+02  0.23144467560E+03  0.00000000000E+00 0.  1.
<mgrwt>
<rscale>  0 0.15457515E+04</rscale>
<asrwt>0</asrwt>
<pdfrwt beam="1">  1        2 0.76049063E-01 0.15457515E+04</pdfrwt>
<pdfrwt beam="2">  1       -2 0.18590831E+00 0.15457515E+04</pdfrwt>
<totfact> 0.99149125E+00</totfact>
</mgrwt>
</event>
<event>
12    1  0.1506149E-007  0.1734413E+04  0.7818608E-02  0.8741977E-01
         -2   -1    0    0    0  501 -0.00000000000E+00  0.00000000000E+00  0.60003728717E+03  0.60003728717E+03  0.00000000000E+00 0.  1.
          2   -1    0    0  501    0  0.00000000000E+00 -0.00000000000E+00 -0.12533338979E+04  0.12533338979E+04  0.00000000000E+00 0. -1.
         23    2    1    2    0    0 -0.15981705675E+03  0.41893039869E+03  0.28309189598E+03  0.53810241115E+03  0.91482308306E+02 0.  0.
        254    2    1    2    0    0  0.15981705675E+03 -0.41893039869E+03 -0.93638850675E+03  0.13152687740E+04  0.80750501027E+03 0.  0.
        -24    2    4    4    0    0 -0.31750784244E+03 -0.22614818990E+03 -0.33956689502E+03  0.52306425243E+03  0.79600893000E+02 0.  0.
         24    2    4    4    0    0  0.47732489920E+03 -0.19278220879E+03 -0.59682161172E+03  0.79220452153E+03  0.79924516203E+02 0.  0.
         11    1    3    3    0    0 -0.81446500252E+01  0.10135808168E+03  0.35102440065E+02  0.10757312557E+03  0.00000000000E+00 0. -1.
        -11    1    3    3    0    0 -0.15167240673E+03  0.31757231702E+03  0.24798945591E+03  0.43052928558E+03  0.00000000000E+00 0.  1.
          4    1    6    6  502    0  0.11014741319E+03 -0.77883112177E+02 -0.13096357841E+03  0.18801513414E+03  0.00000000000E+00 0. -1.
          1    1    5    5  503    0 -0.11263431464E+03 -0.41860629002E+02 -0.12871704325E+03  0.17608770065E+03  0.00000000000E+00 0. -1.
         -2    1    5    5    0  503 -0.20487352780E+03 -0.18428756090E+03 -0.21084985177E+03  0.34697655178E+03  0.00000000000E+00 0.  1.
         -3    1    6    6    0  502  0.36717748600E+03 -0.11489909662E+03 -0.46585803332E+03  0.60418938739E+03  0.00000000000E+00 0.  1.
<mgrwt>
<rscale>  0 0.17344130E+04</rscale>
<asrwt>0</asrwt>
<pdfrwt beam="1">  1        2 0.19282060E+00 0.17344130E+04</pdfrwt>
<pdfrwt beam="2">  1       -2 0.92313429E-01 0.17344130E+04</pdfrwt>
<totfact> 0.16652903E+01</totfact>
</mgrwt>
</event>
<event>
12    1  0.1506149E-007  0.1300293E+04  0.7818608E-02  0.9029333E-01
          1   -1    0    0  501    0  0.00000000000E+00  0.00000000000E+00  0.80641727704E+03  0.80641727704E+03  0.00000000000E+00 0. -1.
         -1   -1    0    0    0  501 -0.00000000000E+00 -0.00000000000E+00 -0.52415859003E+03  0.52415859003E+03  0.00000000000E+00 0.  1.
         23    2    1    2    0    0 -0.28805567275E+02  0.10444460736E+02  0.41650153089E+03  0.42741949374E+03  0.90967306914E+02 0.  0.
        254    2    1    2    0    0  0.28805567275E+02 -0.10444460736E+02 -0.13424284388E+03  0.90315637334E+03  0.89259814368E+03 0.  0.
        -24    2    4    4    0    0  0.29723239182E+03  0.32525824746E+03 -0.15072323722E+02  0.44829410509E+03  0.81242891519E+02 0.  0.
         24    2    4    4    0    0 -0.26842682455E+03 -0.33570270820E+03 -0.11917052015E+03  0.45486226825E+03  0.89156052945E+02 0.  0.
         11    1    3    3    0    0 -0.11383411441E+02 -0.40033653532E+02  0.21300286349E+03  0.21703109299E+03  0.00000000000E+00 0. -1.
        -11    1    3    3    0    0 -0.17422155834E+02  0.50478114269E+02  0.20349866740E+03  0.21038840074E+03  0.00000000000E+00 0.  1.
          2    1    6    6  502    0 -0.33418559314E+02 -0.73194232709E+01 -0.14535568732E+01  0.34241595921E+02  0.00000000000E+00 0. -1.
          3    1    5    5  503    0  0.49436888586E+02  0.68416079864E+02 -0.33773697392E+02  0.90914402448E+02  0.00000000000E+00 0. -1.
         -4    1    5    5    0  503  0.24779550324E+03  0.25684216760E+03  0.18701373669E+02  0.35737970264E+03  0.00000000000E+00 0.  1.
         -1    1    6    6    0  502 -0.23500826523E+03 -0.32838328493E+03 -0.11771696328E+03  0.42062067233E+03  0.00000000000E+00 0.  1.
<mgrwt>
<rscale>  0 0.13002931E+04</rscale>
<asrwt>0</asrwt>
<pdfrwt beam="1">  1        1 0.12406420E+00 0.13002931E+04</pdfrwt>
<pdfrwt beam="2">  1       -1 0.80639783E-01 0.13002931E+04</pdfrwt>
<totfact> 0.32900686E+01</totfact>
</mgrwt>
</event>
<event>
12    1  0.1506149E-007  0.1408993E+04  0.7818608E-02  0.8947335E-01
          2   -1    0    0  501    0  0.00000000000E+00  0.00000000000E+00  0.13537221952E+04  0.13537221952E+04  0.00000000000E+00 0. -1.
         -2   -1    0    0    0  501 -0.00000000000E+00 -0.00000000000E+00 -0.36663015773E+03  0.36663015773E+03  0.00000000000E+00 0.  1.
         23    2    1    2    0    0  0.27572883554E+03  0.62977301242E+02  0.65574198024E+03  0.71989065202E+03  0.90843134008E+02 0.  0.
        254    2    1    2    0    0 -0.27572883554E+03 -0.62977301242E+02  0.33135005728E+03  0.10004617010E+04  0.90063212435E+03 0.  0.
        -24    2    4    4    0    0  0.25206307973E+02 -0.24989065769E+03  0.52636992743E+03  0.58845896575E+03  0.78345102636E+02 0.  0.
         24    2    4    4    0    0 -0.30093514351E+03  0.18691335645E+03 -0.19501987015E+03  0.41200273521E+03  0.78834894855E+02 0.  0.
         11    1    3    3    0    0  0.16701413474E+03  0.60799231064E+02  0.30867727661E+03  0.35619086006E+03  0.00000000000E+00 0. -1.
        -11    1    3    3    0    0  0.10871470080E+03  0.21780701782E+01  0.34706470363E+03  0.36369979195E+03  0.00000000000E+00 0.  1.
          2    1    6    6  502    0 -0.72395726503E+01  0.24971133952E+02 -0.48266836696E+01  0.26443634740E+02  0.00000000000E+00 0. -1.
          3    1    5    5  503    0  0.28824710237E+02 -0.77731357087E+02  0.10887111666E+03  0.13684278512E+03  0.00000000000E+00 0. -1.
         -2    1    5    5    0  503 -0.36184022631E+01 -0.17215930060E+03  0.41749881076E+03  0.45161618063E+03  0.00000000000E+00 0.  1.
         -1    1    6    6    0  502 -0.29369557086E+03  0.16194222250E+03 -0.19019318648E+03  0.38555910047E+03  0.00000000000E+00 0.  1.
<mgrwt>
<rscale>  0 0.14089931E+04</rscale>
<asrwt>0</asrwt>
<pdfrwt beam="1">  1        2 0.20826495E+00 0.14089931E+04</pdfrwt>
<pdfrwt beam="2">  1       -2 0.56404640E-01 0.14089931E+04</pdfrwt>
<totfact> 0.44135047E+01</totfact>
</mgrwt>
</event>
<event>
12    1  0.1506149E-007  0.2719609E+04  0.7818608E-02  0.8328670E-01
          1   -1    0    0  501    0  0.00000000000E+00  0.00000000000E+00  0.25815495817E+04  0.25815495817E+04  0.00000000000E+00 0. -1.
         -1   -1    0    0    0  501 -0.00000000000E+00 -0.00000000000E+00 -0.71626312890E+03  0.71626312890E+03  0.00000000000E+00 0.  1.
         23    2    1    2    0    0  0.51915327687E+03  0.75698420363E+03 -0.12377023547E+03  0.93090001320E+03  0.93330348446E+02 0.  0.
        254    2    1    2    0    0 -0.51915327687E+03 -0.75698420363E+03  0.19890566883E+04  0.23669126974E+04  0.89631690745E+03 0.  0.
        -24    2    4    4    0    0 -0.21153530694E+03 -0.80100146970E+03  0.18265374948E+04  0.20071890442E+04  0.78854921124E+02 0.  0.
         24    2    4    4    0    0 -0.30761796994E+03  0.44017266065E+02  0.16251919343E+03  0.35972365321E+03  0.80139149644E+02 0.  0.
         11    1    3    3    0    0  0.24268997195E+03  0.33376747335E+03 -0.10110571511E+03  0.42487823477E+03  0.00000000000E+00 0.  1.
        -11    1    3    3    0    0  0.27646330492E+03  0.42321673028E+03 -0.22664520363E+02  0.50602177843E+03  0.00000000000E+00 0. -1.
          2    1    6    6  502    0 -0.26551654096E+03  0.21525874804E+02  0.10849778601E+03  0.28763547482E+03  0.00000000000E+00 0. -1.
          1    1    5    5  503    0 -0.13318849284E+03 -0.60515083893E+03  0.13061563875E+04  0.14456801933E+04  0.00000000000E+00 0. -1.
         -2    1    5    5    0  503 -0.78346814103E+02 -0.19585063076E+03  0.52038110731E+03  0.56150885095E+03  0.00000000000E+00 0.  1.
         -1    1    6    6    0  502 -0.42101428979E+02  0.22491391261E+02  0.54021407428E+02  0.72088178389E+02  0.00000000000E+00 0.  1.
<mgrwt>
<rscale>  0 0.27196094E+04</rscale>
<asrwt>0</asrwt>
<pdfrwt beam="1">  1        1 0.39716147E+00 0.27196094E+04</pdfrwt>
<pdfrwt beam="2">  1       -1 0.11019433E+00 0.27196094E+04</pdfrwt>
<totfact> 0.78708267E-01</totfact>
</mgrwt>
</event>
<event>
12    1  0.1506149E-007  0.2050127E+04  0.7818608E-02  0.8583537E-01
         -2   -1    0    0    0  501 -0.00000000000E+00  0.00000000000E+00  0.14369890475E+04  0.14369890475E+04  0.00000000000E+00 0. -1.
          2   -1    0    0  501    0  0.00000000000E+00 -0.00000000000E+00 -0.73122000037E+03  0.73122000037E+03  0.00000000000E+00 0.  1.
         23    2    1    2    0    0 -0.46023372694E+03 -0.72264064964E+03  0.38850184183E+03  0.94511798039E+03  0.91047920567E+02 0.  0.
        254    2    1    2    0    0  0.46023372694E+03  0.72264064964E+03  0.31726720529E+03  0.12230910675E+04  0.81318428899E+03 0.  0.
        -24    2    4    4    0    0  0.60800935384E+03  0.66448598072E+03  0.44082157216E+03  0.10060162016E+04  0.80795708320E+02 0.  0.
         24    2    4    4    0    0 -0.14777562690E+03  0.58154668911E+02 -0.12355436686E+03  0.21707486587E+03  0.81462963349E+02 0.  0.
         11    1    3    3    0    0 -0.54444688953E+02 -0.72383254616E+02  0.72630436506E+02  0.11609797591E+03  0.00000000000E+00 0.  1.
        -11    1    3    3    0    0 -0.40578903799E+03 -0.65025739502E+03  0.31587140532E+03  0.82902000448E+03  0.00000000000E+00 0. -1.
          4    1    6    6  502    0 -0.61709022983E+02  0.33475108976E+01 -0.70424577922E+01  0.62199723139E+02  0.00000000000E+00 0. -1.
          3    1    5    5  503    0  0.32005525302E+03  0.40895823170E+03  0.25331456794E+03  0.57779794963E+03  0.00000000000E+00 0. -1.
         -4    1    5    5    0  503  0.28795410082E+03  0.25552774903E+03  0.18750700421E+03  0.42821825198E+03  0.00000000000E+00 0.  1.
         -3    1    6    6    0  502 -0.86066603917E+02  0.54807158013E+02 -0.11651190907E+03  0.15487514273E+03  0.00000000000E+00 0.  1.
<mgrwt>
<rscale>  0 0.20501270E+04</rscale>
<asrwt>0</asrwt>
<pdfrwt beam="1">  1        2 0.11249539E+00 0.20501270E+04</pdfrwt>
<pdfrwt beam="2">  1       -2 0.22107524E+00 0.20501270E+04</pdfrwt>
<totfact> 0.34869658E+00</totfact>
</mgrwt>
</event>
<event>
12    1  0.1506149E-007  0.1831989E+04  0.7818608E-02  0.8689470E-01
          2   -1    0    0  501    0  0.00000000000E+00  0.00000000000E+00  0.18301002392E+04  0.18301002392E+04  0.00000000000E+00 0.  1.
         -2   -1    0    0    0  501 -0.00000000000E+00 -0.00000000000E+00 -0.45847013896E+03  0.45847013896E+03  0.00000000000E+00 0. -1.
         23    2    1    2    0    0  0.24105255749E+03 -0.16991817474E+03 -0.25462637289E+03  0.40150608711E+03  0.96922786981E+02 0.  0.
        254    2    1    2    0    0 -0.24105255749E+03  0.16991817474E+03  0.16262564731E+04  0.18870642910E+04  0.91067173038E+03 0.  0.
        -24    2    4    4    0    0 -0.48497278171E+02 -0.15556013324E+03 -0.31582200200E+02  0.18474504557E+03  0.81131716687E+02 0.  0.
         24    2    4    4    0    0 -0.19255527932E+03  0.32547830797E+03  0.16578386733E+04  0.17023192454E+04  0.80299950942E+02 0.  0.
         11    1    3    3    0    0  0.18106357838E+03 -0.16422864291E+03 -0.23236801447E+03  0.33726838084E+03  0.00000000000E+00 0. -1.
        -11    1    3    3    0    0  0.59988979111E+02 -0.56895318305E+01 -0.22258358425E+02  0.64237706271E+02  0.00000000000E+00 0.  1.
          2    1    6    6  502    0 -0.14513797022E+03  0.17253223478E+03  0.90789257088E+03  0.93546850438E+03  0.00000000000E+00 0. -1.
          1    1    5    5  503    0 -0.43491995277E+02 -0.16528445701E+03 -0.31603262784E+02  0.17380814595E+03  0.00000000000E+00 0. -1.
         -2    1    5    5    0  503 -0.50052828934E+01  0.97243237721E+01  0.21062583372E-01  0.10936899620E+02  0.00000000000E+00 0.  1.
         -1    1    6    6    0  502 -0.47417309100E+02  0.15294607319E+03  0.74994610244E+03  0.76685074106E+03  0.00000000000E+00 0.  1.
<mgrwt>
<rscale>  0 0.18319894E+04</rscale>
<asrwt>0</asrwt>
<pdfrwt beam="1">  1        2 0.28155388E+00 0.18319894E+04</pdfrwt>
<pdfrwt beam="2">  1       -2 0.70533868E-01 0.18319894E+04</pdfrwt>
<totfact> 0.14293131E+01</totfact>
</mgrwt>
</event>
<event>
12    1  0.1506149E-007  0.1379960E+04  0.7818608E-02  0.8968453E-01
          2   -1    0    0  501    0  0.00000000000E+00  0.00000000000E+00  0.55983089603E+03  0.55983089603E+03  0.00000000000E+00 0. -1.
         -2   -1    0    0    0  501 -0.00000000000E+00 -0.00000000000E+00 -0.85038666889E+03  0.85038666889E+03  0.00000000000E+00 0.  1.
         23    2    1    2    0    0  0.90562463932E+02 -0.69497393174E+02  0.26355377598E+03  0.30252285190E+03  0.95015975251E+02 0.  0.
        254    2    1    2    0    0 -0.90562463932E+02  0.69497393174E+02 -0.55410954884E+03  0.11076947130E+04  0.95232281166E+03 0.  0.
        -24    2    4    4    0    0 -0.17876358971E+03 -0.41033943995E+03 -0.34538170124E+03  0.57097240336E+03  0.79913008103E+02 0.  0.
         24    2    4    4    0    0  0.88201125777E+02  0.47983683313E+03 -0.20872784760E+03  0.53672230966E+03  0.80502784495E+02 0.  0.
         13    1    3    3    0    0  0.97882682304E+02 -0.40854832122E+02  0.24660059962E+03  0.26844364871E+03  0.00000000000E+00 0. -1.
        -13    1    3    3    0    0 -0.73202183725E+01 -0.28642561052E+02  0.16953176365E+02  0.34079203182E+02  0.00000000000E+00 0.  1.
          4    1    6    6  502    0  0.93281930314E+02  0.32560342228E+03 -0.16224635053E+03  0.37555690033E+03  0.00000000000E+00 0. -1.
          1    1    5    5  503    0 -0.18506134217E+03 -0.40741279139E+03 -0.34225088069E+03  0.56335472687E+03  0.00000000000E+00 0. -1.
         -2    1    5    5    0  503  0.62977524592E+01 -0.29266485630E+01 -0.31308205522E+01  0.76176764947E+01  0.00000000000E+00 0.  1.
         -3    1    6    6    0  502 -0.50808045370E+01  0.15423341084E+03 -0.46481497075E+02  0.16116540933E+03  0.00000000000E+00 0.  1.
<mgrwt>
<rscale>  0 0.13799605E+04</rscale>
<asrwt>0</asrwt>
<pdfrwt beam="1">  1        2 0.86127830E-01 0.13799605E+04</pdfrwt>
<pdfrwt beam="2">  1       -2 0.13082872E+00 0.13799605E+04</pdfrwt>
<totfact> 0.22442761E+01</totfact>
</mgrwt>
</event>
<event>
12    1  0.1506149E-007  0.1356816E+04  0.7818608E-02  0.8985684E-01
         -2   -1    0    0    0  501 -0.00000000000E+00  0.00000000000E+00  0.61882766377E+03  0.61882766377E+03  0.00000000000E+00 0.  1.
          2   -1    0    0  501    0  0.00000000000E+00 -0.00000000000E+00 -0.74372522252E+03  0.74372522252E+03  0.00000000000E+00 0. -1.
         23    2    1    2    0    0 -0.29018429362E+03  0.12927965193E+03 -0.24429627564E+03  0.41156308905E+03  0.93719546018E+02 0.  0.
        254    2    1    2    0    0  0.29018429362E+03 -0.12927965193E+03  0.11939871689E+03  0.95098979724E+03  0.88837232520E+03 0.  0.
        -24    2    4    4    0    0  0.41621268708E+03 -0.42848900697E+03  0.13164343738E+03  0.61678499815E+03  0.79106948879E+02 0.  0.
         24    2    4    4    0    0 -0.12602839346E+03  0.29920935504E+03 -0.12244720494E+02  0.33420479908E+03  0.78316795463E+02 0.  0.
         13    1    3    3    0    0 -0.11147534440E+03  0.21314307485E+02 -0.42496476212E+02  0.12118994431E+03  0.00000000000E+00 0.  1.
        -13    1    3    3    0    0 -0.17870894923E+03  0.10796534445E+03 -0.20179979942E+03  0.29037314474E+03  0.00000000000E+00 0. -1.
          2    1    6    6  502    0 -0.11864506037E+03  0.27967593680E+03  0.96418462636E+01  0.30395434719E+03  0.00000000000E+00 0. -1.
          1    1    5    5  503    0  0.40361998909E+03 -0.42978273758E+03  0.13170336731E+03  0.60412587602E+03  0.00000000000E+00 0. -1.
         -2    1    5    5    0  503  0.12592697995E+02  0.12937306122E+01 -0.59929923404E-01  0.12659122138E+02  0.00000000000E+00 0.  1.
         -1    1    6    6    0  502 -0.73833330855E+01  0.19533418240E+02 -0.21886566757E+02  0.30250451898E+02  0.00000000000E+00 0.  1.
<mgrwt>
<rscale>  0 0.13568165E+04</rscale>
<asrwt>0</asrwt>
<pdfrwt beam="1">  1        2 0.11441927E+00 0.13568165E+04</pdfrwt>
<pdfrwt beam="2">  1       -2 0.95204255E-01 0.13568165E+04</pdfrwt>
<totfact> 0.34333622E+01</totfact>
</mgrwt>
</event>
<event>
12    1  0.1506149E-007  0.1689961E+04  0.7818608E-02  0.8767111E-01
          2   -1    0    0  501    0  0.00000000000E+00  0.00000000000E+00  0.15048478691E+04  0.15048478691E+04  0.00000000000E+00 0. -1.
         -2   -1    0    0    0  501 -0.00000000000E+00 -0.00000000000E+00 -0.47446150547E+03  0.47446150547E+03  0.00000000000E+00 0.  1.
         23    2    1    2    0    0 -0.36524448982E+03  0.42720332468E+03  0.62718503968E+03  0.84753117311E+03  0.95088366440E+02 0.  0.
        254    2    1    2    0    0  0.36524448982E+03 -0.42720332468E+03  0.40320132399E+03  0.11317782015E+04  0.89579259417E+03 0.  0.
        -24    2    4    4    0    0  0.45741183001E+03 -0.30384538370E+03  0.63387676388E+03  0.84261921459E+03  0.81607533866E+02 0.  0.
         24    2    4    4    0    0 -0.92167340189E+02 -0.12335794098E+03 -0.23067543989E+03  0.28915898692E+03  0.81790958836E+02 0.  0.
         11    1    3    3    0    0 -0.14946818449E+03  0.18680409780E+03  0.33707906701E+03  0.41335070648E+03  0.00000000000E+00 0. -1.
        -11    1    3    3    0    0 -0.21577630533E+03  0.24039922688E+03  0.29010597268E+03  0.43418046663E+03  0.00000000000E+00 0.  1.
          4    1    6    6  502    0 -0.28313066966E+01 -0.20682117801E+02  0.51628229876E+00  0.20881399421E+02  0.00000000000E+00 0. -1.
          3    1    5    5  503    0  0.12606059368E+03 -0.12399849177E+03  0.23008141022E+03  0.29017986589E+03  0.00000000000E+00 0. -1.
         -4    1    5    5    0  503  0.33135123633E+03 -0.17984689193E+03  0.40379535366E+03  0.55243934870E+03  0.00000000000E+00 0.  1.
         -3    1    6    6    0  502 -0.89336033492E+02 -0.10267582318E+03 -0.23119172218E+03  0.26827758750E+03  0.00000000000E+00 0.  1.
<mgrwt>
<rscale>  0 0.16899614E+04</rscale>
<asrwt>0</asrwt>
<pdfrwt beam="1">  1        2 0.23151506E+00 0.16899614E+04</pdfrwt>
<pdfrwt beam="2">  1       -2 0.72994078E-01 0.16899614E+04</pdfrwt>
<totfact> 0.20366192E+01</totfact>
</mgrwt>
</event>
<event>
12    1  0.1506149E-007  0.3015974E+04  0.7818608E-02  0.8239184E-01
         -2   -1    0    0    0  501 -0.00000000000E+00  0.00000000000E+00  0.13854642931E+04  0.13854642931E+04  0.00000000000E+00 0.  1.
          2   -1    0    0  501    0  0.00000000000E+00 -0.00000000000E+00 -0.16413449467E+04  0.16413449467E+04  0.00000000000E+00 0. -1.
         23    2    1    2    0    0 -0.66213983691E+03  0.11600381430E+04 -0.44778201251E+03  0.14116646720E+04  0.90392248946E+02 0.  0.
        254    2    1    2    0    0  0.66213983691E+03 -0.11600381430E+04  0.19190135896E+03  0.16151445678E+04  0.88755179363E+03 0.  0.
        -24    2    4    4    0    0  0.27690571693E+03 -0.11432375772E+04  0.15619060843E+01  0.11787853673E+04  0.76573942930E+02 0.  0.
         24    2    4    4    0    0  0.38523411998E+03 -0.16800565841E+02  0.19033945288E+03  0.43635920046E+03  0.74112470561E+02 0.  0.
         11    1    3    3    0    0 -0.64117897489E+03  0.10833763800E+04 -0.41297583474E+03  0.13249014675E+04  0.00000000000E+00 0. -1.
        -11    1    3    3    0    0 -0.20960862022E+02  0.76661763007E+02 -0.34806177768E+02  0.86763204499E+02  0.00000000000E+00 0.  1.
          2    1    6    6  502    0  0.10599500915E+03 -0.24098968561E+02  0.84365259468E+02  0.13759796240E+03  0.00000000000E+00 0. -1.
          3    1    5    5  503    0  0.45213654755E+02 -0.25329589327E+03  0.27850387909E+02  0.25880248884E+03  0.00000000000E+00 0. -1.
         -4    1    5    5    0  503  0.23169206218E+03 -0.88994168389E+03 -0.26288481825E+02  0.91998287847E+03  0.00000000000E+00 0.  1.
         -1    1    6    6    0  502  0.27923911083E+03  0.72984027198E+01  0.10597419341E+03  0.29876123806E+03  0.00000000000E+00 0.  1.
<mgrwt>
<rscale>  0 0.30159740E+04</rscale>
<asrwt>0</asrwt>
<pdfrwt beam="1">  1        2 0.25251461E+00 0.30159740E+04</pdfrwt>
<pdfrwt beam="2">  1       -2 0.21314835E+00 0.30159740E+04</pdfrwt>
<totfact> 0.98805905E-01</totfact>
</mgrwt>
</event>
<event>
12    1  0.1506149E-007  0.2055559E+04  0.7818608E-02  0.8581077E-01
          2   -1    0    0  501    0  0.00000000000E+00  0.00000000000E+00  0.89096595749E+03  0.89096595749E+03  0.00000000000E+00 0. -1.
         -2   -1    0    0    0  501 -0.00000000000E+00 -0.00000000000E+00 -0.11856012907E+04  0.11856012907E+04  0.00000000000E+00 0.  1.
         23    2    1    2    0    0  0.80369930700E+03 -0.98116546207E+02  0.37783383965E+02  0.81592258057E+03  0.93502089073E+02 0.  0.
        254    2    1    2    0    0 -0.80369930700E+03  0.98116546207E+02 -0.33241871722E+03  0.12606446677E+04  0.90728349585E+03 0.  0.
        -24    2    4    4    0    0 -0.53542224086E+03 -0.20796282441E+03 -0.54369733479E+03  0.79481659053E+03  0.78747116682E+02 0.  0.
         24    2    4    4    0    0 -0.26827706614E+03  0.30607937062E+03  0.21127861757E+03  0.46582807713E+03  0.81853392508E+02 0.  0.
         13    1    3    3    0    0  0.54974145471E+03 -0.28181004082E+02  0.46009481552E+02  0.55238275535E+03  0.00000000000E+00 0. -1.
        -13    1    3    3    0    0  0.25395785229E+03 -0.69935542125E+02 -0.82260975873E+01  0.26353982522E+03  0.00000000000E+00 0.  1.
          4    1    6    6  502    0 -0.99903330382E+02  0.16111672172E+03  0.67743503512E+02  0.20131680433E+03  0.00000000000E+00 0. -1.
          3    1    5    5  503    0 -0.14215004283E+02 -0.14912670015E+02 -0.59388518271E+01  0.21441176151E+02  0.00000000000E+00 0. -1.
         -4    1    5    5    0  503 -0.52120723658E+03 -0.19305015440E+03 -0.53775848296E+03  0.77337541438E+03  0.00000000000E+00 0.  1.
         -3    1    6    6    0  502 -0.16837373576E+03  0.14496264890E+03  0.14353511406E+03  0.26451127280E+03  0.00000000000E+00 0.  1.
<mgrwt>
<rscale>  0 0.20555587E+04</rscale>
<asrwt>0</asrwt>
<pdfrwt beam="1">  1        2 0.13707169E+00 0.20555587E+04</pdfrwt>
<pdfrwt beam="2">  1       -2 0.18240020E+00 0.20555587E+04</pdfrwt>
<totfact> 0.47993334E+00</totfact>
</mgrwt>
</event>
<event>
12    1  0.1506149E-007  0.1793895E+04  0.7818608E-02  0.8709553E-01
         -1   -1    0    0    0  501 -0.00000000000E+00  0.00000000000E+00  0.10865117421E+04  0.10865117421E+04  0.00000000000E+00 0.  1.
          1   -1    0    0  501    0  0.00000000000E+00 -0.00000000000E+00 -0.74045630010E+03  0.74045630010E+03  0.00000000000E+00 0. -1.
         23    2    1    2    0    0  0.18811614079E+03  0.30919548980E+03  0.69912850529E+03  0.79247616480E+03  0.90819995161E+02 0.  0.
        254    2    1    2    0    0 -0.18811614079E+03 -0.30919548980E+03 -0.35307306330E+03  0.10344918774E+04  0.90250945869E+03 0.  0.
        -24    2    4    4    0    0 -0.12624971560E+03 -0.15479472466E+02  0.28662794991E+03  0.32315762204E+03  0.78081126147E+02 0.  0.
         24    2    4    4    0    0 -0.61866425189E+02 -0.29371601734E+03 -0.63970101321E+03  0.71133425535E+03  0.81746456377E+02 0.  0.
         11    1    3    3    0    0  0.10665225122E+03  0.19135249674E+03  0.32577527674E+03  0.39258121660E+03  0.00000000000E+00 0.  1.
        -11    1    3    3    0    0  0.81463889571E+02  0.11784299307E+03  0.37335322855E+03  0.39989494819E+03  0.00000000000E+00 0. -1.
          4    1    6    6  502    0 -0.50281471108E+02 -0.18223917730E+03 -0.30991954944E+03  0.36302819616E+03  0.00000000000E+00 0. -1.
          3    1    5    5  503    0 -0.48473646228E+01  0.11688863658E+02  0.23774646894E+01  0.12875512252E+02  0.00000000000E+00 0. -1.
         -4    1    5    5    0  503 -0.12140235098E+03 -0.27168336124E+02  0.28425048522E+03  0.31028210979E+03  0.00000000000E+00 0.  1.
         -3    1    6    6    0  502 -0.11584954081E+02 -0.11147684003E+03 -0.32978146377E+03  0.34830605919E+03  0.00000000000E+00 0.  1.
<mgrwt>
<rscale>  0 0.17938946E+04</rscale>
<asrwt>0</asrwt>
<pdfrwt beam="1">  1        1 0.11391635E+00 0.17938946E+04</pdfrwt>
<pdfrwt beam="2">  1       -1 0.16715565E+00 0.17938946E+04</pdfrwt>
<totfact> 0.60923258E+00</totfact>
</mgrwt>
</event>
<event>
12    1  0.1506149E-007  0.1664232E+04  0.7818608E-02  0.8782031E-01
          2   -1    0    0  501    0  0.00000000000E+00  0.00000000000E+00  0.37142218951E+03  0.37142218951E+03  0.00000000000E+00 0. -1.
         -2   -1    0    0    0  501 -0.00000000000E+00 -0.00000000000E+00 -0.18642320283E+04  0.18642320283E+04  0.00000000000E+00 0.  1.
         23    2    1    2    0    0 -0.21087537312E+03  0.35655333692E+02  0.19820042999E+03  0.30690727705E+03  0.95754584497E+02 0.  0.
        254    2    1    2    0    0  0.21087537312E+03 -0.35655333692E+02 -0.16910102688E+04  0.19287469408E+04  0.90266788277E+03 0.  0.
        -24    2    4    4    0    0 -0.98315866695E+02  0.64765626224E+02 -0.15647594053E+04  0.15711295401E+04  0.78201274907E+02 0.  0.
         24    2    4    4    0    0  0.30919123981E+03 -0.10042095992E+03 -0.12625086352E+03  0.35761740068E+03  0.79166487595E+02 0.  0.
         11    1    3    3    0    0 -0.66142915195E+02 -0.17684991200E+02  0.10901283156E+03  0.12873011143E+03  0.00000000000E+00 0. -1.
        -11    1    3    3    0    0 -0.14473245793E+03  0.53340324892E+02  0.89187598430E+02  0.17817716563E+03  0.00000000000E+00 0.  1.
          2    1    6    6  502    0  0.29262104632E+03 -0.89209461057E+02 -0.94666777662E+02  0.32022992285E+03  0.00000000000E+00 0. -1.
          1    1    5    5  503    0 -0.31645019873E+02  0.39932905729E+02 -0.10774491248E+04  0.10786531698E+04  0.00000000000E+00 0. -1.
         -2    1    5    5    0  503 -0.66670846822E+02  0.24832720495E+02 -0.48731028050E+03  0.49247637030E+03  0.00000000000E+00 0.  1.
         -1    1    6    6    0  502  0.16570193491E+02 -0.11211498860E+02 -0.31584085857E+02  0.37387477829E+02  0.00000000000E+00 0.  1.
<mgrwt>
<rscale>  0 0.16642321E+04</rscale>
<asrwt>0</asrwt>
<pdfrwt beam="1">  1        2 0.57141875E-01 0.16642321E+04</pdfrwt>
<pdfrwt beam="2">  1       -2 0.28680493E+00 0.16642321E+04</pdfrwt>
<totfact> 0.31625380E+00</totfact>
</mgrwt>
</event>
<event>
12    1  0.1506149E-007  0.1761903E+04  0.7818608E-02  0.8726826E-01
         -1   -1    0    0    0  501 -0.00000000000E+00  0.00000000000E+00  0.38724004252E+03  0.38724004252E+03  0.00000000000E+00 0.  1.
          1   -1    0    0  501    0  0.00000000000E+00 -0.00000000000E+00 -0.20041194561E+04  0.20041194561E+04  0.00000000000E+00 0. -1.
         23    2    1    2    0    0 -0.42615759659E+03 -0.47823408384E+03 -0.74649724296E+03  0.98796902574E+03  0.92230829985E+02 0.  0.
        254    2    1    2    0    0  0.42615759659E+03  0.47823408384E+03 -0.87038217066E+03  0.14033904729E+04  0.89533321194E+03 0.  0.
        -24    2    4    4    0    0 -0.15760651969E+03  0.46572711111E+03 -0.28837726975E+03  0.57522822228E+03  0.77359556171E+02 0.  0.
         24    2    4    4    0    0  0.58376411629E+03  0.12506972726E+02 -0.58200490091E+03  0.82816225063E+03  0.78651388184E+02 0.  0.
         11    1    3    3    0    0 -0.29791864647E+03 -0.27325004618E+03 -0.49490701138E+03  0.63902586612E+03  0.00000000000E+00 0. -1.
        -11    1    3    3    0    0 -0.12823895012E+03 -0.20498403766E+03 -0.25159023158E+03  0.34894315962E+03  0.00000000000E+00 0.  1.
          2    1    6    6  502    0  0.35142780641E+03  0.45709830631E+02 -0.35706285613E+03  0.50307531738E+03  0.00000000000E+00 0. -1.
          3    1    5    5  503    0 -0.38346471691E+02  0.23143558654E+03 -0.14475363784E+03  0.27565648601E+03  0.00000000000E+00 0. -1.
         -4    1    5    5    0  503 -0.11926004800E+03  0.23429152457E+03 -0.14362363191E+03  0.29957173628E+03  0.00000000000E+00 0.  1.
         -1    1    6    6    0  502  0.23233630988E+03 -0.33202857905E+02 -0.22494204478E+03  0.32508693325E+03  0.00000000000E+00 0.  1.
<mgrwt>
<rscale>  0 0.17619027E+04</rscale>
<asrwt>0</asrwt>
<pdfrwt beam="1">  1        1 0.30832608E+00 0.17619027E+04</pdfrwt>
<pdfrwt beam="2">  1       -1 0.59575390E-01 0.17619027E+04</pdfrwt>
<totfact> 0.80078560E+00</totfact>
</mgrwt>
</event>
<event>
12    1  0.1506149E-007  0.2148442E+04  0.7818608E-02  0.8540199E-01
          2   -1    0    0  501    0  0.00000000000E+00  0.00000000000E+00  0.84972602531E+03  0.84972602531E+03  0.00000000000E+00 0. -1.
         -2   -1    0    0    0  501 -0.00000000000E+00 -0.00000000000E+00 -0.13580267330E+04  0.13580267330E+04  0.00000000000E+00 0.  1.
         23    2    1    2    0    0  0.23841874687E+03 -0.33762215628E+03  0.58827339858E+03  0.72482004197E+03  0.92012403987E+02 0.  0.
        254    2    1    2    0    0 -0.23841874687E+03  0.33762215628E+03 -0.10965741063E+04  0.14829327163E+04  0.90872572946E+03 0.  0.
        -24    2    4    4    0    0  0.15304667236E+03  0.35415198822E+03 -0.95922492569E+02  0.40561394845E+03  0.80465122391E+02 0.  0.
         24    2    4    4    0    0 -0.39146541923E+03 -0.16529831937E+02 -0.10006516137E+04  0.10773187679E+04  0.76116133847E+02 0.  0.
         11    1    3    3    0    0  0.21236522803E+03 -0.23870840002E+03  0.47185824660E+03  0.56985164315E+03  0.00000000000E+00 0. -1.
        -11    1    3    3    0    0  0.26053518844E+02 -0.98913756255E+02  0.11641515198E+03  0.15496839882E+03  0.00000000000E+00 0.  1.
          2    1    6    6  502    0 -0.26135779628E+03  0.12974937101E+02 -0.73194714380E+03  0.77731773940E+03  0.00000000000E+00 0. -1.
          3    1    5    5  503    0  0.11605556027E+03  0.33018675846E+03 -0.87094384845E+02  0.36066275162E+03  0.00000000000E+00 0. -1.
         -4    1    5    5    0  503  0.36991112094E+02  0.23965229755E+02 -0.88281077246E+01  0.44951196838E+02  0.00000000000E+00 0.  1.
         -1    1    6    6    0  502 -0.13010762295E+03 -0.29504769038E+02 -0.26870446991E+03  0.30000102849E+03  0.00000000000E+00 0.  1.
<mgrwt>
<rscale>  0 0.21484419E+04</rscale>
<asrwt>0</asrwt>
<pdfrwt beam="1">  1        2 0.13072708E+00 0.21484419E+04</pdfrwt>
<pdfrwt beam="2">  1       -2 0.20892719E+00 0.21484419E+04</pdfrwt>
<totfact> 0.33896747E+00</totfact>
</mgrwt>
</event>
<event>
12    1  0.1506149E-007  0.1980532E+04  0.7818608E-02  0.8615777E-01
          2   -1    0    0  501    0  0.00000000000E+00  0.00000000000E+00  0.41186380285E+04  0.41186380285E+04  0.00000000000E+00 0. -1.
         -2   -1    0    0    0  501 -0.00000000000E+00 -0.00000000000E+00 -0.23809498948E+03  0.23809498948E+03  0.00000000000E+00 0.  1.
         23    2    1    2    0    0 -0.30838452568E+03 -0.63227026166E+03  0.22909906715E+04  0.23982586946E+04  0.90220893936E+02 0.  0.
        254    2    1    2    0    0  0.30838452568E+03  0.63227026166E+03  0.15895523675E+04  0.19584743234E+04  0.90226284802E+03 0.  0.
        -24    2    4    4    0    0  0.18211455756E+03  0.11178132176E+03  0.13453146781E+04  0.13646003945E+04  0.81251938683E+02 0.  0.
         24    2    4    4    0    0  0.12626996811E+03  0.52048893990E+03  0.24423768940E+03  0.59387392890E+03  0.78621581670E+02 0.  0.
         11    1    3    3    0    0 -0.16809103865E+03 -0.35383945812E+03  0.11226431377E+04  0.11890267339E+04  0.00000000000E+00 0. -1.
        -11    1    3    3    0    0 -0.14029348703E+03 -0.27843080354E+03  0.11683475338E+04  0.12092319606E+04  0.00000000000E+00 0.  1.
          4    1    6    6  502    0  0.28455201708E+02  0.26643014696E+03  0.14043648999E+03  0.30251798200E+03  0.00000000000E+00 0. -1.
          1    1    5    5  503    0  0.66432740764E+02  0.31853381331E+02  0.26072990887E+03  0.27093916721E+03  0.00000000000E+00 0. -1.
         -2    1    5    5    0  503  0.11568181680E+03  0.79927940432E+02  0.10845847693E+04  0.10936612273E+04  0.00000000000E+00 0.  1.
         -3    1    6    6    0  502  0.97814766406E+02  0.25405879294E+03  0.10380119940E+03  0.29135594690E+03  0.00000000000E+00 0.  1.
<mgrwt>
<rscale>  0 0.19805323E+04</rscale>
<asrwt>0</asrwt>
<pdfrwt beam="1">  1        2 0.63363657E+00 0.19805323E+04</pdfrwt>
<pdfrwt beam="2">  1       -2 0.36630001E-01 0.19805323E+04</pdfrwt>
<totfact> 0.18048339E+00</totfact>
</mgrwt>
</event>
<event>
12    1  0.1506149E-007  0.1760486E+04  0.7818608E-02  0.8727600E-01
          1   -1    0    0  501    0  0.00000000000E+00  0.00000000000E+00  0.12461828835E+04  0.12461828835E+04  0.00000000000E+00 0. -1.
         -1   -1    0    0    0  501 -0.00000000000E+00 -0.00000000000E+00 -0.62176060466E+03  0.62176060466E+03  0.00000000000E+00 0.  1.
         23    2    1    2    0    0 -0.14520788461E+03 -0.60650765370E+03  0.42277654215E+03  0.75884700920E+03  0.90398645069E+02 0.  0.
        254    2    1    2    0    0  0.14520788461E+03  0.60650765370E+03  0.20164573667E+03  0.11090964790E+04  0.89470505350E+03 0.  0.
        -24    2    4    4    0    0 -0.72498825794E+02  0.47283272370E+03 -0.27853922639E+03  0.55929117713E+03  0.79972844340E+02 0.  0.
         24    2    4    4    0    0  0.21770671041E+03  0.13367492999E+03  0.48018496306E+03  0.54980530182E+03  0.80268751651E+02 0.  0.
         11    1    3    3    0    0 -0.88986091182E+02 -0.47682904409E+03  0.36070104111E+03  0.60447473295E+03  0.00000000000E+00 0.  1.
        -11    1    3    3    0    0 -0.56221793432E+02 -0.12967860960E+03  0.62075501040E+02  0.15437227625E+03  0.00000000000E+00 0. -1.
          2    1    6    6  502    0  0.57734143369E+02  0.26333059676E+01  0.72904744921E+02  0.93033689827E+02  0.00000000000E+00 0. -1.
          3    1    5    5  503    0  0.40238165043E+01  0.99295345234E+01 -0.22191604617E+02  0.24642525654E+02  0.00000000000E+00 0. -1.
         -4    1    5    5    0  503 -0.76522642298E+02  0.46290318918E+03 -0.25634762177E+03  0.53464865148E+03  0.00000000000E+00 0.  1.
         -1    1    6    6    0  502  0.15997256704E+03  0.13104162402E+03  0.40728021814E+03  0.45677161199E+03  0.00000000000E+00 0.  1.
<mgrwt>
<rscale>  0 0.17604856E+04</rscale>
<asrwt>0</asrwt>
<pdfrwt beam="1">  1        1 0.19172044E+00 0.17604856E+04</pdfrwt>
<pdfrwt beam="2">  1       -1 0.95655478E-01 0.17604856E+04</pdfrwt>
<totfact> 0.98725116E+00</totfact>
</mgrwt>
</event>
<event>
12    1  0.1506149E-007  0.1863731E+04  0.7818608E-02  0.8673123E-01
         -1   -1    0    0    0  501 -0.00000000000E+00  0.00000000000E+00  0.36715708502E+03  0.36715708502E+03  0.00000000000E+00 0.  1.
          1   -1    0    0  501    0  0.00000000000E+00 -0.00000000000E+00 -0.23651283967E+04  0.23651283967E+04  0.00000000000E+00 0. -1.
         23    2    1    2    0    0 -0.65157163545E+03  0.21988557690E+03 -0.50954979062E+03  0.86075272367E+03  0.91427562277E+02 0.  0.
        254    2    1    2    0    0  0.65157163545E+03 -0.21988557690E+03 -0.14884215211E+04  0.18715327580E+04  0.90240843140E+03 0.  0.
        -24    2    4    4    0    0  0.67188250275E+03  0.18294665415E+03 -0.11069874575E+04  0.13102663246E+04  0.80504872635E+02 0.  0.
         24    2    4    4    0    0 -0.20310867302E+02 -0.40283223105E+03 -0.38143406351E+03  0.56126643343E+03  0.82714731323E+02 0.  0.
         11    1    3    3    0    0 -0.64680662738E+03  0.22667248459E+03 -0.50461915321E+03  0.85110499839E+03  0.00000000000E+00 0. -1.
        -11    1    3    3    0    0 -0.47650080634E+01 -0.67869076928E+01 -0.49306374062E+01  0.96477252815E+01  0.00000000000E+00 0.  1.
          4    1    6    6  502    0 -0.98135881488E+01 -0.37582600832E+03 -0.37614239864E+03  0.53181256012E+03  0.00000000000E+00 0. -1.
          1    1    5    5  503    0  0.12751093960E+03  0.25076208402E+02 -0.26683057443E+03  0.29679355012E+03  0.00000000000E+00 0. -1.
         -2    1    5    5    0  503  0.54437156315E+03  0.15787044575E+03 -0.84015688312E+03  0.10134727745E+04  0.00000000000E+00 0.  1.
         -3    1    6    6    0  502 -0.10497279153E+02 -0.27006222727E+02 -0.52916648716E+01  0.29453873306E+02  0.00000000000E+00 0.  1.
<mgrwt>
<rscale>  0 0.18637314E+04</rscale>
<asrwt>0</asrwt>
<pdfrwt beam="1">  1        1 0.36386591E+00 0.18637314E+04</pdfrwt>
<pdfrwt beam="2">  1       -1 0.56485706E-01 0.18637314E+04</pdfrwt>
<totfact> 0.50010265E+00</totfact>
</mgrwt>
</event>
<event>
12    1  0.1506149E-007  0.1704328E+04  0.7818608E-02  0.8758900E-01
         -1   -1    0    0    0  501 -0.00000000000E+00  0.00000000000E+00  0.30495896248E+03  0.30495896248E+03  0.00000000000E+00 0.  1.
          1   -1    0    0  501    0  0.00000000000E+00 -0.00000000000E+00 -0.23812506879E+04  0.23812506879E+04  0.00000000000E+00 0. -1.
         23    2    1    2    0    0 -0.33430167518E+03  0.44120978992E+03 -0.99657676379E+03  0.11434987698E+04  0.89445523121E+02 0.  0.
        254    2    1    2    0    0  0.33430167518E+03 -0.44120978992E+03 -0.10797149617E+04  0.15427108806E+04  0.95275850774E+03 0.  0.
        -24    2    4    4    0    0  0.32405132472E+03 -0.40945669472E+03 -0.12471092212E+04  0.13543523032E+04  0.79528018785E+02 0.  0.
         24    2    4    4    0    0  0.10250350460E+02 -0.31753095203E+02  0.16739425949E+03  0.18835857746E+03  0.79654170344E+02 0.  0.
         13    1    3    3    0    0 -0.52600477871E+02  0.12025066429E+03 -0.28179460499E+03  0.31086207864E+03  0.00000000000E+00 0. -1.
        -13    1    3    3    0    0 -0.28170119731E+03  0.32095912563E+03 -0.71478215880E+03  0.83263669114E+03  0.00000000000E+00 0.  1.
          4    1    6    6  502    0 -0.30263950517E+02  0.61291767797E+01  0.61611831616E+02  0.68916553193E+02  0.00000000000E+00 0. -1.
          3    1    5    5  503    0  0.62952472023E+01  0.14342788141E+01 -0.35724513360E+02  0.36303280125E+02  0.00000000000E+00 0. -1.
         -4    1    5    5    0  503  0.31775607752E+03 -0.41089097353E+03 -0.12113847078E+04  0.13180490231E+04  0.00000000000E+00 0.  1.
         -3    1    6    6    0  502  0.40514300977E+02 -0.37882271983E+02  0.10578242787E+03  0.11944202426E+03  0.00000000000E+00 0.  1.
<mgrwt>
<rscale>  0 0.17043283E+04</rscale>
<asrwt>0</asrwt>
<pdfrwt beam="1">  1        1 0.36634626E+00 0.17043283E+04</pdfrwt>
<pdfrwt beam="2">  1       -1 0.46916763E-01 0.17043283E+04</pdfrwt>
<totfact> 0.70584415E+00</totfact>
</mgrwt>
</event>
<event>
12    1  0.1506149E-007  0.3823378E+04  0.7818608E-02  0.8041157E-01
         -2   -1    0    0    0  501 -0.00000000000E+00  0.00000000000E+00  0.25745680019E+04  0.25745680019E+04  0.00000000000E+00 0.  1.
          2   -1    0    0  501    0  0.00000000000E+00 -0.00000000000E+00 -0.14194827114E+04  0.14194827114E+04  0.00000000000E+00 0. -1.
         23    2    1    2    0    0  0.75605765005E+03 -0.96496468282E+03 -0.84649832458E+03  0.14934008013E+04  0.10443433560E+03 0.  0.
        254    2    1    2    0    0 -0.75605765005E+03  0.96496468282E+03  0.20015836151E+04  0.25006499121E+04  0.86263144231E+03 0.  0.
        -24    2    4    4    0    0 -0.14778532813E+03  0.20809532335E+03  0.12275362695E+04  0.12563905599E+04  0.80794673450E+02 0.  0.
         24    2    4    4    0    0 -0.60827232192E+03  0.75686935947E+03  0.77404734556E+03  0.12442593521E+04  0.78648568445E+02 0.  0.
         11    1    3    3    0    0  0.53420874756E+03 -0.75094169307E+03 -0.61586045236E+03  0.11084117056E+04  0.00000000000E+00 0. -1.
        -11    1    3    3    0    0  0.22184890249E+03 -0.21402298974E+03 -0.23063787222E+03  0.38498909566E+03  0.00000000000E+00 0.  1.
          2    1    6    6  502    0 -0.44599531458E+02  0.49693109114E+02  0.80544246895E+02  0.10462265055E+03  0.00000000000E+00 0. -1.
          1    1    5    5  503    0 -0.19840400647E+01 -0.51794058577E+01  0.76585365788E+01  0.94559950584E+01  0.00000000000E+00 0. -1.
         -4    1    5    5    0  503 -0.14580128806E+03  0.21327472921E+03  0.12198777329E+04  0.12469345649E+04  0.00000000000E+00 0.  1.
         -1    1    6    6    0  502 -0.56367279046E+03  0.70717625035E+03  0.69350309867E+03  0.11396367016E+04  0.00000000000E+00 0.  1.
<mgrwt>
<rscale>  0 0.38233780E+04</rscale>
<asrwt>0</asrwt>
<pdfrwt beam="1">  1        2 0.21838196E+00 0.38233780E+04</pdfrwt>
<pdfrwt beam="2">  1       -2 0.39608738E+00 0.38233780E+04</pdfrwt>
<totfact> 0.88800850E-02</totfact>
</mgrwt>
</event>
<event>
12    1  0.1506149E-007  0.1201086E+04  0.7818608E-02  0.9111906E-01
         -1   -1    0    0    0  501 -0.00000000000E+00  0.00000000000E+00  0.26051339546E+03  0.26051339546E+03  0.00000000000E+00 0.  1.
          1   -1    0    0  501    0  0.00000000000E+00 -0.00000000000E+00 -0.13843892127E+04  0.13843892127E+04  0.00000000000E+00 0. -1.
         23    2    1    2    0    0 -0.68740341855E+02 -0.16219160377E+03 -0.51582899219E+03  0.55260086516E+03  0.90867024061E+02 0.  0.
        254    2    1    2    0    0  0.68740341855E+02  0.16219160377E+03 -0.60804682501E+03  0.10923017430E+04  0.89015212484E+03 0.  0.
        -24    2    4    4    0    0 -0.19089664711E+03 -0.30352004025E+03 -0.24947552516E+03  0.44416461386E+03  0.80487401730E+02 0.  0.
         24    2    4    4    0    0  0.25963698897E+03  0.46571164402E+03 -0.35857129985E+03  0.64813712912E+03  0.84909714698E+02 0.  0.
         11    1    3    3    0    0 -0.48719812213E+02 -0.15729302034E+03 -0.50056379607E+03  0.52695239661E+03  0.00000000000E+00 0. -1.
        -11    1    3    3    0    0 -0.20020529643E+02 -0.48985834284E+01 -0.15265196119E+02  0.25648468557E+02  0.00000000000E+00 0.  1.
          2    1    6    6  502    0  0.25424644813E+03  0.46819130622E+03 -0.34909006613E+03  0.63695229796E+03  0.00000000000E+00 0. -1.
          3    1    5    5  503    0 -0.10191536802E+03 -0.19396107064E+03 -0.10782545445E+03  0.24420067114E+03  0.00000000000E+00 0. -1.
         -4    1    5    5    0  503 -0.88981279094E+02 -0.10955896961E+03 -0.14165007071E+03  0.19996394271E+03  0.00000000000E+00 0.  1.
         -1    1    6    6    0  502  0.53905408338E+01 -0.24796622010E+01 -0.94812337232E+01  0.11184831158E+02  0.00000000000E+00 0.  1.
<mgrwt>
<rscale>  0 0.12010861E+04</rscale>
<asrwt>0</asrwt>
<pdfrwt beam="1">  1        1 0.21298295E+00 0.12010861E+04</pdfrwt>
<pdfrwt beam="2">  1       -1 0.40078985E-01 0.12010861E+04</pdfrwt>
<totfact> 0.47308731E+01</totfact>
</mgrwt>
</event>
<event>
12    1  0.1506149E-007  0.1885671E+04  0.7818608E-02  0.8662022E-01
          1   -1    0    0  501    0  0.00000000000E+00  0.00000000000E+00  0.16919969249E+04  0.16919969249E+04  0.00000000000E+00 0. -1.
         -1   -1    0    0    0  501 -0.00000000000E+00 -0.00000000000E+00 -0.52537854286E+03  0.52537854286E+03  0.00000000000E+00 0.  1.
         23    2    1    2    0    0 -0.56317380306E+03  0.41932808531E+03  0.31413421094E+03  0.77461171658E+03  0.91335827567E+02 0.  0.
        254    2    1    2    0    0  0.56317380306E+03 -0.41932808531E+03  0.85248417114E+03  0.14427637512E+04  0.92835187523E+03 0.  0.
        -24    2    4    4    0    0  0.50278799184E+03 -0.25554715446E+03  0.67959870939E+00  0.56959707583E+03  0.79625712284E+02 0.  0.
         24    2    4    4    0    0  0.60385811226E+02 -0.16378093085E+03  0.85180457243E+03  0.87316667540E+03  0.79864722514E+02 0.  0.
         13    1    3    3    0    0 -0.20367502583E+03  0.17586520469E+03  0.16438015397E+03  0.31532986124E+03  0.00000000000E+00 0.  1.
        -13    1    3    3    0    0 -0.35949877723E+03  0.24346288062E+03  0.14975405697E+03  0.45928185535E+03  0.00000000000E+00 0. -1.
          2    1    6    6  502    0  0.79665807851E+02 -0.12856155335E+03  0.64433902099E+03  0.66185156033E+03  0.00000000000E+00 0. -1.
          3    1    5    5  503    0  0.45937343681E+03 -0.24959382019E+03  0.16355129495E+02  0.52305689918E+03  0.00000000000E+00 0. -1.
         -4    1    5    5    0  503  0.43414555030E+02 -0.59533342679E+01 -0.15675530786E+02  0.46540176651E+02  0.00000000000E+00 0.  1.
         -1    1    6    6    0  502 -0.19279996625E+02 -0.35219377508E+02  0.20746555144E+03  0.21131511507E+03  0.00000000000E+00 0.  1.
<mgrwt>
<rscale>  0 0.18856711E+04</rscale>
<asrwt>0</asrwt>
<pdfrwt beam="1">  1        1 0.26030722E+00 0.18856711E+04</pdfrwt>
<pdfrwt beam="2">  1       -1 0.80827469E-01 0.18856711E+04</pdfrwt>
<totfact> 0.68985360E+00</totfact>
</mgrwt>
</event>
<event>
12    1  0.1506149E-007  0.1937223E+04  0.7818608E-02  0.8636547E-01
          1   -1    0    0  501    0  0.00000000000E+00  0.00000000000E+00  0.18977565545E+04  0.18977565545E+04  0.00000000000E+00 0. -1.
         -1   -1    0    0    0  501 -0.00000000000E+00 -0.00000000000E+00 -0.49437774742E+03  0.49437774742E+03  0.00000000000E+00 0.  1.
         23    2    1    2    0    0 -0.16437106557E+03 -0.66764888194E+03  0.17597788742E+03  0.71562013921E+03  0.91493661090E+02 0.  0.
        254    2    1    2    0    0  0.16437106557E+03  0.66764888194E+03  0.12274009196E+04  0.16765141627E+04  0.91181897514E+03 0.  0.
        -24    2    4    4    0    0  0.47105014912E+03  0.59966132994E+03  0.10698530674E+04  0.13163566314E+04  0.82019763889E+02 0.  0.
         24    2    4    4    0    0 -0.30667908355E+03  0.67987552001E+02  0.15754785221E+03  0.36015753124E+03  0.78852736557E+02 0.  0.
         11    1    3    3    0    0 -0.85286367117E+02 -0.28167282411E+03  0.11933083562E+03  0.31757391673E+03  0.00000000000E+00 0. -1.
        -11    1    3    3    0    0 -0.79084698455E+02 -0.38597605783E+03  0.56647051804E+02  0.39804622247E+03  0.00000000000E+00 0.  1.
          2    1    6    6  502    0 -0.32321983988E+02  0.11254895359E+02  0.48854511997E+02  0.59650202523E+02  0.00000000000E+00 0. -1.
          3    1    5    5  503    0  0.32600843576E+03  0.39301496704E+03  0.65205149918E+03  0.82819890249E+03  0.00000000000E+00 0. -1.
         -4    1    5    5    0  503  0.14504171336E+03  0.20664636290E+03  0.41780156822E+03  0.48815772893E+03  0.00000000000E+00 0.  1.
         -1    1    6    6    0  502 -0.27435709956E+03  0.56732656642E+02  0.10869334021E+03  0.30050732872E+03  0.00000000000E+00 0.  1.
<mgrwt>
<rscale>  0 0.19372234E+04</rscale>
<asrwt>0</asrwt>
<pdfrwt beam="1">  1        1 0.29196254E+00 0.19372234E+04</pdfrwt>
<pdfrwt beam="2">  1       -1 0.76058116E-01 0.19372234E+04</pdfrwt>
<totfact> 0.56607590E+00</totfact>
</mgrwt>
</event>
<event>
12    1  0.1506149E-007  0.2182024E+04  0.7818608E-02  0.8525948E-01
         -1   -1    0    0    0  501 -0.00000000000E+00  0.00000000000E+00  0.13703525072E+04  0.13703525072E+04  0.00000000000E+00 0.  1.
          1   -1    0    0  501    0  0.00000000000E+00 -0.00000000000E+00 -0.86861374678E+03  0.86861374678E+03  0.00000000000E+00 0. -1.
         23    2    1    2    0    0  0.70746863645E+03  0.47310341539E+03  0.48908953255E+03  0.98613820210E+03  0.94452472578E+02 0.  0.
        254    2    1    2    0    0 -0.70746863645E+03 -0.47310341539E+03  0.12649227871E+02  0.12528280519E+04  0.91928200863E+03 0.  0.
        -24    2    4    4    0    0 -0.61345649406E+03 -0.69072721276E+03  0.18803994740E+03  0.94608980443E+03  0.79334378851E+02 0.  0.
         24    2    4    4    0    0 -0.94012142390E+02  0.21762379737E+03 -0.17539071953E+03  0.30673824745E+03  0.84427767072E+02 0.  0.
         11    1    3    3    0    0  0.56300574696E+03  0.34105622307E+03  0.34564865145E+03  0.74348356314E+03  0.00000000000E+00 0.  1.
        -11    1    3    3    0    0  0.14446288949E+03  0.13204719232E+03  0.14344088111E+03  0.24265463897E+03  0.00000000000E+00 0. -1.
          4    1    6    6  502    0  0.29069180378E+01  0.96124971507E+02 -0.63827452789E+02  0.11542271895E+03  0.00000000000E+00 0. -1.
          1    1    5    5  503    0 -0.57859367117E+03 -0.64922228892E+03  0.19560793516E+03  0.89136001763E+03  0.00000000000E+00 0. -1.
         -2    1    5    5    0  503 -0.34862822896E+02 -0.41504923846E+02 -0.75679877614E+01  0.54729786794E+02  0.00000000000E+00 0.  1.
         -3    1    6    6    0  502 -0.96919060427E+02  0.12149882587E+03 -0.11156326674E+03  0.19131552850E+03  0.00000000000E+00 0.  1.
<mgrwt>
<rscale>  0 0.21820239E+04</rscale>
<asrwt>0</asrwt>
<pdfrwt beam="1">  1        1 0.13363288E+00 0.21820239E+04</pdfrwt>
<pdfrwt beam="2">  1       -1 0.21082346E+00 0.21820239E+04</pdfrwt>
<totfact> 0.22387698E+00</totfact>
</mgrwt>
</event>
<event>
12    1  0.1506149E-007  0.1353090E+04  0.7818608E-02  0.8988493E-01
         -2   -1    0    0    0  501 -0.00000000000E+00  0.00000000000E+00  0.43506246684E+03  0.43506246684E+03  0.00000000000E+00 0. -1.
          2   -1    0    0  501    0  0.00000000000E+00 -0.00000000000E+00 -0.10520622977E+04  0.10520622977E+04  0.00000000000E+00 0.  1.
         23    2    1    2    0    0 -0.52822271362E+02  0.90981831212E+02 -0.55128029028E+03  0.56881154292E+03  0.92567418399E+02 0.  0.
        254    2    1    2    0    0  0.52822271362E+02 -0.90981831212E+02 -0.65719540545E+02  0.91831322159E+03  0.90989682325E+03 0.  0.
        -24    2    4    4    0    0  0.45594340878E+03 -0.37038683087E+02  0.95933818132E+02  0.47393157284E+03  0.78432022970E+02 0.  0.
         24    2    4    4    0    0 -0.40312113741E+03 -0.53943148125E+02 -0.16165335868E+03  0.44438164874E+03  0.76985236946E+02 0.  0.
         13    1    3    3    0    0  0.24835589604E+01  0.78440797877E+02 -0.24300700744E+03  0.25536548808E+03  0.00000000000E+00 0. -1.
        -13    1    3    3    0    0 -0.55305830323E+02  0.12541033335E+02 -0.30827328284E+03  0.31344605484E+03  0.00000000000E+00 0.  1.
          2    1    6    6  502    0 -0.38047230621E+03 -0.50747475281E+02 -0.12985655355E+03  0.40521254489E+03  0.00000000000E+00 0. -1.
          1    1    5    5  503    0  0.38110315799E+03 -0.21991207885E+02  0.10782498164E+03  0.39667298487E+03  0.00000000000E+00 0. -1.
         -2    1    5    5    0  503  0.74840250781E+02 -0.15047475202E+02 -0.11891163505E+02  0.77258587978E+02  0.00000000000E+00 0.  1.
         -1    1    6    6    0  502 -0.22648831205E+02 -0.31956728443E+01 -0.31796805130E+02  0.39169103850E+02  0.00000000000E+00 0.  1.
<mgrwt>
<rscale>  0 0.13530895E+04</rscale>
<asrwt>0</asrwt>
<pdfrwt beam="1">  1        2 0.16185574E+00 0.13530895E+04</pdfrwt>
<pdfrwt beam="2">  1       -2 0.66932688E-01 0.13530895E+04</pdfrwt>
<totfact> 0.46715028E+01</totfact>
</mgrwt>
</event>
<event>
12    1  0.1506149E-007  0.1674510E+04  0.7818608E-02  0.8776037E-01
          1   -1    0    0  501    0  0.00000000000E+00  0.00000000000E+00  0.31537967767E+04  0.31537967767E+04  0.00000000000E+00 0. -1.
         -1   -1    0    0    0  501 -0.00000000000E+00 -0.00000000000E+00 -0.22227052090E+03  0.22227052090E+03  0.00000000000E+00 0.  1.
         23    2    1    2    0    0 -0.17798204483E+03  0.10614819860E+03 -0.69688455691E+02  0.23655679362E+03  0.90319363407E+02 0.  0.
        254    2    1    2    0    0  0.17798204483E+03 -0.10614819860E+03  0.30012147115E+04  0.31395105039E+04  0.89793730946E+03 0.  0.
        -24    2    4    4    0    0  0.45591757041E+03 -0.31510751647E+03  0.16877407498E+04  0.17783834022E+04  0.83815921665E+02 0.  0.
         24    2    4    4    0    0 -0.27793552558E+03  0.20895931786E+03  0.13134739616E+04  0.13611271017E+04  0.80876363948E+02 0.  0.
         13    1    3    3    0    0 -0.13854388869E+03  0.12039275259E+03 -0.50004849277E+02  0.19023487830E+03  0.00000000000E+00 0.  1.
        -13    1    3    3    0    0 -0.39438156136E+02 -0.14244553993E+02 -0.19683606415E+02  0.46321915324E+02  0.00000000000E+00 0. -1.
          2    1    6    6  502    0 -0.79401063036E+02  0.10587353716E+03  0.53744496202E+03  0.55349870992E+03  0.00000000000E+00 0. -1.
          1    1    5    5  503    0  0.10673507293E+03 -0.11947674221E+03  0.47103164235E+03  0.49753178373E+03  0.00000000000E+00 0. -1.
         -2    1    5    5    0  503  0.34918249748E+03 -0.19563077426E+03  0.12167091075E+04  0.12808516185E+04  0.00000000000E+00 0.  1.
         -1    1    6    6    0  502 -0.19853446255E+03  0.10308578071E+03  0.77602899960E+03  0.80762839179E+03  0.00000000000E+00 0.  1.
<mgrwt>
<rscale>  0 0.16745101E+04</rscale>
<asrwt>0</asrwt>
<pdfrwt beam="1">  1        1 0.48519947E+00 0.16745101E+04</pdfrwt>
<pdfrwt beam="2">  1       -1 0.34195467E-01 0.16745101E+04</pdfrwt>
<totfact> 0.35702257E+00</totfact>
</mgrwt>
</event>
<event>
12    1  0.1506149E-007  0.1941066E+04  0.7818608E-02  0.8634681E-01
          1   -1    0    0  501    0  0.00000000000E+00  0.00000000000E+00  0.75050006223E+03  0.75050006223E+03  0.00000000000E+00 0. -1.
         -1   -1    0    0    0  501 -0.00000000000E+00 -0.00000000000E+00 -0.12550752833E+04  0.12550752833E+04  0.00000000000E+00 0.  1.
         23    2    1    2    0    0  0.57751495262E+03 -0.48510978528E+03 -0.29679954889E+03  0.81557222263E+03  0.90625900416E+02 0.  0.
        254    2    1    2    0    0 -0.57751495262E+03  0.48510978528E+03 -0.20777567218E+03  0.11900031229E+04  0.89670601552E+03 0.  0.
        -24    2    4    4    0    0  0.10825222449E+03 -0.17242277795E+03 -0.27868147145E+02  0.22022363931E+03  0.79206434231E+02 0.  0.
         24    2    4    4    0    0 -0.68576717711E+03  0.65753256324E+03 -0.17990752503E+03  0.96977948358E+03  0.74025916450E+02 0.  0.
         13    1    3    3    0    0  0.33572679234E+02 -0.59792992062E+01 -0.64136499152E+01  0.34698871958E+02  0.00000000000E+00 0. -1.
        -13    1    3    3    0    0  0.54394227339E+03 -0.47913048608E+03 -0.29038589898E+03  0.78087335067E+03  0.00000000000E+00 0.  1.
          4    1    6    6  502    0 -0.19954948836E+03  0.23886485034E+03 -0.53457960600E+02  0.31580716994E+03  0.00000000000E+00 0. -1.
          3    1    5    5  503    0 -0.61674443886E+01 -0.29686319420E+02  0.12651674660E+02  0.32853916094E+02  0.00000000000E+00 0. -1.
         -4    1    5    5    0  503  0.11441966887E+03 -0.14273645853E+03 -0.40519821805E+02  0.18736972322E+03  0.00000000000E+00 0.  1.
         -3    1    6    6    0  502 -0.48621768874E+03  0.41866771289E+03 -0.12644956443E+03  0.65397231364E+03  0.00000000000E+00 0.  1.
<mgrwt>
<rscale>  0 0.19410658E+04</rscale>
<asrwt>0</asrwt>
<pdfrwt beam="1">  1        1 0.11546155E+00 0.19410658E+04</pdfrwt>
<pdfrwt beam="2">  1       -1 0.19308850E+00 0.19410658E+04</pdfrwt>
<totfact> 0.38343551E+00</totfact>
</mgrwt>
</event>
<event>
12    1  0.1506149E-007  0.1700236E+04  0.7818608E-02  0.8761230E-01
         -2   -1    0    0    0  501 -0.00000000000E+00  0.00000000000E+00  0.30196017327E+04  0.30196017327E+04  0.00000000000E+00 0. -1.
          2   -1    0    0  501    0  0.00000000000E+00 -0.00000000000E+00 -0.23933638910E+03  0.23933638910E+03  0.00000000000E+00 0.  1.
         23    2    1    2    0    0  0.39117999179E+03 -0.45851826893E+03  0.11106297389E+04  0.12669717219E+04  0.91968136878E+02 0.  0.
        254    2    1    2    0    0 -0.39117999179E+03  0.45851826893E+03  0.16696356047E+04  0.19919663999E+04  0.90387294296E+03 0.  0.
        -24    2    4    4    0    0 -0.16893816372E+03 -0.25663777304E+03  0.34691307393E+03  0.46993503073E+03  0.78020526339E+02 0.  0.
         24    2    4    4    0    0 -0.22224182806E+03  0.71515604196E+03  0.13227225307E+04  0.15220313692E+04  0.78390056143E+02 0.  0.
         13    1    3    3    0    0  0.15959260797E+03 -0.25573665391E+03  0.57300761211E+03  0.64746332731E+03  0.00000000000E+00 0. -1.
        -13    1    3    3    0    0  0.23158738382E+03 -0.20278161501E+03  0.53762212683E+03  0.61950839461E+03  0.00000000000E+00 0.  1.
          4    1    6    6  502    0 -0.11122378892E+02  0.68973136764E+02  0.86131207527E+02  0.11090349777E+03  0.00000000000E+00 0. -1.
          3    1    5    5  503    0 -0.18187634935E+02 -0.79874086015E+02  0.11914679400E+03  0.14459121067E+03  0.00000000000E+00 0. -1.
         -4    1    5    5    0  503 -0.15075052879E+03 -0.17676368702E+03  0.22776627993E+03  0.32534382006E+03  0.00000000000E+00 0.  1.
         -3    1    6    6    0  502 -0.21111944917E+03  0.64618290520E+03  0.12365913232E+04  0.14111278714E+04  0.00000000000E+00 0.  1.
<mgrwt>
<rscale>  0 0.17002360E+04</rscale>
<asrwt>0</asrwt>
<pdfrwt beam="1">  1        2 0.36820985E-01 0.17002360E+04</pdfrwt>
<pdfrwt beam="2">  1       -2 0.46455409E+00 0.17002360E+04</pdfrwt>
<totfact> 0.37573855E-01</totfact>
</mgrwt>
</event>
<event>
12    1  0.1506149E-007  0.1887943E+04  0.7818608E-02  0.8660882E-01
          2   -1    0    0  501    0  0.00000000000E+00  0.00000000000E+00  0.28695538769E+04  0.28695538769E+04  0.00000000000E+00 0. -1.
         -2   -1    0    0    0  501 -0.00000000000E+00 -0.00000000000E+00 -0.31052972476E+03  0.31052972476E+03  0.00000000000E+00 0.  1.
         23    2    1    2    0    0  0.36545502557E+03  0.45237925684E+03  0.26360116467E+03  0.64633106623E+03  0.10026916488E+03 0.  0.
        254    2    1    2    0    0 -0.36545502557E+03 -0.45237925684E+03  0.22954229875E+04  0.25337525354E+04  0.90151586319E+03 0.  0.
        -24    2    4    4    0    0 -0.49878131943E+03 -0.23381864436E+02  0.63473674004E+03  0.81150455696E+03  0.79494657806E+02 0.  0.
         24    2    4    4    0    0  0.13332629386E+03 -0.42899739241E+03  0.16606862474E+04  0.17222479784E+04  0.80278412692E+02 0.  0.
         11    1    3    3    0    0  0.30720232711E+03  0.40727455554E+03  0.19649793954E+03  0.54667840054E+03  0.00000000000E+00 0.  1.
        -11    1    3    3    0    0  0.58252698464E+02  0.45104701305E+02  0.67103225124E+02  0.99652665695E+02  0.00000000000E+00 0. -1.
          4    1    6    6  502    0  0.94258684043E+02 -0.19001830056E+03  0.69378368221E+03  0.72548428775E+03  0.00000000000E+00 0. -1.
          3    1    5    5  503    0 -0.45993919085E+03 -0.33002109024E+02  0.60917783168E+03  0.76402279357E+03  0.00000000000E+00 0. -1.
         -4    1    5    5    0  503 -0.38842128583E+02  0.96202445875E+01  0.25558908355E+02  0.47481763395E+02  0.00000000000E+00 0.  1.
         -3    1    6    6    0  502  0.39067609821E+02 -0.23897909184E+03  0.96690256521E+03  0.99676369069E+03  0.00000000000E+00 0.  1.
<mgrwt>
<rscale>  0 0.18879426E+04</rscale>
<asrwt>0</asrwt>
<pdfrwt beam="1">  1        2 0.44146981E+00 0.18879426E+04</pdfrwt>
<pdfrwt beam="2">  1       -2 0.47773806E-01 0.18879426E+04</pdfrwt>
<totfact> 0.81831758E+00</totfact>
</mgrwt>
</event>
<event>
12    1  0.1506149E-007  0.4090058E+04  0.7818608E-02  0.7986621E-01
         -1   -1    0    0    0  501 -0.00000000000E+00  0.00000000000E+00  0.92285234368E+03  0.92285234368E+03  0.00000000000E+00 0.  1.
          1   -1    0    0  501    0  0.00000000000E+00 -0.00000000000E+00 -0.45317590287E+04  0.45317590287E+04  0.00000000000E+00 0. -1.
         23    2    1    2    0    0 -0.71640982830E+03 -0.17301034156E+04 -0.97746664912E+03  0.21145012939E+04  0.95779961660E+02 0.  0.
        254    2    1    2    0    0  0.71640982830E+03  0.17301034156E+04 -0.26314400359E+04  0.33401100785E+04  0.85167940145E+03 0.  0.
        -24    2    4    4    0    0  0.12861044052E+03  0.11353563073E+04 -0.19378655762E+04  0.22510806691E+04  0.80415158044E+02 0.  0.
         24    2    4    4    0    0  0.58779938778E+03  0.59474710835E+03 -0.69357445970E+03  0.10890294093E+04  0.75546542362E+02 0.  0.
         11    1    3    3    0    0 -0.69159831320E+02 -0.23442011349E+03 -0.14963527106E+03  0.28657736516E+03  0.00000000000E+00 0. -1.
        -11    1    3    3    0    0 -0.64724999698E+03 -0.14956833021E+04 -0.82783137806E+03  0.18279239288E+04  0.00000000000E+00 0.  1.
          4    1    6    6  502    0  0.13635668122E+03  0.18245965018E+03 -0.17261271151E+03  0.28579681004E+03  0.00000000000E+00 0. -1.
          1    1    5    5  503    0 -0.44578652157E+01  0.18956009382E+03 -0.35148173916E+03  0.39936488916E+03  0.00000000000E+00 0. -1.
         -2    1    5    5    0  503  0.13306830573E+03  0.94579621344E+03 -0.15863838371E+04  0.18517157800E+04  0.00000000000E+00 0.  1.
         -3    1    6    6    0  502  0.45144270656E+03  0.41228745817E+03 -0.52096174819E+03  0.80323259929E+03  0.00000000000E+00 0.  1.
<mgrwt>
<rscale>  0 0.40900584E+04</rscale>
<asrwt>0</asrwt>
<pdfrwt beam="1">  1        1 0.69719369E+00 0.40900584E+04</pdfrwt>
<pdfrwt beam="2">  1       -1 0.14197729E+00 0.40900584E+04</pdfrwt>
<totfact> 0.93151418E-03</totfact>
</mgrwt>
</event>
<event>
12    1  0.1506149E-007  0.1747603E+04  0.7818608E-02  0.8734671E-01
          2   -1    0    0  501    0  0.00000000000E+00  0.00000000000E+00  0.15864109085E+04  0.15864109085E+04  0.00000000000E+00 0. -1.
         -2   -1    0    0    0  501 -0.00000000000E+00 -0.00000000000E+00 -0.48129339760E+03  0.48129339760E+03  0.00000000000E+00 0.  1.
         23    2    1    2    0    0 -0.19986432176E+03  0.54595067178E+03  0.21063510077E+03  0.62492275484E+03  0.90296293944E+02 0.  0.
        254    2    1    2    0    0  0.19986432176E+03 -0.54595067178E+03  0.89448241013E+03  0.14427815513E+04  0.97134542748E+03 0.  0.
        -24    2    4    4    0    0 -0.24842384246E+03 -0.59493222456E+03  0.66871765506E+03  0.93231747840E+03  0.79836213790E+02 0.  0.
         24    2    4    4    0    0  0.44828816422E+03  0.48981552771E+02  0.22576475508E+03  0.51046407286E+03  0.79008697936E+02 0.  0.
         13    1    3    3    0    0 -0.12274738092E+03  0.39109885744E+03  0.10847943577E+03  0.42402007475E+03  0.00000000000E+00 0.  1.
        -13    1    3    3    0    0 -0.77116940845E+02  0.15485181435E+03  0.10215566500E+03  0.20090268008E+03  0.00000000000E+00 0. -1.
          4    1    6    6  502    0  0.13993686143E+03  0.50714077812E+02  0.61100307433E+02  0.16089589940E+03  0.00000000000E+00 0. -1.
          3    1    5    5  503    0 -0.29211117120E+02 -0.15882865416E+03  0.17121829891E+03  0.23536256420E+03  0.00000000000E+00 0. -1.
         -4    1    5    5    0  503 -0.21921272534E+03 -0.43610357040E+03  0.49749935614E+03  0.69695491420E+03  0.00000000000E+00 0.  1.
         -3    1    6    6    0  502  0.30835130280E+03 -0.17325250408E+01  0.16466444764E+03  0.34956817346E+03  0.00000000000E+00 0.  1.
<mgrwt>
<rscale>  0 0.17476030E+04</rscale>
<asrwt>0</asrwt>
<pdfrwt beam="1">  1        2 0.24406321E+00 0.17476030E+04</pdfrwt>
<pdfrwt beam="2">  1       -2 0.74045139E-01 0.17476030E+04</pdfrwt>
<totfact> 0.17673661E+01</totfact>
</mgrwt>
</event>
<event>
12    1  0.1506149E-007  0.2195262E+04  0.7818608E-02  0.8520403E-01
         -2   -1    0    0    0  501 -0.00000000000E+00  0.00000000000E+00  0.68273475846E+03  0.68273475846E+03  0.00000000000E+00 0.  1.
          2   -1    0    0  501    0  0.00000000000E+00 -0.00000000000E+00 -0.17646592123E+04  0.17646592123E+04  0.00000000000E+00 0. -1.
         23    2    1    2    0    0 -0.47107510388E+03  0.17017102438E+03 -0.12983406170E+04  0.13946407777E+04  0.92003315103E+02 0.  0.
        254    2    1    2    0    0  0.47107510388E+03 -0.17017102438E+03  0.21641616319E+03  0.10527531931E+04  0.90032405208E+03 0.  0.
        -24    2    4    4    0    0  0.47166660415E+03 -0.24792522806E+03 -0.23494610919E+03  0.58769062176E+03  0.79020810578E+02 0.  0.
         24    2    4    4    0    0 -0.59150026877E+00  0.77754203682E+02  0.45136227238E+03  0.46506257129E+03  0.80679788248E+02 0.  0.
         13    1    3    3    0    0 -0.71957562006E+02  0.28911504113E+02 -0.30768627525E+03  0.31730838277E+03  0.00000000000E+00 0.  1.
        -13    1    3    3    0    0 -0.39911754187E+03  0.14125952026E+03 -0.99065434175E+03  0.10773323949E+04  0.00000000000E+00 0. -1.
          4    1    6    6  502    0 -0.12055418893E+02 -0.12897629396E+02  0.12160379004E+03  0.12287865446E+03  0.00000000000E+00 0. -1.
          3    1    5    5  503    0  0.54661143907E+02 -0.60351020037E+02 -0.36713667548E+02  0.89319536819E+02  0.00000000000E+00 0. -1.
         -4    1    5    5    0  503  0.41700546024E+03 -0.18757420802E+03 -0.19823244164E+03  0.49837108494E+03  0.00000000000E+00 0.  1.
         -3    1    6    6    0  502  0.11463918625E+02  0.90651833078E+02  0.32975848233E+03  0.34218391684E+03  0.00000000000E+00 0.  1.
<mgrwt>
<rscale>  0 0.21952623E+04</rscale>
<asrwt>0</asrwt>
<pdfrwt beam="1">  1        2 0.27148603E+00 0.21952623E+04</pdfrwt>
<pdfrwt beam="2">  1       -2 0.10503612E+00 0.21952623E+04</pdfrwt>
<totfact> 0.60632533E+00</totfact>
</mgrwt>
</event>
<event>
12    1  0.1506149E-007  0.1529313E+04  0.7818608E-02  0.8865190E-01
          1   -1    0    0  501    0  0.00000000000E+00  0.00000000000E+00  0.89699738954E+03  0.89699738954E+03  0.00000000000E+00 0. -1.
         -1   -1    0    0    0  501 -0.00000000000E+00 -0.00000000000E+00 -0.65184123806E+03  0.65184123806E+03  0.00000000000E+00 0.  1.
         23    2    1    2    0    0  0.26751633873E+03  0.25432162977E+02 -0.36721046189E+03  0.45932272771E+03  0.62626340097E+02 0.  0.
        254    2    1    2    0    0 -0.26751633873E+03 -0.25432162977E+02  0.61236661337E+03  0.10895158999E+04  0.86013966338E+03 0.  0.
        -24    2    4    4    0    0  0.28680459204E+03  0.27286771886E+02  0.64633986108E+02  0.30426564554E+03  0.73475090731E+02 0.  0.
         24    2    4    4    0    0 -0.55432093077E+03 -0.52718934863E+02  0.54773262726E+03  0.78525025435E+03  0.80968824883E+02 0.  0.
         11    1    3    3    0    0  0.76925736205E+01  0.13213852672E+02 -0.14487266573E+02  0.21063297085E+02  0.00000000000E+00 0. -1.
        -11    1    3    3    0    0  0.25982376511E+03  0.12218310305E+02 -0.35272319532E+03  0.43825943063E+03  0.00000000000E+00 0.  1.
          4    1    6    6  502    0 -0.27859814226E+03 -0.53777991214E+02  0.23585507161E+03  0.36896695247E+03  0.00000000000E+00 0. -1.
          3    1    5    5  503    0  0.20826750807E+02 -0.16959776507E+02  0.12559305608E+02  0.29650020670E+02  0.00000000000E+00 0. -1.
         -4    1    5    5    0  503  0.26597784123E+03  0.44246548393E+02  0.52074680500E+02  0.27461562487E+03  0.00000000000E+00 0.  1.
         -3    1    6    6    0  502 -0.27572278851E+03  0.10590563514E+01  0.31187755565E+03  0.41628330187E+03  0.00000000000E+00 0.  1.
<mgrwt>
<rscale>  0 0.15293134E+04</rscale>
<asrwt>0</asrwt>
<pdfrwt beam="1">  1        1 0.13799960E+00 0.15293134E+04</pdfrwt>
<pdfrwt beam="2">  1       -1 0.10028327E+00 0.15293134E+04</pdfrwt>
<totfact> 0.16729293E+01</totfact>
</mgrwt>
</event>
<event>
12    1  0.1506149E-007  0.1429846E+04  0.7818608E-02  0.8932494E-01
         -1   -1    0    0    0  501 -0.00000000000E+00  0.00000000000E+00  0.79201897285E+03  0.79201897285E+03  0.00000000000E+00 0.  1.
          1   -1    0    0  501    0  0.00000000000E+00 -0.00000000000E+00 -0.64533145601E+03  0.64533145601E+03  0.00000000000E+00 0. -1.
         23    2    1    2    0    0 -0.36289131801E+03  0.22125223932E+02 -0.17401252417E+03  0.41243945502E+03  0.87443188784E+02 0.  0.
        254    2    1    2    0    0  0.36289131801E+03 -0.22125223932E+02  0.32070004102E+03  0.10249109738E+04  0.90300296442E+03 0.  0.
        -24    2    4    4    0    0  0.54147300777E+03 -0.14562001474E+03 -0.70199125758E+02  0.57079107165E+03  0.80475607346E+02 0.  0.
         24    2    4    4    0    0 -0.17858168976E+03  0.12349479081E+03  0.39089916678E+03  0.45411990219E+03  0.79248619540E+02 0.  0.
         13    1    3    3    0    0 -0.29654628666E+03 -0.84994737844E+01 -0.16313218257E+03  0.33856173761E+03  0.00000000000E+00 0. -1.
        -13    1    3    3    0    0 -0.66345031357E+02  0.30624697717E+02 -0.10880341601E+02  0.73877717408E+02  0.00000000000E+00 0.  1.
          2    1    6    6  502    0 -0.60498687364E+02  0.58315975749E+02  0.22581465041E+03  0.24094211035E+03  0.00000000000E+00 0. -1.
          1    1    5    5  503    0  0.47183918847E+03 -0.12231370349E+03 -0.87802680609E+02  0.49527989315E+03  0.00000000000E+00 0. -1.
         -2    1    5    5    0  503  0.69633819300E+02 -0.23306311254E+02  0.17603554850E+02  0.75511178496E+02  0.00000000000E+00 0.  1.
         -1    1    6    6    0  502 -0.11808300240E+03  0.65178815062E+02  0.16508451637E+03  0.21317779184E+03  0.00000000000E+00 0.  1.
<mgrwt>
<rscale>  0 0.14298458E+04</rscale>
<asrwt>0</asrwt>
<pdfrwt beam="1">  1        1 0.99281763E-01 0.14298458E+04</pdfrwt>
<pdfrwt beam="2">  1       -1 0.12184907E+00 0.14298458E+04</pdfrwt>
<totfact> 0.17860139E+01</totfact>
</mgrwt>
</event>
<event>
12    1  0.1506149E-007  0.1668172E+04  0.7818608E-02  0.8779728E-01
          1   -1    0    0  501    0  0.00000000000E+00  0.00000000000E+00  0.34194512998E+04  0.34194512998E+04  0.00000000000E+00 0. -1.
         -1   -1    0    0    0  501 -0.00000000000E+00 -0.00000000000E+00 -0.20345353298E+03  0.20345353298E+03  0.00000000000E+00 0.  1.
         23    2    1    2    0    0 -0.38418276761E+03 -0.12242686648E+03  0.21168624115E+04  0.21567598307E+04  0.89004277193E+02 0.  0.
        254    2    1    2    0    0  0.38418276761E+03  0.12242686648E+03  0.10991353553E+04  0.14661450021E+04  0.88255192556E+03 0.  0.
        -24    2    4    4    0    0  0.52268527341E+03  0.56980392011E+02  0.11637917026E+04  0.12795878184E+04  0.80543142930E+02 0.  0.
         24    2    4    4    0    0 -0.13850250580E+03  0.65446474467E+02 -0.64656347352E+02  0.18655718363E+03  0.84598784728E+02 0.  0.
         11    1    3    3    0    0  0.46585777532E+01 -0.47706605179E+01  0.35477469909E+02  0.36098648446E+02  0.00000000000E+00 0.  1.
        -11    1    3    3    0    0 -0.38884134536E+03 -0.11765620596E+03  0.20813849416E+04  0.21206611822E+04  0.00000000000E+00 0. -1.
          4    1    6    6  502    0 -0.58251921638E+02  0.23961800481E+02 -0.72307355086E+02  0.95894774917E+02  0.00000000000E+00 0. -1.
          3    1    5    5  503    0  0.23979242996E+03  0.62800526086E+02  0.58432139675E+03  0.63472498788E+03  0.00000000000E+00 0. -1.
         -4    1    5    5    0  503  0.28289284345E+03 -0.58201340749E+01  0.57947030588E+03  0.64486283055E+03  0.00000000000E+00 0.  1.
         -3    1    6    6    0  502 -0.80250584166E+02  0.41484673985E+02  0.76510077334E+01  0.90662408715E+02  0.00000000000E+00 0.  1.
<mgrwt>
<rscale>  0 0.16681720E+04</rscale>
<asrwt>0</asrwt>
<pdfrwt beam="1">  1        1 0.52606939E+00 0.16681720E+04</pdfrwt>
<pdfrwt beam="2">  1       -1 0.31300546E-01 0.16681720E+04</pdfrwt>
<totfact> 0.26308270E+00</totfact>
</mgrwt>
</event>
<event>
12    1  0.1506149E-007  0.1012739E+04  0.7818608E-02  0.9294682E-01
          2   -1    0    0  501    0  0.00000000000E+00  0.00000000000E+00  0.76146609996E+03  0.76146609996E+03  0.00000000000E+00 0. -1.
         -2   -1    0    0    0  501 -0.00000000000E+00 -0.00000000000E+00 -0.33673204166E+03  0.33673204166E+03  0.00000000000E+00 0.  1.
         23    2    1    2    0    0  0.80086108567E+01 -0.15212807024E+02  0.32293843096E+02  0.10279903886E+03  0.96068635589E+02 0.  0.
        254    2    1    2    0    0 -0.80086108567E+01  0.15212807024E+02  0.39244021520E+03  0.99539910276E+03  0.91461165744E+03 0.  0.
        -24    2    4    4    0    0  0.12334370324E+03  0.12262863939E+03  0.64933989493E+03  0.67691219845E+03  0.79475612210E+02 0.  0.
         24    2    4    4    0    0 -0.13135231409E+03 -0.10741583237E+03 -0.25689967973E+03  0.31848690431E+03  0.81516080091E+02 0.  0.
         11    1    3    3    0    0 -0.14474825829E+02 -0.41428194538E+02  0.47845292016E+02  0.64922937808E+02  0.00000000000E+00 0. -1.
        -11    1    3    3    0    0  0.22483436686E+02  0.26215387513E+02 -0.15551448920E+02  0.37876101056E+02  0.00000000000E+00 0.  1.
          4    1    6    6  502    0 -0.12614034750E+03 -0.60342378813E+02 -0.17653520699E+03  0.22520494945E+03  0.00000000000E+00 0. -1.
          1    1    5    5  503    0  0.67011595754E+02  0.21641691879E+02  0.32594061066E+03  0.33346093994E+03  0.00000000000E+00 0. -1.
         -2    1    5    5    0  503  0.56332107483E+02  0.10098694751E+03  0.32339928427E+03  0.34345125850E+03  0.00000000000E+00 0.  1.
         -3    1    6    6    0  502 -0.52119665947E+01 -0.47073453556E+02 -0.80364472733E+02  0.93281954863E+02  0.00000000000E+00 0.  1.
<mgrwt>
<rscale>  0 0.10127389E+04</rscale>
<asrwt>0</asrwt>
<pdfrwt beam="1">  1        2 0.11714863E+00 0.10127389E+04</pdfrwt>
<pdfrwt beam="2">  1       -2 0.51804930E-01 0.10127389E+04</pdfrwt>
<totfact> 0.12909608E+02</totfact>
</mgrwt>
</event>
<event>
12    1  0.1506149E-007  0.1186366E+04  0.7818608E-02  0.9124874E-01
          2   -1    0    0  501    0  0.00000000000E+00  0.00000000000E+00  0.12312330868E+04  0.12312330868E+04  0.00000000000E+00 0. -1.
         -2   -1    0    0    0  501 -0.00000000000E+00 -0.00000000000E+00 -0.28578367714E+03  0.28578367714E+03  0.00000000000E+00 0.  1.
         23    2    1    2    0    0 -0.12905704717E+02  0.16655828492E+03 -0.64468660618E+01  0.19133074362E+03  0.93046611344E+02 0.  0.
        254    2    1    2    0    0  0.12905704717E+02 -0.16655828492E+03  0.95189627568E+03  0.13256860203E+04  0.90742971365E+03 0.  0.
        -24    2    4    4    0    0  0.29709302682E+03  0.26040715116E+03  0.39530837055E+03  0.56446839955E+03  0.79244654699E+02 0.  0.
         24    2    4    4    0    0 -0.28418732211E+03 -0.42696543608E+03  0.55658790512E+03  0.76121762073E+03  0.81241936986E+02 0.  0.
         11    1    3    3    0    0 -0.35378572547E+01 -0.41843298463E+01 -0.19093607459E+02  0.19864312121E+02  0.00000000000E+00 0.  1.
        -11    1    3    3    0    0 -0.93678474623E+01  0.17074261477E+03  0.12646741397E+02  0.17146643150E+03  0.00000000000E+00 0. -1.
          4    1    6    6  502    0 -0.15549806715E+03 -0.18235516144E+03  0.30107857126E+03  0.38481340915E+03  0.00000000000E+00 0. -1.
          1    1    5    5  503    0  0.64104365978E+02  0.10434993982E+03  0.12395866914E+03  0.17425277999E+03  0.00000000000E+00 0. -1.
         -2    1    5    5    0  503  0.23298866084E+03  0.15605721133E+03  0.27134970141E+03  0.39021561956E+03  0.00000000000E+00 0.  1.
         -3    1    6    6    0  502 -0.12868925496E+03 -0.24461027465E+03  0.25550933386E+03  0.37640421158E+03  0.00000000000E+00 0.  1.
<mgrwt>
<rscale>  0 0.11863664E+04</rscale>
<asrwt>0</asrwt>
<pdfrwt beam="1">  1        2 0.18942047E+00 0.11863664E+04</pdfrwt>
<pdfrwt beam="2">  1       -2 0.43966720E-01 0.11863664E+04</pdfrwt>
<totfact> 0.87871146E+01</totfact>
</mgrwt>
</event>
<event>
12    1  0.1506149E-007  0.1932550E+04  0.7818608E-02  0.8638822E-01
         -2   -1    0    0    0  501 -0.00000000000E+00  0.00000000000E+00  0.40231970173E+03  0.40231970173E+03  0.00000000000E+00 0.  1.
          2   -1    0    0  501    0  0.00000000000E+00 -0.00000000000E+00 -0.23207587492E+04  0.23207587492E+04  0.00000000000E+00 0. -1.
         23    2    1    2    0    0  0.28680093968E+03 -0.20817567609E+03  0.18433729026E+03  0.40955242222E+03  0.90338578970E+02 0.  0.
        254    2    1    2    0    0 -0.28680093968E+03  0.20817567609E+03 -0.21027763377E+04  0.23135260287E+04  0.89729731296E+03 0.  0.
        -24    2    4    4    0    0 -0.48463113005E+03 -0.16973290890E+03 -0.13211503145E+04  0.14195057358E+04  0.76692816078E+02 0.  0.
         24    2    4    4    0    0  0.19783019037E+03  0.37790858499E+03 -0.78162602323E+03  0.89402029285E+03  0.79883421317E+02 0.  0.
         11    1    3    3    0    0  0.62787380770E+02 -0.21133276646E+02  0.37312670001E+01  0.66353544888E+02  0.00000000000E+00 0. -1.
        -11    1    3    3    0    0  0.22401355891E+03 -0.18704239945E+03  0.18060602326E+03  0.34319887733E+03  0.00000000000E+00 0.  1.
          4    1    6    6  502    0  0.42756715204E+02  0.71335937074E+02 -0.95166596772E+02  0.12638684170E+03  0.00000000000E+00 0. -1.
          3    1    5    5  503    0 -0.16357530193E+03 -0.36089102192E+02 -0.35132867737E+03  0.38921863039E+03  0.00000000000E+00 0. -1.
         -4    1    5    5    0  503 -0.32105582812E+03 -0.13364380671E+03 -0.96982163710E+03  0.10302871054E+04  0.00000000000E+00 0.  1.
         -3    1    6    6    0  502  0.15507347517E+03  0.30657264792E+03 -0.68645942646E+03  0.76763345115E+03  0.00000000000E+00 0.  1.
<mgrwt>
<rscale>  0 0.19325496E+04</rscale>
<asrwt>0</asrwt>
<pdfrwt beam="1">  1        2 0.35703981E+00 0.19325496E+04</pdfrwt>
<pdfrwt beam="2">  1       -2 0.61895339E-01 0.19325496E+04</pdfrwt>
<totfact> 0.99950086E+00</totfact>
</mgrwt>
</event>
<event>
12    1  0.1506149E-007  0.1105983E+04  0.7818608E-02  0.9199380E-01
          2   -1    0    0  501    0  0.00000000000E+00  0.00000000000E+00  0.11047837386E+04  0.11047837386E+04  0.00000000000E+00 0.  1.
         -2   -1    0    0    0  501 -0.00000000000E+00 -0.00000000000E+00 -0.27679566914E+03  0.27679566914E+03  0.00000000000E+00 0. -1.
         23    2    1    2    0    0 -0.88290573066E+02 -0.92198937801E+02  0.29017131498E+03  0.33001123966E+03  0.91717810926E+02 0.  0.
        254    2    1    2    0    0  0.88290573066E+02  0.92198937801E+02  0.53781675444E+03  0.10515681680E+04  0.89456854475E+03 0.  0.
        -24    2    4    4    0    0 -0.97709792951E+02 -0.36297280614E+03  0.12488697160E+03  0.40462314646E+03  0.82623685125E+02 0.  0.
         24    2    4    4    0    0  0.18600036602E+03  0.45517174394E+03  0.41292978284E+03  0.64694502158E+03  0.79053164068E+02 0.  0.
         13    1    3    3    0    0 -0.70726791894E+02 -0.76495913139E+02  0.28810227159E+03  0.30636060895E+03  0.00000000000E+00 0.  1.
        -13    1    3    3    0    0 -0.17563781173E+02 -0.15703024662E+02  0.20690433894E+01  0.23650630714E+02  0.00000000000E+00 0. -1.
          2    1    6    6  502    0  0.93994688264E+01  0.21091053544E+01  0.10572039859E+01  0.96910278032E+01  0.00000000000E+00 0. -1.
          3    1    5    5  503    0 -0.39490013770E+02 -0.54652705906E+02  0.44277651090E+02  0.80665295118E+02  0.00000000000E+00 0. -1.
         -4    1    5    5    0  503 -0.58219779180E+02 -0.30832010023E+03  0.80609320512E+02  0.32395785134E+03  0.00000000000E+00 0.  1.
         -1    1    6    6    0  502  0.17660089719E+03  0.45306263858E+03  0.41187257885E+03  0.63725399377E+03  0.00000000000E+00 0.  1.
<mgrwt>
<rscale>  0 0.11059826E+04</rscale>
<asrwt>0</asrwt>
<pdfrwt beam="1">  1        2 0.16996673E+00 0.11059826E+04</pdfrwt>
<pdfrwt beam="2">  1       -2 0.42583950E-01 0.11059826E+04</pdfrwt>
<totfact> 0.11219896E+02</totfact>
</mgrwt>
</event>
<event>
12    1  0.1506149E-007  0.2599806E+04  0.7818608E-02  0.8368267E-01
          2   -1    0    0  501    0  0.00000000000E+00  0.00000000000E+00  0.26157466634E+04  0.26157466634E+04  0.00000000000E+00 0. -1.
         -2   -1    0    0    0  501 -0.00000000000E+00 -0.00000000000E+00 -0.64599052151E+03  0.64599052151E+03  0.00000000000E+00 0.  1.
         23    2    1    2    0    0 -0.62840236837E+03  0.91521233760E+03  0.52751918873E+03  0.12323573169E+04  0.89021921619E+02 0.  0.
        254    2    1    2    0    0  0.62840236837E+03 -0.91521233760E+03  0.14422369532E+04  0.20293798681E+04  0.89768149154E+03 0.  0.
        -24    2    4    4    0    0  0.18096210766E+02 -0.67456150329E+03  0.38178356535E+03  0.77939477539E+03  0.79604212028E+02 0.  0.
         24    2    4    4    0    0  0.61030615760E+03 -0.24065083431E+03  0.10604533879E+04  0.12499850927E+04  0.86688603815E+02 0.  0.
         11    1    3    3    0    0 -0.57890048298E+03  0.81153890319E+03  0.44969082117E+03  0.10935917864E+04  0.00000000000E+00 0.  1.
        -11    1    3    3    0    0 -0.49501885386E+02  0.10367343441E+03  0.77828367562E+02  0.13876553051E+03  0.00000000000E+00 0. -1.
          4    1    6    6  502    0  0.55676516689E+03 -0.19873386556E+03  0.91407849311E+03  0.10885872000E+04  0.00000000000E+00 0. -1.
          1    1    5    5  503    0 -0.55903556845E+01 -0.56466439182E+03  0.34177993564E+03  0.66006867209E+03  0.00000000000E+00 0. -1.
         -2    1    5    5    0  503  0.23686566451E+02 -0.10989711147E+03  0.40003629707E+02  0.11932610330E+03  0.00000000000E+00 0.  1.
         -3    1    6    6    0  502  0.53540990708E+02 -0.41916968754E+02  0.14637489475E+03  0.16139789270E+03  0.00000000000E+00 0.  1.
<mgrwt>
<rscale>  0 0.25998058E+04</rscale>
<asrwt>0</asrwt>
<pdfrwt beam="1">  1        2 0.40242256E+00 0.25998058E+04</pdfrwt>
<pdfrwt beam="2">  1       -2 0.99383159E-01 0.25998058E+04</pdfrwt>
<totfact> 0.22082914E+00</totfact>
</mgrwt>
</event>
<event>
12    1  0.1506149E-007  0.1318000E+04  0.7818608E-02  0.9015411E-01
          1   -1    0    0  501    0  0.00000000000E+00  0.00000000000E+00  0.79841053694E+03  0.79841053694E+03  0.00000000000E+00 0. -1.
         -1   -1    0    0    0  501 -0.00000000000E+00 -0.00000000000E+00 -0.54393228376E+03  0.54393228376E+03  0.00000000000E+00 0.  1.
         23    2    1    2    0    0  0.79309549418E+02  0.15939346122E+03  0.37544927032E+03  0.42541705856E+03  0.91220825566E+02 0.  0.
        254    2    1    2    0    0 -0.79309549418E+02 -0.15939346122E+03 -0.12097101714E+03  0.91692576214E+03  0.89130386860E+03 0.  0.
        -24    2    4    4    0    0 -0.40704336842E+03  0.14320924757E+03 -0.14569825339E+03  0.46267560884E+03  0.81532481964E+02 0.  0.
         24    2    4    4    0    0  0.32773381900E+03 -0.30260270879E+03  0.24727236250E+02  0.45425015329E+03  0.82182176109E+02 0.  0.
         13    1    3    3    0    0 -0.20003248353E+02  0.35783249211E+02  0.89641018842E+02  0.98570193912E+02  0.00000000000E+00 0.  1.
        -13    1    3    3    0    0  0.99312797771E+02  0.12361021201E+03  0.28580825148E+03  0.32684686465E+03  0.00000000000E+00 0. -1.
          2    1    6    6  502    0  0.25372238648E+03 -0.25706178875E+03 -0.83086260796E+01  0.36128222473E+03  0.00000000000E+00 0. -1.
          1    1    5    5  503    0 -0.32100259382E+03  0.14424651383E+03 -0.10342786957E+03  0.36680655146E+03  0.00000000000E+00 0. -1.
         -2    1    5    5    0  503 -0.86040774601E+02 -0.10372662642E+01 -0.42270383820E+02  0.95869057383E+02  0.00000000000E+00 0.  1.
         -1    1    6    6    0  502  0.74011432520E+02 -0.45540920040E+02  0.33035862330E+02  0.92967928564E+02  0.00000000000E+00 0.  1.
<mgrwt>
<rscale>  0 0.13180004E+04</rscale>
<asrwt>0</asrwt>
<pdfrwt beam="1">  1        1 0.12283239E+00 0.13180004E+04</pdfrwt>
<pdfrwt beam="2">  1       -1 0.83681890E-01 0.13180004E+04</pdfrwt>
<totfact> 0.30835276E+01</totfact>
</mgrwt>
</event>
<event>
12    1  0.1506149E-007  0.2288566E+04  0.7818608E-02  0.8482443E-01
         -2   -1    0    0    0  501 -0.00000000000E+00  0.00000000000E+00  0.93861508103E+03  0.93861508103E+03  0.00000000000E+00 0.  1.
          2   -1    0    0  501    0  0.00000000000E+00 -0.00000000000E+00 -0.13950168491E+04  0.13950168491E+04  0.00000000000E+00 0. -1.
         23    2    1    2    0    0  0.48550341537E+03 -0.19858683079E+03  0.63045402346E+03  0.82483922629E+03  0.87961229195E+02 0.  0.
        254    2    1    2    0    0 -0.48550341537E+03  0.19858683079E+03 -0.10868557915E+04  0.15087927038E+04  0.90556590918E+03 0.  0.
        -24    2    4    4    0    0 -0.27778531476E+03 -0.90070919648E+02  0.55693180618E+02  0.30987071760E+03  0.87410980988E+02 0.  0.
         24    2    4    4    0    0 -0.20771810061E+03  0.28865775043E+03 -0.11425489721E+04  0.11989219862E+04  0.74334844565E+02 0.  0.
         11    1    3    3    0    0  0.32601982556E+03 -0.13590265869E+03  0.48551719795E+03  0.60040437107E+03  0.00000000000E+00 0.  1.
        -11    1    3    3    0    0  0.15948358981E+03 -0.62684172096E+02  0.14493682551E+03  0.22443485522E+03  0.00000000000E+00 0. -1.
          2    1    6    6  502    0 -0.14440649866E+03  0.13988326519E+03 -0.66667412040E+03  0.69632962564E+03  0.00000000000E+00 0. -1.
          1    1    5    5  503    0 -0.21176251336E+03 -0.10466115142E+03  0.32780229368E+02  0.23847822148E+03  0.00000000000E+00 0. -1.
         -2    1    5    5    0  503 -0.66022801395E+02  0.14590231775E+02  0.22912951250E+02  0.71392496120E+02  0.00000000000E+00 0.  1.
         -1    1    6    6    0  502 -0.63311601947E+02  0.14877448524E+03 -0.47587485173E+03  0.50259236058E+03  0.00000000000E+00 0.  1.
<mgrwt>
<rscale>  0 0.22885662E+04</rscale>
<asrwt>0</asrwt>
<pdfrwt beam="1">  1        2 0.21461798E+00 0.22885662E+04</pdfrwt>
<pdfrwt beam="2">  1       -2 0.14440232E+00 0.22885662E+04</pdfrwt>
<totfact> 0.43792638E+00</totfact>
</mgrwt>
</event>
<event>
12    1  0.1506149E-007  0.1630857E+04  0.7818608E-02  0.8801813E-01
          2   -1    0    0  501    0  0.00000000000E+00  0.00000000000E+00  0.18276744281E+04  0.18276744281E+04  0.00000000000E+00 0. -1.
         -2   -1    0    0    0  501 -0.00000000000E+00 -0.00000000000E+00 -0.36380838182E+03  0.36380838182E+03  0.00000000000E+00 0.  1.
         23    2    1    2    0    0  0.14270379067E+03  0.12502353661E+03  0.12133037574E+04  0.12304311397E+04  0.76547536179E+02 0.  0.
        254    2    1    2    0    0 -0.14270379067E+03 -0.12502353661E+03  0.25056228892E+03  0.96105167024E+03  0.90820900440E+03 0.  0.
        -24    2    4    4    0    0  0.13998805248E+03 -0.64653159051E+02 -0.29308707683E+03  0.34043347627E+03  0.78855762944E+02 0.  0.
         24    2    4    4    0    0 -0.28269184315E+03 -0.60370377554E+02  0.54364936575E+03  0.62061819397E+03  0.77801344090E+02 0.  0.
         13    1    3    3    0    0  0.75736668802E+02  0.46394594500E+02  0.77747976730E+03  0.78253644641E+03  0.00000000000E+00 0. -1.
        -13    1    3    3    0    0  0.66967121867E+02  0.78628942106E+02  0.43582399007E+03  0.44789469328E+03  0.00000000000E+00 0.  1.
          2    1    6    6  502    0 -0.85959222660E+01  0.11589486410E+02  0.15059405241E+02  0.20856456101E+02  0.00000000000E+00 0. -1.
          1    1    5    5  503    0  0.72355623212E+02  0.49442143413E+01 -0.91957132818E+02  0.11711488267E+03  0.00000000000E+00 0. -1.
         -2    1    5    5    0  503  0.67632429269E+02 -0.69597373393E+02 -0.20112994401E+03  0.22331859360E+03  0.00000000000E+00 0.  1.
         -1    1    6    6    0  502 -0.27409592088E+03 -0.71959863965E+02  0.52858996051E+03  0.59976173787E+03  0.00000000000E+00 0.  1.
<mgrwt>
<rscale>  0 0.16308566E+04</rscale>
<asrwt>0</asrwt>
<pdfrwt beam="1">  1        2 0.28118068E+00 0.16308566E+04</pdfrwt>
<pdfrwt beam="2">  1       -2 0.55970521E-01 0.16308566E+04</pdfrwt>
<totfact> 0.23883820E+01</totfact>
</mgrwt>
</event>
<event>
12    1  0.1506149E-007  0.1878630E+04  0.7818608E-02  0.8665567E-01
          2   -1    0    0  501    0  0.00000000000E+00  0.00000000000E+00  0.20061082588E+04  0.20061082588E+04  0.00000000000E+00 0. -1.
         -2   -1    0    0    0  501 -0.00000000000E+00 -0.00000000000E+00 -0.43981317289E+03  0.43981317289E+03  0.00000000000E+00 0.  1.
         23    2    1    2    0    0 -0.35847517933E+03  0.54473892928E+03  0.21449680991E+03  0.69220770592E+03  0.88868843862E+02 0.  0.
        254    2    1    2    0    0  0.35847517933E+03 -0.54473892928E+03  0.13517982760E+04  0.17537137258E+04  0.90714293123E+03 0.  0.
        -24    2    4    4    0    0 -0.13921903569E+03  0.12600876714E+03  0.64412650356E+02  0.21714891085E+03  0.88002901444E+02 0.  0.
         24    2    4    4    0    0  0.49769421502E+03 -0.67074769642E+03  0.12873856256E+04  0.15365648149E+04  0.77895297785E+02 0.  0.
         11    1    3    3    0    0 -0.13092311659E+03  0.19005681970E+03  0.12090153759E+03  0.26053721224E+03  0.00000000000E+00 0. -1.
        -11    1    3    3    0    0 -0.22755206274E+03  0.35468210958E+03  0.93595272322E+02  0.43167049368E+03  0.00000000000E+00 0.  1.
          4    1    6    6  502    0  0.31156879507E+03 -0.41029339415E+03  0.72415291657E+03  0.88871436915E+03  0.00000000000E+00 0. -1.
          1    1    5    5  503    0 -0.12221877551E+03  0.54465047188E+02  0.39669631002E+02  0.13956199367E+03  0.00000000000E+00 0. -1.
         -2    1    5    5    0  503 -0.17000260176E+02  0.71543719954E+02  0.24743019355E+02  0.77586917181E+02  0.00000000000E+00 0.  1.
         -3    1    6    6    0  502  0.18612541995E+03 -0.26045430227E+03  0.56323270906E+03  0.64785044577E+03  0.00000000000E+00 0.  1.
<mgrwt>
<rscale>  0 0.18786302E+04</rscale>
<asrwt>0</asrwt>
<pdfrwt beam="1">  1        2 0.30863203E+00 0.18786302E+04</pdfrwt>
<pdfrwt beam="2">  1       -2 0.67663566E-01 0.18786302E+04</pdfrwt>
<totfact> 0.12447834E+01</totfact>
</mgrwt>
</event>
<event>
12    1  0.1506149E-007  0.1324834E+04  0.7818608E-02  0.9010100E-01
         -1   -1    0    0    0  501 -0.00000000000E+00  0.00000000000E+00  0.42696769741E+03  0.42696769741E+03  0.00000000000E+00 0.  1.
          1   -1    0    0  501    0  0.00000000000E+00 -0.00000000000E+00 -0.10277043959E+04  0.10277043959E+04  0.00000000000E+00 0. -1.
         23    2    1    2    0    0 -0.37376467069E+02  0.34519446073E+02  0.21625128354E+03  0.23967703263E+03  0.89954821402E+02 0.  0.
        254    2    1    2    0    0  0.37376467069E+02 -0.34519446073E+02 -0.81698798198E+03  0.12149950606E+04  0.89786137138E+03 0.  0.
        -24    2    4    4    0    0 -0.16743767046E+03 -0.39761412359E+03 -0.58484641271E+03  0.73120191158E+03  0.80489404693E+02 0.  0.
         24    2    4    4    0    0  0.20481413753E+03  0.36309467752E+03 -0.23214156926E+03  0.48379314905E+03  0.79871941949E+02 0.  0.
         11    1    3    3    0    0 -0.20988603279E+02 -0.28389641597E+02  0.50361461995E+02  0.61504228081E+02  0.00000000000E+00 0. -1.
        -11    1    3    3    0    0 -0.16387863790E+02  0.62909087670E+02  0.16588982154E+03  0.17817280455E+03  0.00000000000E+00 0.  1.
          4    1    6    6  502    0  0.24128235590E+02  0.19754398694E+02 -0.40349820352E+02  0.50995254905E+02  0.00000000000E+00 0. -1.
          1    1    5    5  503    0 -0.53450725046E+02 -0.98303130163E+02 -0.21169512506E+03  0.23944793042E+03  0.00000000000E+00 0. -1.
         -2    1    5    5    0  503 -0.11398694542E+03 -0.29931099343E+03 -0.37315128766E+03  0.49175398117E+03  0.00000000000E+00 0.  1.
         -3    1    6    6    0  502  0.18068590194E+03  0.34334027882E+03 -0.19179174891E+03  0.43279789414E+03  0.00000000000E+00 0.  1.
<mgrwt>
<rscale>  0 0.13248344E+04</rscale>
<asrwt>0</asrwt>
<pdfrwt beam="1">  1        1 0.15810837E+00 0.13248344E+04</pdfrwt>
<pdfrwt beam="2">  1       -1 0.65687339E-01 0.13248344E+04</pdfrwt>
<totfact> 0.33173596E+01</totfact>
</mgrwt>
</event>
<event>
12    1  0.1506149E-007  0.1540691E+04  0.7818608E-02  0.8857836E-01
         -2   -1    0    0    0  501 -0.00000000000E+00  0.00000000000E+00  0.37136369590E+03  0.37136369590E+03  0.00000000000E+00 0.  1.
          2   -1    0    0  501    0  0.00000000000E+00 -0.00000000000E+00 -0.15979806253E+04  0.15979806253E+04  0.00000000000E+00 0. -1.
         23    2    1    2    0    0  0.34161097629E+03 -0.37960821272E+02 -0.84051036009E+03  0.91176328702E+03  0.81948417062E+02 0.  0.
        254    2    1    2    0    0 -0.34161097629E+03  0.37960821272E+02 -0.38610656931E+03  0.10575810342E+04  0.92263767423E+03 0.  0.
        -24    2    4    4    0    0 -0.42121435436E+02 -0.31099219273E+03 -0.48207136602E+03  0.58072091690E+03  0.79709611221E+02 0.  0.
         24    2    4    4    0    0 -0.29948954085E+03  0.34895301401E+03  0.95964796716E+02  0.47686011728E+03  0.82000842533E+02 0.  0.
         13    1    3    3    0    0  0.26079695569E+03 -0.18735600217E+02 -0.71446650252E+03  0.76080776680E+03  0.00000000000E+00 0. -1.
        -13    1    3    3    0    0  0.80814020603E+02 -0.19225221055E+02 -0.12604385758E+03  0.15095552021E+03  0.00000000000E+00 0.  1.
          4    1    6    6  502    0 -0.71879730623E+02  0.12879762508E+03  0.57979255689E+01  0.14761144888E+03  0.00000000000E+00 0. -1.
          3    1    5    5  503    0 -0.39668415931E+01 -0.16309978358E+03 -0.18483002090E+03  0.24653480862E+03  0.00000000000E+00 0. -1.
         -4    1    5    5    0  503 -0.38154593843E+02 -0.14789240916E+03 -0.29724134512E+03  0.33418610828E+03  0.00000000000E+00 0.  1.
         -3    1    6    6    0  502 -0.22760981023E+03  0.22015538893E+03  0.90166871147E+02  0.32924866839E+03  0.00000000000E+00 0.  1.
<mgrwt>
<rscale>  0 0.15406907E+04</rscale>
<asrwt>0</asrwt>
<pdfrwt beam="1">  1        2 0.24584317E+00 0.15406907E+04</pdfrwt>
<pdfrwt beam="2">  1       -2 0.57132876E-01 0.15406907E+04</pdfrwt>
<totfact> 0.30920299E+01</totfact>
</mgrwt>
</event>
<event>
12    1  0.1506149E-007  0.1949709E+04  0.7818608E-02  0.8630501E-01
          2   -1    0    0  501    0  0.00000000000E+00  0.00000000000E+00  0.18078571199E+04  0.18078571199E+04  0.00000000000E+00 0. -1.
         -2   -1    0    0    0  501 -0.00000000000E+00 -0.00000000000E+00 -0.52567255606E+03  0.52567255606E+03  0.00000000000E+00 0.  1.
         23    2    1    2    0    0  0.43926089785E+03 -0.34528261144E+03  0.11302892988E+04  0.12640719622E+04  0.90298441547E+02 0.  0.
        254    2    1    2    0    0 -0.43926089785E+03  0.34528261144E+03  0.15189526506E+03  0.10694577137E+04  0.89916484128E+03 0.  0.
        -24    2    4    4    0    0 -0.37299072269E+03  0.63705746565E+03  0.50914376549E+02  0.74404082867E+03  0.77718641521E+02 0.  0.
         24    2    4    4    0    0 -0.66270175162E+02 -0.29177485420E+03  0.10098088851E+03  0.32541688508E+03  0.78579307628E+02 0.  0.
         11    1    3    3    0    0  0.28195151095E+03 -0.20094031653E+03  0.60518295279E+03  0.69722311471E+03  0.00000000000E+00 0. -1.
        -11    1    3    3    0    0  0.15730938690E+03 -0.14434229491E+03  0.52510634600E+03  0.56684884750E+03  0.00000000000E+00 0.  1.
          4    1    6    6  502    0 -0.44599884862E+02 -0.13302281221E+03  0.85843981391E+02  0.16447920063E+03  0.00000000000E+00 0. -1.
          3    1    5    5  503    0 -0.51460224590E+02  0.46563222115E+02 -0.34756765711E+01  0.69486464122E+02  0.00000000000E+00 0. -1.
         -4    1    5    5    0  503 -0.32153049810E+03  0.59049424353E+03  0.54390053120E+02  0.67455436455E+03  0.00000000000E+00 0.  1.
         -3    1    6    6    0  502 -0.21670290300E+02 -0.15875204199E+03  0.15136907118E+02  0.16093768445E+03  0.00000000000E+00 0.  1.
<mgrwt>
<rscale>  0 0.19497086E+04</rscale>
<asrwt>0</asrwt>
<pdfrwt beam="1">  1        2 0.27813186E+00 0.19497086E+04</pdfrwt>
<pdfrwt beam="2">  1       -2 0.80872702E-01 0.19497086E+04</pdfrwt>
<totfact> 0.10748360E+01</totfact>
</mgrwt>
</event>
<event>
12    1  0.1506149E-007  0.2136436E+04  0.7818608E-02  0.8545361E-01
          2   -1    0    0  501    0  0.00000000000E+00  0.00000000000E+00  0.17610484237E+04  0.17610484237E+04  0.00000000000E+00 0. -1.
         -2   -1    0    0    0  501 -0.00000000000E+00 -0.00000000000E+00 -0.64796062549E+03  0.64796062549E+03  0.00000000000E+00 0.  1.
         23    2    1    2    0    0  0.50426686535E+03  0.63573270774E+03  0.84177174369E+03  0.11721197823E+04  0.82728280398E+02 0.  0.
        254    2    1    2    0    0 -0.50426686535E+03 -0.63573270774E+03  0.27131605452E+03  0.12368892669E+04  0.89321974339E+03 0.  0.
        -24    2    4    4    0    0 -0.34699969806E+03 -0.90740562045E+02  0.49982267757E+03  0.62027206163E+03  0.79196473265E+02 0.  0.
         24    2    4    4    0    0 -0.15726716729E+03 -0.54499214569E+03 -0.22850662305E+03  0.61661720527E+03  0.79070223764E+02 0.  0.
         11    1    3    3    0    0  0.83046076867E+01  0.36190449692E+02  0.46652391047E+02  0.59625168747E+02  0.00000000000E+00 0.  1.
        -11    1    3    3    0    0  0.49596225766E+03  0.59954225805E+03  0.79511935265E+03  0.11124946135E+04  0.00000000000E+00 0. -1.
          2    1    6    6  502    0 -0.16482285521E+03 -0.48764884922E+03 -0.20150402855E+03  0.55278553460E+03  0.00000000000E+00 0. -1.
          1    1    5    5  503    0 -0.28838244500E+03 -0.61171257828E+02  0.35629845228E+03  0.46244453123E+03  0.00000000000E+00 0. -1.
         -2    1    5    5    0  503 -0.58617253058E+02 -0.29569304217E+02  0.14352422529E+03  0.15782753040E+03  0.00000000000E+00 0.  1.
         -1    1    6    6    0  502  0.75556879263E+01 -0.57343296478E+02 -0.27002594501E+02  0.63831670672E+02  0.00000000000E+00 0.  1.
<mgrwt>
<rscale>  0 0.21364363E+04</rscale>
<asrwt>0</asrwt>
<pdfrwt beam="1">  1        2 0.27093052E+00 0.21364363E+04</pdfrwt>
<pdfrwt beam="2">  1       -2 0.99686251E-01 0.21364363E+04</pdfrwt>
<totfact> 0.69348903E+00</totfact>
</mgrwt>
</event>
<event>
12    1  0.1637007E-007  0.1732151E+04  0.7818608E-02  0.8743237E-01
          1   -1    0    0  501    0  0.00000000000E+00  0.00000000000E+00  0.14734811143E+04  0.14734811143E+04  0.00000000000E+00 0. -1.
         -1   -1    0    0    0  501 -0.00000000000E+00 -0.00000000000E+00 -0.50905748290E+03  0.50905748290E+03  0.00000000000E+00 0.  1.
         23    2    1    2    0    0 -0.35135832886E+03  0.39236496420E+03 -0.38410803152E+02  0.53582056826E+03  0.90693721838E+02 0.  0.
        254    2    1    2    0    0  0.35135832886E+03 -0.39236496420E+03  0.10028344345E+04  0.14467180289E+04  0.89995178301E+03 0.  0.
        -24    2    4    4    0    0  0.58134767916E+02  0.27065979658E+03  0.43722119473E+03  0.52372327908E+03  0.80543920949E+02 0.  0.
         24    2    4    4    0    0  0.29322356094E+03 -0.66302476078E+03  0.56561323978E+03  0.92299474983E+03  0.80119168110E+02 0.  0.
         11    1    3    3    0    0 -0.34489385675E+03  0.38656913058E+03 -0.50959019705E+02  0.52056151109E+03  0.00000000000E+00 0.  1.
        -11    1    3    3    0    0 -0.64644721085E+01  0.57958336228E+01  0.12548216553E+02  0.15259057169E+02  0.00000000000E+00 0. -1.
          4    1    6    6  502    0  0.13833268004E+03 -0.26672751266E+03  0.19053265175E+03  0.35578390599E+03  0.00000000000E+00 0. -1.
          3    1    5    5  503    0  0.35675082286E+02  0.14468248792E+03  0.30644642453E+03  0.34075672395E+03  0.00000000000E+00 0. -1.
         -4    1    5    5    0  503  0.22459685630E+02  0.12597730866E+03  0.13077477020E+03  0.18296655513E+03  0.00000000000E+00 0.  1.
         -3    1    6    6    0  502  0.15489088090E+03 -0.39629724812E+03  0.37508058803E+03  0.56721084384E+03  0.00000000000E+00 0.  1.
<mgrwt>
<rscale>  0 0.17321508E+04</rscale>
<asrwt>0</asrwt>
<pdfrwt beam="1">  1        1 0.22668940E+00 0.17321508E+04</pdfrwt>
<pdfrwt beam="2">  1       -1 0.78316537E-01 0.17321508E+04</pdfrwt>
<totfact> 0.10571372E+01</totfact>
</mgrwt>
</event>
<event>
12    1  0.1506149E-007  0.1095346E+04  0.7818608E-02  0.9209740E-01
          1   -1    0    0  501    0  0.00000000000E+00  0.00000000000E+00  0.29173943858E+03  0.29173943858E+03  0.00000000000E+00 0. -1.
         -1   -1    0    0    0  501 -0.00000000000E+00 -0.00000000000E+00 -0.10281281770E+04  0.10281281770E+04  0.00000000000E+00 0.  1.
         23    2    1    2    0    0  0.11642572924E+02 -0.97155278904E+02  0.21616307141E+02  0.13482180781E+03  0.90193998712E+02 0.  0.
        254    2    1    2    0    0 -0.11642572924E+02  0.97155278904E+02 -0.75800504557E+03  0.11850458078E+04  0.90564188271E+03 0.  0.
        -24    2    4    4    0    0 -0.31603464426E+03 -0.16500427305E+02 -0.78459872960E+03  0.84973366654E+03  0.79384992829E+02 0.  0.
         24    2    4    4    0    0  0.30439207133E+03  0.11365570621E+03  0.26593684026E+02  0.33531214125E+03  0.78452886468E+02 0.  0.
         11    1    3    3    0    0  0.53623167918E+01  0.15816739863E+02  0.13336980196E+02  0.21372850583E+02  0.00000000000E+00 0.  1.
        -11    1    3    3    0    0  0.62802561326E+01 -0.11297201877E+03  0.82793269444E+01  0.11344895723E+03  0.00000000000E+00 0. -1.
          2    1    6    6  502    0  0.52814327072E+02  0.45565381025E+01  0.30325176914E+02  0.61071528050E+02  0.00000000000E+00 0. -1.
          1    1    5    5  503    0  0.16893654207E+01  0.40853619256E+01 -0.20097442160E+01  0.48562546681E+01  0.00000000000E+00 0. -1.
         -2    1    5    5    0  503 -0.31772400968E+03 -0.20585789230E+02 -0.78258898538E+03  0.84487741187E+03  0.00000000000E+00 0.  1.
         -1    1    6    6    0  502  0.25157774426E+03  0.10909916811E+03 -0.37314928871E+01  0.27424061320E+03  0.00000000000E+00 0.  1.
<mgrwt>
<rscale>  0 0.10953457E+04</rscale>
<asrwt>0</asrwt>
<pdfrwt beam="1">  1        1 0.44882991E-01 0.10953457E+04</pdfrwt>
<pdfrwt beam="2">  1       -1 0.15817356E+00 0.10953457E+04</pdfrwt>
<totfact> 0.27352591E+01</totfact>
</mgrwt>
</event>
<event>
12    1  0.1506149E-007  0.1448854E+04  0.7818608E-02  0.8919195E-01
         -2   -1    0    0    0  501 -0.00000000000E+00  0.00000000000E+00  0.20024483645E+03  0.20024483645E+03  0.00000000000E+00 0.  1.
          2   -1    0    0  501    0  0.00000000000E+00 -0.00000000000E+00 -0.26207648402E+04  0.26207648402E+04  0.00000000000E+00 0. -1.
         23    2    1    2    0    0  0.31725667872E+03 -0.19574590973E+03 -0.12164833065E+04  0.12755898464E+04  0.91266421451E+02 0.  0.
        254    2    1    2    0    0 -0.31725667872E+03  0.19574590973E+03 -0.12040366972E+04  0.15454198303E+04  0.89423141425E+03 0.  0.
        -24    2    4    4    0    0 -0.24771264053E+03  0.54082043995E+03 -0.84255787270E+03  0.10347082633E+04  0.82880159139E+02 0.  0.
         24    2    4    4    0    0 -0.69544038183E+02 -0.34507453022E+03 -0.36147882452E+03  0.51071156698E+03  0.79035178352E+02 0.  0.
         13    1    3    3    0    0  0.91323405333E+02 -0.68831060949E+02 -0.24904141619E+03  0.27404252643E+03  0.00000000000E+00 0. -1.
        -13    1    3    3    0    0  0.22593327338E+03 -0.12691484878E+03 -0.96744189034E+03  0.10015473199E+04  0.00000000000E+00 0.  1.
          4    1    6    6  502    0 -0.69071865228E+02 -0.34353562241E+03 -0.33695199630E+03  0.48613197204E+03  0.00000000000E+00 0. -1.
          1    1    5    5  503    0 -0.14001072671E+03  0.36381287520E+03 -0.60230786733E+03  0.71745214391E+03  0.00000000000E+00 0. -1.
         -2    1    5    5    0  503 -0.10770191383E+03  0.17700756474E+03 -0.24025000537E+03  0.31725611941E+03  0.00000000000E+00 0.  1.
         -1    1    6    6    0  502 -0.47217295477E+00 -0.15389078053E+01 -0.24526828226E+02  0.24579594939E+02  0.00000000000E+00 0.  1.
<mgrwt>
<rscale>  0 0.14488542E+04</rscale>
<asrwt>0</asrwt>
<pdfrwt beam="1">  1        2 0.40319458E+00 0.14488542E+04</pdfrwt>
<pdfrwt beam="2">  1       -2 0.30806899E-01 0.14488542E+04</pdfrwt>
<totfact> 0.28118359E+01</totfact>
</mgrwt>
</event>
<event>
12    1  0.1506149E-007  0.1328664E+04  0.7818608E-02  0.9007138E-01
          1   -1    0    0  501    0  0.00000000000E+00  0.00000000000E+00  0.99154378461E+03  0.99154378461E+03  0.00000000000E+00 0. -1.
         -1   -1    0    0    0  501 -0.00000000000E+00 -0.00000000000E+00 -0.44510116657E+03  0.44510116657E+03  0.00000000000E+00 0.  1.
         23    2    1    2    0    0  0.21050478408E+03 -0.13697327388E+03  0.42001915210E+03  0.49629169892E+03  0.82555559534E+02 0.  0.
        254    2    1    2    0    0 -0.21050478408E+03  0.13697327388E+03  0.12642346593E+03  0.94035325225E+03  0.89733349676E+03 0.  0.
        -24    2    4    4    0    0 -0.13514465835E+03 -0.27338243129E+03  0.34087806421E+03  0.46454920745E+03  0.81277789459E+02 0.  0.
         24    2    4    4    0    0 -0.75360125731E+02  0.41035570517E+03 -0.21445459828E+03  0.47580404481E+03  0.79547225050E+02 0.  0.
         13    1    3    3    0    0  0.21722635366E+03 -0.12553340332E+03  0.40293216193E+03  0.47465803605E+03  0.00000000000E+00 0. -1.
        -13    1    3    3    0    0 -0.67215695778E+01 -0.11439870563E+02  0.17086990175E+02  0.21633662874E+02  0.00000000000E+00 0.  1.
          4    1    6    6  502    0 -0.85896525066E+02  0.25627936786E+03 -0.13772483606E+03  0.30335698093E+03  0.00000000000E+00 0. -1.
          3    1    5    5  503    0 -0.92533155579E+02 -0.25058806875E+03  0.28328768820E+03  0.38936959225E+03  0.00000000000E+00 0. -1.
         -4    1    5    5    0  503 -0.42611502770E+02 -0.22794362536E+02  0.57590376018E+02  0.75179615200E+02  0.00000000000E+00 0.  1.
         -1    1    6    6    0  502  0.10536399335E+02  0.15407633731E+03 -0.76729762224E+02  0.17244706388E+03  0.00000000000E+00 0.  1.
<mgrwt>
<rscale>  0 0.13286644E+04</rscale>
<asrwt>0</asrwt>
<pdfrwt beam="1">  1        1 0.15254520E+00 0.13286644E+04</pdfrwt>
<pdfrwt beam="2">  1       -1 0.68477103E-01 0.13286644E+04</pdfrwt>
<totfact> 0.32518077E+01</totfact>
</mgrwt>
</event>
<event>
12    1  0.1506149E-007  0.1158198E+04  0.7818608E-02  0.9150254E-01
         -1   -1    0    0    0  501 -0.00000000000E+00  0.00000000000E+00  0.74883149217E+03  0.74883149217E+03  0.00000000000E+00 0. -1.
          1   -1    0    0  501    0  0.00000000000E+00 -0.00000000000E+00 -0.44783871762E+03  0.44783871762E+03  0.00000000000E+00 0.  1.
         23    2    1    2    0    0 -0.15780833289E+02 -0.21048468798E+03  0.85321031352E+02  0.24520004717E+03  0.91052436379E+02 0.  0.
        254    2    1    2    0    0  0.15780833289E+02  0.21048468798E+03  0.21567174320E+03  0.95147016261E+03  0.90234601510E+03 0.  0.
        -24    2    4    4    0    0  0.47112509579E+02  0.53892873140E+03 -0.44392023806E+01  0.54677591264E+03  0.79249139075E+02 0.  0.
         24    2    4    4    0    0 -0.31331676290E+02 -0.32844404342E+03  0.22011094558E+03  0.40469424997E+03  0.80445285741E+02 0.  0.
         11    1    3    3    0    0  0.85535287742E+01 -0.47889454197E+02 -0.17024927296E+02  0.51540380550E+02  0.00000000000E+00 0.  1.
        -11    1    3    3    0    0 -0.24334362063E+02 -0.16259523378E+03  0.10234595865E+03  0.19365966662E+03  0.00000000000E+00 0. -1.
          4    1    6    6  502    0  0.11771665393E+02 -0.65581536061E+01  0.16831793597E+02  0.21561325574E+02  0.00000000000E+00 0. -1.
          3    1    5    5  503    0 -0.95404652069E+01  0.15078233542E+03  0.26132753111E+02  0.15332727721E+03  0.00000000000E+00 0. -1.
         -4    1    5    5    0  503  0.56652974786E+02  0.38814639598E+03 -0.30571955491E+02  0.39344863544E+03  0.00000000000E+00 0.  1.
         -3    1    6    6    0  502 -0.43103341682E+02 -0.32188588982E+03  0.20327915198E+03  0.38313292440E+03  0.00000000000E+00 0.  1.
<mgrwt>
<rscale>  0 0.11581981E+04</rscale>
<asrwt>0</asrwt>
<pdfrwt beam="1">  1        1 0.68898264E-01 0.11581981E+04</pdfrwt>
<pdfrwt beam="2">  1       -1 0.11520485E+00 0.11581981E+04</pdfrwt>
<totfact> 0.34981143E+01</totfact>
</mgrwt>
</event>
<event>
12    1  0.1506149E-007  0.1425984E+04  0.7818608E-02  0.8935222E-01
         -2   -1    0    0    0  501 -0.00000000000E+00  0.00000000000E+00  0.23004183805E+03  0.23004183805E+03  0.00000000000E+00 0. -1.
          2   -1    0    0  501    0  0.00000000000E+00 -0.00000000000E+00 -0.22098493137E+04  0.22098493137E+04  0.00000000000E+00 0.  1.
         23    2    1    2    0    0  0.15151535222E+03  0.53823734346E+02 -0.12304405403E+04  0.12442311767E+04  0.90958240338E+02 0.  0.
        254    2    1    2    0    0 -0.15151535222E+03 -0.53823734346E+02 -0.74936693530E+03  0.11956599750E+04  0.91771350421E+03 0.  0.
        -24    2    4    4    0    0  0.35630905831E+03  0.70406895461E+01 -0.12846312983E+03  0.38716853870E+03  0.79943638221E+02 0.  0.
         24    2    4    4    0    0 -0.50782441053E+03 -0.60864423892E+02 -0.62090380547E+03  0.80849143631E+03  0.80912032020E+02 0.  0.
         11    1    3    3    0    0  0.16240989231E+03  0.47185191863E+02 -0.10699367323E+04  0.10832211347E+04  0.00000000000E+00 0.  1.
        -11    1    3    3    0    0 -0.10894540095E+02  0.66385424830E+01 -0.16050380798E+03  0.16101004201E+03  0.00000000000E+00 0. -1.
          2    1    6    6  502    0 -0.19576882716E+01  0.71280686341E+01 -0.82327774466E+01  0.11064381153E+02  0.00000000000E+00 0. -1.
          3    1    5    5  503    0  0.26608168027E+03  0.39359788211E+02 -0.86501856312E+02  0.28254419946E+03  0.00000000000E+00 0. -1.
         -4    1    5    5    0  503  0.90227378041E+02 -0.32319098664E+02 -0.41961273522E+02  0.10462433924E+03  0.00000000000E+00 0.  1.
         -1    1    6    6    0  502 -0.50586672226E+03 -0.67992492526E+02 -0.61267102802E+03  0.79742705516E+03  0.00000000000E+00 0.  1.
<mgrwt>
<rscale>  0 0.14259843E+04</rscale>
<asrwt>0</asrwt>
<pdfrwt beam="1">  1        2 0.33997682E+00 0.14259843E+04</pdfrwt>
<pdfrwt beam="2">  1       -2 0.35391052E-01 0.14259843E+04</pdfrwt>
<totfact> 0.37197820E+01</totfact>
</mgrwt>
</event>
<event>
12    1  0.1506149E-007  0.1208796E+04  0.7818608E-02  0.9105192E-01
          1   -1    0    0  501    0  0.00000000000E+00  0.00000000000E+00  0.11454684444E+04  0.11454684444E+04  0.00000000000E+00 0. -1.
         -1   -1    0    0    0  501 -0.00000000000E+00 -0.00000000000E+00 -0.31890629523E+03  0.31890629523E+03  0.00000000000E+00 0.  1.
         23    2    1    2    0    0 -0.19475860097E+03 -0.16448017331E+03  0.20147685067E+03  0.33946077932E+03  0.98265249602E+02 0.  0.
        254    2    1    2    0    0  0.19475860097E+03  0.16448017331E+03  0.62508529851E+03  0.11249139603E+04  0.89984173477E+03 0.  0.
        -24    2    4    4    0    0 -0.20298208170E+03 -0.21667665382E+03  0.44012428207E+03  0.53814613875E+03  0.87985141844E+02 0.  0.
         24    2    4    4    0    0  0.39774068267E+03  0.38115682713E+03  0.18496101644E+03  0.58676782156E+03  0.81287891466E+02 0.  0.
         13    1    3    3    0    0 -0.18864662675E+03 -0.13560529850E+03  0.13995726857E+03  0.27122754984E+03  0.00000000000E+00 0. -1.
        -13    1    3    3    0    0 -0.61119742162E+01 -0.28874874811E+02  0.61519582097E+02  0.68233229482E+02  0.00000000000E+00 0.  1.
          2    1    6    6  502    0  0.30690703844E+02  0.60281333886E+02  0.37905505911E+02  0.77540865973E+02  0.00000000000E+00 0. -1.
          1    1    5    5  503    0 -0.28159966524E+02  0.35876287135E+01  0.37214275380E+02  0.46805524102E+02  0.00000000000E+00 0. -1.
         -2    1    5    5    0  503 -0.17482211517E+03 -0.22026428253E+03  0.40291000669E+03  0.49134061465E+03  0.00000000000E+00 0.  1.
         -1    1    6    6    0  502  0.36704997882E+03  0.32087549324E+03  0.14705551053E+03  0.50922695559E+03  0.00000000000E+00 0.  1.
<mgrwt>
<rscale>  0 0.12087963E+04</rscale>
<asrwt>0</asrwt>
<pdfrwt beam="1">  1        1 0.17622591E+00 0.12087963E+04</pdfrwt>
<pdfrwt beam="2">  1       -1 0.49062508E-01 0.12087963E+04</pdfrwt>
<totfact> 0.48233732E+01</totfact>
</mgrwt>
</event>
<event>
12    1  0.1506149E-007  0.2684478E+04  0.7818608E-02  0.8340059E-01
         -2   -1    0    0    0  501 -0.00000000000E+00  0.00000000000E+00  0.50436952209E+03  0.50436952209E+03  0.00000000000E+00 0.  1.
          2   -1    0    0  501    0  0.00000000000E+00 -0.00000000000E+00 -0.35719951729E+04  0.35719951729E+04  0.00000000000E+00 0. -1.
         23    2    1    2    0    0 -0.74530910235E+03 -0.33187743131E+03 -0.47589083296E+02  0.82197623204E+03  0.88044975590E+02 0.  0.
        254    2    1    2    0    0  0.74530910235E+03  0.33187743131E+03 -0.30200365675E+04  0.32543884629E+04  0.89710373493E+03 0.  0.
        -24    2    4    4    0    0  0.28252431305E+03 -0.81737458631E+02 -0.19608419730E+03  0.36164842134E+03  0.76417070243E+02 0.  0.
         24    2    4    4    0    0  0.46278478931E+03  0.41361488994E+03 -0.28239523702E+04  0.28927400416E+04  0.89391949850E+02 0.  0.
         11    1    3    3    0    0 -0.70746991748E+03 -0.29992795866E+03 -0.60496162140E+02  0.77079844976E+03  0.00000000000E+00 0.  1.
        -11    1    3    3    0    0 -0.37839184877E+02 -0.31949472651E+02  0.12907078844E+02  0.51177782280E+02  0.00000000000E+00 0. -1.
          4    1    6    6  502    0  0.41979604115E+03  0.39081175587E+03 -0.24862010711E+04  0.25515011877E+04  0.00000000000E+00 0. -1.
          1    1    5    5  503    0  0.25727036898E+03 -0.48188618044E+02 -0.16512098112E+03  0.30947556297E+03  0.00000000000E+00 0. -1.
         -2    1    5    5    0  503  0.25253944064E+02 -0.33548840587E+02 -0.30963216176E+02  0.52172858379E+02  0.00000000000E+00 0.  1.
         -3    1    6    6    0  502  0.42988748153E+02  0.22803134067E+02 -0.33775129907E+03  0.34123885390E+03  0.00000000000E+00 0.  1.
<mgrwt>
<rscale>  0 0.26844780E+04</rscale>
<asrwt>0</asrwt>
<pdfrwt beam="1">  1        2 0.54953769E+00 0.26844780E+04</pdfrwt>
<pdfrwt beam="2">  1       -2 0.77595315E-01 0.26844780E+04</pdfrwt>
<totfact> 0.94054386E-01</totfact>
</mgrwt>
</event>
<event>
12    1  0.1506149E-007  0.2755701E+04  0.7818608E-02  0.8317155E-01
         -2   -1    0    0    0  501 -0.00000000000E+00  0.00000000000E+00  0.10692294978E+04  0.10692294978E+04  0.00000000000E+00 0.  1.
          2   -1    0    0  501    0  0.00000000000E+00 -0.00000000000E+00 -0.17755516969E+04  0.17755516969E+04  0.00000000000E+00 0. -1.
         23    2    1    2    0    0  0.29470194302E+03 -0.35956315193E+03 -0.14927486425E+04  0.15661009079E+04  0.90767002366E+02 0.  0.
        254    2    1    2    0    0 -0.29470194302E+03  0.35956315193E+03  0.78642644343E+03  0.12786802868E+04  0.89466296976E+03 0.  0.
        -24    2    4    4    0    0  0.17764726097E+03 -0.27103462052E+02  0.60634322322E+03  0.63738248288E+03  0.79442923897E+02 0.  0.
         24    2    4    4    0    0 -0.47234920400E+03  0.38666661399E+03  0.18008322022E+03  0.64129780392E+03  0.78791282615E+02 0.  0.
         11    1    3    3    0    0  0.80108959628E+02 -0.15902014561E+03 -0.63297266601E+03  0.65754030146E+03  0.00000000000E+00 0.  1.
        -11    1    3    3    0    0  0.21459298340E+03 -0.20054300633E+03 -0.85977597646E+03  0.90856060646E+03  0.00000000000E+00 0. -1.
          2    1    6    6  502    0 -0.28929411426E+03  0.26268567675E+03  0.14820158673E+03  0.41792171471E+03  0.00000000000E+00 0. -1.
          1    1    5    5  503    0  0.88805239026E+02 -0.12593247569E-01  0.41865121530E+03  0.42796636633E+03  0.00000000000E+00 0. -1.
         -2    1    5    5    0  503  0.88842021946E+02 -0.27090868805E+02  0.18769200792E+03  0.20941611656E+03  0.00000000000E+00 0.  1.
         -1    1    6    6    0  502 -0.18305508973E+03  0.12398093724E+03  0.31881633487E+02  0.22337608920E+03  0.00000000000E+00 0.  1.
<mgrwt>
<rscale>  0 0.27557012E+04</rscale>
<asrwt>0</asrwt>
<pdfrwt beam="1">  1        2 0.27316180E+00 0.27557012E+04</pdfrwt>
<pdfrwt beam="2">  1       -2 0.16449685E+00 0.27557012E+04</pdfrwt>
<totfact> 0.18155170E+00</totfact>
</mgrwt>
</event>
<event>
12    1  0.1506149E-007  0.1358239E+04  0.7818608E-02  0.8984614E-01
          2   -1    0    0  501    0  0.00000000000E+00  0.00000000000E+00  0.11272123512E+04  0.11272123512E+04  0.00000000000E+00 0. -1.
         -2   -1    0    0    0  501 -0.00000000000E+00 -0.00000000000E+00 -0.40915398799E+03  0.40915398799E+03  0.00000000000E+00 0.  1.
         23    2    1    2    0    0 -0.14503216570E+03 -0.21491821887E+03 -0.11018607070E+03  0.29595194094E+03  0.90677512525E+02 0.  0.
        254    2    1    2    0    0  0.14503216570E+03  0.21491821887E+03  0.82824443395E+03  0.12404143983E+04  0.88623634953E+03 0.  0.
        -24    2    4    4    0    0 -0.32654335652E+03  0.18109303939E+03  0.59659264382E+03  0.70847166181E+03  0.81142222842E+02 0.  0.
         24    2    4    4    0    0  0.47157552222E+03  0.33825179481E+02  0.23165179013E+03  0.53194273648E+03  0.75979649223E+02 0.  0.
         11    1    3    3    0    0 -0.45933232759E+01  0.45397982209E+01 -0.18742032160E+02  0.19823525319E+02  0.00000000000E+00 0. -1.
        -11    1    3    3    0    0 -0.14043884243E+03 -0.21945801709E+03 -0.91444038545E+02  0.27612841562E+03  0.00000000000E+00 0.  1.
          4    1    6    6  502    0  0.38685012203E+03  0.39807434507E+02  0.15888300140E+03  0.42009696130E+03  0.00000000000E+00 0. -1.
          1    1    5    5  503    0 -0.16765097785E+03  0.51521510432E+02  0.30850901910E+03  0.35487903753E+03  0.00000000000E+00 0. -1.
         -2    1    5    5    0  503 -0.15889237867E+03  0.12957152895E+03  0.28808362472E+03  0.35359262428E+03  0.00000000000E+00 0.  1.
         -3    1    6    6    0  502  0.84725400187E+02 -0.59822550257E+01  0.72768788727E+02  0.11184577518E+03  0.00000000000E+00 0.  1.
<mgrwt>
<rscale>  0 0.13582392E+04</rscale>
<asrwt>0</asrwt>
<pdfrwt beam="1">  1        2 0.17341728E+00 0.13582392E+04</pdfrwt>
<pdfrwt beam="2">  1       -2 0.62946768E-01 0.13582392E+04</pdfrwt>
<totfact> 0.47863805E+01</totfact>
</mgrwt>
</event>
<event>
12    1  0.1506149E-007  0.1037434E+04  0.7818608E-02  0.9268415E-01
         -2   -1    0    0    0  501 -0.00000000000E+00  0.00000000000E+00  0.19389698750E+03  0.19389698750E+03  0.00000000000E+00 0.  1.
          2   -1    0    0  501    0  0.00000000000E+00 -0.00000000000E+00 -0.13876809865E+04  0.13876809865E+04  0.00000000000E+00 0. -1.
         23    2    1    2    0    0  0.34954981595E+02 -0.50655486315E+02 -0.47445657969E+02  0.12219603249E+03  0.94302443570E+02 0.  0.
        254    2    1    2    0    0 -0.34954981595E+02  0.50655486315E+02 -0.11463383410E+04  0.14593819415E+04  0.90106394338E+03 0.  0.
        -24    2    4    4    0    0  0.17425262404E+03  0.34890654106E+03 -0.96541743231E+03  0.10441608376E+04  0.78366350053E+02 0.  0.
         24    2    4    4    0    0 -0.20920760563E+03 -0.29825105475E+03 -0.18092090874E+03  0.41522110391E+03  0.83394700088E+02 0.  0.
         11    1    3    3    0    0 -0.11936836503E+02  0.12193062765E+02 -0.39929310242E+02  0.43422444216E+02  0.00000000000E+00 0. -1.
        -11    1    3    3    0    0  0.46891818098E+02 -0.62848549080E+02 -0.75163477276E+01  0.78773588272E+02  0.00000000000E+00 0.  1.
          4    1    6    6  502    0 -0.96904471613E+02 -0.10920547722E+03 -0.11443108997E+03  0.18550144804E+03  0.00000000000E+00 0. -1.
          3    1    5    5  503    0  0.17570108368E+03  0.33241432561E+03 -0.87690633515E+03  0.95411470762E+03  0.00000000000E+00 0. -1.
         -4    1    5    5    0  503 -0.14484596453E+01  0.16492215453E+02 -0.88511097164E+02  0.90046129995E+02  0.00000000000E+00 0.  1.
         -3    1    6    6    0  502 -0.11230313402E+03 -0.18904557753E+03 -0.66489818766E+02  0.22971965587E+03  0.00000000000E+00 0.  1.
<mgrwt>
<rscale>  0 0.10374337E+04</rscale>
<asrwt>0</asrwt>
<pdfrwt beam="1">  1        2 0.21348938E+00 0.10374337E+04</pdfrwt>
<pdfrwt beam="2">  1       -2 0.29830306E-01 0.10374337E+04</pdfrwt>
<totfact> 0.15170689E+02</totfact>
</mgrwt>
</event>
<event>
12    1  0.1506149E-007  0.1327083E+04  0.7818608E-02  0.9008359E-01
         -1   -1    0    0    0  501 -0.00000000000E+00  0.00000000000E+00  0.12860021892E+04  0.12860021892E+04  0.00000000000E+00 0.  1.
          1   -1    0    0  501    0  0.00000000000E+00 -0.00000000000E+00 -0.34236912290E+03  0.34236912290E+03  0.00000000000E+00 0. -1.
         23    2    1    2    0    0  0.28956584315E+03 -0.95702119011E+02  0.43849973970E+03  0.54335326606E+03  0.99716984104E+02 0.  0.
        254    2    1    2    0    0 -0.28956584315E+03  0.95702119011E+02  0.50513332656E+03  0.10850180460E+04  0.91054775243E+03 0.  0.
        -24    2    4    4    0    0 -0.57496314773E+03  0.82088087988E+02  0.11929585341E+03  0.59828729523E+03  0.79969441431E+02 0.  0.
         24    2    4    4    0    0  0.28539730458E+03  0.13614031023E+02  0.38583747315E+03  0.48673075077E+03  0.79995654644E+02 0.  0.
         11    1    3    3    0    0  0.14649541403E+03 -0.32775355760E+02  0.13463416411E+03  0.20164694002E+03  0.00000000000E+00 0. -1.
        -11    1    3    3    0    0  0.14307042912E+03 -0.62926763251E+02  0.30386557559E+03  0.34170632604E+03  0.00000000000E+00 0.  1.
          4    1    6    6  502    0  0.16769649309E+03 -0.20681325076E+02  0.17796948923E+03  0.24540368803E+03  0.00000000000E+00 0. -1.
          3    1    5    5  503    0 -0.27247761587E+03  0.74998545245E+02  0.39367237928E+02  0.28533946864E+03  0.00000000000E+00 0. -1.
         -4    1    5    5    0  503 -0.30248553186E+03  0.70895427428E+01  0.79928615486E+02  0.31294782660E+03  0.00000000000E+00 0.  1.
         -3    1    6    6    0  502  0.11770081149E+03  0.34295356099E+02  0.20786798392E+03  0.24132706275E+03  0.00000000000E+00 0.  1.
<mgrwt>
<rscale>  0 0.13270832E+04</rscale>
<asrwt>0</asrwt>
<pdfrwt beam="1">  1        1 0.52672174E-01 0.13270832E+04</pdfrwt>
<pdfrwt beam="2">  1       -1 0.19784649E+00 0.13270832E+04</pdfrwt>
<totfact> 0.11260262E+01</totfact>
</mgrwt>
</event>
<event>
12    1  0.1506149E-007  0.2331848E+04  0.7818608E-02  0.8465469E-01
         -2   -1    0    0    0  501 -0.00000000000E+00  0.00000000000E+00  0.68864866295E+03  0.68864866295E+03  0.00000000000E+00 0.  1.
          2   -1    0    0  501    0  0.00000000000E+00 -0.00000000000E+00 -0.19739805740E+04  0.19739805740E+04  0.00000000000E+00 0. -1.
         23    2    1    2    0    0 -0.71178107086E+03  0.65783914262E+03 -0.35168260807E+03  0.10348816261E+04  0.88964559760E+02 0.  0.
        254    2    1    2    0    0  0.71178107086E+03 -0.65783914262E+03 -0.93364930302E+03  0.16277476109E+04  0.91568369714E+03 0.  0.
        -24    2    4    4    0    0  0.18494024105E+02 -0.59180973650E+03 -0.24693379273E+03  0.64641410560E+03  0.79335394237E+02 0.  0.
         24    2    4    4    0    0  0.69328704675E+03 -0.66029406120E+02 -0.68671551029E+03  0.98133350525E+03  0.80190054163E+02 0.  0.
         11    1    3    3    0    0 -0.56432631910E+03  0.49224657967E+03 -0.23832498717E+03  0.78585602316E+03  0.00000000000E+00 0.  1.
        -11    1    3    3    0    0 -0.14745475176E+03  0.16559256295E+03 -0.11335762090E+03  0.24902560298E+03  0.00000000000E+00 0. -1.
          4    1    6    6  502    0  0.39609575412E+03 -0.70595226606E+02 -0.42604662216E+03  0.58599595281E+03  0.00000000000E+00 0. -1.
          3    1    5    5  503    0  0.91548031612E+01 -0.15465690876E+02 -0.20113437354E+02  0.26973104704E+02  0.00000000000E+00 0. -1.
         -4    1    5    5    0  503  0.93392209434E+01 -0.57634404563E+03 -0.22682035537E+03  0.61944100090E+03  0.00000000000E+00 0.  1.
         -3    1    6    6    0  502  0.29719129263E+03  0.45658204864E+01 -0.26066888813E+03  0.39533755245E+03  0.00000000000E+00 0.  1.
<mgrwt>
<rscale>  0 0.23318483E+04</rscale>
<asrwt>0</asrwt>
<pdfrwt beam="1">  1        2 0.30368932E+00 0.23318483E+04</pdfrwt>
<pdfrwt beam="2">  1       -2 0.10594595E+00 0.23318483E+04</pdfrwt>
<totfact> 0.44934301E+00</totfact>
</mgrwt>
</event>
<event>
12    1  0.1506149E-007  0.1498614E+04  0.7818608E-02  0.8885375E-01
         -2   -1    0    0    0  501 -0.00000000000E+00  0.00000000000E+00  0.14227446515E+04  0.14227446515E+04  0.00000000000E+00 0.  1.
          2   -1    0    0  501    0  0.00000000000E+00 -0.00000000000E+00 -0.39463213641E+03  0.39463213641E+03  0.00000000000E+00 0. -1.
         23    2    1    2    0    0 -0.42604858401E+03  0.12275312413E+03  0.52725769667E+03  0.69479122051E+03  0.90268687746E+02 0.  0.
        254    2    1    2    0    0  0.42604858401E+03 -0.12275312413E+03  0.50085481845E+03  0.11225855674E+04  0.90153041081E+03 0.  0.
        -24    2    4    4    0    0 -0.68852046956E+02 -0.40130115046E+03  0.31407702361E+03  0.51978520059E+03  0.75822557764E+02 0.  0.
         24    2    4    4    0    0  0.49490063096E+03  0.27854802633E+03  0.18677779484E+03  0.60280036684E+03  0.77244418042E+02 0.  0.
         11    1    3    3    0    0 -0.30377095536E+02  0.21948195129E+02  0.16662648955E+02  0.41013840015E+02  0.00000000000E+00 0. -1.
        -11    1    3    3    0    0 -0.39567148847E+03  0.10080492900E+03  0.51059504772E+03  0.65377738050E+03  0.00000000000E+00 0.  1.
          4    1    6    6  502    0  0.56188581763E+02  0.56680988877E+01  0.17605220905E+02  0.59154271770E+02  0.00000000000E+00 0. -1.
          3    1    5    5  503    0 -0.46497924589E+02 -0.16011065939E+03  0.16919474194E+03  0.23753808313E+03  0.00000000000E+00 0. -1.
         -4    1    5    5    0  503 -0.22354122367E+02 -0.24119049107E+03  0.14488228167E+03  0.28224711746E+03  0.00000000000E+00 0.  1.
         -3    1    6    6    0  502  0.43871204920E+03  0.27287992744E+03  0.16917257394E+03  0.54364609507E+03  0.00000000000E+00 0.  1.
<mgrwt>
<rscale>  0 0.14986137E+04</rscale>
<asrwt>0</asrwt>
<pdfrwt beam="1">  1        2 0.60712637E-01 0.14986137E+04</pdfrwt>
<pdfrwt beam="2">  1       -2 0.21888379E+00 0.14986137E+04</pdfrwt>
<totfact> 0.78331115E+00</totfact>
</mgrwt>
</event>
<event>
12    1  0.1506149E-007  0.2032776E+04  0.7818608E-02  0.8591448E-01
          2   -1    0    0  501    0  0.00000000000E+00  0.00000000000E+00  0.12513438463E+04  0.12513438463E+04  0.00000000000E+00 0. -1.
         -2   -1    0    0    0  501 -0.00000000000E+00 -0.00000000000E+00 -0.82554843730E+03  0.82554843730E+03  0.00000000000E+00 0.  1.
         23    2    1    2    0    0  0.19582581877E+03 -0.53105182426E+03  0.77302247565E+03  0.96232052890E+03  0.90184594722E+02 0.  0.
        254    2    1    2    0    0 -0.19582581877E+03  0.53105182426E+03 -0.34722706668E+03  0.11145717547E+04  0.89517583140E+03 0.  0.
        -24    2    4    4    0    0 -0.30230427267E+03 -0.28710669844E+02 -0.43063201938E+03  0.53315682064E+03  0.81240897590E+02 0.  0.
         24    2    4    4    0    0  0.10647845390E+03  0.55976249411E+03  0.83404952700E+02  0.58141493403E+03  0.80095121121E+02 0.  0.
         11    1    3    3    0    0  0.78964357660E+02 -0.10537732340E+03  0.18253914501E+03  0.22507840751E+03  0.00000000000E+00 0.  1.
        -11    1    3    3    0    0  0.11686146111E+03 -0.42567450087E+03  0.59048333065E+03  0.73724212139E+03  0.00000000000E+00 0. -1.
          2    1    6    6  502    0  0.42557344688E+02  0.83061160928E+02  0.26968936080E+02  0.97147349706E+02  0.00000000000E+00 0. -1.
          1    1    5    5  503    0 -0.37452965010E+02  0.20973751462E+02 -0.40562753613E+02  0.59058952066E+02  0.00000000000E+00 0. -1.
         -2    1    5    5    0  503 -0.26485130766E+03 -0.49684421306E+02 -0.39006926576E+03  0.47409786857E+03  0.00000000000E+00 0.  1.
         -1    1    6    6    0  502  0.63921109213E+02  0.47670133318E+03  0.56436016620E+02  0.48426758433E+03  0.00000000000E+00 0.  1.
<mgrwt>
<rscale>  0 0.20327764E+04</rscale>
<asrwt>0</asrwt>
<pdfrwt beam="1">  1        2 0.19251444E+00 0.20327764E+04</pdfrwt>
<pdfrwt beam="2">  1       -2 0.12700745E+00 0.20327764E+04</pdfrwt>
<totfact> 0.75370007E+00</totfact>
</mgrwt>
</event>
<event>
12    1  0.1506149E-007  0.1761950E+04  0.7818608E-02  0.8726800E-01
          2   -1    0    0  501    0  0.00000000000E+00  0.00000000000E+00  0.95942996294E+03  0.95942996294E+03  0.00000000000E+00 0. -1.
         -2   -1    0    0    0  501 -0.00000000000E+00 -0.00000000000E+00 -0.80893587613E+03  0.80893587613E+03  0.00000000000E+00 0.  1.
         23    2    1    2    0    0 -0.19183108471E+03 -0.42503330862E+03  0.50495103253E+03  0.69342961005E+03  0.91742031503E+02 0.  0.
        254    2    1    2    0    0  0.19183108471E+03  0.42503330862E+03 -0.35445694573E+03  0.10749362290E+04  0.90132995710E+03 0.  0.
        -24    2    4    4    0    0  0.27219411186E+03 -0.13160514269E+03 -0.39692148018E+03  0.50526317048E+03  0.79590589242E+02 0.  0.
         24    2    4    4    0    0 -0.80363027150E+02  0.55663845131E+03  0.42464534455E+02  0.56967305854E+03  0.80122252358E+02 0.  0.
         13    1    3    3    0    0 -0.41954749639E+02 -0.14662261277E+03  0.11282213188E+03  0.18970299163E+03  0.00000000000E+00 0.  1.
        -13    1    3    3    0    0 -0.14987633507E+03 -0.27841069586E+03  0.39212890065E+03  0.50372661842E+03  0.00000000000E+00 0. -1.
          4    1    6    6  502    0 -0.50756361026E+02  0.21138596236E+03 -0.17122801775E+02  0.21806747490E+03  0.00000000000E+00 0. -1.
          1    1    5    5  503    0  0.27481425993E+03 -0.11915512252E+03 -0.38528154857E+03  0.48801915163E+03  0.00000000000E+00 0. -1.
         -2    1    5    5    0  503 -0.26201480748E+01 -0.12450020167E+02 -0.11639931611E+02  0.17244018847E+02  0.00000000000E+00 0.  1.
         -3    1    6    6    0  502 -0.29606666124E+02  0.34525248895E+03  0.59587336230E+02  0.35160558364E+03  0.00000000000E+00 0.  1.
<mgrwt>
<rscale>  0 0.17619504E+04</rscale>
<asrwt>0</asrwt>
<pdfrwt beam="1">  1        2 0.14760461E+00 0.17619504E+04</pdfrwt>
<pdfrwt beam="2">  1       -2 0.12445167E+00 0.17619504E+04</pdfrwt>
<totfact> 0.12287115E+01</totfact>
</mgrwt>
</event>
<event>
12    1  0.1506149E-007  0.3160596E+04  0.7818608E-02  0.8199302E-01
          2   -1    0    0  501    0  0.00000000000E+00  0.00000000000E+00  0.11975299166E+04  0.11975299166E+04  0.00000000000E+00 0. -1.
         -2   -1    0    0    0  501 -0.00000000000E+00 -0.00000000000E+00 -0.20854104769E+04  0.20854104769E+04  0.00000000000E+00 0.  1.
         23    2    1    2    0    0  0.12538356143E+04  0.33099644758E+03 -0.10784282810E+04  0.16890508607E+04  0.90679969707E+02 0.  0.
        254    2    1    2    0    0 -0.12538356143E+04 -0.33099644758E+03  0.19054772059E+03  0.15938895328E+04  0.90692503152E+03 0.  0.
        -24    2    4    4    0    0 -0.82215893171E+03 -0.57256138957E+03 -0.10835582568E+03  0.10107309249E+04  0.77872741416E+02 0.  0.
         24    2    4    4    0    0 -0.43167668261E+03  0.24156494199E+03  0.29890354626E+03  0.58315860783E+03  0.77667576302E+02 0.  0.
         13    1    3    3    0    0  0.15689149349E+03  0.37117188085E+02 -0.17461803343E+03  0.23766380452E+03  0.00000000000E+00 0. -1.
        -13    1    3    3    0    0  0.10969441208E+04  0.29387925950E+03 -0.90381024752E+03  0.14513870562E+04  0.00000000000E+00 0.  1.
          2    1    6    6  502    0 -0.18820780958E+03  0.13551117368E+03  0.10638883529E+03  0.25515493735E+03  0.00000000000E+00 0. -1.
          1    1    5    5  503    0 -0.20337874162E+03 -0.12920895423E+03  0.56878170776E+01  0.24101912301E+03  0.00000000000E+00 0. -1.
         -2    1    5    5    0  503 -0.61878019010E+03 -0.44335243534E+03 -0.11404364275E+03  0.76971180193E+03  0.00000000000E+00 0.  1.
         -1    1    6    6    0  502 -0.24346887303E+03  0.10605376831E+03  0.19251471097E+03  0.32800367048E+03  0.00000000000E+00 0.  1.
<mgrwt>
<rscale>  0 0.31605958E+04</rscale>
<asrwt>0</asrwt>
<pdfrwt beam="1">  1        2 0.18423537E+00 0.31605958E+04</pdfrwt>
<pdfrwt beam="2">  1       -2 0.32083238E+00 0.31605958E+04</pdfrwt>
<totfact> 0.37984046E-01</totfact>
</mgrwt>
</event>
<event>
12    1  0.1506149E-007  0.2302511E+04  0.7818608E-02  0.8476932E-01
          2   -1    0    0  501    0  0.00000000000E+00  0.00000000000E+00  0.28898296280E+04  0.28898296280E+04  0.00000000000E+00 0. -1.
         -2   -1    0    0    0  501 -0.00000000000E+00 -0.00000000000E+00 -0.45863932749E+03  0.45863932749E+03  0.00000000000E+00 0.  1.
         23    2    1    2    0    0  0.64333362238E+03 -0.72198820905E+03  0.84754204846E+03  0.12891649108E+04  0.92051723116E+02 0.  0.
        254    2    1    2    0    0 -0.64333362238E+03  0.72198820905E+03  0.15836482521E+04  0.20593040447E+04  0.89311042905E+03 0.  0.
        -24    2    4    4    0    0 -0.12192366821E+03 -0.34494645505E+02  0.89781609510E+03  0.91025826115E+03  0.80256463456E+02 0.  0.
         24    2    4    4    0    0 -0.52140995417E+03  0.75648285456E+03  0.68583215698E+03  0.11490457836E+04  0.76195902753E+02 0.  0.
         11    1    3    3    0    0  0.38307269074E+03 -0.44652674918E+03  0.45690671435E+03  0.74491245777E+03  0.00000000000E+00 0. -1.
        -11    1    3    3    0    0  0.26026093164E+03 -0.27546145987E+03  0.39063533411E+03  0.54425245306E+03  0.00000000000E+00 0.  1.
          2    1    6    6  502    0 -0.41483232802E+03  0.56039995202E+03  0.54718012356E+03  0.88630697516E+03  0.00000000000E+00 0. -1.
          1    1    5    5  503    0 -0.61915789494E+02 -0.50888560045E+02  0.64220226159E+03  0.64718386516E+03  0.00000000000E+00 0. -1.
         -2    1    5    5    0  503 -0.60007878718E+02  0.16393914540E+02  0.25561383351E+03  0.26307439599E+03  0.00000000000E+00 0.  1.
         -1    1    6    6    0  502 -0.10657762615E+03  0.19608290254E+03  0.13865203343E+03  0.26273880840E+03  0.00000000000E+00 0.  1.
<mgrwt>
<rscale>  0 0.23025113E+04</rscale>
<asrwt>0</asrwt>
<pdfrwt beam="1">  1        2 0.44458916E+00 0.23025113E+04</pdfrwt>
<pdfrwt beam="2">  1       -2 0.70559898E-01 0.23025113E+04</pdfrwt>
<totfact> 0.33768255E+00</totfact>
</mgrwt>
</event>
<event>
12    1  0.1506149E-007  0.1347040E+04  0.7818608E-02  0.8993072E-01
          2   -1    0    0  501    0  0.00000000000E+00  0.00000000000E+00  0.25390682927E+04  0.25390682927E+04  0.00000000000E+00 0. -1.
         -2   -1    0    0    0  501 -0.00000000000E+00 -0.00000000000E+00 -0.17865974484E+03  0.17865974484E+03  0.00000000000E+00 0.  1.
         23    2    1    2    0    0  0.46512365772E+02 -0.13848195318E+03 -0.73299745033E+01  0.17211979380E+03  0.90723995530E+02 0.  0.
        254    2    1    2    0    0 -0.46512365772E+02  0.13848195318E+03  0.23677385224E+04  0.25456082437E+04  0.92336069270E+03 0.  0.
        -24    2    4    4    0    0  0.34583738907E+03 -0.10567854384E+02  0.18022692844E+04  0.18368486305E+04  0.78250485630E+02 0.  0.
         24    2    4    4    0    0 -0.39234975485E+03  0.14904980757E+03  0.56546923796E+03  0.70875961328E+03  0.80190741855E+02 0.  0.
         13    1    3    3    0    0  0.73256514497E+02 -0.10222481822E+03  0.33873181637E+01  0.12580899928E+03  0.00000000000E+00 0.  1.
        -13    1    3    3    0    0 -0.26744148725E+02 -0.36257134970E+02 -0.10717292667E+02  0.46310794523E+02  0.00000000000E+00 0. -1.
          2    1    6    6  502    0 -0.46307350260E+02  0.17384655373E+02  0.30317431457E+02  0.58015028921E+02  0.00000000000E+00 0. -1.
          3    1    5    5  503    0  0.17322978815E+03 -0.20392764892E+02  0.71805101650E+03  0.73893280253E+03  0.00000000000E+00 0. -1.
         -4    1    5    5    0  503  0.17260760092E+03  0.98249105080E+01  0.10842182679E+04  0.10979158279E+04  0.00000000000E+00 0.  1.
         -1    1    6    6    0  502 -0.34604240458E+03  0.13166515220E+03  0.53515180650E+03  0.65074458436E+03  0.00000000000E+00 0.  1.
<mgrwt>
<rscale>  0 0.13470402E+04</rscale>
<asrwt>0</asrwt>
<pdfrwt beam="1">  1        2 0.39062587E+00 0.13470402E+04</pdfrwt>
<pdfrwt beam="2">  1       -2 0.27486116E-01 0.13470402E+04</pdfrwt>
<totfact> 0.39112852E+01</totfact>
</mgrwt>
</event>
<event>
12    1  0.1506149E-007  0.1753160E+04  0.7818608E-02  0.8731613E-01
         -2   -1    0    0    0  501 -0.00000000000E+00  0.00000000000E+00  0.80680567095E+03  0.80680567095E+03  0.00000000000E+00 0. -1.
          2   -1    0    0  501    0  0.00000000000E+00 -0.00000000000E+00 -0.95238871547E+03  0.95238871547E+03  0.00000000000E+00 0.  1.
         23    2    1    2    0    0  0.29945996463E+03 -0.47156074476E+03 -0.37344585248E+03  0.67814553592E+03  0.91508233192E+02 0.  0.
        254    2    1    2    0    0 -0.29945996463E+03  0.47156074476E+03  0.22786280796E+03  0.10810488505E+04  0.89705036175E+03 0.  0.
        -24    2    4    4    0    0  0.91594672199E+02  0.19256456127E+03  0.48129476834E+03  0.53238371172E+03  0.79479986355E+02 0.  0.
         24    2    4    4    0    0 -0.39105463683E+03  0.27899618349E+03 -0.25343196039E+03  0.54866513879E+03  0.77737227854E+02 0.  0.
         11    1    3    3    0    0  0.23345182336E+02 -0.13884162025E+02 -0.39324075272E+02  0.47792785956E+02  0.00000000000E+00 0. -1.
        -11    1    3    3    0    0  0.27611478229E+03 -0.45767658274E+03 -0.33412177721E+03  0.63035274996E+03  0.00000000000E+00 0.  1.
          2    1    6    6  502    0 -0.32649159556E+03  0.22047858449E+03 -0.17370512741E+03  0.43055898490E+03  0.00000000000E+00 0. -1.
          3    1    5    5  503    0  0.84842302217E+02  0.16726329789E+03  0.33647209929E+03  0.38521253960E+03  0.00000000000E+00 0. -1.
         -4    1    5    5    0  503  0.67523699820E+01  0.25301263385E+02  0.14482266906E+03  0.14717117212E+03  0.00000000000E+00 0.  1.
         -1    1    6    6    0  502 -0.64563041265E+02  0.58517598992E+02 -0.79726832978E+02  0.11810615389E+03  0.00000000000E+00 0.  1.
<mgrwt>
<rscale>  0 0.17531601E+04</rscale>
<asrwt>0</asrwt>
<pdfrwt beam="1">  1        2 0.14652134E+00 0.17531601E+04</pdfrwt>
<pdfrwt beam="2">  1       -2 0.12412395E+00 0.17531601E+04</pdfrwt>
<totfact> 0.12509865E+01</totfact>
</mgrwt>
</event>
<event>
12    1  0.1506149E-007  0.1401654E+04  0.7818608E-02  0.8952622E-01
          1   -1    0    0  501    0  0.00000000000E+00  0.00000000000E+00  0.21699473398E+04  0.21699473398E+04  0.00000000000E+00 0. -1.
         -1   -1    0    0    0  501 -0.00000000000E+00 -0.00000000000E+00 -0.22634587528E+03  0.22634587528E+03  0.00000000000E+00 0.  1.
         23    2    1    2    0    0  0.14657220970E+03 -0.66073631984E+02  0.12037172054E+04  0.12177507737E+04  0.90181476190E+02 0.  0.
        254    2    1    2    0    0 -0.14657220970E+03  0.66073631984E+02  0.73988425907E+03  0.11785424414E+04  0.90315249645E+03 0.  0.
        -24    2    4    4    0    0 -0.49184332885E+03  0.11888258855E+03  0.24609890537E+03  0.56835980178E+03  0.80157738614E+02 0.  0.
         24    2    4    4    0    0  0.34527111915E+03 -0.52808956565E+02  0.49378535370E+03  0.61018263962E+03  0.80609841485E+02 0.  0.
         11    1    3    3    0    0  0.26434998500E+02  0.17596171321E+02  0.11764727753E+03  0.12185777079E+03  0.00000000000E+00 0.  1.
        -11    1    3    3    0    0  0.12013721120E+03 -0.83669803305E+02  0.10860699279E+04  0.10958930029E+04  0.00000000000E+00 0. -1.
          2    1    6    6  502    0  0.35850135968E+02  0.16693582547E+02  0.75931896482E+02  0.85612854470E+02  0.00000000000E+00 0. -1.
          1    1    5    5  503    0 -0.17598870801E+03  0.39472637641E+01  0.77719095743E+02  0.19242625622E+03  0.00000000000E+00 0. -1.
         -2    1    5    5    0  503 -0.31585462084E+03  0.11493532478E+03  0.16837980963E+03  0.37593354556E+03  0.00000000000E+00 0.  1.
         -1    1    6    6    0  502  0.30942098318E+03 -0.69502539111E+02  0.41785345722E+03  0.52456978514E+03  0.00000000000E+00 0.  1.
<mgrwt>
<rscale>  0 0.14016542E+04</rscale>
<asrwt>0</asrwt>
<pdfrwt beam="1">  1        1 0.33383804E+00 0.14016542E+04</pdfrwt>
<pdfrwt beam="2">  1       -1 0.34822444E-01 0.14016542E+04</pdfrwt>
<totfact> 0.17464155E+01</totfact>
</mgrwt>
</event>
