<LesHouchesEvents version="3.0">
  <!--
  <scalesfunctionalform>
    muR  H_T/2 := sum_i mT(i)/2, i=final state
    muF1 H_T/2 := sum_i mT(i)/2, i=final state
    muF2 H_T/2 := sum_i mT(i)/2, i=final state
    QES  H_T/2 := sum_i mT(i)/2, i=final state
  </scalesfunctionalform>
HERWIG6   
  -->
  <header>
      161
  </header>
  <init>
   2212   2212 0.65000000D+04 0.65000000D+04 -1 -1   244800   244800 -4   1
 0.40599342D-03 0.17952429D-05 0.27414828D-05     66
  </init>
  <event>
  8     66 0.27414828E-05 0.21609601E+03 0.75467711E-02 0.86894733E-01
       -1 -1    0    0    0  501 0.00000000E+00 0.00000000E+00 0.44837107E+03 0.44837118E+03 0.32000000E+00 0.0000E+00 0.9000E+01
        1 -1    0    0  501    0 0.00000000E+00 0.00000000E+00 -.16332433E+03 0.16332465E+03 0.32000000E+00 0.0000E+00 0.9000E+01
       25  2    1    2    0    0 -.51578488E+02 -.13362543E+03 0.79189831E+02 0.34101756E+03 0.29917528E+03 0.0000E+00 0.0000E+00
       23  2    1    2    0    0 0.51578488E+02 0.13362543E+03 0.20585690E+03 0.27067827E+03 0.10185071E+03 0.0000E+00 0.0000E+00
       23  1    3    3    0    0 -.35385694E+02 0.99266543E+01 -.64670343E+02 0.11767833E+03 0.91188000E+02 0.0000E+00 0.9000E+01
      -13  1    4    4    0    0 -.10345132E+02 0.81342792E+02 0.15398377E+03 0.17445540E+03 0.10565837E+00 0.0000E+00 0.9000E+01
       13  1    4    4    0    0 0.61923621E+02 0.52282635E+02 0.51873128E+02 0.96222873E+02 0.10565837E+00 0.0000E+00 0.9000E+01
       23  1    3    3    0    0 -.16192794E+02 -.14355208E+03 0.14386017E+03 0.22333922E+03 0.91188000E+02 0.0000E+00 0.9000E+01
#aMCatNLO 1  0  0  2  2 0.10042366D+04 0.00000000D+00  -5  7  0 0.00000000D+00 0.00000000D+00 0.00000000D+00 0.00000000D+00 0.00000000D+00
  <mgrwgt>
 0.1998691214D-03    3    2    0
 0.270610487437518D+03 0.000000000000000D+00 0.000000000000000D+00 0.270610487437518D+03
 0.270610487437518D+03 0.000000000000000D+00 0.000000000000000D+00 -.270610487437518D+03
 0.167061939185396D+03 -.353857060904282D+02 0.992662204223969D+01 -.135069441990768D+03
 0.116072885836672D+03 -.103451108006300D+02 0.813428554285410D+02 0.821537179907715D+02
 0.814322264553129D+02 0.619236240683980D+02 0.522826368057676D+02 0.794972806712826D+01
 0.176653923397654D+03 -.161928071773399D+02 -.143552114276548D+03 0.449659959328679D+02
 0.000000000000000D+00 0.000000000000000D+00 0.000000000000000D+00 0.000000000000000D+00
 0.165994751587842D+04 0.000000000000000D+00 0.000000000000000D+00 0.165994751587842D+04
 0.801797853061609D+03 0.000000000000000D+00 0.000000000000000D+00 -.801797853061609D+03
 0.410169928475914D+03 -.366658037127479D+03 -.851014014694425D+02 -.135069441990768D+03
 0.221493992963098D+03 -.204074135627297D+03 0.257701902787167D+02 0.821537179907715D+02
 0.344496188508924D+02 -.458075860713711D+01 0.332053416367550D+02 0.794972806712826D+01
 0.474680636113517D+03 -.389992539836693D+03 -.250779450989558D+03 0.449659959328679D+02
 0.132095119253660D+04 0.965305471198606D+03 0.276905320543529D+03 0.858149662816807D+03
0.371441135526D-05 0.000000000000D+00 0.000000000000D+00 0.179734143153D-08 0.000000000000D+00  7 -1 1 23 -13 13 23 21 0 0.68980197D-01 0.25126853D-01 0.46697485D+05 0.46697485D+05 0.46697485D+05 0.11499149D+01  1  2  2  2  7  2        1 0.196508999311D-03 0.100000000000D+01
-.193659201123D-06 0.000000000000D+00 -.142643176312D-07 0.179734143153D-08 0.000000000000D+00  7 -1 1 23 -13 13 23 21 2 0.68980197D-01 0.25126853D-01 0.46697485D+05 0.46697485D+05 0.46697485D+05 0.11499149D+01  1  2  3  2  7  2        1 -.135475881796D-04 0.100000000000D+01
0.241691260690D-06 0.000000000000D+00 0.000000000000D+00 0.179734143153D-08 0.000000000000D+00  7 -1 1 23 -13 13 23 21 2 0.68980197D-01 0.25126853D-01 0.46697485D+05 0.46697485D+05 0.46697485D+05 0.11499149D+01  1  2 15  2  7  2        1 0.169077102841D-04 0.100000000000D+01
  </mgrwgt>
  </event>
  <event>
  7     66 0.27414828E-05 0.24392001E+03 0.75467711E-02 0.94123520E-01
       -1 -1    0    0    0  501 0.00000000E+00 0.00000000E+00 0.25231368E+03 0.25231388E+03 0.32000000E+00 0.0000E+00 0.9000E+01
        1 -1    0    0  501    0 0.00000000E+00 0.00000000E+00 -.13997522E+04 0.13997522E+04 0.32000000E+00 0.0000E+00 0.9000E+01
       23  2    1    2    0    0 -.16106084E+03 0.37429827E+03 -.10054062E+04 0.10886640E+04 0.91147982E+02 0.0000E+00 0.0000E+00
       23  1    1    2    0    0 -.41685164E+02 -.53111029E+01 -.79579275E+02 0.12811703E+03 0.91188000E+02 0.0000E+00 0.9000E+01
      -11  1    3    3    0    0 -.34660466E+02 0.66393858E+02 -.29171187E+03 0.30117322E+03 0.51099893E-03 0.0000E+00 0.9000E+01
       11  1    3    3    0    0 -.12640037E+03 0.30790441E+03 -.71369430E+03 0.78749078E+03 0.51099893E-03 0.0000E+00 0.9000E+01
       23  1    1    2    0    0 0.20274600E+03 -.36898716E+03 -.62453068E+02 0.43528509E+03 0.91188000E+02 0.0000E+00 0.9000E+01
#aMCatNLO 1  0  0  1  2 0.10483984D+03 0.00000000D+00  -5  7  0 0.00000000D+00 0.00000000D+00 0.00000000D+00 0.00000000D+00 0.00000000D+00
  <mgrwgt>
 0.9460040234D-03    9    2    0
 0.594286823002968D+03 0.000000000000000D+00 0.000000000000000D+00 0.594286823002968D+03
 0.594286823002968D+03 0.000000000000000D+00 0.000000000000000D+00 -.594286823002968D+03
 0.101252015222778D+03 -.416851626696442D+02 -.531110434599188D+01 0.130712901622208D+02
 0.137001721832532D+03 -.346604663392151D+02 0.663938577426929D+02 -.114716953900762D+03
 0.405584050812918D+03 -.126400371196667D+03 0.307904410749799D+03 -.231767647172722D+03
 0.544735858137709D+03 0.202746000205527D+03 -.368987164146500D+03 0.333413310911263D+03
 0.000000000000000D+00 -.000000000000000D+00 0.000000000000000D+00 0.000000000000000D+00
 0.663449111787245D+03 0.000000000000000D+00 0.000000000000000D+00 0.663449111787245D+03
 0.637695914908803D+03 0.000000000000000D+00 0.000000000000000D+00 -.637695914908803D+03
 0.100015403330885D+03 -.368154238193953D+02 -.127120219451063D+02 0.130712901622208D+02
 0.130960859167669D+03 -.281770136249760D+02 0.565404547633143D+02 -.114716953900762D+03
 0.378342098107260D+03 -.107432991128120D+03 0.279078220829733D+03 -.231767647172722D+03
 0.583870100948976D+03 0.230053034424389D+03 -.410487769485874D+03 0.333413310911263D+03
 0.107956565141258D+03 -.576276058518969D+02 0.875811158379325D+02 0.257531968784422D+02
0.103969518320D-03 0.000000000000D+00 0.000000000000D+00 0.144684158519D-08 0.000000000000D+00  7 -1 1 23 -11 11 23 21 0 0.38817508D-01 0.21534651D+00 0.22039381D+06 0.22039381D+06 0.22039381D+06 0.10946013D+01  1  2  2  1  7  1       -1 0.626546564307D-03 0.100000000000D+01
-.538567892932D-05 0.000000000000D+00 -.399270326150D-06 0.144684158519D-08 0.000000000000D+00  7 -1 1 23 -11 11 23 21 2 0.38817508D-01 0.21534651D+00 0.22039381D+06 0.22039381D+06 0.22039381D+06 0.10946013D+01  1  2  3  1  7  1       -1 -.388865738568D-04 0.100000000000D+01
0.640053744840D-05 0.000000000000D+00 0.000000000000D+00 0.144684158519D-08 0.000000000000D+00  7 -1 1 23 -11 11 23 21 2 0.38817508D-01 0.21534651D+00 0.22039381D+06 0.22039381D+06 0.22039381D+06 0.10946013D+01  1  2 15  1  7  1       -1 0.462142239590D-04 0.100000000000D+01
0.122846554614D-03 0.000000000000D+00 0.000000000000D+00 0.144684158519D-08 0.000000000000D+00  7 -1 1 23 -11 11 23 21 2 0.44617291D-01 0.21534651D+00 0.27328033D+06 0.27328033D+06 0.27328033D+06 0.10875620D+01  1  2 12  1  7  1       -1 0.678992401088D-03 0.100000000000D+01
-.113599665753D-03 0.000000000000D+00 0.000000000000D+00 0.144684158519D-08 0.000000000000D+00  7 -1 1 23 -11 11 23 21 2 0.38817508D-01 0.21534651D+00 0.22039381D+06 0.22039381D+06 0.22039381D+06 0.10946013D+01  1  2  4  1  7  1       -1 -.820231181692D-03 0.100000000000D+01
-.293930027407D-03 0.000000000000D+00 -.830184462369D-04 0.144684158519D-08 0.000000000000D+00  7 -1 1 23 -11 11 23 21 2 0.46421398D-01 0.21534651D+00 0.22039381D+06 0.22039381D+06 0.22039381D+06 0.10946013D+01  1  2  5  1  7  1       -1 -.154760103279D-02 0.100000000000D+01
0.305195622675D-03 0.000000000000D+00 0.817075806595D-04 0.144684158519D-08 0.000000000000D+00  7 -1 1 23 -11 11 23 21 2 0.38817508D-01 0.21534651D+00 0.22039381D+06 0.22039381D+06 0.22039381D+06 0.10946013D+01  1  2  6  1  7  1       -1 0.220362414428D-02 0.100000000000D+01
0.263747692529D-05 0.000000000000D+00 0.000000000000D+00 0.144684158519D-08 0.000000000000D+00  7 21 1 23 -11 11 23 1 2 0.44617291D-01 0.21534651D+00 0.27328033D+06 0.27328033D+06 0.27328033D+06 0.10875620D+01  1  2 12  3  7  1       -1 0.136630102073D-03 0.100000000000D+01
-.692689141121D-05 0.000000000000D+00 -.217893219926D-05 0.144684158519D-08 0.000000000000D+00  7 21 1 23 -11 11 23 1 2 0.46421398D-01 0.21534651D+00 0.22039381D+06 0.22039381D+06 0.22039381D+06 0.10946013D+01  1  2  5  3  7  1       -1 -.339284624010D-03 0.100000000000D+01
  </mgrwgt>
  </event>
  <event>
  8     66 0.27414828E-05 0.24489859E+03 0.75467711E-02 0.95687326E-01
       -1 -1    0    0    0  501 0.00000000E+00 0.00000000E+00 0.23283465E+03 0.23283487E+03 0.32000000E+00 0.0000E+00 0.9000E+01
        1 -1    0    0  501    0 0.00000000E+00 0.00000000E+00 -.13519384E+04 0.13519384E+04 0.32000000E+00 0.0000E+00 0.9000E+01
       25  2    1    2    0    0 0.12677805E+03 0.10955179E+03 -.12872477E+04 0.13323040E+04 0.29992158E+03 0.0000E+00 0.0000E+00
       23  2    1    2    0    0 -.12677805E+03 -.10955179E+03 0.16814398E+03 0.25246930E+03 0.85988844E+02 0.0000E+00 0.0000E+00
       23  1    3    3    0    0 0.77045918E+01 0.12253677E+03 -.33537127E+03 0.36859702E+03 0.91188000E+02 0.0000E+00 0.9000E+01
      -11  1    4    4    0    0 -.13661862E+03 -.87675649E+02 0.13268715E+03 0.20966055E+03 0.51099893E-03 0.0000E+00 0.9000E+01
       11  1    4    4    0    0 0.98405680E+01 -.21876140E+02 0.35456835E+02 0.42808754E+02 0.51099893E-03 0.0000E+00 0.9000E+01
       23  1    3    3    0    0 0.11907346E+03 -.12984977E+02 -.95187646E+03 0.96370698E+03 0.91188000E+02 0.0000E+00 0.9000E+01
#aMCatNLO 1  0  0  1  2 0.32336886D+03 0.00000000D+00  -5  7  0 0.00000000D+00 0.00000000D+00 0.00000000D+00 0.00000000D+00 0.00000000D+00
  <mgrwgt>
 0.2941019244D-03    4    2    0
 0.561051072373160D+03 0.000000000000000D+00 0.000000000000000D+00 0.561051072373160D+03
 0.561051072373160D+03 0.000000000000000D+00 0.000000000000000D+00 -.561051072373160D+03
 0.186103793614970D+03 0.770459179553143D+01 0.122536767136071D+03 -.106041268471231D+03
 0.428441501631780D+03 -.136618619430061D+03 -.876756493216313D+02 0.396497734749581D+03
 0.958219792455824D+02 0.984056800346538D+01 -.218761403429269D+02 0.927709513350304D+02
 0.411734870253987D+03 0.119073459631064D+03 -.129849774715132D+02 -.383227417613381D+03
 0.000000000000000D+00 0.000000000000000D+00 0.000000000000000D+00 -.000000000000000D+00
 0.662415884709211D+03 0.000000000000000D+00 0.000000000000000D+00 0.662415884709211D+03
 0.916764402595899D+03 0.000000000000000D+00 0.000000000000000D+00 -.916764402595899D+03
 0.172734626119348D+03 -.349410748444139D+02 0.951649640693485D+02 -.106041268471231D+03
 0.492658454755128D+03 -.246085497896496D+03 -.157936148823486D+03 0.396497734749581D+03
 0.100740277926928D+03 -.135196075863739D+02 -.368696948169992D+02 0.927709513350304D+02
 0.401634015245607D+03 0.224097345706278D+02 -.750278684500724D+02 -.383227417613381D+03
 0.411412913258100D+03 0.272136445756656D+03 0.174668748021210D+03 -.254348517886688D+03
0.403460393519D-04 0.000000000000D+00 0.000000000000D+00 0.237203640153D-06 0.000000000000D+00  7 -1 1 23 -11 11 23 21 0 0.35820735D-01 0.20799054D+00 0.59975319D+05 0.59975319D+05 0.59975319D+05 0.11404105D+01  1  2  2  1  7  1       -1 0.316416211256D-03 0.100000000000D+01
-.368673537452D-06 0.000000000000D+00 -.154939414467D-06 0.237203640153D-06 0.000000000000D+00  7 -1 1 23 -11 11 23 21 2 0.35820735D-01 0.20799054D+00 0.59975319D+05 0.59975319D+05 0.59975319D+05 0.11404105D+01  1  2  3  1  7  1       -1 -.376029758419D-05 0.100000000000D+01
0.243998026127D-05 0.000000000000D+00 0.000000000000D+00 0.237203640153D-06 0.000000000000D+00  7 -1 1 23 -11 11 23 21 2 0.35820735D-01 0.20799054D+00 0.59975319D+05 0.59975319D+05 0.59975319D+05 0.11404105D+01  1  2 15  1  7  1       -1 0.248866570282D-04 0.100000000000D+01
-.425908226239D-05 0.000000000000D+00 0.000000000000D+00 0.237203640153D-06 0.000000000000D+00  7 -1 1 23 -11 11 23 21 2 0.35820735D-01 0.20799054D+00 0.59975319D+05 0.59975319D+05 0.59975319D+05 0.11404105D+01  1  2  4  1  7  1       -1 -.434406463041D-04 0.100000000000D+01
  </mgrwgt>
  </event>
  <event>
  8     66 0.27414828E-05 0.22740528E+03 0.75467711E-02 0.89875833E-01
       -1 -1    0    0    0  501 0.00000000E+00 0.00000000E+00 0.22330229E+03 0.22330252E+03 0.32000000E+00 0.0000E+00 0.9000E+01
        1 -1    0    0  501    0 0.00000000E+00 0.00000000E+00 -.23516658E+04 0.23516659E+04 0.32000000E+00 0.0000E+00 0.9000E+01
       25  2    1    2    0    0 0.46554214E+03 -.44358967E+03 -.15532711E+04 0.17077181E+04 0.30024781E+03 0.0000E+00 0.0000E+00
       23  2    1    2    0    0 -.46554214E+03 0.44358967E+03 -.57509246E+03 0.86725028E+03 0.88828175E+02 0.0000E+00 0.0000E+00
       23  1    3    3    0    0 0.44214330E+03 -.38062090E+03 -.13760707E+04 0.14974140E+04 0.91188000E+02 0.0000E+00 0.9000E+01
      -11  1    4    4    0    0 -.56551049E+02 0.44056550E+02 -.10457088E+03 0.12678355E+03 0.51099893E-03 0.0000E+00 0.9000E+01
       11  1    4    4    0    0 -.40899109E+03 0.39953312E+03 -.47052158E+03 0.74046673E+03 0.51099893E-03 0.0000E+00 0.9000E+01
       23  1    3    3    0    0 0.23398846E+02 -.62968770E+02 -.17720043E+03 0.21030410E+03 0.91188000E+02 0.0000E+00 0.9000E+01
#aMCatNLO 1  0  0  2  1 0.19340595D+03 0.00000000D+00  -5  7  0 0.00000000D+00 0.00000000D+00 0.00000000D+00 0.00000000D+00 0.00000000D+00
  <mgrwgt>
 0.3096778797D-03    9    2    0
 0.724660401198579D+03 0.000000000000000D+00 0.000000000000000D+00 0.724660401198579D+03
 0.724660401198579D+03 0.000000000000000D+00 0.000000000000000D+00 -.724660401198579D+03
 0.639620340223438D+03 0.442143295242747D+03 -.380620896754931D+03 -.245837278924300D+03
 0.716879215657364D+02 -.565510493876039D+02 0.440565503293781D+02 0.396591289525809D+00
 0.624594255151890D+03 -.408991092245204D+03 0.399533116577041D+03 0.251431021934555D+03
 0.113418285456093D+03 0.233988463900616D+02 -.629687701514886D+02 -.599033429978143D+01
 0.000000000000000D+00 -.000000000000000D+00 -.000000000000000D+00 -.000000000000000D+00
 0.815549083704189D+03 0.000000000000000D+00 0.000000000000000D+00 0.815549083704189D+03
 0.841798528326384D+03 0.000000000000000D+00 0.000000000000000D+00 -.841798528326384D+03
 0.641397489766426D+03 0.494366808489045D+03 -.313434170903756D+03 -.245837278924300D+03
 0.723339470495205D+02 -.506796807092733D+02 0.516101983557320D+02 0.396591289525809D+00
 0.638731515127912D+03 -.357488834779265D+03 0.465791930624294D+03 0.251431021934555D+03
 0.109705523408010D+03 0.324949798824981D+02 -.512663895709302D+02 -.599033429978143D+01
 0.195179136678704D+03 -.118693272883005D+03 -.152701568505340D+03 -.262494446221945D+02
0.100636511708D-03 0.000000000000D+00 0.000000000000D+00 0.904815417081D-06 0.000000000000D+00  7 -1 1 23 -11 11 23 21 0 0.34354218D-01 0.36179476D+00 0.45372933D+06 0.45372933D+06 0.45372933D+06 0.10715038D+01  1  2  2  2  7  2        1 0.166407255245D-03 0.100000000000D+01
-.555461761213D-05 0.000000000000D+00 -.386470703162D-06 0.904815417081D-06 0.000000000000D+00  7 -1 1 23 -11 11 23 21 2 0.34354218D-01 0.36179476D+00 0.45372933D+06 0.45372933D+06 0.45372933D+06 0.10715038D+01  1  2  3  2  7  2        1 -.105452838181D-04 0.100000000000D+01
0.614891002270D-05 0.000000000000D+00 0.000000000000D+00 0.904815417081D-06 0.000000000000D+00  7 -1 1 23 -11 11 23 21 2 0.34354218D-01 0.36179476D+00 0.45372933D+06 0.45372933D+06 0.45372933D+06 0.10715038D+01  1  2 15  2  7  2        1 0.116735310852D-04 0.100000000000D+01
0.635682487793D-04 0.000000000000D+00 0.000000000000D+00 0.904815417081D-06 0.000000000000D+00  7 -1 1 23 -11 11 23 21 2 0.34354218D-01 0.43978556D+00 0.60439587D+06 0.60439587D+06 0.60439587D+06 0.10627385D+01  1  2 12  2  7  2        1 0.510533293035D-04 0.100000000000D+01
-.588151081889D-04 0.000000000000D+00 0.000000000000D+00 0.904815417081D-06 0.000000000000D+00  7 -1 1 23 -11 11 23 21 2 0.34354218D-01 0.36179476D+00 0.45372933D+06 0.45372933D+06 0.45372933D+06 0.10715038D+01  1  2  4  2  7  2        1 -.111658812893D-03 0.100000000000D+01
-.177505185717D-03 0.000000000000D+00 -.501968247668D-04 0.904815417081D-06 0.000000000000D+00  7 -1 1 23 -11 11 23 21 2 0.34354218D-01 0.43999157D+00 0.45372933D+06 0.45372933D+06 0.45372933D+06 0.10715038D+01  1  2  5  2  7  2        1 -.147390361898D-03 0.100000000000D+01
0.184725668421D-03 0.000000000000D+00 0.492509021238D-04 0.904815417081D-06 0.000000000000D+00  7 -1 1 23 -11 11 23 21 2 0.34354218D-01 0.36179476D+00 0.45372933D+06 0.45372933D+06 0.45372933D+06 0.10715038D+01  1  2  6  2  7  2        1 0.350696436375D-03 0.100000000000D+01
0.178553651307D-05 0.000000000000D+00 0.000000000000D+00 0.904815417081D-06 0.000000000000D+00  7 -1 21 23 -11 11 23 -1 2 0.34354218D-01 0.43978556D+00 0.60439587D+06 0.60439587D+06 0.60439587D+06 0.10627385D+01  1  2 12  4  7  2        1 0.348214148269D-06 0.100000000000D+01
-.443832644428D-05 0.000000000000D+00 -.141255827711D-05 0.904815417081D-06 0.000000000000D+00  7 -1 21 23 -11 11 23 -1 2 0.34354218D-01 0.43999157D+00 0.45372933D+06 0.45372933D+06 0.45372933D+06 0.10715038D+01  1  2  5  4  7  2        1 -.906427797193D-06 0.100000000000D+01
  </mgrwgt>
  </event>
  <event>
  8     66 0.27414828E-05 0.27018258E+03 0.75467711E-02 0.98880602E-01
       -3 -1    0    0    0  501 0.00000000E+00 0.00000000E+00 0.23261251E+03 0.23261305E+03 0.50000000E+00 0.0000E+00 0.9000E+01
        3 -1    0    0  501    0 0.00000000E+00 0.00000000E+00 -.34053049E+03 0.34053086E+03 0.50000000E+00 0.0000E+00 0.9000E+01
       25  2    1    2    0    0 0.14604702E+03 -.11684443E+03 -.55466349E+02 0.35697613E+03 0.29895333E+03 0.0000E+00 0.0000E+00
       23  2    1    2    0    0 -.14604702E+03 0.11684443E+03 -.52451628E+02 0.21616777E+03 0.94841861E+02 0.0000E+00 0.0000E+00
       23  1    3    3    0    0 0.19436558E+03 -.10285693E+03 0.19227437E+01 0.23806822E+03 0.91188000E+02 0.0000E+00 0.9000E+01
      -13  1    4    4    0    0 -.47787844E+02 0.80071628E+02 0.10465828E+02 0.93833301E+02 0.10565837E+00 0.0000E+00 0.9000E+01
       13  1    4    4    0    0 -.98259178E+02 0.36772800E+02 -.62917457E+02 0.12233447E+03 0.10565837E+00 0.0000E+00 0.9000E+01
       23  1    3    3    0    0 -.48318561E+02 -.13987498E+02 -.57389093E+02 0.11890792E+03 0.91188000E+02 0.0000E+00 0.9000E+01
#aMCatNLO 1  0  0  2  1 0.14260707D+03 0.00000000D+00  -5  7  0 0.00000000D+00 0.00000000D+00 0.00000000D+00 0.00000000D+00 0.00000000D+00
  <mgrwgt>
 0.2623750549D-04    7    2    0
 0.281446107772116D+03 0.000000000000000D+00 0.000000000000000D+00 0.281446107772116D+03
 0.281446107772116D+03 0.000000000000000D+00 0.000000000000000D+00 -.281446107772116D+03
 0.242772674715851D+03 0.194365586390525D+03 -.102856932961788D+03 0.476003194679362D+02
 0.975487363865887D+02 -.477877886509185D+02 0.800716784063027D+02 0.286462832436068D+02
 0.112499940202728D+03 -.982592390767289D+02 0.367727546208451D+02 -.406093954556665D+02
 0.110070864239065D+03 -.483185586628780D+02 -.139875000653594D+02 -.356372072558765D+02
 0.000000000000000D+00 -.000000000000000D+00 0.000000000000000D+00 -.000000000000000D+00
 0.360026123141967D+03 0.000000000000000D+00 0.000000000000000D+00 0.360026123141967D+03
 0.363294220476422D+03 0.000000000000000D+00 0.000000000000000D+00 -.363294220476422D+03
 0.303298936057524D+03 0.241402728897805D+03 -.152098406753223D+03 0.476003194679362D+02
 0.775990640136421D+02 -.327010273457582D+02 0.642778966881489D+02 0.286462832436068D+02
 0.921225543365484D+02 -.806336067494819D+02 0.183211211661711D+02 -.406093954556665D+02
 0.107655278066532D+03 -.295642132965540D+02 -.336207421503440D+02 -.356372072558765D+02
 0.142644511144143D+03 -.985038815060113D+02 0.103120131049247D+03 -.326809733445491D+01
0.197008827407D-05 0.000000000000D+00 0.000000000000D+00 0.910212779812D-08 0.000000000000D+00  7 -3 3 23 -13 13 23 21 0 0.35786610D-01 0.52389376D-01 0.72998625D+05 0.72998625D+05 0.72998625D+05 0.11331143D+01  1  2  2  2  7  2        3 0.235033847611D-04 0.100000000000D+01
-.109227359891D-06 0.000000000000D+00 -.756565770860D-08 0.910212779812D-08 0.000000000000D+00  7 -3 3 23 -13 13 23 21 2 0.35786610D-01 0.52389376D-01 0.72998625D+05 0.72998625D+05 0.72998625D+05 0.11331143D+01  1  2  3  2  7  2        3 -.167310647278D-05 0.100000000000D+01
0.125879365545D-06 0.000000000000D+00 0.000000000000D+00 0.910212779812D-08 0.000000000000D+00  7 -3 3 23 -13 13 23 21 2 0.35786610D-01 0.52389376D-01 0.72998625D+05 0.72998625D+05 0.72998625D+05 0.11331143D+01  1  2 15  2  7  2        3 0.192817606772D-05 0.100000000000D+01
-.697811455904D-06 0.000000000000D+00 0.000000000000D+00 0.910212779812D-08 0.000000000000D+00  7 -3 3 23 -13 13 23 21 2 0.35786610D-01 0.52389376D-01 0.72998625D+05 0.72998625D+05 0.72998625D+05 0.11331143D+01  1  2  4  2  7  2        3 -.106888316701D-04 0.100000000000D+01
-.123538063762D-05 0.000000000000D+00 -.755105858872D-06 0.910212779812D-08 0.000000000000D+00  7 -3 3 23 -13 13 23 21 2 0.35786610D-01 0.83794658D-01 0.72998625D+05 0.72998625D+05 0.72998625D+05 0.11331143D+01  1  2  5  2  7  2        3 -.697432916173D-05 0.100000000000D+01
0.149800727973D-05 0.000000000000D+00 0.678847400487D-06 0.910212779812D-08 0.000000000000D+00  7 -3 3 23 -13 13 23 21 2 0.35786610D-01 0.52389376D-01 0.72998625D+05 0.72998625D+05 0.72998625D+05 0.11331143D+01  1  2  6  2  7  2        3 0.229459512569D-04 0.100000000000D+01
-.346664310151D-07 0.000000000000D+00 -.405432288593D-07 0.910212779812D-08 0.000000000000D+00  7 -3 21 23 -13 13 23 -3 2 0.35786610D-01 0.83794658D-01 0.72998625D+05 0.72998625D+05 0.72998625D+05 0.11331143D+01  1  2  5  4  7  2        3 -.280373928719D-05 0.100000000000D+01
  </mgrwgt>
  </event>
  <event>
  8     66 0.27414828E-05 0.45981749E+03 0.75467711E-02 0.88517347E-01
       -1 -1    0    0    0  501 0.00000000E+00 0.00000000E+00 0.10538482E+04 0.10538482E+04 0.32000000E+00 0.0000E+00 0.9000E+01
        1 -1    0    0  501    0 0.00000000E+00 0.00000000E+00 -.11497789E+04 0.11497790E+04 0.32000000E+00 0.0000E+00 0.9000E+01
       25  2    1    2    0    0 -.66561737E+03 0.45577255E+03 -.76480852E+03 0.11517363E+04 0.30131257E+03 0.0000E+00 0.0000E+00
       23  2    1    2    0    0 0.66561737E+03 -.45577255E+03 0.66887779E+03 0.10518909E+04 0.91114999E+02 0.0000E+00 0.0000E+00
       23  1    3    3    0    0 -.16771628E+03 0.28928112E+02 -.23212031E+03 0.30192827E+03 0.91188000E+02 0.0000E+00 0.9000E+01
      -11  1    4    4    0    0 0.15656023E+02 -.29031245E+02 0.16272422E+02 0.36779287E+02 0.51099893E-03 0.0000E+00 0.9000E+01
       11  1    4    4    0    0 0.64996135E+03 -.42674130E+03 0.65260536E+03 0.10151116E+04 0.51099893E-03 0.0000E+00 0.9000E+01
       23  1    3    3    0    0 -.49790109E+03 0.42684444E+03 -.53268820E+03 0.84980800E+03 0.91188000E+02 0.0000E+00 0.9000E+01
#aMCatNLO 1  0  0  1  2 0.11092092D+03 0.00000000D+00  -5  7  0 0.00000000D+00 0.00000000D+00 0.00000000D+00 0.00000000D+00 0.00000000D+00
  <mgrwgt>
 0.3711926721D-03    9    2    0
 0.110076906625945D+04 0.000000000000000D+00 0.000000000000000D+00 0.110076906625945D+04
 0.110076906625945D+04 0.000000000000000D+00 0.000000000000000D+00 -.110076906625945D+04
 0.292100264720585D+03 -.167716283257502D+03 0.289281120567441D+02 -.219184228376399D+03
 0.375232489831328D+02 0.156560233030799D+02 -.290312449781779D+02 0.178904992552081D+02
 0.104451179665498D+04 0.649961350385395D+03 -.426741302549727D+03 0.697457523477065D+03
 0.827402822160200D+03 -.497901090430973D+03 0.426844435471161D+03 -.496163794355874D+03
 0.000000000000000D+00 -.000000000000000D+00 -.000000000000000D+00 0.000000000000000D+00
 0.135228631532142D+04 0.000000000000000D+00 0.000000000000000D+00 0.135228631532142D+04
 0.111446282267304D+04 0.000000000000000D+00 0.000000000000000D+00 -.111446282267304D+04
 0.287153953090364D+03 -.156860912704259D+03 0.386661289509640D+02 -.219184228376399D+03
 0.371812876714976D+02 0.170560052150960D+02 -.277753645414901D+02 0.178904992552081D+02
 0.105585577255004D+04 0.689322769880792D+03 -.391431391557132D+03 0.697457523477065D+03
 0.824139633362098D+03 -.466950767087866D+03 0.454609012471870D+03 -.496163794355874D+03
 0.262418491320467D+03 -.825670953037637D+02 -.740683853242115D+02 0.237823492648379D+03
0.666874531935D-03 0.000000000000D+00 0.000000000000D+00 0.206311261628D-05 0.000000000000D+00  7 -1 1 23 -11 11 23 21 0 0.16213050D+00 0.17688907D+00 0.69366408D+06 0.69366408D+06 0.69366408D+06 0.10586047D+01  1  2  2  1  7  1       -1 0.256374081058D-03 0.100000000000D+01
-.335448779470D-04 0.000000000000D+00 -.256097379473D-05 0.206311261628D-05 0.000000000000D+00  7 -1 1 23 -11 11 23 21 2 0.16213050D+00 0.17688907D+00 0.69366408D+06 0.69366408D+06 0.69366408D+06 0.10586047D+01  1  2  3  1  7  1       -1 -.144518628784D-04 0.100000000000D+01
0.421868788291D-04 0.000000000000D+00 0.000000000000D+00 0.206311261628D-05 0.000000000000D+00  7 -1 1 23 -11 11 23 21 2 0.16213050D+00 0.17688907D+00 0.69366408D+06 0.69366408D+06 0.69366408D+06 0.10586047D+01  1  2 15  1  7  1       -1 0.181750247853D-04 0.100000000000D+01
0.365251497198D-02 0.000000000000D+00 0.000000000000D+00 0.206311261628D-05 0.000000000000D+00  7 -1 1 23 -11 11 23 21 2 0.20003016D+00 0.17688907D+00 0.79190869D+06 0.79190869D+06 0.79190869D+06 0.10546762D+01  1  2 12  1  7  1       -1 0.755287626812D-03 0.100000000000D+01
-.365338468562D-02 0.000000000000D+00 0.000000000000D+00 0.206311261628D-05 0.000000000000D+00  7 -1 1 23 -11 11 23 21 2 0.16213050D+00 0.17688907D+00 0.69366408D+06 0.69366408D+06 0.69366408D+06 0.10586047D+01  1  2  4  1  7  1       -1 -.157395756819D-02 0.100000000000D+01
-.431596365194D-02 0.000000000000D+00 -.402640291207D-03 0.206311261628D-05 0.000000000000D+00  7 -1 1 23 -11 11 23 21 2 0.20015989D+00 0.17688907D+00 0.69366408D+06 0.69366408D+06 0.69366408D+06 0.10586047D+01  1  2  5  1  7  1       -1 -.906249420654D-03 0.100000000000D+01
0.431346679901D-02 0.000000000000D+00 0.393863953698D-03 0.206311261628D-05 0.000000000000D+00  7 -1 1 23 -11 11 23 21 2 0.16213050D+00 0.17688907D+00 0.69366408D+06 0.69366408D+06 0.69366408D+06 0.10586047D+01  1  2  6  1  7  1       -1 0.185833529662D-02 0.100000000000D+01
0.108516453527D-03 0.000000000000D+00 0.000000000000D+00 0.206311261628D-05 0.000000000000D+00  7 21 1 23 -11 11 23 1 2 0.20003016D+00 0.17688907D+00 0.79190869D+06 0.79190869D+06 0.79190869D+06 0.10546762D+01  1  2 12  3  7  1       -1 0.140041843156D-03 0.100000000000D+01
-.123457828260D-03 0.000000000000D+00 -.119905095183D-04 0.206311261628D-05 0.000000000000D+00  7 21 1 23 -11 11 23 1 2 0.20015989D+00 0.17688907D+00 0.69366408D+06 0.69366408D+06 0.69366408D+06 0.10586047D+01  1  2  5  3  7  1       -1 -.162362348660D-03 0.100000000000D+01
  </mgrwgt>
  </event>
  <event>
  8     66 0.27414828E-05 0.26954421E+03 0.75467711E-02 0.10138039E+00
       -1 -1    0    0    0  501 0.00000000E+00 0.00000000E+00 0.16015870E+03 0.16015902E+03 0.32000000E+00 0.0000E+00 0.9000E+01
        1 -1    0    0  501    0 0.00000000E+00 0.00000000E+00 -.60961289E+03 0.60961297E+03 0.32000000E+00 0.0000E+00 0.9000E+01
       25  2    1    2    0    0 -.15439331E+03 -.12456435E+03 -.12951691E+03 0.38238910E+03 0.30015533E+03 0.0000E+00 0.0000E+00
       23  2    1    2    0    0 0.15439331E+03 0.12456435E+03 -.31993728E+03 0.38738289E+03 0.91389659E+02 0.0000E+00 0.0000E+00
       23  1    3    3    0    0 0.25012953E+02 0.25418266E+01 0.25951621E+02 0.98085915E+02 0.91188000E+02 0.0000E+00 0.9000E+01
      -13  1    4    4    0    0 0.12228363E+03 0.12428756E+03 -.30639780E+03 0.35253412E+03 0.10565837E+00 0.0000E+00 0.9000E+01
       13  1    4    4    0    0 0.32109676E+02 0.27679692E+00 -.13539473E+02 0.34848765E+02 0.10565837E+00 0.0000E+00 0.9000E+01
       23  1    3    3    0    0 -.17940626E+03 -.12710618E+03 -.15546853E+03 0.28430319E+03 0.91188000E+02 0.0000E+00 0.9000E+01
#aMCatNLO 1  0  0  2  2 0.36343864D+02 0.00000000D+00  -5  7  0 0.00000000D+00 0.00000000D+00 0.00000000D+00 0.00000000D+00 0.00000000D+00
  <mgrwgt>
 0.7827950323D-04    4    2    0
 0.312465937986463D+03 0.000000000000000D+00 0.000000000000000D+00 0.312465937986463D+03
 0.312465937986463D+03 0.000000000000000D+00 0.000000000000000D+00 -.312465937986463D+03
 0.139483770737502D+03 0.250129528727313D+02 0.254182633348363D+01 0.102510303202307D+03
 0.213878141759340D+03 0.122283750054338D+03 0.124287722464316D+03 -.123867292049635D+03
 0.331877440648973D+02 0.321095555488289D+02 0.276631349422917D+00 0.838607617842301D+01
 0.238382219411187D+03 -.179406258475898D+03 -.127106180147223D+03 0.129709126689050D+02
 0.000000000000000D+00 0.000000000000000D+00 0.000000000000000D+00 0.000000000000000D+00
 0.348887154541484D+03 0.000000000000000D+00 0.000000000000000D+00 0.348887154541484D+03
 0.322193932652466D+03 0.000000000000000D+00 0.000000000000000D+00 -.322193932652466D+03
 0.138263786971105D+03 0.170971589297242D+02 0.973826213441126D+00 0.102510303202307D+03
 0.205858974446006D+03 0.110321259548483D+03 0.121918132416339D+03 -.123867292049635D+03
 0.314089058670231D+02 0.302685536891254D+02 -.880435218278264D-01 0.838607617842301D+01
 0.250456132949325D+03 -.193338131363092D+03 -.129865875323325D+03 0.129709126689050D+02
 0.450932869604913D+02 0.356511591957591D+02 0.706196021537278D+01 0.266932218890180D+02
0.274597329964D-05 0.000000000000D+00 0.000000000000D+00 0.606203834200D-06 0.000000000000D+00  7 -1 1 23 -13 13 23 21 0 0.24639831D-01 0.93786629D-01 0.72654081D+05 0.72654081D+05 0.72654081D+05 0.11332882D+01  1  2  2  2  7  2        1 0.152379235236D-03 0.100000000000D+01
-.148504240762D-06 0.000000000000D+00 -.105452605020D-07 0.606203834200D-06 0.000000000000D+00  7 -1 1 23 -13 13 23 21 2 0.24639831D-01 0.93786629D-01 0.72654081D+05 0.72654081D+05 0.72654081D+05 0.11332882D+01  1  2  3  2  7  2        1 -.105839823143D-04 0.100000000000D+01
0.174158829049D-06 0.000000000000D+00 0.000000000000D+00 0.606203834200D-06 0.000000000000D+00  7 -1 1 23 -13 13 23 21 2 0.24639831D-01 0.93786629D-01 0.72654081D+05 0.72654081D+05 0.72654081D+05 0.11332882D+01  1  2 15  2  7  2        1 0.124123995186D-04 0.100000000000D+01
-.106535062280D-05 0.000000000000D+00 0.000000000000D+00 0.606203834200D-06 0.000000000000D+00  7 -1 1 23 -13 13 23 21 2 0.24639831D-01 0.93786629D-01 0.72654081D+05 0.72654081D+05 0.72654081D+05 0.11332882D+01  1  2  4  2  7  2        1 -.759281492058D-04 0.100000000000D+01
  </mgrwgt>
  </event>
  <event>
  8     66 0.27414828E-05 0.27852454E+03 0.75467711E-02 0.99621526E-01
       -1 -1    0    0    0  501 0.00000000E+00 0.00000000E+00 0.67344117E+02 0.67344877E+02 0.32000000E+00 0.0000E+00 0.9000E+01
        1 -1    0    0  501    0 0.00000000E+00 0.00000000E+00 -.13896452E+04 0.13896452E+04 0.32000000E+00 0.0000E+00 0.9000E+01
       25  2    1    2    0    0 -.16336653E+03 -.10162562E+03 -.10671584E+04 0.11249078E+04 0.29928928E+03 0.0000E+00 0.0000E+00
       23  2    1    2    0    0 0.16336653E+03 0.10162562E+03 -.25514271E+03 0.33208236E+03 0.90357627E+02 0.0000E+00 0.0000E+00
       23  1    3    3    0    0 0.39989425E+02 0.15298394E+02 -.23932214E+03 0.25966042E+03 0.91188000E+02 0.0000E+00 0.9000E+01
      -13  1    4    4    0    0 0.44380769E+02 -.52590480E+01 -.98714358E+02 0.10835980E+03 0.10565837E+00 0.0000E+00 0.9000E+01
       13  1    4    4    0    0 0.11898577E+03 0.10688467E+03 -.15642835E+03 0.22372256E+03 0.10565837E+00 0.0000E+00 0.9000E+01
       23  1    3    3    0    0 -.20335596E+03 -.11692401E+03 -.82783625E+03 0.86524735E+03 0.91188000E+02 0.0000E+00 0.9000E+01
#aMCatNLO 1  0  0  2  1 0.92175315D+02 0.00000000D+00  -5  7  0 0.00000000D+00 0.00000000D+00 0.00000000D+00 0.00000000D+00 0.00000000D+00
  <mgrwgt>
 0.1580303568D-03    4    2    0
 0.305916671974654D+03 0.000000000000000D+00 0.000000000000000D+00 0.305916671974654D+03
 0.305916671974654D+03 0.000000000000000D+00 0.000000000000000D+00 -.305916671974654D+03
 0.101116976744610D+03 0.399894244364111D+02 0.152983934759115D+02 -.872907396410140D+01
 0.446999615706360D+02 0.443806670153576D+02 -.525920112565494D+01 -.885304020207851D+00
 0.194687507167740D+03 0.118985868116262D+03 0.106884819856554D+03 0.111001008644248D+03
 0.271328898466322D+03 -.203355959568031D+03 -.116924012206810D+03 -.101386630659939D+03
 0.000000000000000D+00 -.000000000000000D+00 -.000000000000000D+00 0.000000000000000D+00
 0.411403878833992D+03 0.000000000000000D+00 0.000000000000000D+00 0.411403878833992D+03
 0.330185932376136D+03 0.000000000000000D+00 0.000000000000000D+00 -.330185932376136D+03
 0.107572732918613D+03 0.488535997841825D+02 0.281739343975141D+02 -.872907396410140D+01
 0.483432147206398D+02 0.483327115646094D+02 0.481289029549526D+00 -.885304020207851D+00
 0.220312841701331D+03 0.136613166882925D+03 0.132489120054038D+03 0.111001008644248D+03
 0.242508901064393D+03 -.181530502228982D+03 -.852217321777634D+02 -.101386630659939D+03
 0.122852120805151D+03 -.522689760027349D+02 -.759226113033387D+02 0.812179464578557D+02
0.361024645861D-05 0.000000000000D+00 0.000000000000D+00 0.122913938660D-06 0.000000000000D+00  7 -1 1 23 -13 13 23 21 0 0.10360695D-01 0.21379163D+00 0.77575917D+05 0.77575917D+05 0.77575917D+05 0.11308851D+01  1  2  2  2  7  2        1 0.192806550095D-03 0.100000000000D+01
-.198423332276D-06 0.000000000000D+00 -.138642970008D-07 0.122913938660D-06 0.000000000000D+00  7 -1 1 23 -13 13 23 21 2 0.10360695D-01 0.21379163D+00 0.77575917D+05 0.77575917D+05 0.77575917D+05 0.11308851D+01  1  2  3  2  7  2        1 -.135523517742D-04 0.100000000000D+01
0.238482675816D-06 0.000000000000D+00 0.000000000000D+00 0.122913938660D-06 0.000000000000D+00  7 -1 1 23 -13 13 23 21 2 0.10360695D-01 0.21379163D+00 0.77575917D+05 0.77575917D+05 0.77575917D+05 0.11308851D+01  1  2 15  2  7  2        1 0.162884126460D-04 0.100000000000D+01
-.549226186414D-06 0.000000000000D+00 0.000000000000D+00 0.122913938660D-06 0.000000000000D+00  7 -1 1 23 -13 13 23 21 2 0.10360695D-01 0.21379163D+00 0.77575917D+05 0.77575917D+05 0.77575917D+05 0.11308851D+01  1  2  4  2  7  2        1 -.375122542118D-04 0.100000000000D+01
  </mgrwgt>
  </event>
  <event>
  8     66 0.27414828E-05 0.39996142E+03 0.75467711E-02 0.81240611E-01
       -1 -1    0    0    0  501 0.00000000E+00 0.00000000E+00 0.26374263E+03 0.26374283E+03 0.32000000E+00 0.0000E+00 0.9000E+01
        1 -1    0    0  501    0 0.00000000E+00 0.00000000E+00 -.61213638E+03 0.61213646E+03 0.32000000E+00 0.0000E+00 0.9000E+01
       25  2    1    2    0    0 -.33367135E+03 -.58140706E+02 -.20870426E+03 0.49816053E+03 0.29981582E+03 0.0000E+00 0.0000E+00
       23  2    1    2    0    0 0.33367135E+03 0.58140706E+02 -.13968948E+03 0.37771876E+03 0.91877067E+02 0.0000E+00 0.0000E+00
       23  1    3    3    0    0 -.31894883E+03 -.10468239E+03 -.17487555E+03 0.38933721E+03 0.91188000E+02 0.0000E+00 0.9000E+01
      -13  1    4    4    0    0 0.31539815E+03 0.74537523E+02 -.11781630E+03 0.34483695E+03 0.10565837E+00 0.0000E+00 0.9000E+01
       13  1    4    4    0    0 0.18273207E+02 -.16396817E+02 -.21873187E+02 0.32881806E+02 0.10565837E+00 0.0000E+00 0.9000E+01
       23  1    3    3    0    0 -.14722527E+02 0.46541679E+02 -.33828716E+02 0.10882332E+03 0.91188000E+02 0.0000E+00 0.9000E+01
#aMCatNLO 1  0  0  2  1 0.19037705D+04 0.00000000D+00  -5  7  0 0.00000000D+00 0.00000000D+00 0.00000000D+00 0.00000000D+00 0.00000000D+00
  <mgrwgt>
 0.3045216306D-03    5    2    0
 0.401804157832091D+03 0.000000000000000D+00 0.000000000000000D+00 0.401804157832091D+03
 0.401804157832091D+03 0.000000000000000D+00 0.000000000000000D+00 -.401804157832091D+03
 0.348536529504777D+03 -.318948827858440D+03 -.104682385294948D+03 -.218106504240924D+02
 0.324771902805386D+03 0.315398540361167D+03 0.745376435151244D+02 0.210876572688555D+02
 0.263557432047009D+02 0.182728142841103D+02 -.163969375201330D+02 -.958487861015510D+01
 0.103944140149317D+03 -.147225267868375D+02 0.465416792999569D+02 0.103078717653920D+02
 0.000000000000000D+00 -.000000000000000D+00 0.000000000000000D+00 -.000000000000000D+00
 0.163795549776285D+04 0.000000000000000D+00 0.000000000000000D+00 0.163795549776285D+04
 0.253151778025705D+04 0.000000000000000D+00 0.000000000000000D+00 -.253151778025705D+04
 0.693834882791185D+03 0.567743312476240D+02 -.685122298625085D+03 -.218106504240924D+02
 0.109291561704768D+04 0.826404528534984D+03 -.714895385293891D+03 0.210876572688555D+02
 0.123904464865109D+03 0.724341615716104D+02 -.100068670186805D+03 -.958487861015510D+01
 0.155773938830552D+03 0.788929503455766D+02 -.980811849450405D+02 0.103078717653920D+02
 0.210304437448537D+04 -.103450597169979D+04 0.159816753905082D+04 -.893562282494206D+03
0.128004744456D-04 0.000000000000D+00 0.000000000000D+00 0.854285052554D-06 0.000000000000D+00  7 -1 1 23 -13 13 23 21 0 0.40575811D-01 0.94174849D-01 0.15996914D+06 0.15996914D+06 0.15996914D+06 0.11053534D+01  1  2  2  2  7  2        1 0.301728135885D-03 0.100000000000D+01
-.711119199616D-06 0.000000000000D+00 -.491571923135D-07 0.854285052554D-06 0.000000000000D+00  7 -1 1 23 -13 13 23 21 2 0.40575811D-01 0.94174849D-01 0.15996914D+06 0.15996914D+06 0.15996914D+06 0.11053534D+01  1  2  3  2  7  2        1 -.204802112082D-04 0.100000000000D+01
0.806505143449D-06 0.000000000000D+00 0.000000000000D+00 0.854285052554D-06 0.000000000000D+00  7 -1 1 23 -13 13 23 21 2 0.40575811D-01 0.94174849D-01 0.15996914D+06 0.15996914D+06 0.15996914D+06 0.11053534D+01  1  2 15  2  7  2        1 0.232273234744D-04 0.100000000000D+01
0.160093709504D-04 0.000000000000D+00 -.774920714992D-05 0.854285052554D-06 0.000000000000D+00  7 -1 1 23 -13 13 23 21 2 0.40575811D-01 0.80450698D+00 0.15996914D+06 0.15996914D+06 0.15996914D+06 0.11053534D+01  1  2  5  2  7  2        1 0.461041116565D-07 0.100000000000D+01
0.312722420575D-05 0.000000000000D+00 -.200789098767D-05 0.854285052554D-06 0.000000000000D+00  7 -1 21 23 -13 13 23 -1 2 0.40575811D-01 0.80450698D+00 0.15996914D+06 0.15996914D+06 0.15996914D+06 0.11053534D+01  1  2  5  4  7  2        1 0.278337724992D-09 0.100000000000D+01
  </mgrwgt>
  </event>
  <event>
  7     66 0.27414828E-05 0.16469539E+03 0.75467711E-02 0.10133487E+00
       -1 -1    0    0    0  501 0.00000000E+00 0.00000000E+00 0.85105182E+03 0.85105188E+03 0.32000000E+00 0.0000E+00 0.9000E+01
        1 -1    0    0  501    0 0.00000000E+00 0.00000000E+00 -.23453472E+03 0.23453494E+03 0.32000000E+00 0.0000E+00 0.9000E+01
       25  2    1    2    0    0 0.15526399E+03 0.59739930E+02 -.73467056E+02 0.35102091E+03 0.30023741E+03 0.0000E+00 0.0000E+00
       23  1    3    3    0    0 0.42470772E+02 0.14388377E+03 -.36909106E+02 0.17939855E+03 0.91188000E+02 0.0000E+00 0.9000E+01
      -13  1    1    2    0    0 -.10878293E+03 -.10794670E+03 0.61599382E+03 0.63477131E+03 0.10565837E+00 0.0000E+00 0.9000E+01
       13  1    1    2    0    0 -.46481060E+02 0.48206766E+02 0.73990339E+02 0.99794602E+02 0.10565837E+00 0.0000E+00 0.9000E+01
       23  1    3    3    0    0 0.11279322E+03 -.84143845E+02 -.36557951E+02 0.17162235E+03 0.91188000E+02 0.0000E+00 0.9000E+01
#aMCatNLO 1  0  0  2  1 0.12565459D+02 0.00000000D+00  -5  7  0 0.00000000D+00 0.00000000D+00 0.00000000D+00 0.00000000D+00 0.00000000D+00
  <mgrwgt>
 0.4403563530D-03    9    2    0
 0.446767669423751D+03 0.000000000000000D+00 0.000000000000000D+00 0.446767669423751D+03
 0.446767669423751D+03 0.000000000000000D+00 0.000000000000000D+00 -.446767669423751D+03
 0.243424100138046D+03 0.424709134565227D+02 0.143883828905268D+03 -.168622971370290D+03
 0.346185196514353D+03 -.108783443580714D+03 -.107946086631193D+03 0.310415842168878D+03
 0.701918174658399D+02 -.464808273027978D+02 0.482060505031220D+02 0.210380756557183D+02
 0.233734224729263D+03 0.112793357426989D+03 -.841437927771963D+02 -.162830946454307D+03
 0.000000000000000D+00 0.000000000000000D+00 -.000000000000000D+00 -.000000000000000D+00
 0.450719040649395D+03 0.000000000000000D+00 0.000000000000000D+00 0.450719040649395D+03
 0.456914401883782D+03 0.000000000000000D+00 0.000000000000000D+00 -.456914401883782D+03
 0.244351131202188D+03 0.399137378525581D+02 0.146169117917159D+03 -.168622971370290D+03
 0.346348549922970D+03 -.112414071557550D+03 -.104701477927409D+03 0.310415842168878D+03
 0.711378611231446D+02 -.472217521857832D+02 0.488681980267798D+02 0.210380756557183D+02
 0.231786143953535D+03 0.110352853577145D+03 -.819627706280411D+02 -.162830946454307D+03
 0.140097563313390D+02 0.936923231363012D+01 -.837306738848907D+01 -.619536123438690D+01
0.291331148267D-04 0.000000000000D+00 0.000000000000D+00 0.809220572517D-09 0.000000000000D+00  7 -1 1 23 -13 13 23 21 0 0.13093107D+00 0.36082286D-01 0.79372139D+05 0.79372139D+05 0.79372139D+05 0.11300496D+01  1  2  2  2  7  2        1 0.237749182296D-03 0.100000000000D+01
-.120013463733D-05 0.000000000000D+00 -.111878831860D-06 0.809220572517D-09 0.000000000000D+00  7 -1 1 23 -13 13 23 21 2 0.13093107D+00 0.36082286D-01 0.79372139D+05 0.79372139D+05 0.79372139D+05 0.11300496D+01  1  2  3  2  7  2        1 -.125071139465D-04 0.100000000000D+01
0.179236298976D-05 0.000000000000D+00 0.000000000000D+00 0.809220572517D-09 0.000000000000D+00  7 -1 1 23 -13 13 23 21 2 0.13093107D+00 0.36082286D-01 0.79372139D+05 0.79372139D+05 0.79372139D+05 0.11300496D+01  1  2 15  2  7  2        1 0.186789777156D-04 0.100000000000D+01
0.434934899146D-04 0.000000000000D+00 0.000000000000D+00 0.809220572517D-09 0.000000000000D+00  7 -1 1 23 -13 13 23 21 2 0.13093107D+00 0.37058780D-01 0.82927635D+05 0.82927635D+05 0.82927635D+05 0.11284554D+01  1  2 12  2  7  2        1 0.435946149328D-03 0.100000000000D+01
-.419637996968D-04 0.000000000000D+00 0.000000000000D+00 0.809220572517D-09 0.000000000000D+00  7 -1 1 23 -13 13 23 21 2 0.13093107D+00 0.36082286D-01 0.79372139D+05 0.79372139D+05 0.79372139D+05 0.11300496D+01  1  2  4  2  7  2        1 -.437322620406D-03 0.100000000000D+01
-.916549514409D-03 0.000000000000D+00 -.128174056096D-03 0.809220572517D-09 0.000000000000D+00  7 -1 1 23 -13 13 23 21 2 0.13093107D+00 0.37193338D-01 0.79372139D+05 0.79372139D+05 0.79372139D+05 0.11300496D+01  1  2  5  2  7  2        1 -.918340876689D-02 0.100000000000D+01
0.920072493106D-03 0.000000000000D+00 0.128115133713D-03 0.809220572517D-09 0.000000000000D+00  7 -1 1 23 -13 13 23 21 2 0.13093107D+00 0.36082286D-01 0.79372139D+05 0.79372139D+05 0.79372139D+05 0.11300496D+01  1  2  6  2  7  2        1 0.958846712061D-02 0.100000000000D+01
0.126789217907D-05 0.000000000000D+00 0.000000000000D+00 0.809220572517D-09 0.000000000000D+00  7 -1 21 23 -13 13 23 -1 2 0.13093107D+00 0.37058780D-01 0.82927635D+05 0.82927635D+05 0.82927635D+05 0.11284554D+01  1  2 12  4  7  2        1 0.717205289149D-04 0.100000000000D+01
-.494017860922D-05 0.000000000000D+00 -.696805463454D-06 0.809220572517D-09 0.000000000000D+00  7 -1 21 23 -13 13 23 -1 2 0.13093107D+00 0.37193338D-01 0.79372139D+05 0.79372139D+05 0.79372139D+05 0.11300496D+01  1  2  5  4  7  2        1 -.278967104652D-03 0.100000000000D+01
  </mgrwgt>
  </event>
  <event>
  8     66 0.27414828E-05 0.35606400E+03 0.75467711E-02 0.98426610E-01
       -1 -1    0    0    0  501 0.00000000E+00 0.00000000E+00 0.23738452E+03 0.23738474E+03 0.32000000E+00 0.0000E+00 0.9000E+01
        1 -1    0    0  501    0 0.00000000E+00 0.00000000E+00 -.24691400E+04 0.24691400E+04 0.32000000E+00 0.0000E+00 0.9000E+01
       25  2    1    2    0    0 -.23417580E+03 0.16861134E+03 -.23452962E+04 0.23830302E+04 0.30846467E+03 0.0000E+00 0.0000E+00
       23  2    1    2    0    0 0.23417580E+03 -.16861134E+03 0.11354076E+03 0.32349454E+03 0.92136435E+02 0.0000E+00 0.0000E+00
       23  1    3    3    0    0 -.27269969E+03 0.13128238E+03 -.17052007E+04 0.17342506E+04 0.91188000E+02 0.0000E+00 0.9000E+01
      -11  1    4    4    0    0 0.18490778E+03 -.11662451E+03 0.12365088E+03 0.25116071E+03 0.51099893E-03 0.0000E+00 0.9000E+01
       11  1    4    4    0    0 0.49268020E+02 -.51986828E+02 -.10110114E+02 0.72333826E+02 0.51099893E-03 0.0000E+00 0.9000E+01
       23  1    3    3    0    0 0.38523882E+02 0.37328955E+02 -.64009547E+03 0.64877963E+03 0.91188000E+02 0.0000E+00 0.9000E+01
#aMCatNLO 1  0  0  1  1 0.11650286D+02 0.00000000D+00  -5  7  0 0.00000000D+00 0.00000000D+00 0.00000000D+00 0.00000000D+00 0.00000000D+00
  <mgrwgt>
 0.1430635554D-03    4    2    0
 0.765595147490391D+03 0.000000000000000D+00 0.000000000000000D+00 0.765595147490391D+03
 0.765595147490391D+03 0.000000000000000D+00 0.000000000000000D+00 -.765595147490391D+03
 0.580072236155159D+03 -.272699686846433D+03 0.131282380899013D+03 -.486382940771355D+03
 0.624175329439542D+03 0.184907784873598D+03 -.116624508230042D+03 0.584638928787847D+03
 0.113121137634072D+03 0.492680199322235D+02 -.519868276602385D+02 0.875581163651286D+02
 0.213821591752009D+03 0.385238820406111D+02 0.373289549912677D+02 -.185814104381620D+03
 0.000000000000000D+00 -.000000000000000D+00 -.000000000000000D+00 -.000000000000000D+00
 0.767974090574224D+03 0.000000000000000D+00 0.000000000000000D+00 0.767974090574224D+03
 0.780015026485944D+03 0.000000000000000D+00 0.000000000000000D+00 -.780015026485944D+03
 0.578769553556282D+03 -.268856419672808D+03 0.133442142170555D+03 -.486382940771355D+03
 0.624985179315666D+03 0.189050591614355D+03 -.114296417792933D+03 0.584638928787847D+03
 0.113257427777647D+03 0.500187982670951D+02 -.515649204916980D+02 0.875581163651286D+02
 0.214222455148469D+03 0.399434784418833D+02 0.381267109603893D+02 -.185814104381620D+03
 0.167545012621026D+02 -.101564486505258D+02 -.570751484631366D+01 -.120409359117197D+02
0.111394761227D-03 0.000000000000D+00 0.000000000000D+00 0.300986045528D-07 0.000000000000D+00  7 -1 1 23 -11 11 23 21 0 0.36520714D-01 0.37986771D+00 0.12678157D+06 0.12678157D+06 0.12678157D+06 0.11133619D+01  1  2  2  1  7  1       -1 0.148797831607D-03 0.100000000000D+01
-.177885822005D-05 0.000000000000D+00 -.427785214027D-06 0.300986045528D-07 0.000000000000D+00  7 -1 1 23 -11 11 23 21 2 0.36520714D-01 0.37986771D+00 0.12678157D+06 0.12678157D+06 0.12678157D+06 0.11133619D+01  1  2  3  1  7  1       -1 -.294541104009D-05 0.100000000000D+01
0.693967725964D-05 0.000000000000D+00 0.000000000000D+00 0.300986045528D-07 0.000000000000D+00  7 -1 1 23 -11 11 23 21 2 0.36520714D-01 0.37986771D+00 0.12678157D+06 0.12678157D+06 0.12678157D+06 0.11133619D+01  1  2 15  1  7  1       -1 0.114906302171D-04 0.100000000000D+01
-.862399083902D-05 0.000000000000D+00 0.000000000000D+00 0.300986045528D-07 0.000000000000D+00  7 -1 1 23 -11 11 23 21 2 0.36520714D-01 0.37986771D+00 0.12678157D+06 0.12678157D+06 0.12678157D+06 0.11133619D+01  1  2  4  1  7  1       -1 -.142794954317D-04 0.100000000000D+01
  </mgrwgt>
  </event>
  <event>
  8     66 0.27414828E-05 0.32005817E+03 0.75467711E-02 0.91117757E-01
       -1 -1    0    0    0  501 0.00000000E+00 0.00000000E+00 0.15876773E+03 0.15876806E+03 0.32000000E+00 0.0000E+00 0.9000E+01
        1 -1    0    0  501    0 0.00000000E+00 0.00000000E+00 -.92193889E+03 0.92193894E+03 0.32000000E+00 0.0000E+00 0.9000E+01
       25  2    1    2    0    0 0.20767283E+03 0.18459018E+03 -.65392009E+03 0.77038877E+03 0.29780167E+03 0.0000E+00 0.0000E+00
       23  2    1    2    0    0 -.20767283E+03 -.18459018E+03 -.10925106E+03 0.31031823E+03 0.84617180E+02 0.0000E+00 0.0000E+00
       23  1    3    3    0    0 0.17924964E+03 0.15856618E+03 -.61097240E+03 0.66247732E+03 0.91188000E+02 0.0000E+00 0.9000E+01
      -11  1    4    4    0    0 -.24078922E+02 0.81303571E+00 -.28212276E+02 0.37099704E+02 0.51099893E-03 0.0000E+00 0.9000E+01
       11  1    4    4    0    0 -.18359391E+03 -.18540321E+03 -.81038788E+02 0.27321852E+03 0.51099893E-03 0.0000E+00 0.9000E+01
       23  1    3    3    0    0 0.28423195E+02 0.26023994E+02 -.42947685E+02 0.10791145E+03 0.91188000E+02 0.0000E+00 0.9000E+01
#aMCatNLO 1  0  0  2  1 0.55945334D+03 0.00000000D+00  -5  7  0 0.00000000D+00 0.00000000D+00 0.00000000D+00 0.00000000D+00 0.00000000D+00
  <mgrwgt>
 0.1820887397D-03    5    2    0
 0.382589010908306D+03 0.000000000000000D+00 0.000000000000000D+00 0.382589010908306D+03
 0.382589010908306D+03 0.000000000000000D+00 0.000000000000000D+00 -.382589010908306D+03
 0.326286632425402D+03 0.179249639688570D+03 0.158566184207524D+03 -.202173309447348D+03
 0.242598635111454D+02 -.240789219970269D+02 0.813035710646076D+00 -.284349537958381D+01
 0.305056729716570D+03 -.183593912890004D+03 -.185403213470466D+03 0.158045980429530D+03
 0.109574796163494D+03 0.284231951984609D+02 0.260239935522955D+02 0.469708243974018D+02
 0.000000000000000D+00 -.000000000000000D+00 -.000000000000000D+00 -.000000000000000D+00
 0.588175146668836D+03 0.000000000000000D+00 0.000000000000000D+00 0.588175146668836D+03
 0.115892091778702D+04 0.000000000000000D+00 0.000000000000000D+00 -.115892091778702D+04
 0.573791720065115D+03 0.344718441023956D+03 0.401518164018023D+03 -.202173309447348D+03
 0.206336421787794D+02 -.158257798636775D+02 0.129308319645183D+02 -.284349537958381D+01
 0.190296201163591D+03 -.925291122713550D+02 -.516959923943586D+02 0.158045980429530D+03
 0.163163156741147D+03 0.785628547302387D+02 0.996422796096120D+02 0.469708243974018D+02
 0.799211344307223D+03 -.314926403619162D+03 -.462395283197794D+03 -.570745771118184D+03
0.605218909621D-05 0.000000000000D+00 0.000000000000D+00 0.168454300064D-08 0.000000000000D+00  7 -1 1 23 -11 11 23 21 0 0.24425834D-01 0.14183678D+00 0.10243723D+06 0.10243723D+06 0.10243723D+06 0.11208649D+01  1  2  2  2  7  2        1 0.179412735670D-03 0.100000000000D+01
-.323213168347D-06 0.000000000000D+00 -.232419997074D-07 0.168454300064D-08 0.000000000000D+00  7 -1 1 23 -11 11 23 21 2 0.24425834D-01 0.14183678D+00 0.10243723D+06 0.10243723D+06 0.10243723D+06 0.11208649D+01  1  2  3  2  7  2        1 -.120375010758D-04 0.100000000000D+01
0.391566058031D-06 0.000000000000D+00 0.000000000000D+00 0.168454300064D-08 0.000000000000D+00  7 -1 1 23 -11 11 23 21 2 0.24425834D-01 0.14183678D+00 0.10243723D+06 0.10243723D+06 0.10243723D+06 0.11208649D+01  1  2 15  2  7  2        1 0.145831831943D-04 0.100000000000D+01
0.116264130307D-06 0.000000000000D+00 -.186916104479D-05 0.168454300064D-08 0.000000000000D+00  7 -1 1 23 -11 11 23 21 2 0.24425834D-01 0.49253468D+00 0.10243723D+06 0.10243723D+06 0.10243723D+06 0.11208649D+01  1  2  5  2  7  2        1 0.115313193271D-06 0.100000000000D+01
0.786286561160D-07 0.000000000000D+00 -.271869718284D-06 0.168454300064D-08 0.000000000000D+00  7 -1 21 23 -11 11 23 -1 2 0.24425834D-01 0.49253468D+00 0.10243723D+06 0.10243723D+06 0.10243723D+06 0.11208649D+01  1  2  5  4  7  2        1 0.150087066423D-07 0.100000000000D+01
  </mgrwgt>
  </event>
  <event>
  8     66 0.27414828E-05 0.21557354E+03 0.75467711E-02 0.10215285E+00
       -1 -1    0    0    0  501 0.00000000E+00 0.00000000E+00 0.21692628E+03 0.21692652E+03 0.32000000E+00 0.0000E+00 0.9000E+01
        1 -1    0    0  501    0 0.00000000E+00 0.00000000E+00 -.57132473E+03 0.57132482E+03 0.32000000E+00 0.0000E+00 0.9000E+01
       25  2    1    2    0    0 0.11887936E+03 0.29762889E+02 -.48695074E+03 0.58540048E+03 0.30092286E+03 0.0000E+00 0.0000E+00
       23  2    1    2    0    0 -.11887936E+03 -.29762889E+02 0.13255229E+03 0.20285086E+03 0.92521514E+02 0.0000E+00 0.0000E+00
       23  1    3    3    0    0 -.43618193E+02 -.25221272E+02 -.29261855E+03 0.31061154E+03 0.91188000E+02 0.0000E+00 0.9000E+01
      -13  1    4    4    0    0 -.12970472E+02 -.23194136E+02 -.70538219E+01 0.27494884E+02 0.10565837E+00 0.0000E+00 0.9000E+01
       13  1    4    4    0    0 -.10590889E+03 -.65687531E+01 0.13960611E+03 0.17535598E+03 0.10565837E+00 0.0000E+00 0.9000E+01
       23  1    3    3    0    0 0.16249755E+03 0.54984161E+02 -.19433219E+03 0.27478894E+03 0.91188000E+02 0.0000E+00 0.9000E+01
#aMCatNLO 1  0  0  1  1 0.95205650D+02 0.00000000D+00  -5  7  0 0.00000000D+00 0.00000000D+00 0.00000000D+00 0.00000000D+00 0.00000000D+00
  <mgrwgt>
 0.8197516477D-04    4    2    0
 0.352044711972650D+03 0.000000000000000D+00 0.000000000000000D+00 0.352044711972650D+03
 0.352044711972650D+03 0.000000000000000D+00 0.000000000000000D+00 -.352044711972650D+03
 0.200452378527539D+03 -.436181925711503D+02 -.252212720737879D+02 -.171251993930446D+03
 0.272306256206098D+02 -.129703510204240D+02 -.231941565745910D+02 0.594205914562889D+01
 0.266586867720593D+03 -.105909009012303D+03 -.656873216303791D+01 0.244558155882971D+03
 0.209819552076558D+03 0.162497552603877D+03 0.549841608114168D+02 -.792482210981531D+02
 0.000000000000000D+00 -.000000000000000D+00 0.000000000000000D+00 -.000000000000000D+00
 0.390947014578355D+03 0.000000000000000D+00 0.000000000000000D+00 0.390947014578355D+03
 0.418725386735400D+03 0.000000000000000D+00 0.000000000000000D+00 -.418725386735400D+03
 0.205569245489441D+03 -.430758166207393D+02 -.525422872018426D+02 -.171251993930446D+03
 0.305792820198420D+02 -.128931267994836D+02 -.270841596379012D+02 0.594205914562889D+01
 0.269616753831671D+03 -.105192732017063D+03 -.426496362075339D+02 0.244558155882971D+03
 0.204731750874960D+03 0.163051322757073D+03 0.270891873682795D+02 -.792482210981531D+02
 0.991753690978407D+02 -.188964731978644D+01 0.951868956789981D+02 -.277783721570449D+02
0.410436606544D-05 0.000000000000D+00 0.000000000000D+00 0.152910453600D-06 0.000000000000D+00  7 -1 1 23 -13 13 23 21 0 0.33373299D-01 0.87896138D-01 0.46471952D+05 0.46471952D+05 0.46471952D+05 0.11501012D+01  1  2  2  1  7  1       -1 0.152147677508D-03 0.100000000000D+01
-.161331164258D-06 0.000000000000D+00 -.157618463957D-07 0.152910453600D-06 0.000000000000D+00  7 -1 1 23 -13 13 23 21 2 0.33373299D-01 0.87896138D-01 0.46471952D+05 0.46471952D+05 0.46471952D+05 0.11501012D+01  1  2  3  1  7  1       -1 -.791060349175D-05 0.100000000000D+01
0.247160634207D-06 0.000000000000D+00 0.000000000000D+00 0.152910453600D-06 0.000000000000D+00  7 -1 1 23 -13 13 23 21 2 0.33373299D-01 0.87896138D-01 0.46471952D+05 0.46471952D+05 0.46471952D+05 0.11501012D+01  1  2 15  1  7  1       -1 0.121191078300D-04 0.100000000000D+01
-.151694824505D-05 0.000000000000D+00 0.000000000000D+00 0.152910453600D-06 0.000000000000D+00  7 -1 1 23 -13 13 23 21 2 0.33373299D-01 0.87896138D-01 0.46471952D+05 0.46471952D+05 0.46471952D+05 0.11501012D+01  1  2  4  1  7  1       -1 -.743810170790D-04 0.100000000000D+01
  </mgrwgt>
  </event>
  <event>
  8     66 0.27414828E-05 0.25915807E+03 0.75467711E-02 0.96846287E-01
       -1 -1    0    0    0  501 0.00000000E+00 0.00000000E+00 0.18699877E+03 0.18699904E+03 0.32000000E+00 0.0000E+00 0.9000E+01
        1 -1    0    0  501    0 0.00000000E+00 0.00000000E+00 -.92101807E+03 0.92101812E+03 0.32000000E+00 0.0000E+00 0.9000E+01
       25  2    1    2    0    0 0.47267075E+02 0.34139742E+03 -.52180299E+03 0.69354584E+03 0.29990182E+03 0.0000E+00 0.0000E+00
       23  2    1    2    0    0 -.47267075E+02 -.34139742E+03 -.21221631E+03 0.41447133E+03 0.89243185E+02 0.0000E+00 0.0000E+00
       23  1    3    3    0    0 0.18769777E+01 0.17150564E+03 -.81344608E+02 0.21059417E+03 0.91188000E+02 0.0000E+00 0.9000E+01
      -13  1    4    4    0    0 0.17619664E+01 -.25692231E+03 -.16992023E+03 0.30803421E+03 0.10565837E+00 0.0000E+00 0.9000E+01
       13  1    4    4    0    0 -.49029042E+02 -.84475111E+02 -.42296077E+02 0.10643712E+03 0.10565837E+00 0.0000E+00 0.9000E+01
       23  1    3    3    0    0 0.45390098E+02 0.16989177E+03 -.44045838E+03 0.48295167E+03 0.91188000E+02 0.0000E+00 0.9000E+01
#aMCatNLO 1  0  0  1  2 0.75951762D+02 0.00000000D+00  -5  7  0 0.00000000D+00 0.00000000D+00 0.00000000D+00 0.00000000D+00 0.00000000D+00
  <mgrwgt>
 0.1126019920D-03    9    2    0
 0.415005335203825D+03 0.000000000000000D+00 0.000000000000000D+00 0.415005335203825D+03
 0.415005335203825D+03 0.000000000000000D+00 0.000000000000000D+00 -.415005335203825D+03
 0.209194233849277D+03 0.187697771340077D+01 0.171505643949900D+03 0.776483559373898D+02
 0.260939587916009D+03 0.176203752470371D+01 -.256922548777876D+03 0.455759552288086D+02
 0.104682796203889D+03 -.490291128975557D+02 -.844748690428824D+02 0.376647104028625D+02
 0.255194052438475D+03 0.453900976594513D+02 0.169891773870859D+03 -.160889021569061D+03
 0.000000000000000D+00 0.000000000000000D+00 -.000000000000000D+00 0.000000000000000D+00
 0.577990023913118D+03 0.000000000000000D+00 0.000000000000000D+00 0.577990023913118D+03
 0.425682873331844D+03 0.000000000000000D+00 0.000000000000000D+00 -.425682873331844D+03
 0.210137349342813D+03 -.172666533080003D+02 0.171799446298831D+03 0.776483559373898D+02
 0.261507808072797D+03 -.220891117275575D+02 -.256556498906396D+03 0.455759552288086D+02
 0.109487520928214D+03 -.588065722906759D+02 -.843248117975733D+02 0.376647104028625D+02
 0.252345805597008D+03 0.222195181936190D+02 0.170247378858521D+03 -.160889021569061D+03
 0.170194413304130D+03 0.759428191326147D+02 -.116551445338248D+01 0.152307150581275D+03
0.415502428514D-05 0.000000000000D+00 0.000000000000D+00 0.163390653935D-06 0.000000000000D+00  7 -1 1 23 -13 13 23 21 0 0.28769067D-01 0.14169511D+00 0.13947917D+06 0.13947917D+06 0.13947917D+06 0.11100528D+01  1  2  2  1  7  1       -1 0.936000695793D-04 0.100000000000D+01
-.227713450467D-06 0.000000000000D+00 -.159563872980D-07 0.163390653935D-06 0.000000000000D+00  7 -1 1 23 -13 13 23 21 2 0.28769067D-01 0.14169511D+00 0.13947917D+06 0.13947917D+06 0.13947917D+06 0.11100528D+01  1  2  3  1  7  1       -1 -.632089495267D-05 0.100000000000D+01
0.254855168886D-06 0.000000000000D+00 0.000000000000D+00 0.163390653935D-06 0.000000000000D+00  7 -1 1 23 -13 13 23 21 2 0.28769067D-01 0.14169511D+00 0.13947917D+06 0.13947917D+06 0.13947917D+06 0.11100528D+01  1  2 15  1  7  1       -1 0.707429775170D-05 0.100000000000D+01
0.139765243936D-04 0.000000000000D+00 0.000000000000D+00 0.163390653935D-06 0.000000000000D+00  7 -1 1 23 -13 13 23 21 2 0.40327978D-01 0.14169511D+00 0.17054096D+06 0.17054096D+06 0.17054096D+06 0.11031801D+01  1  2 12  1  7  1       -1 0.214421333894D-03 0.100000000000D+01
-.138160219822D-04 0.000000000000D+00 0.000000000000D+00 0.163390653935D-06 0.000000000000D+00  7 -1 1 23 -13 13 23 21 2 0.28769067D-01 0.14169511D+00 0.13947917D+06 0.13947917D+06 0.13947917D+06 0.11100528D+01  1  2  4  1  7  1       -1 -.383506654676D-03 0.100000000000D+01
-.161338245763D-04 0.000000000000D+00 -.194951974982D-05 0.163390653935D-06 0.000000000000D+00  7 -1 1 23 -13 13 23 21 2 0.40762687D-01 0.14169511D+00 0.13947917D+06 0.13947917D+06 0.13947917D+06 0.11100528D+01  1  2  5  1  7  1       -1 -.247420226975D-03 0.100000000000D+01
0.159477292261D-04 0.000000000000D+00 0.183686262248D-05 0.163390653935D-06 0.000000000000D+00  7 -1 1 23 -13 13 23 21 2 0.28769067D-01 0.14169511D+00 0.13947917D+06 0.13947917D+06 0.13947917D+06 0.11100528D+01  1  2  6  1  7  1       -1 0.442678818334D-03 0.100000000000D+01
0.588450323966D-06 0.000000000000D+00 0.000000000000D+00 0.163390653935D-06 0.000000000000D+00  7 21 1 23 -13 13 23 1 2 0.40327978D-01 0.14169511D+00 0.17054096D+06 0.17054096D+06 0.17054096D+06 0.11031801D+01  1  2 12  3  7  1       -1 0.886071013974D-04 0.100000000000D+01
-.639974415052D-06 0.000000000000D+00 -.839503280806D-07 0.163390653935D-06 0.000000000000D+00  7 21 1 23 -13 13 23 1 2 0.40762687D-01 0.14169511D+00 0.13947917D+06 0.13947917D+06 0.13947917D+06 0.11100528D+01  1  2  5  3  7  1       -1 -.965318523536D-04 0.100000000000D+01
  </mgrwgt>
  </event>
  <event>
  8     66 0.27414828E-05 0.18934856E+03 0.75467711E-02 0.98405313E-01
       -3 -1    0    0    0  501 0.00000000E+00 0.00000000E+00 0.57149512E+02 0.57151700E+02 0.50000000E+00 0.0000E+00 0.9000E+01
        3 -1    0    0  501    0 0.00000000E+00 0.00000000E+00 -.74526944E+03 0.74526960E+03 0.50000000E+00 0.0000E+00 0.9000E+01
       25  2    1    2    0    0 0.47576793E+02 0.43772836E+01 -.47136365E+03 0.56141799E+03 0.30120385E+03 0.0000E+00 0.0000E+00
       23  2    1    2    0    0 -.47576793E+02 -.43772836E+01 -.21675628E+03 0.24100332E+03 0.93896766E+02 0.0000E+00 0.0000E+00
       23  1    3    3    0    0 0.10246737E+03 -.66352694E+02 -.36366111E+03 0.39429291E+03 0.91188000E+02 0.0000E+00 0.9000E+01
      -13  1    4    4    0    0 0.22825147E+02 0.12654826E+02 -.25490616E+02 0.36481703E+02 0.10565837E+00 0.0000E+00 0.9000E+01
       13  1    4    4    0    0 -.70401941E+02 -.17032109E+02 -.19126566E+03 0.20452161E+03 0.10565837E+00 0.0000E+00 0.9000E+01
       23  1    3    3    0    0 -.54890577E+02 0.70729977E+02 -.10770254E+03 0.16712508E+03 0.91188000E+02 0.0000E+00 0.9000E+01
#aMCatNLO 1  0  0  2  2 0.26471479D+03 0.00000000D+00  -5  7  0 0.00000000D+00 0.00000000D+00 0.00000000D+00 0.00000000D+00 0.00000000D+00
  <mgrwgt>
 0.5506701939D-04    5    2    0
 0.206380061444828D+03 0.000000000000000D+00 0.000000000000000D+00 0.206380061444828D+03
 0.206380061444828D+03 0.000000000000000D+00 0.000000000000000D+00 -.206380061444828D+03
 0.160255455649519D+03 0.102469869994532D+03 -.663524635449953D+02 -.496370430852683D+02
 0.284229192765561D+02 0.228225497484854D+02 0.126541815419493D+02 0.112634476375098D+02
 0.787374352610766D+02 -.704041100177604D+02 -.170319036782090D+02 -.308667986871902D+02
 0.145344312702505D+03 -.548883097252568D+02 0.707301856812551D+02 0.692403941349487D+02
 0.000000000000000D+00 0.000000000000000D+00 -.000000000000000D+00 -.000000000000000D+00
 0.288214652404729D+03 0.000000000000000D+00 0.000000000000000D+00 0.288214652404729D+03
 0.652215294695479D+03 0.000000000000000D+00 0.000000000000000D+00 -.652215294695479D+03
 0.113938734808932D+03 0.271629880656881D+02 -.382768857008345D+02 -.496370430852683D+02
 0.228862565220008D+02 0.873058799952299D+01 0.179078842438320D+02 0.112634476375098D+02
 0.132030542455651D+03 -.128291110416114D+03 0.454927116560665D+01 -.308667986871902D+02
 0.221496214212585D+03 -.155640321286550D+03 0.108292103942825D+03 0.692403941349487D+02
 0.450078199101039D+03 0.248037855637454D+03 -.924723736514289D+02 -.364000642290750D+03
0.228606275684D-05 0.000000000000D+00 0.000000000000D+00 0.493810518241D-08 0.000000000000D+00  7 -3 3 23 -13 13 23 21 0 0.87924138D-02 0.11465702D+00 0.35852877D+05 0.35852877D+05 0.35852877D+05 0.11602218D+01  1  2  2  2  7  2        3 0.546713131182D-04 0.100000000000D+01
-.125857960639D-06 0.000000000000D+00 -.877908292040D-08 0.493810518241D-08 0.000000000000D+00  7 -3 3 23 -13 13 23 21 2 0.87924138D-02 0.11465702D+00 0.35852877D+05 0.35852877D+05 0.35852877D+05 0.11602218D+01  1  2  3  2  7  2        3 -.405166999979D-05 0.100000000000D+01
0.146066266450D-06 0.000000000000D+00 0.000000000000D+00 0.493810518241D-08 0.000000000000D+00  7 -3 3 23 -13 13 23 21 2 0.87924138D-02 0.11465702D+00 0.35852877D+05 0.35852877D+05 0.35852877D+05 0.11602218D+01  1  2 15  2  7  2        3 0.470222389392D-05 0.100000000000D+01
-.472395059618D-06 0.000000000000D+00 -.735480683249D-06 0.493810518241D-08 0.000000000000D+00  7 -3 3 23 -13 13 23 21 2 0.87924138D-02 0.40678847D+00 0.35852877D+05 0.35852877D+05 0.35852877D+05 0.11602218D+01  1  2  5  2  7  2        3 -.723639839412D-07 0.100000000000D+01
-.480377679273D-07 0.000000000000D+00 -.109207788031D-06 0.493810518241D-08 0.000000000000D+00  7 -3 21 23 -13 13 23 -3 2 0.87924138D-02 0.40678847D+00 0.35852877D+05 0.35852877D+05 0.35852877D+05 0.11602218D+01  1  2  5  4  7  2        3 -.182483641099D-06 0.100000000000D+01
  </mgrwgt>
  </event>
  <event>
  9     66 0.27414828E-05 0.19450293E+03 0.75467711E-02 0.10570617E+00
       21 -1    0    0  502  501 0.00000000E+00 0.00000000E+00 0.57046603E+02 0.57051533E+02 0.75000000E+00 0.0000E+00 0.9000E+01
        1 -1    0    0  501    0 0.00000000E+00 0.00000000E+00 -.11196474E+04 0.11196474E+04 0.32000000E+00 0.0000E+00 0.9000E+01
       25  2    1    2    0    0 -.38414096E+02 -.29166002E+02 -.40932824E+03 0.50964417E+03 0.29976870E+03 0.0000E+00 0.0000E+00
       23  2    1    2    0    0 0.12792055E+02 0.46077350E+02 -.54754841E+03 0.55696312E+03 0.90066068E+02 0.0000E+00 0.0000E+00
       23  1    3    3    0    0 -.99761533E+02 0.60417376E+02 -.28459574E+03 0.32079996E+03 0.91188000E+02 0.0000E+00 0.9000E+01
      -11  1    4    4    0    0 -.24245259E+02 0.54137213E+02 -.24644637E+03 0.25348468E+03 0.51099893E-03 0.0000E+00 0.9000E+01
       11  1    4    4    0    0 0.37037313E+02 -.80598638E+01 -.30110204E+03 0.30347844E+03 0.51099893E-03 0.0000E+00 0.9000E+01
       23  1    3    3    0    0 0.61347437E+02 -.89583377E+02 -.12473249E+03 0.18884421E+03 0.91188000E+02 0.0000E+00 0.9000E+01
        1  1    1    2  502    0 0.25622041E+02 -.16911348E+02 -.10572415E+03 0.11009169E+03 0.32000000E+00 0.0000E+00 0.9000E+01
#aMCatNLO 2  0  0  1  1 0.30699881D+02 0.00000000D+00  -5  7  0 0.00000000D+00 0.00000000D+00 0.00000000D+00 0.00000000D+00 0.00000000D+00
  <mgrwgt>
 0.3060213874D-04    1    2    0
 0.235104073622213D+03 0.000000000000000D+00 0.000000000000000D+00 0.235104073622213D+03
 0.235104073622213D+03 0.000000000000000D+00 0.000000000000000D+00 -.235104073622213D+03
 0.140930597913833D+03 -.918917694722211D+02 0.552230858762064D+02 0.724538293838315D+01
 0.702095142281848D+02 -.203388503953907D+02 0.515588618902830D+02 -.430974571561980D+02
 0.779656367684567D+02 0.412140168530503D+02 -.108166186087893D+02 -.652920063516156D+02
 0.181102398333951D+03 0.710166030145615D+02 -.959653291577001D+02 0.101144080569430D+03
 0.000000000000000D+00 0.000000000000000D+00 -.000000000000000D+00 -.000000000000000D+00
 0.244981541673101D+03 0.000000000000000D+00 0.000000000000000D+00 0.244981541673101D+03
 0.260732411773847D+03 0.000000000000000D+00 0.000000000000000D+00 -.260732411773847D+03
 0.148224052047049D+03 -.997615327519300D+02 0.604173755662070D+02 0.724538293838315D+01
 0.733216288660392D+02 -.242452586774999D+02 0.541372134293961D+02 -.430974571561980D+02
 0.754968216769277D+02 0.370373134161499D+02 -.805986382095223D+01 -.652920063516156D+02
 0.174166776181688D+03 0.613474370357542D+02 -.895833774560371D+02 0.101144080569430D+03
 0.345046746752446D+02 0.256220409775259D+02 -.169113477186137D+02 -.157508701007464D+02
0.149516528301D-07 0.000000000000D+00 0.000000000000D+00 0.111345843069D-06 0.678444149183D-11  7 21 1 23 -11 11 23 1 2 0.87767571D-02 0.17225332D+00 0.43630361D+05 0.43630361D+05 0.43630361D+05 0.11525376D+01  1  2  1  3  7  1       -1 0.306021387384D-04 0.100000000000D+01
  </mgrwgt>
  </event>
  <event>
  8     66 0.27414828E-05 0.19942437E+03 0.75467711E-02 0.96705511E-01
       -1 -1    0    0    0  501 0.00000000E+00 0.00000000E+00 0.68720916E+02 0.68721661E+02 0.32000000E+00 0.0000E+00 0.9000E+01
        1 -1    0    0  501    0 0.00000000E+00 0.00000000E+00 -.24181615E+04 0.24181615E+04 0.32000000E+00 0.0000E+00 0.9000E+01
       25  2    1    2    0    0 0.33289617E+03 -.89855402E+02 -.12946746E+04 0.13733350E+04 0.30161691E+03 0.0000E+00 0.0000E+00
       23  2    1    2    0    0 -.33289617E+03 0.89855402E+02 -.10547659E+04 0.11135482E+04 0.92544502E+02 0.0000E+00 0.0000E+00
       23  1    3    3    0    0 0.76538477E+02 -.13289004E+03 -.42059245E+03 0.45687105E+03 0.91188000E+02 0.0000E+00 0.9000E+01
      -13  1    4    4    0    0 -.15992373E+03 0.88065502E+02 -.49114818E+03 0.52398251E+03 0.10565837E+00 0.0000E+00 0.9000E+01
       13  1    4    4    0    0 -.17297245E+03 0.17898999E+01 -.56361775E+03 0.58956564E+03 0.10565837E+00 0.0000E+00 0.9000E+01
       23  1    3    3    0    0 0.25635770E+03 0.43034635E+02 -.87408218E+03 0.91646395E+03 0.91188000E+02 0.0000E+00 0.9000E+01
#aMCatNLO 1  0  0  1  2 0.25949404D+02 0.00000000D+00  -5  7  0 0.00000000D+00 0.00000000D+00 0.00000000D+00 0.00000000D+00 0.00000000D+00
  <mgrwgt>
 0.3635284129D-04    9    2    0
 0.407650860552605D+03 0.000000000000000D+00 0.000000000000000D+00 0.407650860552605D+03
 0.407650860552605D+03 0.000000000000000D+00 0.000000000000000D+00 -.407650860552605D+03
 0.181562195402033D+03 0.765384775222096D+02 -.132890036646361D+03 0.336404380755824D+02
 0.182950487323978D+03 -.159923709115775D+03 0.880656136622369D+02 0.118209883270163D+02
 0.174161858712715D+03 -.172972464386927D+03 0.178978820477993D+01 -.202404607744808D+02
 0.276627179666483D+03 0.256357695980493D+03 0.430346347793440D+02 -.252209656281179D+02
 0.000000000000000D+00 0.000000000000000D+00 0.000000000000000D+00 0.000000000000000D+00
 0.421781819040008D+03 0.000000000000000D+00 0.000000000000000D+00 0.421781819040008D+03
 0.419946950782591D+03 0.000000000000000D+00 0.000000000000000D+00 -.419946950782591D+03
 0.179728258388367D+03 0.708296284034967D+02 -.133560773379092D+03 0.336404380755824D+02
 0.187771335248260D+03 -.165781585868055D+03 0.873773675671205D+02 0.118209883270163D+02
 0.179711158262813D+03 -.178564108561032D+03 0.113282196413461D+01 -.202404607744808D+02
 0.268503823195860D+03 0.247743932144155D+03 0.420225975557360D+02 -.252209656281179D+02
 0.260141947272995D+02 0.257721338814354D+02 0.302798629210041D+01 0.183486825741693D+01
0.272441569411D-05 0.000000000000D+00 0.000000000000D+00 0.140400405080D-07 0.000000000000D+00  7 -1 1 23 -13 13 23 21 0 0.10572508D-01 0.37202490D+00 0.16379967D+06 0.16379967D+06 0.16379967D+06 0.11045482D+01  1  2  2  1  7  1       -1 0.288355352907D-04 0.100000000000D+01
-.151346857339D-06 0.000000000000D+00 -.104624736205D-07 0.140400405080D-07 0.000000000000D+00  7 -1 1 23 -13 13 23 21 2 0.10572508D-01 0.37202490D+00 0.16379967D+06 0.16379967D+06 0.16379967D+06 0.11045482D+01  1  2  3  1  7  1       -1 -.195432785851D-05 0.100000000000D+01
0.178029316215D-06 0.000000000000D+00 0.000000000000D+00 0.140400405080D-07 0.000000000000D+00  7 -1 1 23 -13 13 23 21 2 0.10572508D-01 0.37202490D+00 0.16379967D+06 0.16379967D+06 0.16379967D+06 0.11045482D+01  1  2 15  1  7  1       -1 0.229887596233D-05 0.100000000000D+01
0.514090899309D-05 0.000000000000D+00 0.000000000000D+00 0.140400405080D-07 0.000000000000D+00  7 -1 1 23 -13 13 23 21 2 0.11093331D-01 0.37202490D+00 0.17463395D+06 0.17463395D+06 0.17463395D+06 0.11023780D+01  1  2 12  1  7  1       -1 0.612222764787D-04 0.100000000000D+01
-.414267133915D-05 0.000000000000D+00 0.000000000000D+00 0.140400405080D-07 0.000000000000D+00  7 -1 1 23 -13 13 23 21 2 0.10572508D-01 0.37202490D+00 0.16379967D+06 0.16379967D+06 0.16379967D+06 0.11045482D+01  1  2  4  1  7  1       -1 -.534939287747D-04 0.100000000000D+01
-.290968219151D-04 0.000000000000D+00 -.518292754928D-05 0.140400405080D-07 0.000000000000D+00  7 -1 1 23 -13 13 23 21 2 0.11366299D-01 0.37202490D+00 0.16379967D+06 0.16379967D+06 0.16379967D+06 0.11045482D+01  1  2  5  1  7  1       -1 -.335846928460D-03 0.100000000000D+01
0.294084957439D-04 0.000000000000D+00 0.516937490878D-05 0.140400405080D-07 0.000000000000D+00  7 -1 1 23 -13 13 23 21 2 0.10572508D-01 0.37202490D+00 0.16379967D+06 0.16379967D+06 0.16379967D+06 0.11045482D+01  1  2  6  1  7  1       -1 0.379749163740D-03 0.100000000000D+01
0.596824618716D-07 0.000000000000D+00 0.000000000000D+00 0.140400405080D-07 0.000000000000D+00  7 21 1 23 -13 13 23 1 2 0.11093331D-01 0.37202490D+00 0.17463395D+06 0.17463395D+06 0.17463395D+06 0.11023780D+01  1  2 12  3  7  1       -1 0.966057033427D-05 0.100000000000D+01
-.346176352402D-06 0.000000000000D+00 -.633179612201D-07 0.140400405080D-07 0.000000000000D+00  7 21 1 23 -13 13 23 1 2 0.11366299D-01 0.37202490D+00 0.16379967D+06 0.16379967D+06 0.16379967D+06 0.11045482D+01  1  2  5  3  7  1       -1 -.541183954224D-04 0.100000000000D+01
  </mgrwgt>
  </event>
  <event>
  8     66 0.27414828E-05 0.11878024E+03 0.75467711E-02 0.95927455E-01
       -1 -1    0    0    0  501 0.00000000E+00 0.00000000E+00 0.25336016E+03 0.25336036E+03 0.32000000E+00 0.0000E+00 0.9000E+01
        1 -1    0    0  501    0 0.00000000E+00 0.00000000E+00 -.98758882E+03 0.98758887E+03 0.32000000E+00 0.0000E+00 0.9000E+01
       25  2    1    2    0    0 0.30937584E+03 -.11735965E+03 -.77606585E+03 0.89563662E+03 0.30066602E+03 0.0000E+00 0.0000E+00
       23  2    1    2    0    0 -.30937584E+03 0.11735965E+03 0.41837190E+02 0.34531261E+03 0.89463686E+02 0.0000E+00 0.0000E+00
       23  1    3    3    0    0 0.28292436E+03 -.86127921E+02 -.71347228E+03 0.77770313E+03 0.91188000E+02 0.0000E+00 0.9000E+01
      -13  1    4    4    0    0 -.10529065E+03 0.85853400E+02 0.24869777E+02 0.13811388E+03 0.10565837E+00 0.0000E+00 0.9000E+01
       13  1    4    4    0    0 -.20408520E+03 0.31506246E+02 0.16967413E+02 0.20719873E+03 0.10565837E+00 0.0000E+00 0.9000E+01
       23  1    3    3    0    0 0.26451480E+02 -.31231726E+02 -.62593563E+02 0.11793349E+03 0.91188000E+02 0.0000E+00 0.9000E+01
#aMCatNLO 1  0  0  1  2 0.12883771D+03 0.00000000D+00  -5  7  0 0.00000000D+00 0.00000000D+00 0.00000000D+00 0.00000000D+00 0.00000000D+00
  <mgrwgt>
 0.1209183597D-03    9    2    0
 0.500215771244108D+03 0.000000000000000D+00 0.000000000000000D+00 0.500215771244108D+03
 0.500215771244108D+03 0.000000000000000D+00 0.000000000000000D+00 -.500215771244108D+03
 0.441047977213552D+03 0.282924361273047D+03 -.861279207045379D+02 -.314235348001330D+03
 0.189570494324898D+03 -.105290508181398D+03 0.858534757499511D+02 0.132212185168923D+03
 0.269464895252704D+03 -.204085333595784D+03 0.315061705366220D+02 0.173112297664740D+03
 0.100348175697063D+03 0.264514805041354D+02 -.312317255820353D+02 0.891086516766761D+01
 0.000000000000000D+00 -.000000000000000D+00 -.000000000000000D+00 0.000000000000000D+00
 0.628339294749931D+03 0.000000000000000D+00 0.000000000000000D+00 0.628339294749931D+03
 0.537814756884076D+03 0.000000000000000D+00 0.000000000000000D+00 -.537814756884076D+03
 0.444835895918827D+03 0.299676045660944D+03 -.318455126730202D+02 -.314235348001330D+03
 0.197702352197591D+03 -.979673446227152D+02 0.109583564209660D+03 0.132212185168923D+03
 0.267817035110212D+03 -.193925562549342D+03 0.644280442228395D+02 0.173112297664740D+03
 0.983381428672520D+02 0.302085536394824D+02 -.190572497374157D+02 0.891086516766761D+01
 0.157460625540125D+03 -.379916921283691D+02 -.123108846022064D+03 0.905245378658549D+02
0.827561208295D-05 0.000000000000D+00 0.000000000000D+00 0.153566200077D-06 0.000000000000D+00  7 -1 1 23 -13 13 23 21 0 0.38978506D-01 0.15193676D+00 0.14129836D+06 0.14129836D+06 0.14129836D+06 0.11096059D+01  1  2  2  1  7  1       -1 0.988061730339D-04 0.100000000000D+01
-.414120409194D-06 0.000000000000D+00 -.317805294172D-07 0.153566200077D-06 0.000000000000D+00  7 -1 1 23 -13 13 23 21 2 0.38978506D-01 0.15193676D+00 0.14129836D+06 0.14129836D+06 0.14129836D+06 0.11096059D+01  1  2  3  1  7  1       -1 -.608762782734D-05 0.100000000000D+01
0.514022276317D-06 0.000000000000D+00 0.000000000000D+00 0.153566200077D-06 0.000000000000D+00  7 -1 1 23 -13 13 23 21 2 0.38978506D-01 0.15193676D+00 0.14129836D+06 0.14129836D+06 0.14129836D+06 0.11096059D+01  1  2 15  1  7  1       -1 0.755619922058D-05 0.100000000000D+01
0.878020181887D-05 0.000000000000D+00 0.000000000000D+00 0.153566200077D-06 0.000000000000D+00  7 -1 1 23 -13 13 23 21 2 0.50147447D-01 0.15193676D+00 0.19934748D+06 0.19934748D+06 0.19934748D+06 0.10979344D+01  1  2 12  1  7  1       -1 0.799564829907D-04 0.100000000000D+01
-.987716730444D-05 0.000000000000D+00 0.000000000000D+00 0.153566200077D-06 0.000000000000D+00  7 -1 1 23 -13 13 23 21 2 0.38978506D-01 0.15193676D+00 0.14129836D+06 0.14129836D+06 0.14129836D+06 0.11096059D+01  1  2  4  1  7  1       -1 -.145195738251D-03 0.100000000000D+01
-.143690201334D-04 0.000000000000D+00 -.441699258192D-05 0.153566200077D-06 0.000000000000D+00  7 -1 1 23 -13 13 23 21 2 0.52062580D-01 0.15193676D+00 0.14129836D+06 0.14129836D+06 0.14129836D+06 0.11096059D+01  1  2  5  1  7  1       -1 -.126414186357D-03 0.100000000000D+01
0.151856944971D-04 0.000000000000D+00 0.423822484633D-05 0.153566200077D-06 0.000000000000D+00  7 -1 1 23 -13 13 23 21 2 0.38978506D-01 0.15193676D+00 0.14129836D+06 0.14129836D+06 0.14129836D+06 0.11096059D+01  1  2  6  1  7  1       -1 0.223231829066D-03 0.100000000000D+01
0.298863869308D-06 0.000000000000D+00 0.000000000000D+00 0.153566200077D-06 0.000000000000D+00  7 21 1 23 -13 13 23 1 2 0.50147447D-01 0.15193676D+00 0.19934748D+06 0.19934748D+06 0.19934748D+06 0.10979344D+01  1  2 12  3  7  1       -1 0.247261266863D-04 0.100000000000D+01
-.447570118241D-06 0.000000000000D+00 -.166368550006D-06 0.153566200077D-06 0.000000000000D+00  7 21 1 23 -13 13 23 1 2 0.52062580D-01 0.15193676D+00 0.14129836D+06 0.14129836D+06 0.14129836D+06 0.11096059D+01  1  2  5  3  7  1       -1 -.356608989012D-04 0.100000000000D+01
  </mgrwgt>
  </event>
  <event>
  8     66 0.27414828E-05 0.23818407E+03 0.75467711E-02 0.93744000E-01
       -1 -1    0    0    0  501 0.00000000E+00 0.00000000E+00 0.17572393E+03 0.17572422E+03 0.32000000E+00 0.0000E+00 0.9000E+01
        1 -1    0    0  501    0 0.00000000E+00 0.00000000E+00 -.18143498E+04 0.18143498E+04 0.32000000E+00 0.0000E+00 0.9000E+01
       25  2    1    2    0    0 0.27065377E+03 0.41267514E+03 -.61405918E+03 0.84787258E+03 0.31347250E+03 0.0000E+00 0.0000E+00
       23  2    1    2    0    0 -.27065377E+03 -.41267514E+03 -.10245666E+04 0.11422014E+04 0.10645673E+03 0.0000E+00 0.0000E+00
       23  1    3    3    0    0 0.13271327E+03 0.29361584E+03 -.53113048E+03 0.62788368E+03 0.91188000E+02 0.0000E+00 0.9000E+01
      -13  1    4    4    0    0 -.26156793E+01 0.46732127E+01 -.20575248E+01 0.57380543E+01 0.10565837E+00 0.0000E+00 0.9000E+01
       13  1    4    4    0    0 -.26803809E+03 -.41734835E+03 -.10225091E+04 0.11364634E+04 0.10565837E+00 0.0000E+00 0.9000E+01
       23  1    3    3    0    0 0.13794050E+03 0.11905930E+03 -.82928699E+02 0.21998891E+03 0.91188000E+02 0.0000E+00 0.9000E+01
#aMCatNLO 1  0  0  2  1 0.40320043D+02 0.00000000D+00  -5  7  0 0.00000000D+00 0.00000000D+00 0.00000000D+00 0.00000000D+00 0.00000000D+00
  <mgrwgt>
 0.4520830683D-03    9    2    0
 0.564645892510159D+03 0.000000000000000D+00 0.000000000000000D+00 0.564645892510159D+03
 0.564645892510159D+03 0.000000000000000D+00 0.000000000000000D+00 -.564645892510159D+03
 0.335795288987156D+03 0.132713272581676D+03 0.293615839877855D+03 -.249028234433621D+02
 0.712576340429687D+01 -.261541824791661D+01 0.467362513272690D+01 0.470035313579997D+01
 0.519030528559282D+03 -.268038354128507D+03 -.417348767281144D+03 -.152866401611072D+03
 0.267340204069584D+03 0.137940499794748D+03 0.119059302270563D+03 0.173068871918634D+03
 0.000000000000000D+00 0.000000000000000D+00 -.000000000000000D+00 -.000000000000000D+00
 0.567279794376531D+03 0.000000000000000D+00 0.000000000000000D+00 0.567279794376531D+03
 0.743723680089505D+03 0.000000000000000D+00 0.000000000000000D+00 -.743723680089505D+03
 0.345888094343722D+03 0.131334912201705D+03 0.305702981153686D+03 -.249028234433621D+02
 0.730667570483470D+01 -.264460056736404D+01 0.492953122451767D+01 0.470035313579997D+01
 0.505640535276119D+03 -.270110233877126D+03 -.399180004168103D+03 -.152866401611072D+03
 0.271176040441464D+03 0.136851622650967D+03 0.128607902230459D+03 0.173068871918634D+03
 0.180992128699897D+03 0.456829959181846D+01 -.400604104405600D+02 -.176443885712974D+03
0.557910754403D-04 0.000000000000D+00 0.000000000000D+00 0.557077740056D-10 0.000000000000D+00  7 -1 1 23 -13 13 23 21 0 0.27034475D-01 0.27913076D+00 0.27039711D+06 0.27039711D+06 0.27039711D+06 0.10879058D+01  1  2  2  2  7  2        1 0.326245562284D-03 0.100000000000D+01
-.307393199298D-05 0.000000000000D+00 -.214252419818D-06 0.557077740056D-10 0.000000000000D+00  7 -1 1 23 -13 13 23 21 2 0.27034475D-01 0.27913076D+00 0.27039711D+06 0.27039711D+06 0.27039711D+06 0.10879058D+01  1  2  3  2  7  2        1 -.212743724736D-04 0.100000000000D+01
0.349885062340D-05 0.000000000000D+00 0.000000000000D+00 0.557077740056D-10 0.000000000000D+00  7 -1 1 23 -13 13 23 21 2 0.27034475D-01 0.27913076D+00 0.27039711D+06 0.27039711D+06 0.27039711D+06 0.10879058D+01  1  2 15  2  7  2        1 0.242151913450D-04 0.100000000000D+01
0.721927047015D-03 0.000000000000D+00 0.000000000000D+00 0.557077740056D-10 0.000000000000D+00  7 -1 1 23 -13 13 23 21 2 0.27034475D-01 0.36816202D+00 0.29249221D+06 0.29249221D+06 0.29249221D+06 0.10853671D+01  1  2 12  2  7  2        1 0.202732617259D-02 0.100000000000D+01
-.700832717891D-03 0.000000000000D+00 0.000000000000D+00 0.557077740056D-10 0.000000000000D+00  7 -1 1 23 -13 13 23 21 2 0.27034475D-01 0.27913076D+00 0.27039711D+06 0.27039711D+06 0.27039711D+06 0.10879058D+01  1  2  4  2  7  2        1 -.485039236917D-02 0.100000000000D+01
-.756712946391D-03 0.000000000000D+00 -.235446977233D-04 0.557077740056D-10 0.000000000000D+00  7 -1 1 23 -13 13 23 21 2 0.27034475D-01 0.36813295D+00 0.27039711D+06 0.27039711D+06 0.27039711D+06 0.10879058D+01  1  2  5  2  7  2        1 -.214483799914D-02 0.100000000000D+01
0.735744416786D-03 0.000000000000D+00 0.226708672644D-04 0.557077740056D-10 0.000000000000D+00  7 -1 1 23 -13 13 23 21 2 0.27034475D-01 0.27913076D+00 0.27039711D+06 0.27039711D+06 0.27039711D+06 0.10879058D+01  1  2  6  2  7  2        1 0.509201270679D-02 0.100000000000D+01
0.263275035773D-04 0.000000000000D+00 0.000000000000D+00 0.557077740056D-10 0.000000000000D+00  7 -1 21 23 -13 13 23 -1 2 0.27034475D-01 0.36816202D+00 0.29249221D+06 0.29249221D+06 0.29249221D+06 0.10853671D+01  1  2 12  4  7  2        1 0.273382614977D-04 0.100000000000D+01
-.271252950623D-04 0.000000000000D+00 -.858458539358D-06 0.557077740056D-10 0.000000000000D+00  7 -1 21 23 -13 13 23 -1 2 0.27034475D-01 0.36813295D+00 0.27039711D+06 0.27039711D+06 0.27039711D+06 0.10879058D+01  1  2  5  4  7  2        1 -.285500853865D-04 0.100000000000D+01
  </mgrwgt>
  </event>
  <event>
  8     66 0.27414828E-05 0.29167573E+03 0.75467711E-02 0.10020247E+00
       -1 -1    0    0    0  501 0.00000000E+00 0.00000000E+00 0.91463113E+02 0.91463672E+02 0.32000000E+00 0.0000E+00 0.9000E+01
        1 -1    0    0  501    0 0.00000000E+00 0.00000000E+00 -.11433541E+04 0.11433541E+04 0.32000000E+00 0.0000E+00 0.9000E+01
       25  2    1    2    0    0 -.11916045E+03 0.21335162E+03 -.62152127E+03 0.73239110E+03 0.30064914E+03 0.0000E+00 0.0000E+00
       23  2    1    2    0    0 0.11916045E+03 -.21335162E+03 -.43036971E+03 0.50242671E+03 0.86581691E+02 0.0000E+00 0.0000E+00
       23  1    3    3    0    0 -.83654942E+02 0.49571521E+02 -.47063256E+03 0.48914798E+03 0.91188000E+02 0.0000E+00 0.9000E+01
      -11  1    4    4    0    0 -.10307181E+02 -.74685682E+00 -.16975741E+02 0.19873892E+02 0.51099893E-03 0.0000E+00 0.9000E+01
       11  1    4    4    0    0 0.12946764E+03 -.21260476E+03 -.41339397E+03 0.48255282E+03 0.51099893E-03 0.0000E+00 0.9000E+01
       23  1    3    3    0    0 -.35505512E+02 0.16378010E+03 -.15088871E+03 0.24324312E+03 0.91188000E+02 0.0000E+00 0.9000E+01
#aMCatNLO 1  0  0  2  1 0.45181955D+02 0.00000000D+00  -5  7  0 0.00000000D+00 0.00000000D+00 0.00000000D+00 0.00000000D+00 0.00000000D+00
  <mgrwgt>
 0.6931216647D-04    4    2    0
 0.323380731356993D+03 0.000000000000000D+00 0.000000000000000D+00 0.323380731356993D+03
 0.323380731356993D+03 0.000000000000000D+00 0.000000000000000D+00 -.323380731356993D+03
 0.168461626934108D+03 -.836549422160080D+02 0.495715206963189D+02 -.102997977572268D+03
 0.103345773793880D+02 -.103071813404251D+02 -.746856816225012D+00 -.877913561109172D-01
 0.248962625344553D+03 0.129467635835450D+03 -.212604759542066D+03 -.444255666163800D+01
 0.219002633055936D+03 -.355055122790169D+02 0.163780095661972D+03 0.107528325590017D+03
 0.000000000000000D+00 -.000000000000000D+00 -.000000000000000D+00 0.000000000000000D+00
 0.356941243576542D+03 0.000000000000000D+00 0.000000000000000D+00 0.356941243576542D+03
 0.339741491594419D+03 0.000000000000000D+00 0.000000000000000D+00 -.339741491594419D+03
 0.163729376308918D+03 -.722469721918306D+02 0.516124882915217D+02 -.102997977572268D+03
 0.964178300147780D+01 -.962116119480922D+01 -.624122895650969D+00 -.877913561109172D-01
 0.255856819514672D+03 0.146803942473360D+03 -.209503170039860D+03 -.444255666163800D+01
 0.219109740816641D+03 -.204600330831124D+02 0.166471839717055D+03 0.107528325590017D+03
 0.483450155292520D+02 -.444757760036075D+02 -.795703507306583D+01 0.171997519821232D+02
0.492732707517D-05 0.000000000000D+00 0.000000000000D+00 0.192247229689D-07 0.000000000000D+00  7 -1 1 23 -11 11 23 21 0 0.14071295D-01 0.17590068D+00 0.85074733D+05 0.85074733D+05 0.85074733D+05 0.11275286D+01  1  2  2  2  7  2        1 0.241604316233D-03 0.100000000000D+01
-.270196536526D-06 0.000000000000D+00 -.189222333637D-07 0.192247229689D-07 0.000000000000D+00  7 -1 1 23 -11 11 23 21 2 0.14071295D-01 0.17590068D+00 0.85074733D+05 0.85074733D+05 0.85074733D+05 0.11275286D+01  1  2  3  2  7  2        1 -.168433409975D-04 0.100000000000D+01
0.324695879287D-06 0.000000000000D+00 0.000000000000D+00 0.192247229689D-07 0.000000000000D+00  7 -1 1 23 -11 11 23 21 2 0.14071295D-01 0.17590068D+00 0.85074733D+05 0.85074733D+05 0.85074733D+05 0.11275286D+01  1  2 15  2  7  2        1 0.202406865966D-04 0.100000000000D+01
-.281836561748D-05 0.000000000000D+00 0.000000000000D+00 0.192247229689D-07 0.000000000000D+00  7 -1 1 23 -11 11 23 21 2 0.14071295D-01 0.17590068D+00 0.85074733D+05 0.85074733D+05 0.85074733D+05 0.11275286D+01  1  2  4  2  7  2        1 -.175689495362D-03 0.100000000000D+01
  </mgrwgt>
  </event>
  <event>
  8     66 0.27414828E-05 0.23991032E+03 0.75467711E-02 0.10061758E+00
       -1 -1    0    0    0  501 0.00000000E+00 0.00000000E+00 0.91484247E+02 0.91484807E+02 0.32000000E+00 0.0000E+00 0.9000E+01
        1 -1    0    0  501    0 0.00000000E+00 0.00000000E+00 -.12814425E+04 0.12814425E+04 0.32000000E+00 0.0000E+00 0.9000E+01
       25  2    1    2    0    0 0.14369387E+03 -.46656109E+02 -.11318765E+04 0.11808819E+04 0.30085393E+03 0.0000E+00 0.0000E+00
       23  2    1    2    0    0 -.14369387E+03 0.46656109E+02 -.58081740E+02 0.19204537E+03 0.10335963E+03 0.0000E+00 0.0000E+00
       23  1    3    3    0    0 0.31472244E+02 0.86540382E+02 -.31365952E+03 0.33937779E+03 0.91188000E+02 0.0000E+00 0.9000E+01
      -11  1    4    4    0    0 -.63250755E+01 0.93422637E+01 -.48037977E+02 0.49345027E+02 0.51099893E-03 0.0000E+00 0.9000E+01
       11  1    4    4    0    0 -.13736880E+03 0.37313845E+02 -.10043763E+02 0.14270034E+03 0.51099893E-03 0.0000E+00 0.9000E+01
       23  1    3    3    0    0 0.11222163E+03 -.13319649E+03 -.81821695E+03 0.84150415E+03 0.91188000E+02 0.0000E+00 0.9000E+01
#aMCatNLO 1  0  0  2  2 0.13377727D+03 0.00000000D+00  -5  7  0 0.00000000D+00 0.00000000D+00 0.00000000D+00 0.00000000D+00 0.00000000D+00
  <mgrwgt>
 0.2339779415D-03    3    2    0
 0.342391896584125D+03 0.000000000000000D+00 0.000000000000000D+00 0.342391896584125D+03
 0.342391896584125D+03 0.000000000000000D+00 0.000000000000000D+00 -.342391896584125D+03
 0.135370196057869D+03 0.314722440801120D+02 0.865403822008571D+02 -.391164765519242D+02
 0.154559002001854D+02 -.632507551383730D+01 0.934226370742585D+01 -.105641080817672D+02
 0.268647617444065D+03 -.137368797911398D+03 0.373138449252056D+02 0.227835538702039D+03
 0.265310079466131D+03 0.112221629345123D+03 -.133196490833489D+03 -.178154954068347D+03
 0.000000000000000D+00 -.000000000000000D+00 0.000000000000000D+00 0.000000000000000D+00
 0.711612394742233D+03 0.000000000000000D+00 0.000000000000000D+00 0.711612394742233D+03
 0.361198176048892D+03 0.000000000000000D+00 0.000000000000000D+00 -.361198176048892D+03
 0.142641010064964D+03 0.582793112731022D+02 0.842889645686120D+02 -.391164765519242D+02
 0.143640152626775D+02 -.344970768730061D+01 0.910077314162655D+01 -.105641080817672D+02
 0.246374126126085D+03 -.877081289107527D+02 0.331430452994122D+02 0.227835538702039D+03
 0.294349450540114D+03 0.166186470674023D+03 -.137728780561959D+03 -.178154954068347D+03
 0.375081968797284D+03 -.133307945349072D+03 0.111959975523080D+02 0.350414218693341D+03
0.579238061348D-05 0.000000000000D+00 0.000000000000D+00 0.406381854972D-08 0.000000000000D+00  7 -1 1 23 -11 11 23 21 0 0.14074546D-01 0.19714504D+00 0.57556963D+05 0.57556963D+05 0.57556963D+05 0.11419571D+01  1  2  2  2  7  2        1 0.229149478564D-03 0.100000000000D+01
-.272298227288D-06 0.000000000000D+00 -.222442667246D-07 0.406381854972D-08 0.000000000000D+00  7 -1 1 23 -11 11 23 21 2 0.14074546D-01 0.19714504D+00 0.57556963D+05 0.57556963D+05 0.57556963D+05 0.11419571D+01  1  2  3  2  7  2        1 -.140477310756D-04 0.100000000000D+01
0.365892124860D-06 0.000000000000D+00 0.000000000000D+00 0.406381854972D-08 0.000000000000D+00  7 -1 1 23 -11 11 23 21 2 0.14074546D-01 0.19714504D+00 0.57556963D+05 0.57556963D+05 0.57556963D+05 0.11419571D+01  1  2 15  2  7  2        1 0.188761940314D-04 0.100000000000D+01
  </mgrwgt>
  </event>
  <event>
  8     66 0.27414828E-05 0.17826863E+03 0.75467711E-02 0.98230090E-01
       -3 -1    0    0    0  501 0.00000000E+00 0.00000000E+00 0.91030936E+02 0.91032309E+02 0.50000000E+00 0.0000E+00 0.9000E+01
        3 -1    0    0  501    0 0.00000000E+00 0.00000000E+00 -.56257186E+03 0.56257209E+03 0.50000000E+00 0.0000E+00 0.9000E+01
       25  2    1    2    0    0 0.90781967E+02 -.84335693E+01 -.32735782E+03 0.45296566E+03 0.29950334E+03 0.0000E+00 0.0000E+00
       23  2    1    2    0    0 -.90781967E+02 0.84335693E+01 -.14418310E+03 0.20063874E+03 0.10561555E+03 0.0000E+00 0.0000E+00
       23  1    3    3    0    0 0.39584863E+01 -.79082777E+02 -.33140512E+02 0.12523298E+03 0.91188000E+02 0.0000E+00 0.9000E+01
      -11  1    4    4    0    0 -.20528102E+01 0.11759210E+01 -.10217055E+03 0.10219794E+03 0.51099893E-03 0.0000E+00 0.9000E+01
       11  1    4    4    0    0 -.88729157E+02 0.72576484E+01 -.42012552E+02 0.98440801E+02 0.51099893E-03 0.0000E+00 0.9000E+01
       23  1    3    3    0    0 0.86823481E+02 0.70649208E+02 -.29421731E+03 0.32773267E+03 0.91188000E+02 0.0000E+00 0.9000E+01
#aMCatNLO 1  0  0  1  2 0.28013166D+03 0.00000000D+00  -5  7  0 0.00000000D+00 0.00000000D+00 0.00000000D+00 0.00000000D+00 0.00000000D+00
  <mgrwgt>
 0.1943069711D-04    3    2    0
 0.226300607044166D+03 0.000000000000000D+00 0.000000000000000D+00 0.226300607044166D+03
 0.226300607044166D+03 0.000000000000000D+00 0.000000000000000D+00 -.226300607044166D+03
 0.146322455906720D+03 0.395850547394670D+01 -.790827789565670D+02 0.826150958692986D+02
 0.411386786243284D+02 -.205283435162568D+01 0.117592275072145D+01 -.410705972170468D+02
 0.983883913719400D+02 -.887291735863749D+02 0.725765040621172D+01 0.418895669829397D+02
 0.166751688185344D+03 0.868235024640539D+02 0.706492057996338D+02 -.834340656351916D+02
 0.000000000000000D+00 -.000000000000000D+00 -.000000000000000D+00 -.000000000000000D+00
 0.362252840117065D+03 0.000000000000000D+00 0.000000000000000D+00 0.362252840117065D+03
 0.470258217498229D+03 0.000000000000000D+00 0.000000000000000D+00 -.470258217498229D+03
 0.168070681328411D+03 0.926046244912526D+02 -.673173977181017D+02 0.826150958692986D+02
 0.472171877663212D+02 0.228599379716612D+02 0.448242130181239D+01 -.410705972170468D+02
 0.618598683687098D+02 -.435456608983682D+02 0.132545429759096D+02 0.418895669829397D+02
 0.255131894377953D+03 0.205777569337923D+03 0.864371496165961D+02 -.834340656351916D+02
 0.300231425773898D+03 -.277696470902469D+03 -.368567161762164D+02 -.108005377381164D+03
0.881674111565D-06 0.000000000000D+00 0.000000000000D+00 0.112413344532D-08 0.000000000000D+00  7 -3 3 23 -11 11 23 21 0 0.14004882D-01 0.86549640D-01 0.31779703D+05 0.31779703D+05 0.31779703D+05 0.11650208D+01  1  2  2  1  7  1       -3 0.190717842721D-04 0.100000000000D+01
-.455922164887D-07 0.000000000000D+00 -.338586073853D-08 0.112413344532D-08 0.000000000000D+00  7 -3 3 23 -11 11 23 21 2 0.14004882D-01 0.86549640D-01 0.31779703D+05 0.31779703D+05 0.31779703D+05 0.11650208D+01  1  2  3  1  7  1       -3 -.133857071868D-05 0.100000000000D+01
0.578169212500D-07 0.000000000000D+00 0.000000000000D+00 0.112413344532D-08 0.000000000000D+00  7 -3 3 23 -11 11 23 21 2 0.14004882D-01 0.86549640D-01 0.31779703D+05 0.31779703D+05 0.31779703D+05 0.11650208D+01  1  2 15  1  7  1       -3 0.169748355727D-05 0.100000000000D+01
  </mgrwgt>
  </event>
  <event>
  8     66 0.27414828E-05 0.44877597E+03 0.75467711E-02 0.90021968E-01
       -1 -1    0    0    0  501 0.00000000E+00 0.00000000E+00 0.29874501E+03 0.29874518E+03 0.32000000E+00 0.0000E+00 0.9000E+01
        1 -1    0    0  501    0 0.00000000E+00 0.00000000E+00 -.15805915E+04 0.15805915E+04 0.32000000E+00 0.0000E+00 0.9000E+01
       25  2    1    2    0    0 -.65211793E+03 0.10291504E+02 -.70226083E+03 0.10022687E+04 0.29327228E+03 0.0000E+00 0.0000E+00
       23  2    1    2    0    0 0.65211793E+03 -.10291504E+02 -.57958565E+03 0.87706797E+03 0.89246815E+02 0.0000E+00 0.0000E+00
       23  1    3    3    0    0 -.10833955E+03 0.35974588E+02 -.67084128E+02 0.16077052E+03 0.91188000E+02 0.0000E+00 0.9000E+01
      -13  1    4    4    0    0 0.35062778E+03 -.25249908E+02 -.25835072E+03 0.43625967E+03 0.10565837E+00 0.0000E+00 0.9000E+01
       13  1    4    4    0    0 0.30149015E+03 0.14958404E+02 -.32123493E+03 0.44080830E+03 0.10565837E+00 0.0000E+00 0.9000E+01
       23  1    3    3    0    0 -.54377838E+03 -.25683085E+02 -.63517670E+03 0.84149821E+03 0.91188000E+02 0.0000E+00 0.9000E+01
#aMCatNLO 1  0  0  1  2 0.17135893D+03 0.00000000D+00  -5  7  0 0.00000000D+00 0.00000000D+00 0.00000000D+00 0.00000000D+00 0.00000000D+00
  <mgrwgt>
 0.4624468130D-03    9    2    0
 0.687163747923735D+03 0.000000000000000D+00 0.000000000000000D+00 0.687163747923735D+03
 0.687163747923735D+03 0.000000000000000D+00 0.000000000000000D+00 -.687163747923735D+03
 0.157277207333773D+03 -.108339550615949D+03 0.359745883349514D+02 0.582171741771778D+02
 0.355601531389368D+03 0.350627849605752D+03 -.252499641235838D+02 0.536190219891022D+02
 0.303168824664004D+03 0.301490081425951D+03 0.149584604443661D+02 -.281302597048266D+02
 0.558279932460324D+03 -.543778380415755D+03 -.256830846557338D+02 -.837059364614534D+02
 0.000000000000000D+00 -.000000000000000D+00 -.000000000000000D+00 0.000000000000000D+00
 0.984238655061187D+03 0.000000000000000D+00 0.000000000000000D+00 0.984238655061187D+03
 0.717646156725999D+03 0.000000000000000D+00 0.000000000000000D+00 -.717646156725999D+03
 0.150701761780819D+03 -.933574158334437D+02 0.478635894973226D+02 0.582171741771778D+02
 0.390643834978847D+03 0.386930161714565D+03 0.355756144763360D+01 0.536190219891022D+02
 0.336122219294363D+03 0.332589427635753D+03 0.396371973937274D+02 -.281302597048266D+02
 0.507501479639752D+03 -.491931720851054D+03 0.154595832469460D+02 -.837059364614534D+02
 0.316915516093405D+03 -.134230452665820D+03 -.106517931585630D+03 0.266592498335188D+03
0.114474996221D-03 0.000000000000D+00 0.000000000000D+00 0.656823039791D-08 0.000000000000D+00  7 -1 1 23 -13 13 23 21 0 0.45960787D-01 0.24316794D+00 0.45661882D+06 0.45661882D+06 0.45661882D+06 0.10713073D+01  1  2  2  1  7  1       -1 0.373899551359D-03 0.100000000000D+01
-.635754724917D-05 0.000000000000D+00 -.439614127448D-06 0.656823039791D-08 0.000000000000D+00  7 -1 1 23 -13 13 23 21 2 0.45960787D-01 0.24316794D+00 0.45661882D+06 0.45661882D+06 0.45661882D+06 0.10713073D+01  1  2  3  1  7  1       -1 -.238320854088D-04 0.100000000000D+01
0.718895882381D-05 0.000000000000D+00 0.000000000000D+00 0.656823039791D-08 0.000000000000D+00  7 -1 1 23 -13 13 23 21 2 0.45960787D-01 0.24316794D+00 0.45661882D+06 0.45661882D+06 0.45661882D+06 0.10713073D+01  1  2 15  1  7  1       -1 0.269487388728D-04 0.100000000000D+01
0.228519346387D-03 0.000000000000D+00 0.000000000000D+00 0.656823039791D-08 0.000000000000D+00  7 -1 1 23 -13 13 23 21 2 0.66508534D-01 0.24316794D+00 0.58737054D+06 0.58737054D+06 0.58737054D+06 0.10636021D+01  1  2 12  1  7  1       -1 0.417310750697D-03 0.100000000000D+01
-.231230885678D-03 0.000000000000D+00 0.000000000000D+00 0.656823039791D-08 0.000000000000D+00  7 -1 1 23 -13 13 23 21 2 0.45960787D-01 0.24316794D+00 0.45661882D+06 0.45661882D+06 0.45661882D+06 0.10713073D+01  1  2  4  1  7  1       -1 -.866798782714D-03 0.100000000000D+01
-.284729764663D-03 0.000000000000D+00 -.489824715723D-04 0.656823039791D-08 0.000000000000D+00  7 -1 1 23 -13 13 23 21 2 0.67721270D-01 0.24316794D+00 0.45661882D+06 0.45661882D+06 0.45661882D+06 0.10713073D+01  1  2  5  1  7  1       -1 -.516353533986D-03 0.100000000000D+01
0.285464179704D-03 0.000000000000D+00 0.455199216853D-04 0.656823039791D-08 0.000000000000D+00  7 -1 1 23 -13 13 23 21 2 0.45960787D-01 0.24316794D+00 0.45661882D+06 0.45661882D+06 0.45661882D+06 0.10713073D+01  1  2  6  1  7  1       -1 0.107009927653D-02 0.100000000000D+01
0.102672423088D-04 0.000000000000D+00 0.000000000000D+00 0.656823039791D-08 0.000000000000D+00  7 21 1 23 -13 13 23 1 2 0.66508534D-01 0.24316794D+00 0.58737054D+06 0.58737054D+06 0.58737054D+06 0.10636021D+01  1  2 12  3  7  1       -1 0.149106100968D-03 0.100000000000D+01
-.116432295039D-04 0.000000000000D+00 -.227849199975D-05 0.656823039791D-08 0.000000000000D+00  7 21 1 23 -13 13 23 1 2 0.67721270D-01 0.24316794D+00 0.45661882D+06 0.45661882D+06 0.45661882D+06 0.10713073D+01  1  2  5  3  7  1       -1 -.167933203299D-03 0.100000000000D+01
  </mgrwgt>
  </event>
  <event>
  7     66 0.27414828E-05 0.31710470E+03 0.75467711E-02 0.88036346E-01
       -1 -1    0    0    0  501 0.00000000E+00 0.00000000E+00 0.58725992E+03 0.58726001E+03 0.32000000E+00 0.0000E+00 0.9000E+01
        1 -1    0    0  501    0 0.00000000E+00 0.00000000E+00 -.56404680E+03 0.56404689E+03 0.32000000E+00 0.0000E+00 0.9000E+01
       25  2    1    2    0    0 -.21820816E+03 -.11123376E+03 -.44961952E+03 0.59362805E+03 0.30041439E+03 0.0000E+00 0.0000E+00
       23  1    3    3    0    0 -.25184540E+03 -.10743053E+03 -.35975949E+03 0.46120447E+03 0.91188000E+02 0.0000E+00 0.9000E+01
      -11  1    1    2    0    0 0.68105571E+02 0.56809879E+02 0.41841081E+02 0.98063282E+02 0.51099893E-03 0.0000E+00 0.9000E+01
       11  1    1    2    0    0 0.15010258E+03 0.54423882E+02 0.43099156E+03 0.45961557E+03 0.51099893E-03 0.0000E+00 0.9000E+01
       23  1    3    3    0    0 0.33637242E+02 -.38032325E+01 -.89860028E+02 0.13242358E+03 0.91188000E+02 0.0000E+00 0.9000E+01
#aMCatNLO 1  0  0  1  2 0.86560567D+03 0.00000000D+00  -5  7  0 0.00000000D+00 0.00000000D+00 0.00000000D+00 0.00000000D+00 0.00000000D+00
  <mgrwgt>
 0.3528648893D-03    3    2    0
 0.575536430714577D+03 0.000000000000000D+00 0.000000000000000D+00 0.575536430714577D+03
 0.575536430714577D+03 0.000000000000000D+00 0.000000000000000D+00 -.575536430714577D+03
 0.468553339094145D+03 -.251845397759562D+03 -.107430529538401D+03 -.369133522160613D+03
 0.972394311579968D+02 0.681055703569841D+02 0.568098786148202D+02 0.398719945582122D+02
 0.451017422373760D+03 0.150102585219418D+03 0.544238834194343D+02 0.421810348508267D+03
 0.134262668803253D+03 0.336372421831597D+02 -.380323249585334D+01 -.925488209058656D+02
 0.000000000000000D+00 -.000000000000000D+00 -.000000000000000D+00 -.000000000000000D+00
 0.920083879312215D+03 0.000000000000000D+00 0.000000000000000D+00 0.920083879312215D+03
 0.165683197172332D+04 0.000000000000000D+00 0.000000000000000D+00 -.165683197172332D+04
 0.390980510039481D+03 0.343454652493103D+02 -.843287597492188D+02 -.369133522160613D+03
 0.176152616632703D+03 0.159134336909748D+03 0.641578616600720D+02 0.398719945582122D+02
 0.680117187455778D+03 0.526725786845062D+03 0.848254916669720D+02 0.421810348508267D+03
 0.192972555583264D+03 0.142593662420101D+03 0.499189852581454D+01 -.925488209058656D+02
 0.113669298132431D+04 -.862799251424221D+03 -.696464921036398D+02 -.736748092411103D+03
0.576084509567D-04 0.000000000000D+00 0.000000000000D+00 0.115331577511D-08 0.000000000000D+00  7 -1 1 23 -11 11 23 21 0 0.90347694D-01 0.86776444D-01 0.10055539D+06 0.10055539D+06 0.10055539D+06 0.11215247D+01  1  2  2  1  7  1       -1 0.340293896189D-03 0.100000000000D+01
-.181788886253D-05 0.000000000000D+00 -.221231620327D-06 0.115331577511D-08 0.000000000000D+00  7 -1 1 23 -11 11 23 21 2 0.90347694D-01 0.86776444D-01 0.10055539D+06 0.10055539D+06 0.10055539D+06 0.11215247D+01  1  2  3  1  7  1       -1 -.135068159918D-04 0.100000000000D+01
0.350982487389D-05 0.000000000000D+00 0.000000000000D+00 0.115331577511D-08 0.000000000000D+00  7 -1 1 23 -11 11 23 21 2 0.90347694D-01 0.86776444D-01 0.10055539D+06 0.10055539D+06 0.10055539D+06 0.11215247D+01  1  2 15  1  7  1       -1 0.260778091071D-04 0.100000000000D+01
  </mgrwgt>
  </event>
  <event>
  8     66 0.27414828E-05 0.19490345E+03 0.75467711E-02 0.98670179E-01
       -1 -1    0    0    0  501 0.00000000E+00 0.00000000E+00 0.21650311E+03 0.21650334E+03 0.32000000E+00 0.0000E+00 0.9000E+01
        1 -1    0    0  501    0 0.00000000E+00 0.00000000E+00 -.21745348E+03 0.21745371E+03 0.32000000E+00 0.0000E+00 0.9000E+01
       25  2    1    2    0    0 -.15599022E+02 -.80961394E+02 0.74200478E+01 0.31107395E+03 0.29985641E+03 0.0000E+00 0.0000E+00
       23  2    1    2    0    0 0.15599022E+02 0.80961394E+02 -.83704191E+01 0.12288310E+03 0.90731011E+02 0.0000E+00 0.0000E+00
       23  1    3    3    0    0 -.11033411E+03 0.73041566E+01 -.34154066E+02 0.14733879E+03 0.91188000E+02 0.0000E+00 0.9000E+01
      -11  1    4    4    0    0 0.56819237E+01 -.81195185E+00 -.35651442E+02 0.36110509E+02 0.51099893E-03 0.0000E+00 0.9000E+01
       11  1    4    4    0    0 0.99170978E+01 0.81773346E+02 0.27281023E+02 0.86772594E+02 0.51099893E-03 0.0000E+00 0.9000E+01
       23  1    3    3    0    0 0.94735091E+02 -.88265550E+02 0.41574114E+02 0.16373516E+03 0.91188000E+02 0.0000E+00 0.9000E+01
#aMCatNLO 1  0  0  2  1 0.24592542D+03 0.00000000D+00  -5  7  0 0.00000000D+00 0.00000000D+00 0.00000000D+00 0.00000000D+00 0.00000000D+00
  <mgrwgt>
 0.2081233453D-03    3    2    0
 0.216978006304629D+03 0.000000000000000D+00 0.000000000000000D+00 0.216978006304629D+03
 0.216978006304629D+03 0.000000000000000D+00 0.000000000000000D+00 -.216978006304629D+03
 0.147264344175385D+03 -.110334112783442D+03 0.730415650440514D+01 -.338314731493636D+02
 0.360325179713498D+02 0.568192374595589D+01 -.811951684025079D+00 -.355724447903654D+02
 0.868325481139963D+02 0.991709782568432D+01 0.817733456039861D+02 0.274711217720780D+02
 0.163826602348527D+03 0.947350912118017D+02 -.882655504243662D+02 0.419327961676510D+02
 0.000000000000000D+00 -.000000000000000D+00 0.000000000000000D+00 0.000000000000000D+00
 0.412419147149968D+03 0.000000000000000D+00 0.000000000000000D+00 0.412419147149968D+03
 0.342145405018022D+03 0.000000000000000D+00 0.000000000000000D+00 -.342145405018022D+03
 0.158106376126843D+03 -.101258005322077D+03 -.726954098324014D+02 -.338314731493636D+02
 0.422365170327306D+02 0.800820496863260D+01 -.213165005540992D+02 -.355724447903654D+02
 0.543941587470757D+02 0.141145820069350D+02 0.447754458286597D+02 0.274711217720780D+02
 0.244058633149195D+03 0.106858094444127D+03 -.195121381011887D+03 0.419327961676510D+02
 0.255768867112145D+03 -.277228760976168D+02 0.244357845569728D+03 0.702737421319462D+02
0.154662212204D-05 0.000000000000D+00 0.000000000000D+00 0.147409693196D-06 0.000000000000D+00  7 -1 1 23 -11 11 23 21 0 0.33308206D-01 0.33454417D-01 0.37987353D+05 0.37987353D+05 0.37987353D+05 0.11579420D+01  1  2  2  2  7  2        1 0.205720072368D-03 0.100000000000D+01
-.847208391676D-07 0.000000000000D+00 -.593943618360D-08 0.147409693196D-06 0.000000000000D+00  7 -1 1 23 -11 11 23 21 2 0.33308206D-01 0.33454417D-01 0.37987353D+05 0.37987353D+05 0.37987353D+05 0.11579420D+01  1  2  3  2  7  2        1 -.151097159741D-04 0.100000000000D+01
0.981960955520D-07 0.000000000000D+00 0.000000000000D+00 0.147409693196D-06 0.000000000000D+00  7 -1 1 23 -11 11 23 21 2 0.33308206D-01 0.33454417D-01 0.37987353D+05 0.37987353D+05 0.37987353D+05 0.11579420D+01  1  2 15  2  7  2        1 0.175129888719D-04 0.100000000000D+01
  </mgrwgt>
  </event>
  <event>
  8     66 0.27414828E-05 0.90336213E+03 0.75467711E-02 0.86918464E-01
       -1 -1    0    0    0  501 0.00000000E+00 0.00000000E+00 0.15154332E+04 0.15154332E+04 0.32000000E+00 0.0000E+00 0.9000E+01
        1 -1    0    0  501    0 0.00000000E+00 0.00000000E+00 -.55465246E+03 0.55465255E+03 0.32000000E+00 0.0000E+00 0.9000E+01
       25  2    1    2    0    0 0.51098937E+03 -.72746114E+03 0.53100648E+03 0.10781793E+04 0.30032115E+03 0.0000E+00 0.0000E+00
       23  2    1    2    0    0 -.51098937E+03 0.72746114E+03 0.42977426E+03 0.99190652E+03 0.94142310E+02 0.0000E+00 0.0000E+00
       23  1    3    3    0    0 0.38568678E+03 -.44808618E+03 0.45007093E+03 0.74860844E+03 0.91188000E+02 0.0000E+00 0.9000E+01
      -13  1    4    4    0    0 -.33464511E+03 0.46889785E+03 0.32746414E+03 0.66263513E+03 0.10565837E+00 0.0000E+00 0.9000E+01
       13  1    4    4    0    0 -.17634427E+03 0.25856328E+03 0.10231012E+03 0.32927139E+03 0.10565837E+00 0.0000E+00 0.9000E+01
       23  1    3    3    0    0 0.12530260E+03 -.27937496E+03 0.80935550E+02 0.32957082E+03 0.91188000E+02 0.0000E+00 0.9000E+01
#aMCatNLO 1  0  0  1  1 0.27094451D+03 0.00000000D+00  -5  7  0 0.00000000D+00 0.00000000D+00 0.00000000D+00 0.00000000D+00 0.00000000D+00
  <mgrwgt>
 0.1032838438D-03    4    2    0
 0.916809071292163D+03 0.000000000000000D+00 0.000000000000000D+00 0.916809071292163D+03
 0.916809071292163D+03 0.000000000000000D+00 0.000000000000000D+00 -.916809071292163D+03
 0.609322186588383D+03 0.385686777233498D+03 -.448086178332923D+03 0.115856645813185D+03
 0.576505485974886D+03 -.334645306222356D+03 0.468898116845350D+03 0.224866716383190D+02
 0.318126116352438D+03 -.176344068742774D+03 0.258563019007686D+03 -.570277171764708D+02
 0.329664353668620D+03 0.125302597731631D+03 -.279374957520113D+03 -.813156002750332D+02
 0.000000000000000D+00 0.000000000000000D+00 0.000000000000000D+00 -.000000000000000D+00
 0.100754731228952D+04 0.000000000000000D+00 0.000000000000000D+00 0.100754731228952D+04
 0.115394887779855D+04 0.000000000000000D+00 0.000000000000000D+00 -.115394887779855D+04
 0.611364004869719D+03 0.314731472897722D+03 -.502963251833462D+03 0.115856645813185D+03
 0.579492298882253D+03 -.401840442212257D+03 0.416929170321682D+03 0.224866716383190D+02
 0.318818471503935D+03 -.213367996262089D+03 0.229928587645919D+03 -.570277171764708D+02
 0.343853325080384D+03 0.861527718340542D+02 -.309653565912063D+03 -.813156002750332D+02
 0.307968089751779D+03 0.214324193742570D+03 0.165759059777925D+03 -.146401565509032D+03
0.422233756126D-03 0.000000000000D+00 0.000000000000D+00 0.105924154464D-05 0.000000000000D+00  7 -1 1 23 -13 13 23 21 0 0.23314358D+00 0.85331157D-01 0.81606315D+06 0.81606315D+06 0.81606315D+06 0.10537912D+01  1  2  2  1  7  1       -1 0.138621826955D-03 0.100000000000D+01
-.234512041663D-04 0.000000000000D+00 -.162148880022D-05 0.105924154464D-05 0.000000000000D+00  7 -1 1 23 -13 13 23 21 2 0.23314358D+00 0.85331157D-01 0.81606315D+06 0.81606315D+06 0.81606315D+06 0.10537912D+01  1  2  3  1  7  1       -1 -.854974161195D-05 0.100000000000D+01
0.265183954131D-04 0.000000000000D+00 0.000000000000D+00 0.105924154464D-05 0.000000000000D+00  7 -1 1 23 -13 13 23 21 2 0.23314358D+00 0.85331157D-01 0.81606315D+06 0.81606315D+06 0.81606315D+06 0.10537912D+01  1  2 15  1  7  1       -1 0.966796532657D-05 0.100000000000D+01
-.999962325554D-04 0.000000000000D+00 0.000000000000D+00 0.105924154464D-05 0.000000000000D+00  7 -1 1 23 -13 13 23 21 2 0.23314358D+00 0.85331157D-01 0.81606315D+06 0.81606315D+06 0.81606315D+06 0.10537912D+01  1  2  4  1  7  1       -1 -.364562068734D-04 0.100000000000D+01
  </mgrwgt>
  </event>
  <event>
  8     66 0.27414828E-05 0.36193788E+03 0.75467711E-02 0.85815550E-01
       -1 -1    0    0    0  501 0.00000000E+00 0.00000000E+00 0.12970536E+03 0.12970576E+03 0.32000000E+00 0.0000E+00 0.9000E+01
        1 -1    0    0  501    0 0.00000000E+00 0.00000000E+00 -.12433720E+04 0.12433721E+04 0.32000000E+00 0.0000E+00 0.9000E+01
       25  2    1    2    0    0 0.30127089E+03 -.14314403E+03 -.52565320E+03 0.69091967E+03 0.29967372E+03 0.0000E+00 0.0000E+00
       23  2    1    2    0    0 -.30127089E+03 0.14314403E+03 -.58801348E+03 0.68215817E+03 0.91244443E+02 0.0000E+00 0.0000E+00
       23  1    3    3    0    0 0.20546031E+03 -.10981785E+03 -.15101750E+03 0.29222497E+03 0.91188000E+02 0.0000E+00 0.9000E+01
      -13  1    4    4    0    0 -.96882596E+02 0.20806810E+02 -.10980136E+03 0.14790372E+03 0.10565837E+00 0.0000E+00 0.9000E+01
       13  1    4    4    0    0 -.20438830E+03 0.12233722E+03 -.47821212E+03 0.53425445E+03 0.10565837E+00 0.0000E+00 0.9000E+01
       23  1    3    3    0    0 0.95810584E+02 -.33326183E+02 -.37463570E+03 0.39869470E+03 0.91188000E+02 0.0000E+00 0.9000E+01
#aMCatNLO 1  0  0  2  1 0.10805047D+04 0.00000000D+00  -5  7  0 0.00000000D+00 0.00000000D+00 0.00000000D+00 0.00000000D+00 0.00000000D+00
  <mgrwgt>
 0.2567675676D-03    3    2    0
 0.401587250673553D+03 0.000000000000000D+00 0.000000000000000D+00 0.401587250673553D+03
 0.401587250673553D+03 0.000000000000000D+00 0.000000000000000D+00 -.401587250673553D+03
 0.290179130878769D+03 0.205460309290039D+03 -.109817849649315D+03 0.147019651266079D+03
 0.100602102945880D+03 -.968824521397534D+02 0.208066738908897D+02 0.173682441864426D+02
 0.250262177520193D+03 -.204388440962448D+03 0.122337359087351D+03 -.767469430636880D+02
 0.162131090002265D+03 0.958105838121621D+02 -.333261833289264D+02 -.876409523888338D+02
 0.000000000000000D+00 0.000000000000000D+00 -.000000000000000D+00 0.000000000000000D+00
 0.167062408818045D+04 0.000000000000000D+00 0.000000000000000D+00 0.167062408818045D+04
 0.965775111883359D+03 0.000000000000000D+00 0.000000000000000D+00 -.965775111883359D+03
 0.276703473468287D+03 0.137125955694949D+03 0.166827022097028D+03 0.147019651266079D+03
 0.227063403068294D+03 -.136380595806866D+03 0.180711001862640D+03 0.173682441864426D+02
 0.645216107441382D+03 -.312333065285100D+03 0.559340494119460D+03 -.767469430636880D+02
 0.197337774682636D+03 0.524787328831731D+02 0.142098529309946D+03 -.876409523888338D+02
 0.129007844140321D+04 0.259108972513844D+03 -.104897704738907D+04 0.704848976297094D+03
0.107046859001D-04 0.000000000000D+00 0.000000000000D+00 0.964391759653D-06 0.000000000000D+00  7 -1 1 23 -13 13 23 21 0 0.19954705D-01 0.19128804D+00 0.13099903D+06 0.13099903D+06 0.13099903D+06 0.11122240D+01  1  2  2  2  7  2        1 0.254714181331D-03 0.100000000000D+01
-.586891182377D-06 0.000000000000D+00 -.411088124648D-07 0.964391759653D-06 0.000000000000D+00  7 -1 1 23 -13 13 23 21 2 0.19954705D-01 0.19128804D+00 0.13099903D+06 0.13099903D+06 0.13099903D+06 0.11122240D+01  1  2  3  2  7  2        1 -.172751296496D-04 0.100000000000D+01
0.656651255789D-06 0.000000000000D+00 0.000000000000D+00 0.964391759653D-06 0.000000000000D+00  7 -1 1 23 -13 13 23 21 2 0.19954705D-01 0.19128804D+00 0.13099903D+06 0.13099903D+06 0.13099903D+06 0.11122240D+01  1  2 15  2  7  2        1 0.193285159481D-04 0.100000000000D+01
  </mgrwgt>
  </event>
  <event>
  8     66 0.27414828E-05 0.36292287E+03 0.75467711E-02 0.90801788E-01
       -1 -1    0    0    0  501 0.00000000E+00 0.00000000E+00 0.45803235E+03 0.45803246E+03 0.32000000E+00 0.0000E+00 0.9000E+01
        1 -1    0    0  501    0 0.00000000E+00 0.00000000E+00 -.94408794E+03 0.94408800E+03 0.32000000E+00 0.0000E+00 0.9000E+01
       25  2    1    2    0    0 0.28662100E+03 0.12858020E+03 -.82480011E+03 0.93234198E+03 0.30046943E+03 0.0000E+00 0.0000E+00
       23  2    1    2    0    0 -.28662100E+03 -.12858020E+03 0.33874452E+03 0.46977848E+03 0.85202703E+02 0.0000E+00 0.0000E+00
       23  1    3    3    0    0 0.88910167E+02 0.14444982E+03 -.23739792E+03 0.30568578E+03 0.91188000E+02 0.0000E+00 0.9000E+01
      -13  1    4    4    0    0 -.26249147E+03 -.12439214E+03 0.33745515E+03 0.44525405E+03 0.10565837E+00 0.0000E+00 0.9000E+01
       13  1    4    4    0    0 -.24129530E+02 -.41880520E+01 0.12893736E+01 0.24524429E+02 0.10565837E+00 0.0000E+00 0.9000E+01
       23  1    3    3    0    0 0.19771083E+03 -.15869622E+02 -.58740219E+03 0.62665621E+03 0.91188000E+02 0.0000E+00 0.9000E+01
#aMCatNLO 1  0  0  2  1 0.52913627D+03 0.00000000D+00  -5  7  0 0.00000000D+00 0.00000000D+00 0.00000000D+00 0.00000000D+00 0.00000000D+00
  <mgrwgt>
 0.3668034459D-03    5    2    0
 0.657588728196728D+03 0.000000000000000D+00 0.000000000000000D+00 0.657588728196728D+03
 0.657588728196728D+03 0.000000000000000D+00 0.000000000000000D+00 -.657588728196728D+03
 0.238157740458006D+03 0.889101665538849D+02 0.144449818267040D+03 -.140118129740740D+03
 0.599404227729901D+03 -.262491835900139D+03 -.124392329228510D+03 0.524318617574619D+03
 0.266213147456881D+02 -.241291632975808D+02 -.418786710080982D+01 0.104374156999528D+02
 0.450994173459860D+03 0.197710832643835D+03 -.158696219377198D+02 -.394637903533832D+03
 0.000000000000000D+00 0.000000000000000D+00 0.000000000000000D+00 -.000000000000000D+00
 0.840031269534416D+03 0.000000000000000D+00 0.000000000000000D+00 0.840031269534416D+03
 0.124225910318510D+04 0.000000000000000D+00 0.000000000000000D+00 -.124225910318510D+04
 0.189877683632425D+03 0.320904436203338D+02 0.841153763816265D+02 -.140118129740740D+03
 0.754935588903811D+03 -.442274182892863D+03 -.315295540413490D+03 0.524318617574619D+03
 0.365773240275207D+02 -.325184903083113D+02 -.130961358647844D+02 0.104374156999528D+02
 0.436240149203001D+03 0.799345796667212D+02 -.140931204850393D+03 -.394637903533832D+03
 0.664659626952754D+03 0.362767649914119D+03 0.385207504747041D+03 -.402227833650682D+03
0.822179998237D-04 0.000000000000D+00 0.000000000000D+00 0.190458758409D-06 0.000000000000D+00  7 -1 1 23 -13 13 23 21 0 0.70466528D-01 0.14524431D+00 0.13171301D+06 0.13171301D+06 0.13171301D+06 0.11120353D+01  1  2  2  2  7  2        1 0.360433511603D-03 0.100000000000D+01
-.260558095975D-05 0.000000000000D+00 -.315738767820D-06 0.190458758409D-06 0.000000000000D+00  7 -1 1 23 -13 13 23 21 2 0.70466528D-01 0.14524431D+00 0.13171301D+06 0.13171301D+06 0.13171301D+06 0.11120353D+01  1  2  3  2  7  2        1 -.141253758794D-04 0.100000000000D+01
0.499417589898D-05 0.000000000000D+00 0.000000000000D+00 0.190458758409D-06 0.000000000000D+00  7 -1 1 23 -13 13 23 21 2 0.70466528D-01 0.14524431D+00 0.13171301D+06 0.13171301D+06 0.13171301D+06 0.11120353D+01  1  2 15  2  7  2        1 0.270744271127D-04 0.100000000000D+01
-.686342329704D-05 0.000000000000D+00 -.234978159720D-04 0.190458758409D-06 0.000000000000D+00  7 -1 1 23 -13 13 23 21 2 0.70466528D-01 0.30763380D+00 0.13171301D+06 0.13171301D+06 0.13171301D+06 0.11120353D+01  1  2  5  2  7  2        1 -.706823197468D-05 0.100000000000D+01
0.903985624522D-06 0.000000000000D+00 -.190767723745D-05 0.190458758409D-06 0.000000000000D+00  7 -1 21 23 -13 13 23 -1 2 0.70466528D-01 0.30763380D+00 0.13171301D+06 0.13171301D+06 0.13171301D+06 0.11120353D+01  1  2  5  4  7  2        1 0.489115059954D-06 0.100000000000D+01
  </mgrwgt>
  </event>
  <event>
  7     66 0.27414828E-05 0.22454772E+03 0.75467711E-02 0.10056093E+00
       -3 -1    0    0    0  501 0.00000000E+00 0.00000000E+00 0.44731785E+02 0.44734579E+02 0.50000000E+00 0.0000E+00 0.9000E+01
        3 -1    0    0  501    0 0.00000000E+00 0.00000000E+00 -.16967282E+04 0.16967283E+04 0.50000000E+00 0.0000E+00 0.9000E+01
       25  2    1    2    0    0 0.61400895E+02 0.13183853E+03 -.12090265E+04 0.12541292E+04 0.29990601E+03 0.0000E+00 0.0000E+00
       23  1    3    3    0    0 0.38335409E+02 0.19404756E+03 -.71739764E+03 0.74973241E+03 0.91188000E+02 0.0000E+00 0.9000E+01
      -13  1    1    2    0    0 -.10159348E+02 -.14528301E+03 -.36583891E+03 0.39376196E+03 0.10565837E+00 0.0000E+00 0.9000E+01
       13  1    1    2    0    0 -.51241548E+02 0.13444479E+02 -.77131031E+02 0.93571670E+02 0.10565837E+00 0.0000E+00 0.9000E+01
       23  1    3    3    0    0 0.23065487E+02 -.62209033E+02 -.49162882E+03 0.50439680E+03 0.91188000E+02 0.0000E+00 0.9000E+01
#aMCatNLO 1  0  0  1  2 0.77882629D+02 0.00000000D+00  -5  7  0 0.00000000D+00 0.00000000D+00 0.00000000D+00 0.00000000D+00 0.00000000D+00
  <mgrwgt>
 0.8099143587D-05    9    2    0
 0.275499868002654D+03 0.000000000000000D+00 0.000000000000000D+00 0.275499868002654D+03
 0.275499868002654D+03 0.000000000000000D+00 0.000000000000000D+00 -.275499868002654D+03
 0.218681747649860D+03 0.383360582578457D+02 0.194048954674933D+03 -.195398372054070D+02
 0.147654034165728D+03 -.101610987233408D+02 -.145282836577107D+03 0.243179619676113D+02
 0.644840009306174D+02 -.512408031443850D+02 0.134421470875289D+02 0.367678548574089D+02
 0.120179953259103D+03 0.230658436098801D+02 -.622082651853548D+02 -.415459796196132D+02
 0.000000000000000D+00 -.000000000000000D+00 -.000000000000000D+00 0.000000000000000D+00
 0.357176386272671D+03 0.000000000000000D+00 0.000000000000000D+00 0.357176386272671D+03
 0.297448736601389D+03 0.000000000000000D+00 0.000000000000000D+00 -.297448736601389D+03
 0.242770261708134D+03 0.630352869521956D+02 0.215097410460182D+03 -.195398372054070D+02
 0.134708994233236D+03 0.495238842553557D+01 -.132403261674153D+03 0.243179619676113D+02
 0.608447745964099D+02 -.445325777472703D+02 0.191588351434987D+02 0.367678548574089D+02
 0.118152755169625D+03 0.358226069383460D+02 -.513370686712900D+02 -.415459796196132D+02
 0.981483371666561D+02 -.592777045688069D+02 -.505159152582379D+02 0.597276496712819D+02
0.308650844280D-05 0.000000000000D+00 0.000000000000D+00 0.315751664263D-09 0.000000000000D+00  7 -3 3 23 -13 13 23 21 0 0.68820336D-02 0.26103533D+00 0.70010447D+05 0.70010447D+05 0.70010447D+05 0.11346541D+01  1  2  2  1  7  1       -3 0.668442035784D-05 0.100000000000D+01
-.171132623484D-06 0.000000000000D+00 -.118530051167D-07 0.315751664263D-09 0.000000000000D+00  7 -3 3 23 -13 13 23 21 2 0.68820336D-02 0.26103533D+00 0.70010447D+05 0.70010447D+05 0.70010447D+05 0.11346541D+01  1  2  3  1  7  1       -3 -.477151258819D-06 0.100000000000D+01
0.196192966701D-06 0.000000000000D+00 0.000000000000D+00 0.315751664263D-09 0.000000000000D+00  7 -3 3 23 -13 13 23 21 2 0.68820336D-02 0.26103533D+00 0.70010447D+05 0.70010447D+05 0.70010447D+05 0.11346541D+01  1  2 15  1  7  1       -3 0.547024402050D-06 0.100000000000D+01
0.328350157029D-05 0.000000000000D+00 0.000000000000D+00 0.315751664263D-09 0.000000000000D+00  7 -3 3 23 -13 13 23 21 2 0.91353391D-02 0.26103533D+00 0.93467020D+05 0.93467020D+05 0.93467020D+05 0.11241378D+01  1  2 12  1  7  1       -3 0.568460340520D-05 0.100000000000D+01
-.349546756138D-05 0.000000000000D+00 0.000000000000D+00 0.315751664263D-09 0.000000000000D+00  7 -3 3 23 -13 13 23 21 2 0.68820336D-02 0.26103533D+00 0.70010447D+05 0.70010447D+05 0.70010447D+05 0.11346541D+01  1  2  4  1  7  1       -3 -.974604790784D-05 0.100000000000D+01
-.527613560371D-05 0.000000000000D+00 -.150043986809D-05 0.315751664263D-09 0.000000000000D+00  7 -3 3 23 -13 13 23 21 2 0.96899334D-02 0.26103533D+00 0.70010447D+05 0.70010447D+05 0.70010447D+05 0.11346541D+01  1  2  5  1  7  1       -3 -.851925048460D-05 0.100000000000D+01
0.554547437487D-05 0.000000000000D+00 0.141669249380D-05 0.315751664263D-09 0.000000000000D+00  7 -3 3 23 -13 13 23 21 2 0.68820336D-02 0.26103533D+00 0.70010447D+05 0.70010447D+05 0.70010447D+05 0.11346541D+01  1  2  6  1  7  1       -3 0.154618682566D-04 0.100000000000D+01
0.121747807651D-06 0.000000000000D+00 0.000000000000D+00 0.315751664263D-09 0.000000000000D+00  7 21 3 23 -13 13 23 3 2 0.91353391D-02 0.26103533D+00 0.93467020D+05 0.93467020D+05 0.93467020D+05 0.11241378D+01  1  2 12  3  7  1       -3 0.377047563975D-05 0.100000000000D+01
-.183184786624D-06 0.000000000000D+00 -.637685191398D-07 0.315751664263D-09 0.000000000000D+00  7 21 3 23 -13 13 23 3 2 0.96899334D-02 0.26103533D+00 0.70010447D+05 0.70010447D+05 0.70010447D+05 0.11346541D+01  1  2  5  3  7  1       -3 -.530679882268D-05 0.100000000000D+01
  </mgrwgt>
  </event>
  <event>
  8     66 0.27414828E-05 0.18921644E+03 0.75467711E-02 0.10082927E+00
       -1 -1    0    0    0  501 0.00000000E+00 0.00000000E+00 0.21620629E+03 0.21620653E+03 0.32000000E+00 0.0000E+00 0.9000E+01
        1 -1    0    0  501    0 0.00000000E+00 0.00000000E+00 -.46562347E+03 0.46562358E+03 0.32000000E+00 0.0000E+00 0.9000E+01
       25  2    1    2    0    0 -.19588911E+03 0.37778538E+02 -.13661212E+02 0.35983680E+03 0.29915905E+03 0.0000E+00 0.0000E+00
       23  2    1    2    0    0 0.19588911E+03 -.37778538E+02 -.23575597E+03 0.32199331E+03 0.91099156E+02 0.0000E+00 0.0000E+00
       23  1    3    3    0    0 -.15955144E+03 -.33765913E+01 -.11173743E+03 0.21510129E+03 0.91188000E+02 0.0000E+00 0.9000E+01
      -13  1    4    4    0    0 0.41745925E+02 0.20592082E+02 -.20455701E+02 0.50844891E+02 0.10565837E+00 0.0000E+00 0.9000E+01
       13  1    4    4    0    0 0.15414318E+03 -.58370621E+02 -.21530027E+03 0.27114842E+03 0.10565837E+00 0.0000E+00 0.9000E+01
       23  1    3    3    0    0 -.36337672E+02 0.41155130E+02 0.98076219E+02 0.14473551E+03 0.91188000E+02 0.0000E+00 0.9000E+01
#aMCatNLO 1  0  0  1  2 0.88741229D+02 0.00000000D+00  -5  7  0 0.00000000D+00 0.00000000D+00 0.00000000D+00 0.00000000D+00 0.00000000D+00
  <mgrwgt>
 0.1016239256D-03    9    2    0
 0.317286690197222D+03 0.000000000000000D+00 0.000000000000000D+00 0.317286690197222D+03
 0.317286690197222D+03 0.000000000000000D+00 0.000000000000000D+00 -.317286690197222D+03
 0.187201841395376D+03 -.159551435938858D+03 -.337659115642800D+01 -.355136030251816D+02
 0.465910466128146D+02 0.417457736291866D+02 0.205921882211539D+02 -.199444048362860D+01
 0.206717953086927D+03 0.154143334488905D+03 -.583707267245347D+02 -.124759780469270D+03
 0.194062539299326D+03 -.363376721792332D+02 0.411551296598088D+02 0.162267823978081D+03
 0.000000000000000D+00 0.000000000000000D+00 -.000000000000000D+00 0.000000000000000D+00
 0.568992500546010D+03 0.000000000000000D+00 0.000000000000000D+00 0.568992500546010D+03
 0.328292918313725D+03 0.000000000000000D+00 0.000000000000000D+00 -.328292918313725D+03
 0.201504619011910D+03 -.175149038131939D+03 0.187205390083095D+02 -.355136030251816D+02
 0.460304892949242D+02 0.380291544865890D+02 0.258575242612771D+02 -.199444048362860D+01
 0.189629906770292D+03 0.138239106291477D+03 -.358391993591203D+02 -.124759780469270D+03
 0.203583282481286D+03 -.522939836214869D+02 0.637604433820025D+02 0.162267823978081D+03
 0.256537121301322D+03 0.511747609753598D+02 -.724993072924687D+02 0.240699582232285D+03
0.241202269186D-05 0.000000000000D+00 0.000000000000D+00 0.244862582164D-06 0.000000000000D+00  7 -1 1 23 -13 13 23 21 0 0.33262533D-01 0.71634407D-01 0.62904543D+05 0.62904543D+05 0.62904543D+05 0.11386267D+01  1  2  2  1  7  1       -1 0.118790130441D-03 0.100000000000D+01
-.124994563990D-06 0.000000000000D+00 -.926280223692D-08 0.244862582164D-06 0.000000000000D+00  7 -1 1 23 -13 13 23 21 2 0.33262533D-01 0.71634407D-01 0.62904543D+05 0.62904543D+05 0.62904543D+05 0.11386267D+01  1  2  3  1  7  1       -1 -.798091748446D-05 0.100000000000D+01
0.150051184883D-06 0.000000000000D+00 0.000000000000D+00 0.244862582164D-06 0.000000000000D+00  7 -1 1 23 -13 13 23 21 2 0.33262533D-01 0.71634407D-01 0.62904543D+05 0.62904543D+05 0.62904543D+05 0.11386267D+01  1  2 15  1  7  1       -1 0.958078564991D-05 0.100000000000D+01
0.681273979974D-05 0.000000000000D+00 0.000000000000D+00 0.244862582164D-06 0.000000000000D+00  7 -1 1 23 -13 13 23 21 2 0.59810306D-01 0.71634407D-01 0.89650108D+05 0.89650108D+05 0.89650108D+05 0.11256367D+01  1  2 12  1  7  1       -1 0.150522644578D-03 0.100000000000D+01
-.686625867115D-05 0.000000000000D+00 0.000000000000D+00 0.244862582164D-06 0.000000000000D+00  7 -1 1 23 -13 13 23 21 2 0.33262533D-01 0.71634407D-01 0.62904543D+05 0.62904543D+05 0.62904543D+05 0.11386267D+01  1  2  4  1  7  1       -1 -.438411416722D-03 0.100000000000D+01
-.754830696358D-05 0.000000000000D+00 -.818885764262D-06 0.244862582164D-06 0.000000000000D+00  7 -1 1 23 -13 13 23 21 2 0.60787707D-01 0.71634407D-01 0.62904543D+05 0.62904543D+05 0.62904543D+05 0.11386267D+01  1  2  5  1  7  1       -1 -.166939347534D-03 0.100000000000D+01
0.688192619151D-05 0.000000000000D+00 0.689673785255D-06 0.244862582164D-06 0.000000000000D+00  7 -1 1 23 -13 13 23 21 2 0.33262533D-01 0.71634407D-01 0.62904543D+05 0.62904543D+05 0.62904543D+05 0.11386267D+01  1  2  6  1  7  1       -1 0.439411789723D-03 0.100000000000D+01
0.438511163784D-06 0.000000000000D+00 0.000000000000D+00 0.244862582164D-06 0.000000000000D+00  7 21 1 23 -13 13 23 1 2 0.59810306D-01 0.71634407D-01 0.89650108D+05 0.89650108D+05 0.89650108D+05 0.11256367D+01  1  2 12  3  7  1       -1 0.846556704915D-04 0.100000000000D+01
-.453075295837D-06 0.000000000000D+00 -.539810611656D-07 0.244862582164D-06 0.000000000000D+00  7 21 1 23 -13 13 23 1 2 0.60787707D-01 0.71634407D-01 0.62904543D+05 0.62904543D+05 0.62904543D+05 0.11386267D+01  1  2  5  3  7  1       -1 -.880054135101D-04 0.100000000000D+01
  </mgrwgt>
  </event>
  <event>
  8     66 0.27414828E-05 0.29772649E+03 0.75467711E-02 0.96708298E-01
       -1 -1    0    0    0  501 0.00000000E+00 0.00000000E+00 0.13494544E+04 0.13494544E+04 0.32000000E+00 0.0000E+00 0.9000E+01
        1 -1    0    0  501    0 0.00000000E+00 0.00000000E+00 -.14096321E+03 0.14096357E+03 0.32000000E+00 0.0000E+00 0.9000E+01
       25  2    1    2    0    0 -.31547326E+03 -.69163511E+02 0.10059261E+04 0.10984027E+04 0.30048984E+03 0.0000E+00 0.0000E+00
       23  2    1    2    0    0 0.31547326E+03 0.69163511E+02 0.20256501E+03 0.39201526E+03 0.91303938E+02 0.0000E+00 0.0000E+00
       23  1    3    3    0    0 -.32404324E+03 -.34442198E+02 0.84185056E+03 0.90731357E+03 0.91188000E+02 0.0000E+00 0.9000E+01
      -13  1    4    4    0    0 0.26546931E+03 0.36704293E+02 0.12928829E+03 0.29755105E+03 0.10565837E+00 0.0000E+00 0.9000E+01
       13  1    4    4    0    0 0.50003954E+02 0.32459218E+02 0.73276723E+02 0.94464203E+02 0.10565837E+00 0.0000E+00 0.9000E+01
       23  1    3    3    0    0 0.85699796E+01 -.34721313E+02 0.16407558E+03 0.19108915E+03 0.91188000E+02 0.0000E+00 0.9000E+01
#aMCatNLO 1  0  0  1  2 0.68432692D+02 0.00000000D+00  -5  7  0 0.00000000D+00 0.00000000D+00 0.00000000D+00 0.00000000D+00 0.00000000D+00
  <mgrwgt>
 0.3287520456D-03    9    2    0
 0.436146435353139D+03 0.000000000000000D+00 0.000000000000000D+00 0.436146435353139D+03
 0.436146435353139D+03 0.000000000000000D+00 0.000000000000000D+00 -.436146435353139D+03
 0.383939264964501D+03 -.324043239081387D+03 -.344421982341330D+02 0.181394106916196D+03
 0.329283902748216D+03 0.265469593944660D+03 0.367042988486368D+02 -.191328455139281D+03
 0.598841978601521D+02 0.500036657197931D+02 0.324592125958403D+02 -.567010454886677D+01
 0.991855051334092D+02 0.856997941693415D+01 -.347213132103442D+02 0.156044527719512D+02
 0.000000000000000D+00 -.000000000000000D+00 0.000000000000000D+00 0.000000000000000D+00
 0.505785055289759D+03 0.000000000000000D+00 0.000000000000000D+00 0.505785055289759D+03
 0.454628321119999D+03 0.000000000000000D+00 0.000000000000000D+00 -.454628321119999D+03
 0.379865272161548D+03 -.314835730036622D+03 -.629048068016249D+02 0.181394106916196D+03
 0.333966138059295D+03 0.273464938895941D+03 0.119887788742355D+02 -.191328455139281D+03
 0.588527648435258D+02 0.514350157640803D+02 0.280345679025214D+02 -.567010454886677D+01
 0.102288901999388D+03 0.109987126016624D+02 -.422291072962046D+02 0.156044527719512D+02
 0.854402993460013D+02 -.210629372250627D+02 0.651105673210726D+02 0.511567341697596D+02
0.455816393032D-04 0.000000000000D+00 0.000000000000D+00 0.855336014981D-06 0.000000000000D+00  7 -1 1 23 -13 13 23 21 0 0.20760839D+00 0.21686678D-01 0.14590380D+06 0.14590380D+06 0.14590380D+06 0.11085021D+01  1  2  2  1  7  1       -1 0.167832609100D-03 0.100000000000D+01
-.247815556042D-05 0.000000000000D+00 -.175045496846D-06 0.855336014981D-06 0.000000000000D+00  7 -1 1 23 -13 13 23 21 2 0.20760839D+00 0.21686678D-01 0.14590380D+06 0.14590380D+06 0.14590380D+06 0.11085021D+01  1  2  3  1  7  1       -1 -.112121263299D-04 0.100000000000D+01
0.296786970022D-05 0.000000000000D+00 0.000000000000D+00 0.855336014981D-06 0.000000000000D+00  7 -1 1 23 -13 13 23 21 2 0.20760839D+00 0.21686678D-01 0.14590380D+06 0.14590380D+06 0.14590380D+06 0.11085021D+01  1  2 15  1  7  1       -1 0.134277809436D-04 0.100000000000D+01
0.791560054832D-04 0.000000000000D+00 0.000000000000D+00 0.855336014981D-06 0.000000000000D+00  7 -1 1 23 -13 13 23 21 2 0.24466078D+00 0.21686678D-01 0.17455184D+06 0.17455184D+06 0.17455184D+06 0.11023939D+01  1  2 12  1  7  1       -1 0.175776807089D-03 0.100000000000D+01
-.800183820952D-04 0.000000000000D+00 0.000000000000D+00 0.855336014981D-06 0.000000000000D+00  7 -1 1 23 -13 13 23 21 2 0.20760839D+00 0.21686678D-01 0.14590380D+06 0.14590380D+06 0.14590380D+06 0.11085021D+01  1  2  4  1  7  1       -1 -.362033854167D-03 0.100000000000D+01
-.155317895072D-03 0.000000000000D+00 -.317780193463D-04 0.855336014981D-06 0.000000000000D+00  7 -1 1 23 -13 13 23 21 2 0.24550574D+00 0.21686678D-01 0.14590380D+06 0.14590380D+06 0.14590380D+06 0.11085021D+01  1  2  5  1  7  1       -1 -.346355643077D-03 0.100000000000D+01
0.158849478432D-03 0.000000000000D+00 0.313365182444D-04 0.855336014981D-06 0.000000000000D+00  7 -1 1 23 -13 13 23 21 2 0.20760839D+00 0.21686678D-01 0.14590380D+06 0.14590380D+06 0.14590380D+06 0.11085021D+01  1  2  6  1  7  1       -1 0.718695972142D-03 0.100000000000D+01
0.194180321977D-05 0.000000000000D+00 0.000000000000D+00 0.855336014981D-06 0.000000000000D+00  7 21 1 23 -13 13 23 1 2 0.24466078D+00 0.21686678D-01 0.17455184D+06 0.17455184D+06 0.17455184D+06 0.11023939D+01  1  2 12  3  7  1       -1 0.311537268127D-04 0.100000000000D+01
-.360458031242D-05 0.000000000000D+00 -.792534164283D-06 0.855336014981D-06 0.000000000000D+00  7 21 1 23 -13 13 23 1 2 0.24550574D+00 0.21686678D-01 0.14590380D+06 0.14590380D+06 0.14590380D+06 0.11085021D+01  1  2  5  3  7  1       -1 -.585332268798D-04 0.100000000000D+01
  </mgrwgt>
  </event>
  <event>
  8     66 0.27414828E-05 0.19623765E+03 0.75467711E-02 0.10208153E+00
       -3 -1    0    0    0  501 0.00000000E+00 0.00000000E+00 0.66363582E+02 0.66365466E+02 0.50000000E+00 0.0000E+00 0.9000E+01
        3 -1    0    0  501    0 0.00000000E+00 0.00000000E+00 -.93348147E+03 0.93348161E+03 0.50000000E+00 0.0000E+00 0.9000E+01
       25  2    1    2    0    0 -.11929086E+03 -.81826970E+02 -.64574044E+03 0.72250947E+03 0.29002284E+03 0.0000E+00 0.0000E+00
       23  2    1    2    0    0 0.11929086E+03 0.81826970E+02 -.22137745E+03 0.27733761E+03 0.83559619E+02 0.0000E+00 0.0000E+00
       23  1    3    3    0    0 -.26587206E+02 -.64073869E+02 -.54539961E+03 0.55730452E+03 0.91188000E+02 0.0000E+00 0.9000E+01
      -11  1    4    4    0    0 0.54096426E+02 0.22775294E+02 -.15904129E+03 0.16952661E+03 0.51099893E-03 0.0000E+00 0.9000E+01
       11  1    4    4    0    0 0.65194439E+02 0.59051676E+02 -.62336152E+02 0.10781100E+03 0.51099893E-03 0.0000E+00 0.9000E+01
       23  1    3    3    0    0 -.92703659E+02 -.17753100E+02 -.10034083E+03 0.16520495E+03 0.91188000E+02 0.0000E+00 0.9000E+01
#aMCatNLO 1  0  0  2  1 0.13683291D+03 0.00000000D+00  -5  7  0 0.00000000D+00 0.00000000D+00 0.00000000D+00 0.00000000D+00 0.00000000D+00
  <mgrwgt>
 0.3215525096D-04    4    2    0
 0.248897936983941D+03 0.000000000000000D+00 0.000000000000000D+00 0.248897936983941D+03
 0.248897936983941D+03 0.000000000000000D+00 0.000000000000000D+00 -.248897936983941D+03
 0.169333528536267D+03 -.265872062996979D+02 -.640738693466513D+02 -.124684611202298D+03
 0.634660353212451D+02 0.540964261392624D+02 0.227752935990001D+02 -.241412576274769D+02
 0.107959346445735D+03 0.651944386935759D+02 0.590516760401359D+02 0.625923733794346D+02
 0.157036963664635D+03 -.927036585331404D+02 -.177531002924848D+02 0.862334954503407D+02
 0.000000000000000D+00 -.000000000000000D+00 -.000000000000000D+00 0.000000000000000D+00
 0.328797989543919D+03 0.000000000000000D+00 0.000000000000000D+00 0.328797989543919D+03
 0.324366269918511D+03 0.000000000000000D+00 0.000000000000000D+00 -.324366269918511D+03
 0.159162164694866D+03 0.876870958137368D+01 -.373389982185512D+02 -.124684611202298D+03
 0.814567017260827D+02 0.696944269833549D+02 0.345699404644788D+02 -.241412576274769D+02
 0.136047838426026D+03 0.914568758593288D+02 0.789103858384620D+02 0.625923733794346D+02
 0.139592897595728D+03 -.607774548152849D+02 0.638834593330227D+01 0.862334954503407D+02
 0.136904657019726D+03 -.109142557608772D+03 -.825296740176919D+02 0.443171962540724D+01
0.507994267877D-05 0.000000000000D+00 0.000000000000D+00 0.141641685281D-09 0.000000000000D+00  7 -3 3 23 -11 11 23 21 0 0.10209937D-01 0.14361269D+00 0.38509216D+05 0.38509216D+05 0.38509216D+05 0.11574061D+01  1  2  2  2  7  2        3 0.530950073892D-04 0.100000000000D+01
-.262828654330D-06 0.000000000000D+00 -.195083174661D-07 0.141641685281D-09 0.000000000000D+00  7 -3 3 23 -11 11 23 21 2 0.10209937D-01 0.14361269D+00 0.38509216D+05 0.38509216D+05 0.38509216D+05 0.11574061D+01  1  2  3  2  7  2        3 -.367992629251D-05 0.100000000000D+01
0.325484948505D-06 0.000000000000D+00 0.000000000000D+00 0.141641685281D-09 0.000000000000D+00  7 -3 3 23 -11 11 23 21 2 0.10209937D-01 0.14361269D+00 0.38509216D+05 0.38509216D+05 0.38509216D+05 0.11574061D+01  1  2 15  2  7  2        3 0.455719191985D-05 0.100000000000D+01
-.155822103276D-05 0.000000000000D+00 0.000000000000D+00 0.141641685281D-09 0.000000000000D+00  7 -3 3 23 -11 11 23 21 2 0.10209937D-01 0.14361269D+00 0.38509216D+05 0.38509216D+05 0.38509216D+05 0.11574061D+01  1  2  4  2  7  2        3 -.218170220543D-04 0.100000000000D+01
  </mgrwgt>
  </event>
  <event>
  8     66 0.27414828E-05 0.75020708E+02 0.75467711E-02 0.10616802E+00
       -3 -1    0    0    0  501 0.00000000E+00 0.00000000E+00 0.81978450E+03 0.81978465E+03 0.50000000E+00 0.0000E+00 0.9000E+01
        3 -1    0    0  501    0 0.00000000E+00 0.00000000E+00 -.17016518E+03 0.17016592E+03 0.50000000E+00 0.0000E+00 0.9000E+01
       25  2    1    2    0    0 -.20558853E+02 0.61118141E+02 0.76797681E+03 0.82673476E+03 0.29923884E+03 0.0000E+00 0.0000E+00
       23  2    1    2    0    0 0.20558853E+02 -.61118141E+02 -.11835749E+03 0.16321582E+03 0.92047883E+02 0.0000E+00 0.0000E+00
       23  1    3    3    0    0 -.16366645E+02 -.95338705E+01 0.66669465E+03 0.67316846E+03 0.91188000E+02 0.0000E+00 0.9000E+01
      -11  1    4    4    0    0 0.11060576E+02 0.23912662E+02 -.34542691E+02 0.43443633E+02 0.51099893E-03 0.0000E+00 0.9000E+01
       11  1    4    4    0    0 0.94982769E+01 -.85030803E+02 -.83814801E+02 0.11977218E+03 0.51099893E-03 0.0000E+00 0.9000E+01
       23  1    3    3    0    0 -.41922080E+01 0.70652012E+02 0.10128216E+03 0.15356630E+03 0.91188000E+02 0.0000E+00 0.9000E+01
#aMCatNLO 1  0  0  1  2 0.73541123D+02 0.00000000D+00  -5  7  0 0.00000000D+00 0.00000000D+00 0.00000000D+00 0.00000000D+00 0.00000000D+00
  <mgrwgt>
 0.2790015801D-04    9    2    0
 0.373495942197527D+03 0.000000000000000D+00 0.000000000000000D+00 0.373495942197527D+03
 0.373495942197527D+03 0.000000000000000D+00 0.000000000000000D+00 -.373495942197527D+03
 0.312327052555191D+03 -.163666445568912D+02 -.953387052127930D+01 0.298117719487865D+03
 0.876136008707274D+02 0.110605755625019D+02 0.239126618089802D+02 -.835583109628878D+02
 0.231617313869212D+03 0.949827694469209D+01 -.850308031384775D+02 -.215235046720316D+03
 0.115433917099923D+03 -.419220795030275D+01 0.706520118507766D+02 0.675638195338976D+00
 0.000000000000000D+00 0.000000000000000D+00 0.000000000000000D+00 0.000000000000000D+00
 0.423226958198520D+03 0.000000000000000D+00 0.000000000000000D+00 0.423226958198520D+03
 0.403513687490698D+03 0.000000000000000D+00 0.000000000000000D+00 -.403513687490698D+03
 0.315561349182829D+03 -.469110689023080D+02 -.137437511577248D+02 0.298117719487865D+03
 0.866370195104815D+02 0.258393405002417D+01 0.227443422308499D+02 -.835583109628878D+02
 0.232953708353987D+03 -.131013671992207D+02 -.881456696422980D+02 -.215235046720316D+03
 0.115451128453769D+03 -.154239026063626D+02 0.691039684726368D+02 0.675638195338976D+00
 0.761374401881511D+02 0.728524046578671D+02 0.100411100965362D+02 0.197132707078226D+02
0.928133938445D-05 0.000000000000D+00 0.000000000000D+00 0.339040604545D-06 0.000000000000D+00  7 -3 3 23 -11 11 23 21 0 0.12612076D+00 0.26179327D-01 0.25675694D+05 0.25675694D+05 0.25675694D+05 0.11736603D+01  1  2  2  1  7  1       -3 0.234622531337D-04 0.100000000000D+01
-.666527401823D-07 0.000000000000D+00 -.356427870691D-07 0.339040604545D-06 0.000000000000D+00  7 -3 3 23 -11 11 23 21 2 0.12612076D+00 0.26179327D-01 0.25675694D+05 0.25675694D+05 0.25675694D+05 0.11736603D+01  1  2  3  1  7  1       -3 -.232092925819D-06 0.100000000000D+01
0.578500808906D-06 0.000000000000D+00 0.000000000000D+00 0.339040604545D-06 0.000000000000D+00  7 -3 3 23 -11 11 23 21 2 0.12612076D+00 0.26179327D-01 0.25675694D+05 0.25675694D+05 0.25675694D+05 0.11736603D+01  1  2 15  1  7  1       -3 0.201440998465D-05 0.100000000000D+01
0.719066552407D-05 0.000000000000D+00 0.000000000000D+00 0.339040604545D-06 0.000000000000D+00  7 -3 3 23 -11 11 23 21 2 0.14743304D+00 0.26179327D-01 0.40896746D+05 0.40896746D+05 0.40896746D+05 0.11550527D+01  1  2 12  1  7  1       -3 0.151367976879D-04 0.100000000000D+01
-.943774565697D-05 0.000000000000D+00 0.000000000000D+00 0.339040604545D-06 0.000000000000D+00  7 -3 3 23 -11 11 23 21 2 0.12612076D+00 0.26179327D-01 0.25675694D+05 0.25675694D+05 0.25675694D+05 0.11736603D+01  1  2  4  1  7  1       -3 -.328633751091D-04 0.100000000000D+01
-.157482386087D-04 0.000000000000D+00 -.672283341438D-05 0.339040604545D-06 0.000000000000D+00  7 -3 3 23 -11 11 23 21 2 0.15089497D+00 0.26179327D-01 0.25675694D+05 0.25675694D+05 0.25675694D+05 0.11736603D+01  1  2  5  1  7  1       -3 -.319003079366D-04 0.100000000000D+01
0.167898848947D-04 0.000000000000D+00 0.661614593776D-05 0.339040604545D-06 0.000000000000D+00  7 -3 3 23 -11 11 23 21 2 0.12612076D+00 0.26179327D-01 0.25675694D+05 0.25675694D+05 0.25675694D+05 0.11736603D+01  1  2  6  1  7  1       -3 0.584644156971D-04 0.100000000000D+01
0.169415325503D-06 0.000000000000D+00 0.000000000000D+00 0.339040604545D-06 0.000000000000D+00  7 21 3 23 -11 11 23 3 2 0.14743304D+00 0.26179327D-01 0.40896746D+05 0.40896746D+05 0.40896746D+05 0.11550527D+01  1  2 12  3  7  1       -3 0.593231808574D-05 0.100000000000D+01
-.350084445110D-06 0.000000000000D+00 -.176801354779D-06 0.339040604545D-06 0.000000000000D+00  7 21 3 23 -11 11 23 3 2 0.15089497D+00 0.26179327D-01 0.25675694D+05 0.25675694D+05 0.25675694D+05 0.11736603D+01  1  2  5  3  7  1       -3 -.121142606032D-04 0.100000000000D+01
  </mgrwgt>
  </event>
  <event>
  9     66 0.27414828E-05 0.22449941E+03 0.75467711E-02 0.99750645E-01
       21 -1    0    0  502  501 0.00000000E+00 0.00000000E+00 0.14657993E+03 0.14658185E+03 0.75000000E+00 0.0000E+00 0.9000E+01
        1 -1    0    0  501    0 0.00000000E+00 0.00000000E+00 -.88364780E+03 0.88364786E+03 0.32000000E+00 0.0000E+00 0.9000E+01
       25  2    1    2    0    0 -.13110305E+02 0.49523917E+02 -.27246981E+03 0.40858082E+03 0.30012329E+03 0.0000E+00 0.0000E+00
       23  2    1    2    0    0 -.55183771E+02 -.20980588E+03 -.23547436E+03 0.33380838E+03 0.94425107E+02 0.0000E+00 0.0000E+00
       23  1    3    3    0    0 0.38905410E+02 -.49488088E+02 -.12846739E+02 0.11154816E+03 0.91188000E+02 0.0000E+00 0.9000E+01
      -13  1    4    4    0    0 -.63771257E+02 -.19512292E+03 -.24038010E+03 0.31610493E+03 0.10565837E+00 0.0000E+00 0.9000E+01
       13  1    4    4    0    0 0.85874852E+01 -.14682966E+02 0.49057407E+01 0.17703442E+02 0.10565837E+00 0.0000E+00 0.9000E+01
       23  1    3    3    0    0 -.52015715E+02 0.99012005E+02 -.25962307E+03 0.29703266E+03 0.91188000E+02 0.0000E+00 0.9000E+01
        1  1    1    2  502    0 0.68294076E+02 0.16028197E+03 -.22912370E+03 0.28784052E+03 0.32000000E+00 0.0000E+00 0.9000E+01
#aMCatNLO 2  0  0  1  2 0.17422511D+03 0.00000000D+00  -5  7  0 0.00000000D+00 0.00000000D+00 0.00000000D+00 0.00000000D+00 0.00000000D+00
  <mgrwgt>
 0.4440163611D-04    1    2    0
 0.256310383643853D+03 0.000000000000000D+00 0.000000000000000D+00 0.256310383643853D+03
 0.256310383643853D+03 0.000000000000000D+00 0.000000000000000D+00 -.256310383643853D+03
 0.138526740002380D+03 0.570103224167594D+02 -.699696857861746D+01 0.870360380551298D+02
 0.150098129960363D+03 -.405741910763370D+02 -.140680909447007D+03 -.330464121087566D+02
 0.270524543984350D+02 0.122113757589180D+02 -.617788002888592D+01 0.233356248984810D+02
 0.196943442926528D+03 -.286475070993404D+02 0.153855758054511D+03 -.773252508448543D+02
 0.000000000000000D+00 0.000000000000000D+00 0.000000000000000D+00 -.000000000000000D+00
 0.338508571326202D+03 0.000000000000000D+00 0.000000000000000D+00 0.338508571326202D+03
 0.382637135628423D+03 0.000000000000000D+00 0.000000000000000D+00 -.382637135628423D+03
 0.140901466281021D+03 0.389054146120823D+02 -.494880657297264D+02 0.870360380551298D+02
 0.207922821608821D+03 -.637713350100770D+02 -.195123169366286D+03 -.330464121087566D+02
 0.288769975192065D+02 0.858755558699156D+01 -.146827615032725D+02 0.233356248984810D+02
 0.163717628962635D+03 -.520157115556462D+02 0.990120296847173D+02 -.773252508448543D+02
 0.179726792582941D+03 0.682940763666493D+02 0.160281966914567D+03 -.441285643022206D+02
0.834024681090D-07 0.000000000000D+00 0.000000000000D+00 0.409655820613D-07 0.654314250973D-12  7 21 1 23 -13 13 23 1 2 0.22550902D-01 0.13594591D+00 0.10615436D+06 0.10615436D+06 0.10615436D+06 0.11195997D+01  1  2  1  3  7  1       -1 0.444016361080D-04 0.100000000000D+01
  </mgrwgt>
  </event>
  <event>
  8     66 0.27414828E-05 0.44469440E+03 0.75467711E-02 0.89508205E-01
       -1 -1    0    0    0  501 0.00000000E+00 0.00000000E+00 0.16800187E+03 0.16800217E+03 0.32000000E+00 0.0000E+00 0.9000E+01
        1 -1    0    0  501    0 0.00000000E+00 0.00000000E+00 -.13499614E+04 0.13499614E+04 0.32000000E+00 0.0000E+00 0.9000E+01
       25  2    1    2    0    0 0.97476520E+02 0.41069240E+03 -.69629530E+03 0.86799896E+03 0.30070771E+03 0.0000E+00 0.0000E+00
       23  2    1    2    0    0 -.97476520E+02 -.41069240E+03 -.48566421E+03 0.64996463E+03 0.91729869E+02 0.0000E+00 0.0000E+00
       23  1    3    3    0    0 0.31024976E+02 0.12849462E+03 -.44681753E+03 0.47479951E+03 0.91188000E+02 0.0000E+00 0.9000E+01
      -11  1    4    4    0    0 -.84564414E+02 -.25503374E+03 -.24849127E+03 0.36597986E+03 0.51099893E-03 0.0000E+00 0.9000E+01
       11  1    4    4    0    0 -.12912106E+02 -.15565866E+03 -.23717295E+03 0.28398477E+03 0.51099893E-03 0.0000E+00 0.9000E+01
       23  1    3    3    0    0 0.66451544E+02 0.28219779E+03 -.24947777E+03 0.39319945E+03 0.91188000E+02 0.0000E+00 0.9000E+01
#aMCatNLO 1  0  0  2  1 0.56366642D+03 0.00000000D+00  -5  7  0 0.00000000D+00 0.00000000D+00 0.00000000D+00 0.00000000D+00 0.00000000D+00
  <mgrwgt>
 0.1678549654D-03    5    2    0
 0.476231340909481D+03 0.000000000000000D+00 0.000000000000000D+00 0.476231340909481D+03
 0.476231340909481D+03 0.000000000000000D+00 0.000000000000000D+00 -.476231340909481D+03
 0.202221186685009D+03 0.310249757204229D+02 0.128494616383467D+03 -.122901348415330D+03
 0.274905770736672D+03 -.845644143679231D+02 -.255033742278176D+03 0.581363303496408D+02
 0.158273617552644D+03 -.129121055416147D+02 -.155658660291819D+03 -.255772754576958D+02
 0.317062106844638D+03 0.664515441891148D+02 0.282197786186528D+03 0.903422935233848D+02
 0.000000000000000D+00 -.000000000000000D+00 0.000000000000000D+00 -.000000000000000D+00
 0.633831352362291D+03 0.000000000000000D+00 0.000000000000000D+00 0.633831352362291D+03
 0.154064610966954D+04 0.000000000000000D+00 0.000000000000000D+00 -.154064610966954D+04
 0.213253179722949D+03 0.129812990423866D+03 0.721492438827716D+02 -.122901348415330D+03
 0.350743773536761D+03 0.641972936364584D+02 -.339882434465270D+03 0.581363303496408D+02
 0.222914674938072D+03 0.777236536964833D+02 -.207354259514910D+03 -.255772754576958D+02
 0.319842631874999D+03 0.217889418051945D+03 0.195822698691049D+03 0.903422935233848D+02
 0.106772320195905D+04 -.489623355808753D+03 0.279264751406358D+03 -.906814757307253D+03
0.127558705788D-04 0.000000000000D+00 0.000000000000D+00 0.574188152526D-06 0.000000000000D+00  7 -1 1 23 -11 11 23 21 0 0.25846467D-01 0.20768639D+00 0.19775311D+06 0.19775311D+06 0.19775311D+06 0.10982024D+01  1  2  2  2  7  2        1 0.166215164515D-03 0.100000000000D+01
-.704614568809D-06 0.000000000000D+00 -.489859017203D-07 0.574188152526D-06 0.000000000000D+00  7 -1 1 23 -11 11 23 21 2 0.25846467D-01 0.20768639D+00 0.19775311D+06 0.19775311D+06 0.19775311D+06 0.10982024D+01  1  2  3  2  7  2        1 -.110732972015D-04 0.100000000000D+01
0.823600356195D-06 0.000000000000D+00 0.000000000000D+00 0.574188152526D-06 0.000000000000D+00  7 -1 1 23 -11 11 23 21 2 0.25846467D-01 0.20768639D+00 0.19775311D+06 0.19775311D+06 0.19775311D+06 0.10982024D+01  1  2 15  2  7  2        1 0.129432060067D-04 0.100000000000D+01
-.443829822003D-05 0.000000000000D+00 -.358455389831D-05 0.574188152526D-06 0.000000000000D+00  7 -1 1 23 -11 11 23 21 2 0.25846467D-01 0.69700672D+00 0.19775311D+06 0.19775311D+06 0.19775311D+06 0.10982024D+01  1  2  5  2  7  2        1 -.228752089879D-06 0.100000000000D+01
-.489764672946D-06 0.000000000000D+00 -.504114761504D-06 0.574188152526D-06 0.000000000000D+00  7 -1 21 23 -11 11 23 -1 2 0.25846467D-01 0.69700672D+00 0.19775311D+06 0.19775311D+06 0.19775311D+06 0.10982024D+01  1  2  5  4  7  2        1 -.135587420070D-08 0.100000000000D+01
  </mgrwgt>
  </event>
  <event>
  8     66 0.27414828E-05 0.18263435E+03 0.75467711E-02 0.97572309E-01
       -3 -1    0    0    0  501 0.00000000E+00 0.00000000E+00 0.12268252E+03 0.12268354E+03 0.50000000E+00 0.0000E+00 0.9000E+01
        3 -1    0    0  501    0 0.00000000E+00 0.00000000E+00 -.32639311E+03 0.32639349E+03 0.50000000E+00 0.0000E+00 0.9000E+01
       25  2    1    2    0    0 -.66687016E+01 0.10933760E+02 -.11032496E+03 0.32034694E+03 0.30047720E+03 0.0000E+00 0.0000E+00
       23  2    1    2    0    0 0.66687016E+01 -.10933760E+02 -.93385627E+02 0.12873008E+03 0.87672915E+02 0.0000E+00 0.0000E+00
       23  1    3    3    0    0 0.97424763E+02 -.57729964E+02 -.65676612E+02 0.15953997E+03 0.91188000E+02 0.0000E+00 0.9000E+01
      -11  1    4    4    0    0 -.14879489E+02 0.21683306E+02 0.12611902E+01 0.26327848E+02 0.51099893E-03 0.0000E+00 0.9000E+01
       11  1    4    4    0    0 0.21548191E+02 -.32617066E+02 -.94646817E+02 0.10240223E+03 0.51099893E-03 0.0000E+00 0.9000E+01
       23  1    3    3    0    0 -.10409347E+03 0.68663724E+02 -.44648352E+02 0.16080697E+03 0.91188000E+02 0.0000E+00 0.9000E+01
#aMCatNLO 1  0  0  2  1 0.30276697D+03 0.00000000D+00  -5  7  0 0.00000000D+00 0.00000000D+00 0.00000000D+00 0.00000000D+00 0.00000000D+00
  <mgrwgt>
 0.6295485869D-04    3    2    0
 0.200107577782452D+03 0.000000000000000D+00 0.000000000000000D+00 0.200107577782452D+03
 0.200107577782452D+03 0.000000000000000D+00 0.000000000000000D+00 -.200107577782452D+03
 0.145588471571313D+03 0.974247610730288D+02 -.577299598274691D+02 0.751128342248944D+01
 0.301841221721137D+02 -.148794842148609D+02 0.216832981969631D+02 0.148160980052902D+02
 0.667289480304365D+02 0.215481908194374D+02 -.326170661401544D+02 -.540791547092463D+02
 0.157713613791041D+03 -.104093467677605D+03 0.686637277706604D+02 0.317517732814666D+02
 0.000000000000000D+00 0.000000000000000D+00 0.000000000000000D+00 0.000000000000000D+00
 0.609724344766866D+03 0.000000000000000D+00 0.000000000000000D+00 0.609724344766866D+03
 0.314788372453097D+03 0.000000000000000D+00 0.000000000000000D+00 -.314788372453097D+03
 0.127516961314209D+03 0.109508471764070D+02 -.881418382283657D+02 0.751128342248944D+01
 0.430250925785141D+02 -.380598628177236D+02 0.135310263314874D+02 0.148160980052902D+02
 0.764808930437407D+02 -.237966246804004D+02 -.485643148878029D+02 -.540791547092463D+02
 0.254813690893063D+03 -.234712804863079D+03 0.227264130327238D+02 0.317517732814666D+02
 0.422676079390437D+03 0.285618445184796D+03 0.100448713751957D+03 0.294935972313768D+03
0.152402636098D-05 0.000000000000D+00 0.000000000000D+00 0.110721425777D-07 0.000000000000D+00  7 -3 3 23 -11 11 23 21 0 0.18874341D-01 0.50214432D-01 0.33355304D+05 0.33355304D+05 0.33355304D+05 0.11630879D+01  1  2  2  2  7  2        3 0.624492567997D-04 0.100000000000D+01
-.838087222605D-07 0.000000000000D+00 -.585266251153D-08 0.110721425777D-07 0.000000000000D+00  7 -3 3 23 -11 11 23 21 2 0.18874341D-01 0.50214432D-01 0.33355304D+05 0.33355304D+05 0.33355304D+05 0.11630879D+01  1  2  3  2  7  2        3 -.464567759236D-05 0.100000000000D+01
0.929298564568D-07 0.000000000000D+00 0.000000000000D+00 0.110721425777D-07 0.000000000000D+00  7 -3 3 23 -11 11 23 21 2 0.18874341D-01 0.50214432D-01 0.33355304D+05 0.33355304D+05 0.33355304D+05 0.11630879D+01  1  2 15  2  7  2        3 0.515127948689D-05 0.100000000000D+01
  </mgrwgt>
  </event>
  <event>
  8     66 0.27414828E-05 0.29782766E+03 0.75467711E-02 0.88681710E-01
       -1 -1    0    0    0  501 0.00000000E+00 0.00000000E+00 0.20325238E+03 0.20325263E+03 0.32000000E+00 0.0000E+00 0.9000E+01
        1 -1    0    0  501    0 0.00000000E+00 0.00000000E+00 -.50951756E+03 0.50951766E+03 0.32000000E+00 0.0000E+00 0.9000E+01
       25  2    1    2    0    0 -.22467046E+03 0.79857297E+01 -.90428151E+02 0.38442300E+03 0.29843459E+03 0.0000E+00 0.0000E+00
       23  2    1    2    0    0 0.22467046E+03 -.79857297E+01 -.21583703E+03 0.32834730E+03 0.10337184E+03 0.0000E+00 0.0000E+00
       23  1    3    3    0    0 -.14785690E+03 -.10789579E+03 -.73479488E+02 0.21729623E+03 0.91188000E+02 0.0000E+00 0.9000E+01
      -13  1    4    4    0    0 0.17276978E+03 -.35749542E+01 -.96005764E+02 0.19768484E+03 0.10565837E+00 0.0000E+00 0.9000E+01
       13  1    4    4    0    0 0.51900680E+02 -.44107755E+01 -.11983126E+03 0.13066246E+03 0.10565837E+00 0.0000E+00 0.9000E+01
       23  1    3    3    0    0 -.76813556E+02 0.11588152E+03 -.16948663E+02 0.16712677E+03 0.91188000E+02 0.0000E+00 0.9000E+01
#aMCatNLO 1  0  0  2  2 0.77052409D+03 0.00000000D+00  -5  7  0 0.00000000D+00 0.00000000D+00 0.00000000D+00 0.00000000D+00 0.00000000D+00
  <mgrwgt>
 0.2074305053D-03    5    2    0
 0.321808612774246D+03 0.000000000000000D+00 0.000000000000000D+00 0.321808612774246D+03
 0.321808612774246D+03 0.000000000000000D+00 0.000000000000000D+00 -.321808612774246D+03
 0.205678317441062D+03 -.147856943363264D+03 -.107895786304930D+03 0.220259510191895D+02
 0.173240713256812D+03 0.172769883251204D+03 -.357496042140644D+01 -.122528294315947D+02
 0.876795880451782D+02 0.519006516282379D+02 -.441077201390292D+01 -.705306855955463D+02
 0.177018606805440D+03 -.768135915161784D+02 0.115881518740239D+03 0.607575640079515D+02
 0.000000000000000D+00 -.000000000000000D+00 -.000000000000000D+00 -.000000000000000D+00
 0.794999851314779D+03 0.000000000000000D+00 0.000000000000000D+00 0.794999851314779D+03
 0.100853202025412D+04 0.000000000000000D+00 0.000000000000000D+00 -.100853202025412D+04
 0.118700982085135D+03 -.287303258758811D+00 -.727285827066174D+02 0.220259510191895D+02
 0.470444908869733D+03 0.465601317736706D+03 0.662094658958549D+02 -.122528294315947D+02
 0.195987480081975D+03 0.180949105750211D+03 0.263426624794050D+02 -.705306855955463D+02
 0.218834015041389D+03 0.103271355413808D+03 0.158797419254690D+03 0.607575640079515D+02
 0.799564485490668D+03 -.749534475641965D+03 -.178620964923332D+03 -.213532168939342D+03
0.415721074347D-05 0.000000000000D+00 0.000000000000D+00 0.101500309286D-08 0.000000000000D+00  7 -1 1 23 -13 13 23 21 0 0.31269624D-01 0.78387344D-01 0.88701314D+05 0.88701314D+05 0.88701314D+05 0.11260202D+01  1  2  2  2  7  2        1 0.200064704732D-03 0.100000000000D+01
-.229272066466D-06 0.000000000000D+00 -.159647838737D-07 0.101500309286D-08 0.000000000000D+00  7 -1 1 23 -13 13 23 21 2 0.31269624D-01 0.78387344D-01 0.88701314D+05 0.88701314D+05 0.88701314D+05 0.11260202D+01  1  2  3  2  7  2        1 -.139898139908D-04 0.100000000000D+01
0.274055832637D-06 0.000000000000D+00 0.000000000000D+00 0.101500309286D-08 0.000000000000D+00  7 -1 1 23 -13 13 23 21 2 0.31269624D-01 0.78387344D-01 0.88701314D+05 0.88701314D+05 0.88701314D+05 0.11260202D+01  1  2 15  2  7  2        1 0.167224476177D-04 0.100000000000D+01
0.268717094297D-05 0.000000000000D+00 -.175324084830D-05 0.101500309286D-08 0.000000000000D+00  7 -1 1 23 -13 13 23 21 2 0.31269624D-01 0.41108473D+00 0.88701314D+05 0.88701314D+05 0.88701314D+05 0.11260202D+01  1  2  5  2  7  2        1 0.438694119996D-05 0.100000000000D+01
0.478172520633D-06 0.000000000000D+00 -.354960193835D-06 0.101500309286D-08 0.000000000000D+00  7 -1 21 23 -13 13 23 -1 2 0.31269624D-01 0.41108473D+00 0.88701314D+05 0.88701314D+05 0.88701314D+05 0.11260202D+01  1  2  5  4  7  2        1 0.246225789715D-06 0.100000000000D+01
  </mgrwgt>
  </event>
  <event>
  8     66 0.27414828E-05 0.59626938E+02 0.75467711E-02 0.10437532E+00
       -1 -1    0    0    0  501 0.00000000E+00 0.00000000E+00 0.15518065E+03 0.15518098E+03 0.32000000E+00 0.0000E+00 0.9000E+01
        1 -1    0    0  501    0 0.00000000E+00 0.00000000E+00 -.32046255E+03 0.32046271E+03 0.32000000E+00 0.0000E+00 0.9000E+01
       25  2    1    2    0    0 -.38964708E+02 -.81884981E+02 -.14307834E+03 0.34434545E+03 0.29979823E+03 0.0000E+00 0.0000E+00
       23  2    1    2    0    0 0.38964708E+02 0.81884981E+02 -.22203562E+02 0.13129824E+03 0.92319185E+02 0.0000E+00 0.0000E+00
       23  1    3    3    0    0 0.98680631E+02 -.15709816E+02 -.65082900E+02 0.15011895E+03 0.91188000E+02 0.0000E+00 0.9000E+01
      -13  1    4    4    0    0 0.46099574E+02 0.68001113E+02 -.52303725E+02 0.97391031E+02 0.10565837E+00 0.0000E+00 0.9000E+01
       13  1    4    4    0    0 -.71348659E+01 0.13883868E+02 0.30100163E+02 0.33907212E+02 0.10565837E+00 0.0000E+00 0.9000E+01
       23  1    3    3    0    0 -.13764534E+03 -.66175165E+02 -.77995436E+02 0.19422649E+03 0.91188000E+02 0.0000E+00 0.9000E+01
#aMCatNLO 1  0  0  1  2 0.48164706D+02 0.00000000D+00  -5  7  0 0.00000000D+00 0.00000000D+00 0.00000000D+00 0.00000000D+00 0.00000000D+00
  <mgrwgt>
 0.1795501233D-03    9    2    0
 0.223001578573112D+03 0.000000000000000D+00 0.000000000000000D+00 0.223001578573112D+03
 0.223001578573112D+03 0.000000000000000D+00 0.000000000000000D+00 -.223001578573112D+03
 0.135976852051342D+03 0.986806140205975D+02 -.157098510354838D+02 -.137764272129407D+02
 0.844805554706749D+02 0.460996379523659D+02 0.680012134479710D+02 -.196881335554709D+02
 0.473151979412293D+02 -.713489123117784D+01 0.138838482538097D+02 0.446660949826841D+02
 0.178230551682978D+03 -.137645360741786D+03 -.661752106662969D+02 -.112015342142725D+02
 0.000000000000000D+00 -.000000000000000D+00 0.000000000000000D+00 0.000000000000000D+00
 0.262379753874623D+03 0.000000000000000D+00 0.000000000000000D+00 0.262379753874623D+03
 0.239527554859136D+03 0.000000000000000D+00 0.000000000000000D+00 -.239527554859136D+03
 0.147215984589845D+03 0.112661176153549D+03 -.217936737541678D+02 -.137764272129407D+02
 0.866064070251451D+02 0.545457975999045D+02 0.643257576643859D+02 -.196881335554709D+02
 0.462855186069737D+02 -.251404471220685D+01 0.118730270318641D+02 0.446660949826841D+02
 0.168488406178551D+03 -.120528663898224D+03 -.736237630303141D+02 -.112015342142725D+02
 0.533109923332431D+02 -.441642651430225D+02 0.192186520882319D+02 0.228521990154867D+02
0.930131133515D-06 0.000000000000D+00 0.000000000000D+00 0.946600292487D-07 0.000000000000D+00  7 -1 1 23 -13 13 23 21 0 0.23873984D-01 0.49301969D-01 0.42213734D+05 0.42213734D+05 0.42213734D+05 0.11538185D+01  1  2  2  1  7  1       -1 0.129597341499D-03 0.100000000000D+01
-.512522338549D-07 0.000000000000D+00 -.357194846185D-08 0.946600292487D-07 0.000000000000D+00  7 -1 1 23 -13 13 23 21 2 0.23873984D-01 0.49301969D-01 0.42213734D+05 0.42213734D+05 0.42213734D+05 0.11538185D+01  1  2  3  1  7  1       -1 -.950691763404D-05 0.100000000000D+01
0.600151687198D-07 0.000000000000D+00 0.000000000000D+00 0.946600292487D-07 0.000000000000D+00  7 -1 1 23 -13 13 23 21 2 0.23873984D-01 0.49301969D-01 0.42213734D+05 0.42213734D+05 0.42213734D+05 0.11538185D+01  1  2 15  1  7  1       -1 0.111323784916D-04 0.100000000000D+01
0.109528056559D-05 0.000000000000D+00 0.000000000000D+00 0.946600292487D-07 0.000000000000D+00  7 -1 1 23 -13 13 23 21 2 0.28855642D-01 0.49301969D-01 0.52744973D+05 0.52744973D+05 0.52744973D+05 0.11452593D+01  1  2 12  1  7  1       -1 0.147153347238D-03 0.100000000000D+01
-.109068648266D-05 0.000000000000D+00 0.000000000000D+00 0.946600292487D-07 0.000000000000D+00  7 -1 1 23 -13 13 23 21 2 0.23873984D-01 0.49301969D-01 0.42213734D+05 0.42213734D+05 0.42213734D+05 0.11538185D+01  1  2  4  1  7  1       -1 -.202314431496D-03 0.100000000000D+01
-.226914947976D-05 0.000000000000D+00 -.611632919281D-06 0.946600292487D-07 0.000000000000D+00  7 -1 1 23 -13 13 23 21 2 0.29992518D-01 0.49301969D-01 0.42213734D+05 0.42213734D+05 0.42213734D+05 0.11538185D+01  1  2  5  1  7  1       -1 -.290222742092D-03 0.100000000000D+01
0.236252101795D-05 0.000000000000D+00 0.596051369187D-06 0.946600292487D-07 0.000000000000D+00  7 -1 1 23 -13 13 23 21 2 0.23873984D-01 0.49301969D-01 0.42213734D+05 0.42213734D+05 0.42213734D+05 0.11538185D+01  1  2  6  1  7  1       -1 0.438230512838D-03 0.100000000000D+01
0.300691076307D-07 0.000000000000D+00 0.000000000000D+00 0.946600292487D-07 0.000000000000D+00  7 21 1 23 -13 13 23 1 2 0.28855642D-01 0.49301969D-01 0.52744973D+05 0.52744973D+05 0.52744973D+05 0.11452593D+01  1  2 12  3  7  1       -1 0.452499157781D-04 0.100000000000D+01
-.629420684597D-07 0.000000000000D+00 -.193401100100D-07 0.946600292487D-07 0.000000000000D+00  7 21 1 23 -13 13 23 1 2 0.29992518D-01 0.49301969D-01 0.42213734D+05 0.42213734D+05 0.42213734D+05 0.11538185D+01  1  2  5  3  7  1       -1 -.897692812859D-04 0.100000000000D+01
  </mgrwgt>
  </event>
  <event>
  9     66 0.27414828E-05 0.20073863E+03 0.75467711E-02 0.10495534E+00
       -3 -1    0    0    0  501 0.00000000E+00 0.00000000E+00 0.93285898E+02 0.93287238E+02 0.50000000E+00 0.0000E+00 0.9000E+01
        3 -1    0    0  502    0 0.00000000E+00 0.00000000E+00 -.78788694E+03 0.78788710E+03 0.50000000E+00 0.0000E+00 0.9000E+01
       25  2    1    2    0    0 0.56699296E+02 -.37622012E+02 -.65162719E+03 0.72021026E+03 0.29908963E+03 0.0000E+00 0.0000E+00
       23  2    1    2    0    0 -.82737591E+02 0.84767175E+01 -.34936349E+02 0.12105662E+03 0.80726652E+02 0.0000E+00 0.0000E+00
       23  1    3    3    0    0 -.26721095E+02 -.11668215E+03 -.24058340E+03 0.28376815E+03 0.91188000E+02 0.0000E+00 0.9000E+01
      -13  1    4    4    0    0 -.46285221E+02 0.36001968E+02 0.69912404E+01 0.59053806E+02 0.10565837E+00 0.0000E+00 0.9000E+01
       13  1    4    4    0    0 -.36452371E+02 -.27525250E+02 -.41927589E+02 0.62002811E+02 0.10565837E+00 0.0000E+00 0.9000E+01
       23  1    3    3    0    0 0.83420390E+02 0.79060140E+02 -.41104379E+03 0.43644211E+03 0.91188000E+02 0.0000E+00 0.9000E+01
       21  1    1    2  502  501 0.26038296E+02 0.29145295E+02 -.80375044E+01 0.39907456E+02 0.75000000E+00 0.0000E+00 0.9000E+01
#aMCatNLO 2  0  0  2  2 0.39082490D+02 0.00000000D+00  -5  7  0 0.00000000D+00 0.00000000D+00 0.00000000D+00 0.00000000D+00 0.00000000D+00
  <mgrwgt>
 0.1699558884D-04    1    2    0
 0.242297871079085D+03 0.000000000000000D+00 0.000000000000000D+00 0.242297871079085D+03
 0.242297871079085D+03 0.000000000000000D+00 0.000000000000000D+00 -.242297871079085D+03
 0.143320392189801D+03 -.188191164706374D+02 -.107837278368671D+03 -.155706686671050D+02
 0.112101889240546D+03 -.402726770063603D+02 0.427320828367165D+02 0.954930057882614D+02
 0.446217541177043D+02 -.339658708850544D+02 -.247421753434143D+02 0.150081749335624D+02
 0.184551706610119D+03 0.930576643620522D+02 0.898473708753687D+02 -.949305120547188D+02
 0.000000000000000D+00 0.000000000000000D+00 0.000000000000000D+00 0.000000000000000D+00
 0.293158899660598D+03 0.000000000000000D+00 0.000000000000000D+00 0.293158899660598D+03
 0.250710463392058D+03 0.000000000000000D+00 0.000000000000000D+00 -.250710463392058D+03
 0.151282643583672D+03 -.267210923002435D+02 -.116682151202339D+03 -.155706686671050D+02
 0.112059747724551D+03 -.462852417872104D+02 0.360020735279606D+02 0.954930057882614D+02
 0.480797726749302D+02 -.364523531514701D+02 -.275253551358935D+02 0.150081749335624D+02
 0.174747018883914D+03 0.834203914907529D+02 0.790601380556177D+02 -.949305120547188D+02
 0.577001801855876D+02 0.260382957481711D+02 0.291452947546546D+02 0.424484362685406D+02
0.137409970251D-05 0.000000000000D+00 0.000000000000D+00 0.108355019301D-08 0.509935479460D-11  7 -3 3 23 -13 13 23 21 2 0.14351655D-01 0.12121234D+00 0.48530015D+05 0.48530015D+05 0.48530015D+05 0.11484371D+01  1  2  1  2  7  2        3 0.169955888408D-04 0.100000000000D+01
  </mgrwgt>
  </event>
  <event>
  8     66 0.27414828E-05 0.87325123E+02 0.75467711E-02 0.10565586E+00
       -1 -1    0    0    0  501 0.00000000E+00 0.00000000E+00 0.28901757E+02 0.28903528E+02 0.32000000E+00 0.0000E+00 0.9000E+01
        1 -1    0    0  501    0 0.00000000E+00 0.00000000E+00 -.21157727E+04 0.21157727E+04 0.32000000E+00 0.0000E+00 0.9000E+01
       25  2    1    2    0    0 0.30509764E+02 -.65090413E+02 -.18776941E+04 0.19029841E+04 0.30074162E+03 0.0000E+00 0.0000E+00
       23  2    1    2    0    0 -.30509764E+02 0.65090413E+02 -.20917679E+03 0.24169216E+03 0.97429780E+02 0.0000E+00 0.0000E+00
       23  1    3    3    0    0 -.76871346E+02 -.74963263E+02 -.13275681E+04 0.13350210E+04 0.91188000E+02 0.0000E+00 0.9000E+01
      -13  1    4    4    0    0 -.50238237E+02 0.15215877E+02 -.45551956E+02 0.69501045E+02 0.10565837E+00 0.0000E+00 0.9000E+01
       13  1    4    4    0    0 0.19728473E+02 0.49874536E+02 -.16362483E+03 0.17219111E+03 0.10565837E+00 0.0000E+00 0.9000E+01
       23  1    3    3    0    0 0.10738111E+03 0.98728497E+01 -.55012599E+03 0.56796305E+03 0.91188000E+02 0.0000E+00 0.9000E+01
#aMCatNLO 1  0  0  2  1 0.35385863D+02 0.00000000D+00  -5  7  0 0.00000000D+00 0.00000000D+00 0.00000000D+00 0.00000000D+00 0.00000000D+00
  <mgrwgt>
 0.3886728014D-03    9    2    0
 0.247288237492565D+03 0.000000000000000D+00 0.000000000000000D+00 0.247288237492565D+03
 0.247288237492565D+03 0.000000000000000D+00 0.000000000000000D+00 -.247288237492565D+03
 0.187482633850515D+03 -.768713301330205D+02 -.749632784074414D+02 -.123716579913586D+03
 0.109176684754065D+03 -.502382939768439D+02 0.152158905236789D+02 0.957295094929256D+02
 0.562708501216741D+02 0.197285142828993D+02 0.498745552037234D+02 0.170212526224157D+02
 0.141646306258875D+03 0.107381109826965D+03 0.987283268003914D+01 0.109658177982448D+02
 0.000000000000000D+00 -.000000000000000D+00 -.000000000000000D+00 -.000000000000000D+00
 0.264052783537924D+03 0.000000000000000D+00 0.000000000000000D+00 0.264052783537924D+03
 0.267324781657115D+03 0.000000000000000D+00 0.000000000000000D+00 -.267324781657115D+03
 0.182187723629892D+03 -.636819005905523D+02 -.742693657513116D+02 -.123716579913586D+03
 0.105923491960783D+03 -.425637575474433D+02 0.156196576419718D+02 0.957295094929256D+02
 0.580117560667564D+02 0.238059912884280D+02 0.500890764527361D+02 0.170212526224157D+02
 0.149717777882131D+03 0.117776658134317D+03 0.104197556924904D+02 0.109658177982448D+02
 0.355368156554755D+02 -.353369912847493D+02 -.185912403588666D+01 -.327199811919105D+01
0.243750882968D-05 0.000000000000D+00 0.000000000000D+00 0.564545274747D-08 0.000000000000D+00  7 -1 1 23 -13 13 23 21 0 0.44465622D-02 0.32550362D+00 0.37678008D+05 0.37678008D+05 0.37678008D+05 0.11582635D+01  1  2  2  2  7  2        1 0.157167279145D-03 0.100000000000D+01
-.125763685509D-06 0.000000000000D+00 -.936067571679D-08 0.564545274747D-08 0.000000000000D+00  7 -1 1 23 -13 13 23 21 2 0.44465622D-02 0.32550362D+00 0.37678008D+05 0.37678008D+05 0.37678008D+05 0.11582635D+01  1  2  3  2  7  2        1 -.108789236539D-04 0.100000000000D+01
0.156078594351D-06 0.000000000000D+00 0.000000000000D+00 0.564545274747D-08 0.000000000000D+00  7 -1 1 23 -13 13 23 21 2 0.44465622D-02 0.32550362D+00 0.37678008D+05 0.37678008D+05 0.37678008D+05 0.11582635D+01  1  2 15  2  7  2        1 0.135012512164D-04 0.100000000000D+01
0.295806458832D-05 0.000000000000D+00 0.000000000000D+00 0.564545274747D-08 0.000000000000D+00  7 -1 1 23 -13 13 23 21 2 0.44465622D-02 0.36210550D+00 0.43940527D+05 0.43940527D+05 0.43940527D+05 0.11522633D+01  1  2 12  2  7  2        1 0.176158356124D-03 0.100000000000D+01
-.248265508073D-05 0.000000000000D+00 0.000000000000D+00 0.564545274747D-08 0.000000000000D+00  7 -1 1 23 -13 13 23 21 2 0.44465622D-02 0.32550362D+00 0.37678008D+05 0.37678008D+05 0.37678008D+05 0.11582635D+01  1  2  4  2  7  2        1 -.214756866999D-03 0.100000000000D+01
-.956789566432D-05 0.000000000000D+00 -.219641450790D-05 0.564545274747D-08 0.000000000000D+00  7 -1 1 23 -13 13 23 21 2 0.44465622D-02 0.36272308D+00 0.37678008D+05 0.37678008D+05 0.37678008D+05 0.11582635D+01  1  2  5  2  7  2        1 -.574134254057D-03 0.100000000000D+01
0.976123865550D-05 0.000000000000D+00 0.218360439710D-05 0.564545274747D-08 0.000000000000D+00  7 -1 1 23 -13 13 23 21 2 0.44465622D-02 0.32550362D+00 0.37678008D+05 0.37678008D+05 0.37678008D+05 0.11582635D+01  1  2  6  2  7  2        1 0.844375462367D-03 0.100000000000D+01
0.507450437403D-07 0.000000000000D+00 0.000000000000D+00 0.564545274747D-08 0.000000000000D+00  7 -1 21 23 -13 13 23 -1 2 0.44465622D-02 0.36210550D+00 0.43940527D+05 0.43940527D+05 0.43940527D+05 0.11522633D+01  1  2 12  4  7  2        1 0.127974296725D-05 0.100000000000D+01
-.157978372000D-06 0.000000000000D+00 -.381937308139D-07 0.564545274747D-08 0.000000000000D+00  7 -1 21 23 -13 13 23 -1 2 0.44465622D-02 0.36272308D+00 0.37678008D+05 0.37678008D+05 0.37678008D+05 0.11582635D+01  1  2  5  4  7  2        1 -.403924573049D-05 0.100000000000D+01
  </mgrwgt>
  </event>
  <event>
  8     66 -.27414828E-05 0.92799974E+02 0.75467711E-02 0.10415691E+00
       -1 -1    0    0    0  501 0.00000000E+00 0.00000000E+00 0.30278318E+03 0.30278335E+03 0.32000000E+00 0.0000E+00 0.9000E+01
        1 -1    0    0  501    0 0.00000000E+00 0.00000000E+00 -.60441579E+03 0.60441587E+03 0.32000000E+00 0.0000E+00 0.9000E+01
       25  2    1    2    0    0 -.13785531E+03 -.29295499E+02 -.52625429E+03 0.62720973E+03 0.31078314E+03 0.0000E+00 0.0000E+00
       23  2    1    2    0    0 0.13785531E+03 0.29295499E+02 0.22462168E+03 0.27998949E+03 0.89871613E+02 0.0000E+00 0.0000E+00
       23  1    3    3    0    0 -.56084192E+02 -.12626666E+03 -.16549469E+03 0.23407787E+03 0.91188000E+02 0.0000E+00 0.9000E+01
      -11  1    4    4    0    0 0.22988182E+02 -.76324067E+01 -.87925908E+00 0.24238054E+02 0.51099893E-03 0.0000E+00 0.9000E+01
       11  1    4    4    0    0 0.11486712E+03 0.36927906E+02 0.22550094E+03 0.25575144E+03 0.51099893E-03 0.0000E+00 0.9000E+01
       23  1    3    3    0    0 -.81771114E+02 0.96971162E+02 -.36075960E+03 0.39313186E+03 0.91188000E+02 0.0000E+00 0.9000E+01
#aMCatNLO 1  0  0  1  2 0.48164706D+02 0.00000000D+00  -5  7  0 0.00000000D+00 0.00000000D+00 0.00000000D+00 0.00000000D+00 0.00000000D+00
  <mgrwgt>
 -.3131841448D-05    1    2    0
 0.427793234203897D+03 0.000000000000000D+00 0.000000000000000D+00 0.427793234203897D+03
 0.427793234203897D+03 0.000000000000000D+00 0.000000000000000D+00 -.427793234203897D+03
 0.189854181621039D+03 -.560841924477781D+02 -.126266660897560D+03 -.929551108775392D+02
 0.253902223114579D+02 0.229881824858247D+02 -.763240674983771D+01 0.761270137524852D+01
 0.350678692895294D+03 0.114867123892621D+03 0.369279060687767D+02 0.329268005206648D+03
 0.289663371580002D+03 -.817711139306677D+02 0.969711615786208D+02 -.243925595704357D+03
 0.000000000000000D+00 -.000000000000000D+00 0.000000000000000D+00 0.000000000000000D+00
 0.695243665197603D+03 0.000000000000000D+00 0.000000000000000D+00 0.695243665197603D+03
 0.480523655564308D+03 0.000000000000000D+00 0.000000000000000D+00 -.480523655564308D+03
 0.218429619111828D+03 -.387562997026790D+02 -.171036673717769D+03 -.929551108775392D+02
 0.297780618993108D+02 0.253295688205737D+02 -.136818380203207D+02 0.761270137524852D+01
 0.362185734805879D+03 0.145121663315517D+03 -.412406362783984D+02 0.329268005206648D+03
 0.269182108367872D+03 -.580532624747977D+02 0.356914359150689D+02 -.243925595704357D+03
 0.296191796577023D+03 -.736416699586141D+02 0.190267712101419D+03 0.214720009633295D+03
-.124124771406D-06 0.000000000000D+00 0.000000000000D+00 0.289390566108D-08 0.000000000000D+00  7 -1 1 23 -11 11 23 21 2 0.46582048D-01 0.92987064D-01 0.54438717D+05 0.54438717D+05 0.54438717D+05 0.11440605D+01  1  2 14  1  7  1       -1 -.313184144845D-05 0.100000000000D+01
  </mgrwgt>
  </event>
  <event>
  8     66 0.27414828E-05 0.39968862E+03 0.75467711E-02 0.91239632E-01
       -1 -1    0    0    0  501 0.00000000E+00 0.00000000E+00 0.53063345E+03 0.53063354E+03 0.32000000E+00 0.0000E+00 0.9000E+01
        1 -1    0    0  501    0 0.00000000E+00 0.00000000E+00 -.88264618E+03 0.88264624E+03 0.32000000E+00 0.0000E+00 0.9000E+01
       25  2    1    2    0    0 0.54789048E+03 -.34649227E+03 -.20079462E+03 0.74213776E+03 0.30034830E+03 0.0000E+00 0.0000E+00
       23  2    1    2    0    0 -.54789048E+03 0.34649227E+03 -.15121811E+03 0.67114202E+03 0.85579312E+02 0.0000E+00 0.0000E+00
       23  1    3    3    0    0 0.49343911E+03 -.34365302E+03 -.16886671E+03 0.63119789E+03 0.91188000E+02 0.0000E+00 0.9000E+01
      -11  1    4    4    0    0 -.54089275E+03 0.33806791E+03 -.13566422E+03 0.65211936E+03 0.51099893E-03 0.0000E+00 0.9000E+01
       11  1    4    4    0    0 -.69977293E+01 0.84243569E+01 -.15553886E+02 0.19022654E+02 0.51099893E-03 0.0000E+00 0.9000E+01
       23  1    3    3    0    0 0.54451368E+02 -.28392528E+01 -.31927916E+02 0.11093988E+03 0.91188000E+02 0.0000E+00 0.9000E+01
#aMCatNLO 1  0  0  2  1 0.35385863D+02 0.00000000D+00  -5  7  0 0.00000000D+00 0.00000000D+00 0.00000000D+00 0.00000000D+00 0.00000000D+00
  <mgrwgt>
 0.2462521162D-05    1    2    0
 0.684369558845966D+03 0.000000000000000D+00 0.000000000000000D+00 0.684369558845966D+03
 0.684369558845966D+03 0.000000000000000D+00 0.000000000000000D+00 -.684369558845966D+03
 0.608308747976592D+03 0.493439113894263D+03 -.343653017796318D+03 -.120302019757398D+02
 0.638450064021610D+03 -.540892752125369D+03 0.338067913748063D+03 0.276333248356892D+02
 0.156415244066126D+02 -.699772931258571D+01 0.842435687266689D+01 -.111677787188136D+02
 0.106338781287118D+03 0.544513675436914D+02 -.283925282441236D+01 -.443534414113590D+01
 0.000000000000000D+00 0.000000000000000D+00 -.000000000000000D+00 0.000000000000000D+00
 0.750531394578064D+03 0.000000000000000D+00 0.000000000000000D+00 0.750531394578064D+03
 0.717664863589987D+03 0.000000000000000D+00 0.000000000000000D+00 -.717664863589987D+03
 0.584944871271791D+03 0.491059027946610D+03 -.304239307775516D+03 -.120302019757398D+02
 0.664367459097316D+03 -.543491376281300D+03 0.381100569369566D+03 0.276333248356892D+02
 0.162608935029993D+02 -.706136247098388D+01 0.947810825306822D+01 -.111677787188136D+02
 0.106166689484395D+03 0.540275001640968D+02 0.417989957346433D+01 -.443534414113590D+01
 0.964563448115489D+02 0.546621064157754D+01 -.905192694205829D+02 0.328665309880773D+02
0.620853984837D-06 0.000000000000D+00 0.000000000000D+00 0.150239237663D-06 0.000000000000D+00  7 -1 1 23 -11 11 23 21 2 0.81635927D-01 0.13579173D+00 0.46460543D+06 0.46460543D+06 0.46460543D+06 0.10707712D+01  1  2 14  2  7  2        1 0.246252116248D-05 0.100000000000D+01
  </mgrwgt>
  </event>
  <event>
  8     66 0.27414828E-05 0.14308117E+03 0.75467711E-02 0.10031128E+00
       -1 -1    0    0    0  501 0.00000000E+00 0.00000000E+00 0.29625647E+02 0.29627375E+02 0.32000000E+00 0.0000E+00 0.9000E+01
        1 -1    0    0  501    0 0.00000000E+00 0.00000000E+00 -.24721451E+04 0.24721451E+04 0.32000000E+00 0.0000E+00 0.9000E+01
       25  2    1    2    0    0 0.99943972E+02 0.92682650E+00 -.91077469E+03 0.96405084E+03 0.29982299E+03 0.0000E+00 0.0000E+00
       23  2    1    2    0    0 -.99943972E+02 -.92682650E+00 -.15317447E+04 0.15377216E+04 0.91412378E+02 0.0000E+00 0.0000E+00
       23  1    3    3    0    0 0.27688681E+02 -.10116477E+03 -.25668731E+03 0.29189827E+03 0.91188000E+02 0.0000E+00 0.9000E+01
      -13  1    4    4    0    0 -.59948641E+02 -.20830806E+02 -.39221134E+03 0.39731286E+03 0.10565837E+00 0.0000E+00 0.9000E+01
       13  1    4    4    0    0 -.39995331E+02 0.19903979E+02 -.11395334E+04 0.11404088E+04 0.10565837E+00 0.0000E+00 0.9000E+01
       23  1    3    3    0    0 0.72255290E+02 0.10209160E+03 -.65408738E+03 0.67215257E+03 0.91188000E+02 0.0000E+00 0.9000E+01
#aMCatNLO 1  0  0  2  1 0.17666720D+03 0.00000000D+00  -5  7  0 0.00000000D+00 0.00000000D+00 0.00000000D+00 0.00000000D+00 0.00000000D+00
  <mgrwgt>
 0.2194963295D-03    7    2    0
 0.270630900097124D+03 0.000000000000000D+00 0.000000000000000D+00 0.270630900097124D+03
 0.270630900097124D+03 0.000000000000000D+00 0.000000000000000D+00 -.270630900097124D+03
 0.190849076423874D+03 0.276886818871994D+02 -.101164769460405D+03 0.130794284826280D+03
 0.665158918319865D+02 -.599486676932713D+02 -.208308597401279D+02 -.199147279793972D+02
 0.128793231420393D+03 -.399953048558699D+02 0.199040332340800D+02 -.120796943298287D+03
 0.155103600517995D+03 0.722552906619418D+02 0.102091595966453D+03 0.991738645140377D+01
 0.000000000000000D+00 0.000000000000000D+00 0.000000000000000D+00 -.000000000000000D+00
 0.312375751926415D+03 0.000000000000000D+00 0.000000000000000D+00 0.312375751926415D+03
 0.566437336247272D+03 0.000000000000000D+00 0.000000000000000D+00 -.566437336247272D+03
 0.231244518552094D+03 0.140106057920167D+02 -.166899173151074D+03 0.130794284826280D+03
 0.806121739691663D+02 -.647163990773019D+02 -.437437297450635D+02 -.199147279793972D+02
 0.131779202799504D+03 -.484392367846870D+02 -.206760034818200D+02 -.120796943298287D+03
 0.125728344432960D+03 0.631548428969952D+02 0.583564607775552D+02 0.991738645140377D+01
 0.309448848419964D+03 0.359901871729769D+02 0.172962445600402D+03 -.254061584320857D+03
0.598208568572D-05 0.000000000000D+00 0.000000000000D+00 0.527942761276D-06 0.000000000000D+00  7 -1 1 23 -13 13 23 21 0 0.45579263D-02 0.38033014D+00 0.40382521D+05 0.40382521D+05 0.40382521D+05 0.11555465D+01  1  2  2  2  7  2        1 0.216067901719D-03 0.100000000000D+01
-.296531732789D-06 0.000000000000D+00 -.229727841525D-07 0.527942761276D-06 0.000000000000D+00  7 -1 1 23 -13 13 23 21 2 0.45579263D-02 0.38033014D+00 0.40382521D+05 0.40382521D+05 0.40382521D+05 0.11555465D+01  1  2  3  2  7  2        1 -.143015678329D-04 0.100000000000D+01
0.374116485947D-06 0.000000000000D+00 0.000000000000D+00 0.527942761276D-06 0.000000000000D+00  7 -1 1 23 -13 13 23 21 2 0.45579263D-02 0.38033014D+00 0.40382521D+05 0.40382521D+05 0.40382521D+05 0.11555465D+01  1  2 15  2  7  2        1 0.180434392328D-04 0.100000000000D+01
0.973259579693D-07 0.000000000000D+00 0.000000000000D+00 0.527942761276D-06 0.000000000000D+00  7 -1 1 23 -13 13 23 21 2 0.45579263D-02 0.79549560D+00 0.97183633D+05 0.97183633D+05 0.97183633D+05 0.11227416D+01  1  2 12  2  7  2        1 0.120335260373D-07 0.100000000000D+01
-.287359538846D-05 0.000000000000D+00 -.123963177114D-05 0.527942761276D-06 0.000000000000D+00  7 -1 1 23 -13 13 23 21 2 0.45579263D-02 0.80511936D+00 0.40382521D+05 0.40382521D+05 0.40382521D+05 0.11555465D+01  1  2  5  2  7  2        1 -.324947127639D-06 0.100000000000D+01
0.776677155018D-08 0.000000000000D+00 0.000000000000D+00 0.527942761276D-06 0.000000000000D+00  7 -1 21 23 -13 13 23 -1 2 0.45579263D-02 0.79549560D+00 0.97183633D+05 0.97183633D+05 0.97183633D+05 0.11227416D+01  1  2 12  4  7  2        1 0.314138720336D-10 0.100000000000D+01
-.156054550917D-06 0.000000000000D+00 -.100565496616D-06 0.527942761276D-06 0.000000000000D+00  7 -1 21 23 -13 13 23 -1 2 0.45579263D-02 0.80511936D+00 0.40382521D+05 0.40382521D+05 0.40382521D+05 0.11555465D+01  1  2  5  4  7  2        1 -.561389725890D-09 0.100000000000D+01
  </mgrwgt>
  </event>
  <event>
  8     66 0.27414828E-05 0.20544407E+03 0.75467711E-02 0.81659230E-01
       -1 -1    0    0    0  501 0.00000000E+00 0.00000000E+00 0.23752511E+03 0.23752532E+03 0.32000000E+00 0.0000E+00 0.9000E+01
        1 -1    0    0  501    0 0.00000000E+00 0.00000000E+00 -.40334367E+03 0.40334380E+03 0.32000000E+00 0.0000E+00 0.9000E+01
       25  2    1    2    0    0 -.23381655E+01 -.12990150E+03 0.90027005E+02 0.33932225E+03 0.30025798E+03 0.0000E+00 0.0000E+00
       23  2    1    2    0    0 0.23381655E+01 0.12990150E+03 -.25584557E+03 0.30154688E+03 0.92702187E+02 0.0000E+00 0.0000E+00
       23  1    3    3    0    0 -.85567749E+02 -.73820647E+02 -.40866615E+02 0.15085310E+03 0.91188000E+02 0.0000E+00 0.9000E+01
      -11  1    4    4    0    0 -.18163369E+01 0.72985239E+02 -.51401849E+02 0.89287705E+02 0.51099893E-03 0.0000E+00 0.9000E+01
       11  1    4    4    0    0 0.41545023E+01 0.56916265E+02 -.20444372E+03 0.21225917E+03 0.51099893E-03 0.0000E+00 0.9000E+01
       23  1    3    3    0    0 0.83229583E+02 -.56080857E+02 0.13089362E+03 0.18846914E+03 0.91188000E+02 0.0000E+00 0.9000E+01
#aMCatNLO 1  0  0  2  1 0.18707796D+04 0.00000000D+00  -5  7  0 0.00000000D+00 0.00000000D+00 0.00000000D+00 0.00000000D+00 0.00000000D+00
  <mgrwgt>
 0.2021193066D-03    3    2    0
 0.309522791544394D+03 0.000000000000000D+00 0.000000000000000D+00 0.309522791544394D+03
 0.309522791544394D+03 0.000000000000000D+00 0.000000000000000D+00 -.309522791544394D+03
 0.145224609218160D+03 -.855677485654238D+02 -.738206468667476D+02 -.189954736359402D+01
 0.786668277195346D+02 -.181633685789472D+01 0.729852388283437D+02 -.292971946957932D+02
 0.164979424681827D+03 0.415450232142851D+01 0.569162646122927D+02 -.154794991848546D+03
 0.230174721469267D+03 0.832295831018900D+02 -.560808565738889D+02 0.185991733907933D+03
 0.000000000000000D+00 -.000000000000000D+00 0.000000000000000D+00 0.000000000000000D+00
 0.448410252732909D+04 0.000000000000000D+00 0.000000000000000D+00 0.448410252732909D+04
 0.123534107149723D+04 0.000000000000000D+00 0.000000000000000D+00 -.123534107149723D+04
 0.598753571736825D+03 0.736436505230351D+02 -.587165728547793D+03 -.189954736359402D+01
 0.381208183466484D+02 0.231762301318754D+02 -.759825843527980D+01 -.292971946957932D+02
 0.364597124040611D+03 0.117483932410774D+03 -.308491651398532D+03 -.154794991848546D+03
 0.969069949194469D+03 0.339868052822421D+03 -.883559899880245D+03 0.185991733907933D+03
 0.374890213550776D+04 -.554171865888106D+03 0.178681553826185D+04 0.324876145583186D+04
0.386847764801D-05 0.000000000000D+00 0.000000000000D+00 0.334667858791D-06 0.000000000000D+00  7 -1 1 23 -11 11 23 21 0 0.36542351D-01 0.62052899D-01 0.42207267D+05 0.42207267D+05 0.42207267D+05 0.11538245D+01  1  2  2  2  7  2        1 0.197713568144D-03 0.100000000000D+01
-.171020360695D-06 0.000000000000D+00 -.148559727619D-07 0.334667858791D-06 0.000000000000D+00  7 -1 1 23 -11 11 23 21 2 0.36542351D-01 0.62052899D-01 0.42207267D+05 0.42207267D+05 0.42207267D+05 0.11538245D+01  1  2  3  2  7  2        1 -.116365356615D-04 0.100000000000D+01
0.235770815374D-06 0.000000000000D+00 0.000000000000D+00 0.334667858791D-06 0.000000000000D+00  7 -1 1 23 -11 11 23 21 2 0.36542351D-01 0.62052899D-01 0.42207267D+05 0.42207267D+05 0.42207267D+05 0.11538245D+01  1  2 15  2  7  2        1 0.160422740888D-04 0.100000000000D+01
  </mgrwgt>
  </event>
  <event>
  8     66 0.27414828E-05 0.38666480E+03 0.75467711E-02 0.90369158E-01
       -1 -1    0    0    0  501 0.00000000E+00 0.00000000E+00 0.29097881E+03 0.29097898E+03 0.32000000E+00 0.0000E+00 0.9000E+01
        1 -1    0    0  501    0 0.00000000E+00 0.00000000E+00 -.60537822E+03 0.60537830E+03 0.32000000E+00 0.0000E+00 0.9000E+01
       25  2    1    2    0    0 -.26815324E+03 0.20725044E+03 -.47022075E+02 0.45526039E+03 0.30031991E+03 0.0000E+00 0.0000E+00
       23  2    1    2    0    0 0.26815324E+03 -.20725044E+03 -.26737733E+03 0.44109689E+03 0.90647250E+02 0.0000E+00 0.0000E+00
       23  1    3    3    0    0 -.33914695E+02 -.13814874E+02 0.45028044E+02 0.10809178E+03 0.91188000E+02 0.0000E+00 0.9000E+01
      -11  1    4    4    0    0 0.11007693E+03 -.10452968E+03 -.66850733E+02 0.16586864E+03 0.51099893E-03 0.0000E+00 0.9000E+01
       11  1    4    4    0    0 0.15807631E+03 -.10272076E+03 -.20052660E+03 0.27522825E+03 0.51099893E-03 0.0000E+00 0.9000E+01
       23  1    3    3    0    0 -.23423855E+03 0.22106531E+03 -.92050119E+02 0.34716861E+03 0.91188000E+02 0.0000E+00 0.9000E+01
#aMCatNLO 1  0  0  2  1 0.53423502D+03 0.00000000D+00  -5  7  0 0.00000000D+00 0.00000000D+00 0.00000000D+00 0.00000000D+00 0.00000000D+00
  <mgrwgt>
 0.2530427047D-03    3    2    0
 0.419705072773335D+03 0.000000000000000D+00 0.000000000000000D+00 0.419705072773335D+03
 0.419705072773335D+03 0.000000000000000D+00 0.000000000000000D+00 -.419705072773335D+03
 0.132290093410539D+03 -.339146947889052D+02 -.138148744122105D+02 0.885683927421029D+02
 0.152082660891242D+03 0.110076927639599D+03 -.104529678381881D+03 -.926024203612021D+01
 0.218793408452753D+03 0.158076312848486D+03 -.102720760306772D+03 -.111044496939738D+03
 0.336243982792136D+03 -.234238545699180D+03 0.221065313100863D+03 0.317363462337554D+02
 0.000000000000000D+00 -.000000000000000D+00 0.000000000000000D+00 0.000000000000000D+00
 0.940709587095025D+03 0.000000000000000D+00 0.000000000000000D+00 0.940709587095025D+03
 0.658485838626254D+03 0.000000000000000D+00 0.000000000000000D+00 -.658485838626254D+03
 0.163469752838797D+03 -.255687861885313D+02 -.995438884568161D+02 0.885683927421029D+02
 0.253273442741783D+03 0.121515481704415D+03 -.222026287682003D+03 -.926024203612021D+01
 0.334163242626468D+03 0.173679937642047D+03 -.263000896733625D+03 -.111044496939738D+03
 0.244089266104526D+03 -.217862393511954D+03 0.528497900130153D+02 0.317363462337554D+02
 0.604199721409706D+03 -.517642396459770D+02 0.531721282859429D+03 0.282223748468771D+03
0.123968876674D-04 0.000000000000D+00 0.000000000000D+00 0.104795759990D-05 0.000000000000D+00  7 -1 1 23 -11 11 23 21 0 0.44765990D-01 0.93135130D-01 0.14950967D+06 0.14950967D+06 0.14950967D+06 0.11076641D+01  1  2  2  2  7  2        1 0.250179350841D-03 0.100000000000D+01
-.683086262592D-06 0.000000000000D+00 -.476073128183D-07 0.104795759990D-05 0.000000000000D+00  7 -1 1 23 -11 11 23 21 2 0.44765990D-01 0.93135130D-01 0.14950967D+06 0.14950967D+06 0.14950967D+06 0.11076641D+01  1  2  3  2  7  2        1 -.169133848199D-04 0.100000000000D+01
0.798729448596D-06 0.000000000000D+00 0.000000000000D+00 0.104795759990D-05 0.000000000000D+00  7 -1 1 23 -11 11 23 21 2 0.44765990D-01 0.93135130D-01 0.14950967D+06 0.14950967D+06 0.14950967D+06 0.11076641D+01  1  2 15  2  7  2        1 0.197767387092D-04 0.100000000000D+01
  </mgrwgt>
  </event>
  <event>
  8     66 0.27414828E-05 0.31701163E+03 0.75467711E-02 0.96591042E-01
       -1 -1    0    0    0  501 0.00000000E+00 0.00000000E+00 0.91735021E+02 0.91735579E+02 0.32000000E+00 0.0000E+00 0.9000E+01
        1 -1    0    0  501    0 0.00000000E+00 0.00000000E+00 -.12444513E+04 0.12444514E+04 0.32000000E+00 0.0000E+00 0.9000E+01
       25  2    1    2    0    0 0.14763856E+03 0.19518538E+03 -.49469146E+03 0.62815806E+03 0.29994738E+03 0.0000E+00 0.0000E+00
       23  2    1    2    0    0 -.14763856E+03 -.19518538E+03 -.65802483E+03 0.70802887E+03 0.91726417E+02 0.0000E+00 0.0000E+00
       23  1    3    3    0    0 0.20397573E+03 0.10650906E+03 -.33167030E+03 0.41384866E+03 0.91188000E+02 0.0000E+00 0.9000E+01
      -13  1    4    4    0    0 -.35463529E+02 -.75160183E+02 -.12374879E+03 0.14906539E+03 0.10565837E+00 0.0000E+00 0.9000E+01
       13  1    4    4    0    0 -.11217503E+03 -.12002519E+03 -.53427604E+03 0.55896349E+03 0.10565837E+00 0.0000E+00 0.9000E+01
       23  1    3    3    0    0 -.56337170E+02 0.88676321E+02 -.16302117E+03 0.21430940E+03 0.91188000E+02 0.0000E+00 0.9000E+01
#aMCatNLO 1  0  0  1  1 0.18573149D+03 0.00000000D+00  -5  7  0 0.00000000D+00 0.00000000D+00 0.00000000D+00 0.00000000D+00 0.00000000D+00
  <mgrwgt>
 0.2332544885D-03    3    2    0
 0.337875965611481D+03 0.000000000000000D+00 0.000000000000000D+00 0.337875965611481D+03
 0.337875965611481D+03 0.000000000000000D+00 0.000000000000000D+00 -.337875965611481D+03
 0.252544477753454D+03 0.203975728191377D+03 0.106509056913008D+03 0.501316766532267D+02
 0.836577336292607D+02 -.354634272838731D+02 -.751601230039011D+02 0.958736832004703D+01
 0.193874568797889D+03 -.112175130952152D+03 -.120025254990687D+03 -.102946717222334D+03
 0.145675151042358D+03 -.563371699553517D+02 0.886763210815804D+02 0.432276722490605D+02
 0.000000000000000D+00 -.000000000000000D+00 0.000000000000000D+00 -.000000000000000D+00
 0.383717391230417D+03 0.000000000000000D+00 0.000000000000000D+00 0.383717391230417D+03
 0.609295921859045D+03 0.000000000000000D+00 0.000000000000000D+00 -.609295921859045D+03
 0.295939431459260D+03 0.268144139731145D+03 0.696450362352567D+02 0.501316766532267D+02
 0.885988165766650D+02 -.153107317929507D+02 -.867376167498602D+02 0.958736832004703D+01
 0.190763425144039D+03 -.671754351096179D+02 -.145877067093028D+03 -.102946717222334D+03
 0.125509897368692D+03 -.246105987696078D+02 0.704497677329662D+02 0.432276722490605D+02
 0.292201742540805D+03 -.161047374058969D+03 0.925198798746649D+02 -.225578530628629D+03
0.557785017125D-05 0.000000000000D+00 0.000000000000D+00 0.897212238933D-06 0.000000000000D+00  7 -1 1 23 -13 13 23 21 0 0.14113126D-01 0.19145409D+00 0.10049637D+06 0.10049637D+06 0.10049637D+06 0.11215456D+01  1  2  2  1  7  1       -1 0.230714648396D-03 0.100000000000D+01
-.308349810410D-06 0.000000000000D+00 -.214204133393D-07 0.897212238933D-06 0.000000000000D+00  7 -1 1 23 -13 13 23 21 2 0.14113126D-01 0.19145409D+00 0.10049637D+06 0.10049637D+06 0.10049637D+06 0.11215456D+01  1  2  3  1  7  1       -1 -.160430117164D-04 0.100000000000D+01
0.357166031118D-06 0.000000000000D+00 0.000000000000D+00 0.897212238933D-06 0.000000000000D+00  7 -1 1 23 -13 13 23 21 2 0.14113126D-01 0.19145409D+00 0.10049637D+06 0.10049637D+06 0.10049637D+06 0.11215456D+01  1  2 15  1  7  1       -1 0.185828517758D-04 0.100000000000D+01
  </mgrwgt>
  </event>
  <event>
  7     66 0.27414828E-05 0.15113899E+03 0.75467711E-02 0.10128412E+00
       -1 -1    0    0    0  501 0.00000000E+00 0.00000000E+00 0.20974503E+03 0.20974527E+03 0.32000000E+00 0.0000E+00 0.9000E+01
        1 -1    0    0  501    0 0.00000000E+00 0.00000000E+00 -.28940160E+03 0.28940177E+03 0.32000000E+00 0.0000E+00 0.9000E+01
       23  2    1    2    0    0 0.39602609E+02 -.88190919E+01 -.21552822E+03 0.23833678E+03 0.93305214E+02 0.0000E+00 0.0000E+00
       23  1    1    2    0    0 -.42107222E+01 0.53106862E+02 0.10537632E+03 0.14918944E+03 0.91188000E+02 0.0000E+00 0.9000E+01
      -11  1    3    3    0    0 -.80981643E+01 0.27929335E+02 -.24440908E+02 0.37986656E+02 0.51099893E-03 0.0000E+00 0.9000E+01
       11  1    3    3    0    0 0.47700773E+02 -.36748427E+02 -.19108731E+03 0.20035012E+03 0.51099893E-03 0.0000E+00 0.9000E+01
       23  1    1    2    0    0 -.35391887E+02 -.44287770E+02 0.30495335E+02 0.11162083E+03 0.91188000E+02 0.0000E+00 0.9000E+01
#aMCatNLO 1  0  0  1  1 0.20002896D+03 0.00000000D+00  -5  7  0 0.00000000D+00 0.00000000D+00 0.00000000D+00 0.00000000D+00 0.00000000D+00
  <mgrwgt>
 0.4831412066D-05    3    2    0
 0.246375021809540D+03 0.000000000000000D+00 0.000000000000000D+00 0.246375021809540D+03
 0.246375021809540D+03 0.000000000000000D+00 0.000000000000000D+00 -.246375021809540D+03
 0.168161089669134D+03 -.421072222601044D+01 0.531068615098114D+02 0.130861880674334D+03
 0.345287603226366D+02 -.809816430081891D+01 0.279293349305540D+02 -.186173917268762D+02
 0.172060488517865D+03 0.477007733657451D+02 -.367484268193027D+02 -.161180026850794D+03
 0.117999705109444D+03 -.353918868389158D+02 -.442877696210628D+02 0.489355379033360D+02
 0.000000000000000D+00 -.000000000000000D+00 0.000000000000000D+00 -.000000000000000D+00
 0.304483808858687D+03 0.000000000000000D+00 0.000000000000000D+00 0.304483808858687D+03
 0.525161828485308D+03 0.000000000000000D+00 0.000000000000000D+00 -.525161828485308D+03
 0.170566973524958D+03 0.553291372670908D+02 0.243247994671999D+02 0.130861880674334D+03
 0.293711503120223D+02 0.313383007523985D+01 0.224996956645856D+02 -.186173917268762D+02
 0.209623365331438D+03 0.114791178614959D+03 -.691804853224062D+02 -.161180026850794D+03
 0.122241283596797D+03 0.683642627211552D+01 -.647012865198952D+02 0.489355379033360D+02
 0.297842864578779D+03 -.180090572229405D+03 0.870572767105160D+02 -.220678019626621D+03
0.483834494952D-07 0.000000000000D+00 0.000000000000D+00 0.472398878265D-09 0.000000000000D+00  7 -1 1 23 -11 11 23 21 0 0.32268498D-01 0.44523355D-01 0.22842995D+05 0.22842995D+05 0.22842995D+05 0.11784802D+01  1  2  2  1  7  1       -1 0.469146141813D-05 0.100000000000D+01
-.190758165698D-08 0.000000000000D+00 -.185805185717D-09 0.472398878265D-09 0.000000000000D+00  7 -1 1 23 -11 11 23 21 2 0.32268498D-01 0.44523355D-01 0.22842995D+05 0.22842995D+05 0.22842995D+05 0.11784802D+01  1  2  3  1  7  1       -1 -.256885193372D-06 0.100000000000D+01
0.294682912963D-08 0.000000000000D+00 0.000000000000D+00 0.472398878265D-09 0.000000000000D+00  7 -1 1 23 -11 11 23 21 2 0.32268498D-01 0.44523355D-01 0.22842995D+05 0.22842995D+05 0.22842995D+05 0.11784802D+01  1  2 15  1  7  1       -1 0.396835840830D-06 0.100000000000D+01
  </mgrwgt>
  </event>
  <event>
  8     66 0.27414828E-05 0.21089595E+03 0.75467711E-02 0.94999861E-01
       -1 -1    0    0    0  501 0.00000000E+00 0.00000000E+00 0.12747411E+04 0.12747411E+04 0.32000000E+00 0.0000E+00 0.9000E+01
        1 -1    0    0  501    0 0.00000000E+00 0.00000000E+00 -.28400947E+03 0.28400965E+03 0.32000000E+00 0.0000E+00 0.9000E+01
       25  2    1    2    0    0 -.13050193E+03 0.34452009E+03 0.10710919E+04 0.11719619E+04 0.30088540E+03 0.0000E+00 0.0000E+00
       23  2    1    2    0    0 0.13050193E+03 -.34452009E+03 -.80360225E+02 0.38678892E+03 0.86157161E+02 0.0000E+00 0.0000E+00
       23  1    3    3    0    0 -.18280981E+03 0.15229630E+03 0.62584943E+03 0.67573393E+03 0.91188000E+02 0.0000E+00 0.9000E+01
      -11  1    4    4    0    0 0.27231451E+02 -.12360246E+03 -.65404998E+02 0.14246731E+03 0.51099893E-03 0.0000E+00 0.9000E+01
       11  1    4    4    0    0 0.10327048E+03 -.22091763E+03 -.14955227E+02 0.24432161E+03 0.51099893E-03 0.0000E+00 0.9000E+01
       23  1    3    3    0    0 0.52307881E+02 0.19222378E+03 0.44524244E+03 0.49622795E+03 0.91188000E+02 0.0000E+00 0.9000E+01
#aMCatNLO 1  0  0  1  2 0.11190602D+03 0.00000000D+00  -5  7  0 0.00000000D+00 0.00000000D+00 0.00000000D+00 0.00000000D+00 0.00000000D+00
  <mgrwgt>
 0.2405769384D-03    9    2    0
 0.601696532337849D+03 0.000000000000000D+00 0.000000000000000D+00 0.601696532337849D+03
 0.601696532337849D+03 0.000000000000000D+00 0.000000000000000D+00 -.601696532337849D+03
 0.360025323606393D+03 -.182809811933101D+03 0.152296301964792D+03 0.254341092556278D+03
 0.238384144604570D+03 0.272314511716147D+02 -.123602456675872D+03 -.202009606627085D+03
 0.328781289178686D+03 0.103270479362952D+03 -.220917629433430D+03 -.220516995289838D+03
 0.276202307286050D+03 0.523078813985344D+02 0.192223784144509D+03 0.168185509360645D+03
 0.000000000000000D+00 -.000000000000000D+00 0.000000000000000D+00 0.000000000000000D+00
 0.768038117541439D+03 0.000000000000000D+00 0.000000000000000D+00 0.768038117541439D+03
 0.623412059897704D+03 0.000000000000000D+00 0.000000000000000D+00 -.623412059897704D+03
 0.346513563473191D+03 -.181028767040917D+03 0.119564177192893D+03 0.254341092556278D+03
 0.251027300466964D+03 0.284651606961170D+02 -.146275626939850D+03 -.202009606627085D+03
 0.351234818429035D+03 0.104984665570118D+03 -.252421022223485D+03 -.220516995289838D+03
 0.259809368820157D+03 0.536590608952869D+02 0.167391745339083D+03 0.168185509360645D+03
 0.182865126249796D+03 -.608012012060507D+01 0.111740726631358D+03 0.144626057643735D+03
0.954685630317D-04 0.000000000000D+00 0.000000000000D+00 0.488952031437D-07 0.000000000000D+00  7 -1 1 23 -11 11 23 21 0 0.19611403D+00 0.43693781D-01 0.17822481D+06 0.17822481D+06 0.17822481D+06 0.11016911D+01  1  2  2  1  7  1       -1 0.172178641962D-03 0.100000000000D+01
-.449407783143D-05 0.000000000000D+00 -.366624419492D-06 0.488952031437D-07 0.000000000000D+00  7 -1 1 23 -11 11 23 21 2 0.19611403D+00 0.43693781D-01 0.17822481D+06 0.17822481D+06 0.17822481D+06 0.11016911D+01  1  2  3  1  7  1       -1 -.983737329022D-05 0.100000000000D+01
0.573585708385D-05 0.000000000000D+00 0.000000000000D+00 0.488952031437D-07 0.000000000000D+00  7 -1 1 23 -11 11 23 21 2 0.19611403D+00 0.43693781D-01 0.17822481D+06 0.17822481D+06 0.17822481D+06 0.11016911D+01  1  2 15  1  7  1       -1 0.125555830116D-04 0.100000000000D+01
0.185167488319D-03 0.000000000000D+00 0.000000000000D+00 0.488952031437D-07 0.000000000000D+00  7 -1 1 23 -11 11 23 21 2 0.25317094D+00 0.43693781D-01 0.23409599D+06 0.23409599D+06 0.23409599D+06 0.10926131D+01  1  2 12  1  7  1       -1 0.134665874015D-03 0.100000000000D+01
-.194716643800D-03 0.000000000000D+00 0.000000000000D+00 0.488952031437D-07 0.000000000000D+00  7 -1 1 23 -11 11 23 21 2 0.19611403D+00 0.43693781D-01 0.17822481D+06 0.17822481D+06 0.17822481D+06 0.11016911D+01  1  2  4  1  7  1       -1 -.426227667327D-03 0.100000000000D+01
-.244684078567D-03 0.000000000000D+00 -.466669746250D-04 0.488952031437D-07 0.000000000000D+00  7 -1 1 23 -11 11 23 21 2 0.25391433D+00 0.43693781D-01 0.17822481D+06 0.17822481D+06 0.17822481D+06 0.11016911D+01  1  2  5  1  7  1       -1 -.181527117039D-03 0.100000000000D+01
0.249870803836D-03 0.000000000000D+00 0.451523174610D-04 0.488952031437D-07 0.000000000000D+00  7 -1 1 23 -11 11 23 21 2 0.19611403D+00 0.43693781D-01 0.17822481D+06 0.17822481D+06 0.17822481D+06 0.11016911D+01  1  2  6  1  7  1       -1 0.546958122192D-03 0.100000000000D+01
0.636550812654D-05 0.000000000000D+00 0.000000000000D+00 0.488952031437D-07 0.000000000000D+00  7 21 1 23 -11 11 23 1 2 0.25317094D+00 0.43693781D-01 0.23409599D+06 0.23409599D+06 0.23409599D+06 0.10926131D+01  1  2 12  3  7  1       -1 0.341124590380D-04 0.100000000000D+01
-.765747807155D-05 0.000000000000D+00 -.161778606863D-05 0.488952031437D-07 0.000000000000D+00  7 21 1 23 -11 11 23 1 2 0.25391433D+00 0.43693781D-01 0.17822481D+06 0.17822481D+06 0.17822481D+06 0.11016911D+01  1  2  5  3  7  1       -1 -.423015841509D-04 0.100000000000D+01
  </mgrwgt>
  </event>
  <event>
  8     66 0.27414828E-05 0.26472974E+03 0.75467711E-02 0.95685756E-01
       -1 -1    0    0    0  501 0.00000000E+00 0.00000000E+00 0.33115445E+03 0.33115460E+03 0.32000000E+00 0.0000E+00 0.9000E+01
        1 -1    0    0  501    0 0.00000000E+00 0.00000000E+00 -.31750780E+03 0.31750796E+03 0.32000000E+00 0.0000E+00 0.9000E+01
       25  2    1    2    0    0 -.18981366E+03 -.20138035E+02 -.14530555E+03 0.38238488E+03 0.29777463E+03 0.0000E+00 0.0000E+00
       23  2    1    2    0    0 0.18981366E+03 0.20138035E+02 0.15895219E+03 0.26627768E+03 0.95933522E+02 0.0000E+00 0.0000E+00
       23  1    3    3    0    0 -.68391288E+02 0.90165950E+02 -.50846978E+00 0.14533677E+03 0.91188000E+02 0.0000E+00 0.9000E+01
      -11  1    4    4    0    0 0.47278540E+02 0.25666962E+02 0.96670658E+02 0.11063123E+03 0.51099893E-03 0.0000E+00 0.9000E+01
       11  1    4    4    0    0 0.14253512E+03 -.55289269E+01 0.62281534E+02 0.15564645E+03 0.51099893E-03 0.0000E+00 0.9000E+01
       23  1    3    3    0    0 -.12142237E+03 -.11030399E+03 -.14479708E+03 0.23704811E+03 0.91188000E+02 0.0000E+00 0.9000E+01
#aMCatNLO 1  0  0  1  2 0.29904716D+03 0.00000000D+00  -5  7  0 0.00000000D+00 0.00000000D+00 0.00000000D+00 0.00000000D+00 0.00000000D+00
  <mgrwgt>
 0.1938850147D-03    3    2    0
 0.324259498889172D+03 0.000000000000000D+00 0.000000000000000D+00 0.324259498889172D+03
 0.324259498889172D+03 0.000000000000000D+00 0.000000000000000D+00 -.324259498889172D+03
 0.145379643664156D+03 -.683912879746737D+02 0.901659503408336D+02 -.356687204938315D+01
 0.108621503561198D+03 0.472785403283494D+02 0.256669617350356D+02 0.943640701517703D+02
 0.154370331043358D+03 0.142535116206889D+03 -.552892689111295D+01 0.590200874428135D+02
 0.240147519509631D+03 -.121422368560565D+03 -.110303985184756D+03 -.149817285545201D+03
 0.000000000000000D+00 -.000000000000000D+00 0.000000000000000D+00 -.000000000000000D+00
 0.399128967903158D+03 0.000000000000000D+00 0.000000000000000D+00 0.399128967903158D+03
 0.888688828124474D+03 0.000000000000000D+00 0.000000000000000D+00 -.888688828124474D+03
 0.114393405257832D+03 -.601537123931172D+02 0.337551200796551D+02 -.356687204938315D+01
 0.111052426640342D+03 0.542445462740863D+02 -.220361731391540D+02 0.943640701517703D+02
 0.182012054085918D+03 0.153202024622931D+03 -.785758026510249D+02 0.590200874428135D+02
 0.306689222084570D+03 -.104081812993513D+03 -.229051925891685D+03 -.149817285545201D+03
 0.573670687958970D+03 -.432110455103871D+02 0.295908781602209D+03 -.489559860221315D+03
0.488361086149D-05 0.000000000000D+00 0.000000000000D+00 0.263996731169D-08 0.000000000000D+00  7 -1 1 23 -11 11 23 21 0 0.50946862D-01 0.48847379D-01 0.70081833D+05 0.70081833D+05 0.70081833D+05 0.11346165D+01  1  2  2  1  7  1       -1 0.190872912173D-03 0.100000000000D+01
-.257740007793D-06 0.000000000000D+00 -.187543515924D-07 0.263996731169D-08 0.000000000000D+00  7 -1 1 23 -11 11 23 21 2 0.50946862D-01 0.48847379D-01 0.70081833D+05 0.70081833D+05 0.70081833D+05 0.11346165D+01  1  2  3  1  7  1       -1 -.129683065114D-04 0.100000000000D+01
0.317604365468D-06 0.000000000000D+00 0.000000000000D+00 0.263996731169D-08 0.000000000000D+00  7 -1 1 23 -11 11 23 21 2 0.50946862D-01 0.48847379D-01 0.70081833D+05 0.70081833D+05 0.70081833D+05 0.11346165D+01  1  2 15  1  7  1       -1 0.159804090797D-04 0.100000000000D+01
  </mgrwgt>
  </event>
  <event>
  8     66 0.27414828E-05 0.58976297E+03 0.75467711E-02 0.89143156E-01
       -1 -1    0    0    0  501 0.00000000E+00 0.00000000E+00 0.21951553E+03 0.21951576E+03 0.32000000E+00 0.0000E+00 0.9000E+01
        1 -1    0    0  501    0 0.00000000E+00 0.00000000E+00 -.16749512E+04 0.16749512E+04 0.32000000E+00 0.0000E+00 0.9000E+01
       25  2    1    2    0    0 0.54574571E+03 0.14602399E+03 -.73628040E+03 0.97549207E+03 0.30052380E+03 0.0000E+00 0.0000E+00
       23  2    1    2    0    0 -.54574571E+03 -.14602399E+03 -.71915527E+03 0.91897493E+03 0.90383871E+02 0.0000E+00 0.0000E+00
       23  1    3    3    0    0 0.20966847E+03 -.18299967E+02 -.14997216E+03 0.27404864E+03 0.91188000E+02 0.0000E+00 0.9000E+01
      -11  1    4    4    0    0 -.80412422E+02 -.26462204E+02 -.62041935E+02 0.10495527E+03 0.51099893E-03 0.0000E+00 0.9000E+01
       11  1    4    4    0    0 -.46533328E+03 -.11956179E+03 -.65711333E+03 0.81401967E+03 0.51099893E-03 0.0000E+00 0.9000E+01
       23  1    3    3    0    0 0.33607723E+03 0.16432396E+03 -.58630824E+03 0.70144342E+03 0.91188000E+02 0.0000E+00 0.9000E+01
#aMCatNLO 1  0  0  2  1 0.41874308D+03 0.00000000D+00  -5  7  0 0.00000000D+00 0.00000000D+00 0.00000000D+00 0.00000000D+00 0.00000000D+00
  <mgrwgt>
 0.2410644922D-03    3    2    0
 0.606364618890210D+03 0.000000000000000D+00 0.000000000000000D+00 0.606364618890210D+03
 0.606364618890210D+03 0.000000000000000D+00 0.000000000000000D+00 -.606364618890210D+03
 0.248119088557256D+03 0.209668473423765D+03 -.182999665529500D+02 0.946153964151307D+02
 0.894975040551253D+02 -.804124223227595D+02 -.264622042518927D+02 0.290413035935793D+02
 0.482999163505582D+03 -.465333282726895D+03 -.119561788882269D+03 -.495792958095920D+02
 0.392113481662456D+03 0.336077231625890D+03 0.164323959687112D+03 -.740774041991180D+02
 0.000000000000000D+00 -.000000000000000D+00 0.000000000000000D+00 0.000000000000000D+00
 0.109814102150867D+04 0.000000000000000D+00 0.000000000000000D+00 0.109814102150867D+04
 0.737490278836514D+03 0.000000000000000D+00 0.000000000000000D+00 -.737490278836514D+03
 0.284326385306226D+03 0.228997092921637D+03 -.105520141356764D+03 0.946153964151307D+02
 0.975958770124610D+02 -.736206343355583D+02 -.571100700003684D+02 0.290413035935793D+02
 0.516523706532324D+03 -.429049009157624D+03 -.283294159095766D+03 -.495792958095920D+02
 0.384541937243943D+03 0.364271061435495D+03 0.370996245682179D+02 -.740774041991180D+02
 0.552643394250233D+03 -.905985108639496D+02 0.408824745884681D+03 0.360650742672159D+03
0.486745843385D-04 0.000000000000D+00 0.000000000000D+00 0.140694605224D-05 0.000000000000D+00  7 -1 1 23 -11 11 23 21 0 0.33771640D-01 0.25768482D+00 0.34782036D+06 0.34782036D+06 0.34782036D+06 0.10798313D+01  1  2  2  2  7  2        1 0.239191121299D-03 0.100000000000D+01
-.270160976241D-05 0.000000000000D+00 -.186923220172D-06 0.140694605224D-05 0.000000000000D+00  7 -1 1 23 -11 11 23 21 2 0.33771640D-01 0.25768482D+00 0.34782036D+06 0.34782036D+06 0.34782036D+06 0.10798313D+01  1  2  3  2  7  2        1 -.154802247651D-04 0.100000000000D+01
0.302855055884D-05 0.000000000000D+00 0.000000000000D+00 0.140694605224D-05 0.000000000000D+00  7 -1 1 23 -11 11 23 21 2 0.33771640D-01 0.25768482D+00 0.34782036D+06 0.34782036D+06 0.34782036D+06 0.10798313D+01  1  2 15  2  7  2        1 0.173535956287D-04 0.100000000000D+01
  </mgrwgt>
  </event>
  <event>
  7     66 0.27414828E-05 0.12729661E+03 0.75467711E-02 0.10745829E+00
       -1 -1    0    0    0  501 0.00000000E+00 0.00000000E+00 0.50489343E+03 0.50489353E+03 0.32000000E+00 0.0000E+00 0.9000E+01
        1 -1    0    0  501    0 0.00000000E+00 0.00000000E+00 -.15040885E+03 0.15040919E+03 0.32000000E+00 0.0000E+00 0.9000E+01
       23  2    1    2    0    0 0.19152591E+02 -.12878198E+02 0.31456103E+03 0.32841944E+03 0.91531506E+02 0.0000E+00 0.0000E+00
       23  1    1    2    0    0 -.12375412E+02 -.17452378E+02 0.15234198E+03 0.17883251E+03 0.91188000E+02 0.0000E+00 0.9000E+01
      -13  1    3    3    0    0 -.11495641E+01 -.34737934E+02 0.28248061E+03 0.28461087E+03 0.10565837E+00 0.0000E+00 0.9000E+01
       13  1    3    3    0    0 0.20302155E+02 0.21859737E+02 0.32080424E+02 0.43808565E+02 0.10565837E+00 0.0000E+00 0.9000E+01
       23  1    1    2    0    0 -.67771794E+01 0.30330576E+02 -.11241843E+03 0.14805077E+03 0.91188000E+02 0.0000E+00 0.9000E+01
#aMCatNLO 1  0  0  1  1 0.90893958D+02 0.00000000D+00  -5  7  0 0.00000000D+00 0.00000000D+00 0.00000000D+00 0.00000000D+00 0.00000000D+00
  <mgrwgt>
 0.2065131282D-03    4    2    0
 0.275573191230136D+03 0.000000000000000D+00 0.000000000000000D+00 0.275573191230136D+03
 0.275573191230136D+03 0.000000000000000D+00 0.000000000000000D+00 -.275573191230136D+03
 0.114645671197765D+03 -.123754119740909D+02 -.174523780024618D+02 0.661108331585433D+02
 0.156712183489739D+03 -.114959078086501D+01 -.347380077288612D+02 0.152809219990771D+03
 0.314540085014791D+02 0.203021824216357D+02 0.218598096788372D+02 0.996618083995891D+01
 0.248334519271289D+03 -.677717966667977D+01 0.303305760524857D+02 -.228886233989273D+03
 0.000000000000000D+00 0.000000000000000D+00 0.000000000000000D+00 -.000000000000000D+00
 0.294318133714780D+03 0.000000000000000D+00 0.000000000000000D+00 0.294318133714780D+03
 0.416783878032274D+03 0.000000000000000D+00 0.000000000000000D+00 -.416783878032274D+03
 0.119539503830262D+03 -.179188350159123D+02 -.358150069487780D+02 0.661108331585433D+02
 0.164368260666973D+03 -.874992129795922D+01 -.599141575737969D+02 0.152809219990771D+03
 0.274599994727684D+02 0.189076224574902D+02 0.172403197045383D+02 0.996618083995891D+01
 0.247223362447103D+03 -.185075848033207D+02 -.852647586093386D+01 -.228886233989273D+03
 0.152510885329947D+03 0.262687186597020D+02 0.870153206789705D+02 -.122465744317494D+03
0.464320651583D-05 0.000000000000D+00 0.000000000000D+00 0.512585442638D-09 0.000000000000D+00  7 -1 1 23 -13 13 23 21 0 0.77675946D-01 0.23139857D-01 0.16204427D+05 0.16204427D+05 0.16204427D+05 0.11929986D+01  1  2  2  1  7  1       -1 0.218466293968D-03 0.100000000000D+01
-.708719302481D-07 0.000000000000D+00 -.178311356051D-07 0.512585442638D-09 0.000000000000D+00  7 -1 1 23 -13 13 23 21 2 0.77675946D-01 0.23139857D-01 0.16204427D+05 0.16204427D+05 0.16204427D+05 0.11929986D+01  1  2  3  1  7  1       -1 -.474592166378D-05 0.100000000000D+01
0.294565084538D-06 0.000000000000D+00 0.000000000000D+00 0.512585442638D-09 0.000000000000D+00  7 -1 1 23 -13 13 23 21 2 0.77675946D-01 0.23139857D-01 0.16204427D+05 0.16204427D+05 0.16204427D+05 0.11929986D+01  1  2 15  1  7  1       -1 0.197254796251D-04 0.100000000000D+01
-.402192504519D-06 0.000000000000D+00 0.000000000000D+00 0.512585442638D-09 0.000000000000D+00  7 -1 1 23 -13 13 23 21 2 0.77675946D-01 0.23139857D-01 0.16204427D+05 0.16204427D+05 0.16204427D+05 0.11929986D+01  1  2  4  1  7  1       -1 -.269327237669D-04 0.100000000000D+01
  </mgrwgt>
  </event>
  <event>
  9     66 -.27414828E-05 0.18669595E+03 0.75467711E-02 0.10679476E+00
       -1 -1    0    0    0  502 0.00000000E+00 0.00000000E+00 0.44791320E+02 0.44792464E+02 0.32000000E+00 0.0000E+00 0.9000E+01
        1 -1    0    0  501    0 0.00000000E+00 0.00000000E+00 -.13723730E+04 0.13723731E+04 0.32000000E+00 0.0000E+00 0.9000E+01
       25  2    1    2    0    0 -.89546826E+02 -.68791647E+02 -.62778510E+03 0.69948119E+03 0.28706946E+03 0.0000E+00 0.0000E+00
       23  2    1    2    0    0 0.92788486E+02 0.55662320E+02 -.67083813E+03 0.68571492E+03 0.92049793E+02 0.0000E+00 0.0000E+00
       23  1    3    3    0    0 -.43867676E+02 0.46195621E+02 -.45422431E+03 0.46764665E+03 0.91188000E+02 0.0000E+00 0.9000E+01
      -13  1    4    4    0    0 0.28865340E+02 0.11324309E+02 -.42662023E+02 0.52739996E+02 0.10565837E+00 0.0000E+00 0.9000E+01
       13  1    4    4    0    0 0.63923146E+02 0.44338012E+02 -.62817610E+03 0.63297493E+03 0.10565837E+00 0.0000E+00 0.9000E+01
       23  1    3    3    0    0 -.45679150E+02 -.11498727E+03 -.17356078E+03 0.23183454E+03 0.91188000E+02 0.0000E+00 0.9000E+01
       21  1    1    2  501  502 -.32416600E+01 0.13129327E+02 -.28958473E+02 0.31969411E+02 0.75000000E+00 0.0000E+00 0.9000E+01
#aMCatNLO 2  0  0  1  2 0.13523593D+02 0.00000000D+00  -5  7  0 0.00000000D+00 0.00000000D+00 0.00000000D+00 0.00000000D+00 0.00000000D+00
  <mgrwgt>
 -.2119608317D-03    3    2    0
 0.240916526321122D+03 0.000000000000000D+00 0.000000000000000D+00 0.240916526321122D+03
 0.240916526321122D+03 0.000000000000000D+00 0.000000000000000D+00 -.240916526321122D+03
 0.121753345319878D+03 -.446812646944697D+02 0.494907534079447D+02 -.454188910586588D+02
 0.367521387108496D+02 0.286185200384078D+02 0.123237651047924D+02 0.194890950091246D+02
 0.127441040876260D+03 0.630687701274496D+02 0.477987072412967D+02 -.998941075354114D+02
 0.195886527735256D+03 -.470060254713877D+02 -.109613225754034D+03 0.125823903584946D+03
 0.000000000000000D+00 -.000000000000000D+00 0.000000000000000D+00 0.000000000000000D+00
 0.249383358663014D+03 0.000000000000000D+00 0.000000000000000D+00 0.249383358663014D+03
 0.246472712557475D+03 0.000000000000000D+00 0.000000000000000D+00 -.246472712557475D+03
 0.120152127748638D+03 -.438676831791041D+02 0.461955968250707D+02 -.454188910586588D+02
 0.366233437672599D+02 0.288652979862895D+02 0.113242684789313D+02 0.194890950091246D+02
 0.126613086206583D+03 0.639232102485228D+02 0.443380656996056D+02 -.998941075354114D+02
 0.198634240695015D+03 -.456791650223404D+02 -.114987257563580D+03 0.125823903584946D+03
 0.138332728029929D+02 -.324166003336776D+01 0.131293265599723D+02 0.291064610553978D+01
-.717959008627D-05 0.000000000000D+00 0.000000000000D+00 0.510343535897D-09 0.000000000000D+00  7 -1 1 23 -13 13 23 21 2 0.69653051D-02 0.20636637D+00 0.37493211D+05 0.37493211D+05 0.37493211D+05 0.11584569D+01  1  2 13  1  7  1       -1 -.101805015162D-02 0.100000000000D+01
-.397412113484D-05 0.000000000000D+00 0.000000000000D+00 0.510343535897D-09 0.000000000000D+00  7 -1 1 23 -13 13 23 21 2 0.66568311D-02 0.20636637D+00 0.34855376D+05 0.34855376D+05 0.34855376D+05 0.11613392D+01  1  2  8  1  7  1       -1 -.606094766071D-03 0.100000000000D+01
0.102752892319D-04 0.000000000000D+00 0.000000000000D+00 0.510343535897D-09 0.199804037066D-10  7 -1 1 23 -13 13 23 21 2 0.68907805D-02 0.21112574D+00 0.37493211D+05 0.37493211D+05 0.37493211D+05 0.11584569D+01  1  2  1  1  7  1       -1 0.141218408597D-02 0.100000000000D+01
  </mgrwgt>
  </event>
  <event>
  8     66 0.27414828E-05 0.13649325E+03 0.75467711E-02 0.10209763E+00
       -1 -1    0    0    0  501 0.00000000E+00 0.00000000E+00 0.46775012E+02 0.46776106E+02 0.32000000E+00 0.0000E+00 0.9000E+01
        1 -1    0    0  501    0 0.00000000E+00 0.00000000E+00 -.18064854E+04 0.18064854E+04 0.32000000E+00 0.0000E+00 0.9000E+01
       25  2    1    2    0    0 0.17459135E+03 0.71245272E+02 -.13186432E+04 0.13654214E+04 0.29999582E+03 0.0000E+00 0.0000E+00
       23  2    1    2    0    0 -.17459135E+03 -.71245272E+02 -.44106712E+03 0.48784014E+03 0.88824358E+02 0.0000E+00 0.0000E+00
       23  1    3    3    0    0 0.40989967E+02 -.70521251E+02 -.29389856E+03 0.31834736E+03 0.91188000E+02 0.0000E+00 0.9000E+01
      -13  1    4    4    0    0 -.10689220E+02 -.14987862E+02 -.13393680E+03 0.13519606E+03 0.10565837E+00 0.0000E+00 0.9000E+01
       13  1    4    4    0    0 -.16390213E+03 -.56257410E+02 -.30713032E+03 0.35264408E+03 0.10565837E+00 0.0000E+00 0.9000E+01
       23  1    3    3    0    0 0.13360139E+03 0.14176652E+03 -.10247447E+04 0.10470740E+04 0.91188000E+02 0.0000E+00 0.9000E+01
#aMCatNLO 1  0  0  1  2 0.13998193D+02 0.00000000D+00  -5  7  0 0.00000000D+00 0.00000000D+00 0.00000000D+00 0.00000000D+00 0.00000000D+00
  <mgrwgt>
 0.1014063770D-03    9    2    0
 0.290687830697694D+03 0.000000000000000D+00 0.000000000000000D+00 0.290687830697694D+03
 0.290687830697694D+03 0.000000000000000D+00 0.000000000000000D+00 -.290687830697694D+03
 0.125228083131697D+03 0.409899672788442D+02 -.705212504161154D+02 0.267094979935241D+02
 0.255661353892339D+02 -.106890035677992D+02 -.149878034189411D+02 -.177408632863057D+02
 0.194506661806896D+03 -.163902349275279D+03 -.562574691844527D+02 0.883400166983619D+02
 0.236074781067561D+03 0.133601385564234D+03 0.141766523019509D+03 -.973086514055802D+02
 0.000000000000000D+00 0.000000000000000D+00 0.000000000000000D+00 0.000000000000000D+00
 0.301051439722453D+03 0.000000000000000D+00 0.000000000000000D+00 0.301051439722453D+03
 0.295537682953719D+03 0.000000000000000D+00 0.000000000000000D+00 -.295537682953719D+03
 0.125894749987937D+03 0.390023953405521D+02 -.727987129361391D+02 0.267094979935241D+02
 0.260146627084556D+02 -.110972521749851D+02 -.154555957457521D+02 -.177408632863057D+02
 0.198178458923303D+03 -.167010349917246D+03 -.598187767466685D+02 0.883400166983619D+02
 0.231456287559841D+03 0.129900998702794D+03 0.137526428749633D+03 -.973086514055802D+02
 0.150449634966344D+02 0.920420804888450D+01 0.105466566789264D+02 0.551375676873479D+01
0.269744648550D-05 0.000000000000D+00 0.000000000000D+00 0.113776491989D-06 0.000000000000D+00  7 -1 1 23 -13 13 23 21 0 0.71962420D-02 0.27792091D+00 0.69994827D+05 0.69994827D+05 0.69994827D+05 0.11346623D+01  1  2  2  1  7  1       -1 0.133784333219D-03 0.100000000000D+01
-.148242627460D-06 0.000000000000D+00 -.103589047583D-07 0.113776491989D-06 0.000000000000D+00  7 -1 1 23 -13 13 23 21 2 0.71962420D-02 0.27792091D+00 0.69994827D+05 0.69994827D+05 0.69994827D+05 0.11346623D+01  1  2  3  1  7  1       -1 -.946583244826D-05 0.100000000000D+01
0.174554149377D-06 0.000000000000D+00 0.000000000000D+00 0.113776491989D-06 0.000000000000D+00  7 -1 1 23 -13 13 23 21 2 0.71962420D-02 0.27792091D+00 0.69994827D+05 0.69994827D+05 0.69994827D+05 0.11346623D+01  1  2 15  1  7  1       -1 0.111459190886D-04 0.100000000000D+01
0.642472778491D-05 0.000000000000D+00 0.000000000000D+00 0.113776491989D-06 0.000000000000D+00  7 -1 1 23 -13 13 23 21 2 0.75112418D-02 0.27792091D+00 0.73837503D+05 0.73837503D+05 0.73837503D+05 0.11326944D+01  1  2 12  1  7  1       -1 0.382848680346D-03 0.100000000000D+01
-.604883536213D-05 0.000000000000D+00 0.000000000000D+00 0.113776491989D-06 0.000000000000D+00  7 -1 1 23 -13 13 23 21 2 0.71962420D-02 0.27792091D+00 0.69994827D+05 0.69994827D+05 0.69994827D+05 0.11346623D+01  1  2  4  1  7  1       -1 -.386240199774D-03 0.100000000000D+01
-.452318880207D-04 0.000000000000D+00 -.691766631579D-05 0.113776491989D-06 0.000000000000D+00  7 -1 1 23 -13 13 23 21 2 0.75903388D-02 0.27792091D+00 0.69994827D+05 0.69994827D+05 0.69994827D+05 0.11346623D+01  1  2  5  1  7  1       -1 -.266505664523D-02 0.100000000000D+01
0.455457874985D-04 0.000000000000D+00 0.690784541174D-05 0.113776491989D-06 0.000000000000D+00  7 -1 1 23 -13 13 23 21 2 0.71962420D-02 0.27792091D+00 0.69994827D+05 0.69994827D+05 0.69994827D+05 0.11346623D+01  1  2  6  1  7  1       -1 0.290826465081D-02 0.100000000000D+01
0.958617450213D-07 0.000000000000D+00 0.000000000000D+00 0.113776491989D-06 0.000000000000D+00  7 21 1 23 -13 13 23 1 2 0.75112418D-02 0.27792091D+00 0.73837503D+05 0.73837503D+05 0.73837503D+05 0.11326944D+01  1  2 12  3  7  1       -1 0.845722654160D-04 0.100000000000D+01
-.411241911579D-06 0.000000000000D+00 -.639485588104D-07 0.113776491989D-06 0.000000000000D+00  7 21 1 23 -13 13 23 1 2 0.75903388D-02 0.27792091D+00 0.69994827D+05 0.69994827D+05 0.69994827D+05 0.11346623D+01  1  2  5  3  7  1       -1 -.358446794478D-03 0.100000000000D+01
  </mgrwgt>
  </event>
  <event>
  8     66 0.27414828E-05 0.18002772E+03 0.75467711E-02 0.88155936E-01
       -3 -1    0    0    0  501 0.00000000E+00 0.00000000E+00 0.89722999E+02 0.89724392E+02 0.50000000E+00 0.0000E+00 0.9000E+01
        3 -1    0    0  501    0 0.00000000E+00 0.00000000E+00 -.51436011E+03 0.51436035E+03 0.50000000E+00 0.0000E+00 0.9000E+01
       25  2    1    2    0    0 -.49750882E+02 -.97387540E+01 -.23865012E+03 0.38574611E+03 0.29879121E+03 0.0000E+00 0.0000E+00
       23  2    1    2    0    0 0.49750882E+02 0.97387540E+01 -.18598699E+03 0.21833863E+03 0.10252124E+03 0.0000E+00 0.0000E+00
       23  1    3    3    0    0 -.11983374E+03 0.57958177E+02 -.85487891E+02 0.18259986E+03 0.91188000E+02 0.0000E+00 0.9000E+01
      -11  1    4    4    0    0 0.10812264E+02 0.21927537E+02 -.17414553E+03 0.17585331E+03 0.51099893E-03 0.0000E+00 0.9000E+01
       11  1    4    4    0    0 0.38938618E+02 -.12188783E+02 -.11841463E+02 0.42485322E+02 0.51099893E-03 0.0000E+00 0.9000E+01
       23  1    3    3    0    0 0.70082862E+02 -.67696931E+02 -.15316223E+03 0.20314626E+03 0.91188000E+02 0.0000E+00 0.9000E+01
#aMCatNLO 1  0  0  1  2 0.88683217D+03 0.00000000D+00  -5  7  0 0.00000000D+00 0.00000000D+00 0.00000000D+00 0.00000000D+00 0.00000000D+00
  <mgrwgt>
 0.2819598049D-04    3    2    0
 0.214826502250977D+03 0.000000000000000D+00 0.000000000000000D+00 0.214826502250977D+03
 0.214826502250977D+03 0.000000000000000D+00 0.000000000000000D+00 -.214826502250977D+03
 0.172242413950509D+03 -.119833778706553D+03 0.579581704587599D+02 0.602736574091935D+02
 0.751342402508885D+02 0.108123175165468D+02 0.219275317842533D+02 -.710452756898737D+02
 0.480303847092375D+02 0.389386267484000D+02 -.121887655490019D+02 0.253403866714304D+02
 0.134245965591320D+03 0.700828344416060D+02 -.676969366940113D+02 -.145687683907502D+02
 0.000000000000000D+00 0.000000000000000D+00 -.000000000000000D+00 -.000000000000000D+00
 0.732997080131051D+03 0.000000000000000D+00 0.000000000000000D+00 0.732997080131051D+03
 0.131099498878460D+04 0.000000000000000D+00 0.000000000000000D+00 -.131099498878460D+04
 0.641140153910861D+03 -.432156960373665D+03 0.460817635769245D+03 0.602736574091935D+02
 0.194419670111132D+03 -.926911730198111D+02 0.155434627327641D+03 -.710452756898737D+02
 0.410329297683363D+02 0.474003576975069D+01 0.319233173341540D+02 0.253403866714304D+02
 0.108837610867804D+03 -.232565596031334D+02 0.526996927734322D+02 -.145687683907502D+02
 0.105856170425752D+04 0.543364657226859D+03 -.700875273204472D+03 -.577997908653551D+03
0.102756045730D-05 0.000000000000D+00 0.000000000000D+00 0.469520562317D-09 0.000000000000D+00  7 -3 3 23 -11 11 23 21 0 0.13803664D-01 0.79132451D-01 0.32409978D+05 0.32409978D+05 0.32409978D+05 0.11642351D+01  1  2  2  1  7  1       -3 0.277889237008D-04 0.100000000000D+01
-.549190507839D-07 0.000000000000D+00 -.394610271890D-08 0.469520562317D-09 0.000000000000D+00  7 -3 3 23 -11 11 23 21 2 0.13803664D-01 0.79132451D-01 0.32409978D+05 0.32409978D+05 0.32409978D+05 0.11642351D+01  1  2  3  1  7  1       -3 -.201311589485D-05 0.100000000000D+01
0.660238124876D-07 0.000000000000D+00 0.000000000000D+00 0.469520562317D-09 0.000000000000D+00  7 -3 3 23 -11 11 23 21 2 0.13803664D-01 0.79132451D-01 0.32409978D+05 0.32409978D+05 0.32409978D+05 0.11642351D+01  1  2 15  1  7  1       -3 0.242017268071D-05 0.100000000000D+01
  </mgrwgt>
  </event>
  <event>
  8     66 0.27414828E-05 0.26332149E+03 0.75467711E-02 0.10198641E+00
       -3 -1    0    0    0  501 0.00000000E+00 0.00000000E+00 0.66710128E+03 0.66710147E+03 0.50000000E+00 0.0000E+00 0.9000E+01
        3 -1    0    0  501    0 0.00000000E+00 0.00000000E+00 -.11854496E+03 0.11854602E+03 0.50000000E+00 0.0000E+00 0.9000E+01
       25  2    1    2    0    0 0.12113833E+03 0.13344744E+03 0.24920191E+03 0.42961186E+03 0.29997007E+03 0.0000E+00 0.0000E+00
       23  2    1    2    0    0 -.12113833E+03 -.13344744E+03 0.29935441E+03 0.35603563E+03 0.68305140E+02 0.0000E+00 0.0000E+00
       23  1    3    3    0    0 0.13555435E+03 -.11301772E+02 0.60712927E+02 0.17465401E+03 0.91188000E+02 0.0000E+00 0.9000E+01
      -11  1    4    4    0    0 -.12437282E+03 -.13789501E+03 0.28052235E+03 0.33641703E+03 0.51099893E-03 0.0000E+00 0.9000E+01
       11  1    4    4    0    0 0.32344875E+01 0.44475705E+01 0.18832063E+02 0.19618598E+02 0.51099893E-03 0.0000E+00 0.9000E+01
       23  1    3    3    0    0 -.14416020E+02 0.14474921E+03 0.18848898E+03 0.25495785E+03 0.91188000E+02 0.0000E+00 0.9000E+01
#aMCatNLO 1  0  0  2  2 0.20673186D+02 0.00000000D+00  -5  7  0 0.00000000D+00 0.00000000D+00 0.00000000D+00 0.00000000D+00 0.00000000D+00
  <mgrwgt>
 0.2061630662D-03    4    2    0
 0.281215191796401D+03 0.000000000000000D+00 0.000000000000000D+00 0.281215191796401D+03
 0.281215191796401D+03 0.000000000000000D+00 0.000000000000000D+00 -.281215191796401D+03
 0.184755356051991D+03 0.135554354244715D+03 -.113017722182973D+02 -.855369933766804D+02
 0.196331655461900D+03 -.124372821685857D+03 -.137895006068474D+03 0.637376455768771D+02
 0.903730511054232D+01 0.323448749176380D+01 0.444757052011315D+01 0.717147758800640D+01
 0.172306066968369D+03 -.144160200506213D+02 0.144749207766658D+03 0.146278702117969D+02
 0.000000000000000D+00 -.000000000000000D+00 0.000000000000000D+00 0.000000000000000D+00
 0.314078702362883D+03 0.000000000000000D+00 0.000000000000000D+00 0.314078702362883D+03
 0.284675173775661D+03 0.000000000000000D+00 0.000000000000000D+00 -.284675173775661D+03
 0.186673757938965D+03 0.137464674996986D+03 -.178529115582285D+02 -.855369933766804D+02
 0.200050399980628D+03 -.122334163869824D+03 -.144886256832719D+03 0.637376455768771D+02
 0.891974786798817D+01 0.332684355557886D+01 0.413085017761532D+01 0.717147758800640D+01
 0.167166290475725D+03 -.126700581299743D+02 0.138761710739903D+03 0.146278702117969D+02
 0.359436798752387D+02 -.578729655276593D+01 0.198466074734297D+02 0.294035285872221D+02
0.336496210529D-04 0.000000000000D+00 0.000000000000D+00 0.122951867212D-08 0.000000000000D+00  7 -3 3 23 -11 11 23 21 0 0.10263106D+00 0.18237782D-01 0.69338206D+05 0.69338206D+05 0.69338206D+05 0.11350105D+01  1  2  2  2  7  2        3 0.282426089050D-03 0.100000000000D+01
-.185959894425D-05 0.000000000000D+00 -.129223404992D-06 0.122951867212D-08 0.000000000000D+00  7 -3 3 23 -11 11 23 21 2 0.10263106D+00 0.18237782D-01 0.69338206D+05 0.69338206D+05 0.69338206D+05 0.11350105D+01  1  2  3  2  7  2        3 -.201068332613D-04 0.100000000000D+01
0.216787892607D-05 0.000000000000D+00 0.000000000000D+00 0.122951867212D-08 0.000000000000D+00  7 -3 3 23 -11 11 23 21 2 0.10263106D+00 0.18237782D-01 0.69338206D+05 0.69338206D+05 0.69338206D+05 0.11350105D+01  1  2 15  2  7  2        3 0.234400972490D-04 0.100000000000D+01
-.736153570904D-05 0.000000000000D+00 0.000000000000D+00 0.122951867212D-08 0.000000000000D+00  7 -3 3 23 -11 11 23 21 2 0.10263106D+00 0.18237782D-01 0.69338206D+05 0.69338206D+05 0.69338206D+05 0.11350105D+01  1  2  4  2  7  2        3 -.795962868804D-04 0.100000000000D+01
  </mgrwgt>
  </event>
  <event>
  8     66 0.27414828E-05 0.11449148E+03 0.75467711E-02 0.99729182E-01
       -1 -1    0    0    0  501 0.00000000E+00 0.00000000E+00 0.28008380E+03 0.28008398E+03 0.32000000E+00 0.0000E+00 0.9000E+01
        1 -1    0    0  501    0 0.00000000E+00 0.00000000E+00 -.58241376E+03 0.58241385E+03 0.32000000E+00 0.0000E+00 0.9000E+01
       25  2    1    2    0    0 -.14489780E+02 0.13839644E+03 0.16388664E+03 0.36856700E+03 0.29936478E+03 0.0000E+00 0.0000E+00
       23  2    1    2    0    0 0.14489780E+02 -.13839644E+03 -.46621660E+03 0.49393083E+03 0.85124698E+02 0.0000E+00 0.0000E+00
       23  1    3    3    0    0 -.88359401E+02 0.16613080E+03 0.94716722E+02 0.22955029E+03 0.91188000E+02 0.0000E+00 0.9000E+01
      -13  1    4    4    0    0 -.61970634E+01 -.14194659E+03 -.40185406E+03 0.42623226E+03 0.10565837E+00 0.0000E+00 0.9000E+01
       13  1    4    4    0    0 0.20686844E+02 0.35501455E+01 -.64362539E+02 0.67698572E+02 0.10565837E+00 0.0000E+00 0.9000E+01
       23  1    3    3    0    0 0.73869621E+02 -.27734362E+02 0.69169918E+02 0.13901671E+03 0.91188000E+02 0.0000E+00 0.9000E+01
#aMCatNLO 1  0  0  1  2 0.13664356D+03 0.00000000D+00  -5  7  0 0.00000000D+00 0.00000000D+00 0.00000000D+00 0.00000000D+00 0.00000000D+00
  <mgrwgt>
 0.2481555216D-03    9    2    0
 0.403887080847793D+03 0.000000000000000D+00 0.000000000000000D+00 0.403887080847793D+03
 0.403887080847793D+03 0.000000000000000D+00 0.000000000000000D+00 -.403887080847793D+03
 0.280551597684303D+03 -.883594012456039D+02 0.166130804909269D+03 0.187048441562424D+03
 0.304704213722582D+03 -.619710452814493D+01 -.141946812152198D+03 -.269550285244874D+03
 0.481951883308235D+02 0.206868846917376D+02 0.355036935649623D+01 -.433846039215152D+02
 0.174323161957877D+03 0.738696210820112D+02 -.277343621135663D+02 0.125886447603965D+03
 0.000000000000000D+00 -.000000000000000D+00 0.000000000000000D+00 0.000000000000000D+00
 0.506935713022914D+03 0.000000000000000D+00 0.000000000000000D+00 0.506935713022914D+03
 0.457593673244473D+03 0.000000000000000D+00 0.000000000000000D+00 -.457593673244473D+03
 0.265453138925450D+03 -.430475048086107D+02 0.159090887420352D+03 0.187048441562424D+03
 0.311683575107591D+03 0.449557477821132D+02 -.149894214223257D+03 -.269550285244874D+03
 0.522456012174793D+02 0.290222751176917D+02 0.225533503988548D+01 -.433846039215152D+02
 0.189867683187960D+03 0.104093127861484D+03 -.324300603889420D+02 0.125886447603965D+03
 0.145279387828907D+03 -.135023645952678D+03 0.209780521519606D+02 0.493420397784417D+02
0.104868367441D-04 0.000000000000D+00 0.000000000000D+00 0.237608641870D-07 0.000000000000D+00  7 -1 1 23 -13 13 23 21 0 0.43089836D-01 0.89602138D-01 0.60702212D+05 0.60702212D+05 0.60702212D+05 0.11399591D+01  1  2  2  1  7  1       -1 0.243685401287D-03 0.100000000000D+01
-.409549557157D-06 0.000000000000D+00 -.402722143449D-07 0.237608641870D-07 0.000000000000D+00  7 -1 1 23 -13 13 23 21 2 0.43089836D-01 0.89602138D-01 0.60702212D+05 0.60702212D+05 0.60702212D+05 0.11399591D+01  1  2  3  1  7  1       -1 -.123671596797D-04 0.100000000000D+01
0.649209212662D-06 0.000000000000D+00 0.000000000000D+00 0.237608641870D-07 0.000000000000D+00  7 -1 1 23 -13 13 23 21 2 0.43089836D-01 0.89602138D-01 0.60702212D+05 0.60702212D+05 0.60702212D+05 0.11399591D+01  1  2 15  1  7  1       -1 0.196041574413D-04 0.100000000000D+01
0.382906561292D-05 0.000000000000D+00 0.000000000000D+00 0.237608641870D-07 0.000000000000D+00  7 -1 1 23 -13 13 23 21 2 0.56364843D-01 0.89602138D-01 0.10651592D+06 0.10651592D+06 0.10651592D+06 0.11194793D+01  1  2 12  1  7  1       -1 0.680938004774D-04 0.100000000000D+01
-.734670366498D-05 0.000000000000D+00 0.000000000000D+00 0.237608641870D-07 0.000000000000D+00  7 -1 1 23 -13 13 23 21 2 0.43089836D-01 0.89602138D-01 0.60702212D+05 0.60702212D+05 0.60702212D+05 0.11399591D+01  1  2  4  1  7  1       -1 -.221848261721D-03 0.100000000000D+01
-.922692274384D-05 0.000000000000D+00 -.497957590418D-05 0.237608641870D-07 0.000000000000D+00  7 -1 1 23 -13 13 23 21 2 0.60287092D-01 0.89602138D-01 0.60702212D+05 0.60702212D+05 0.60702212D+05 0.11399591D+01  1  2  5  1  7  1       -1 -.152550491579D-03 0.100000000000D+01
0.105659574226D-04 0.000000000000D+00 0.471138867645D-05 0.237608641870D-07 0.000000000000D+00  7 -1 1 23 -13 13 23 21 2 0.43089836D-01 0.89602138D-01 0.60702212D+05 0.60702212D+05 0.60702212D+05 0.11399591D+01  1  2  6  1  7  1       -1 0.319060002216D-03 0.100000000000D+01
0.136580735974D-06 0.000000000000D+00 0.000000000000D+00 0.237608641870D-07 0.000000000000D+00  7 21 1 23 -13 13 23 1 2 0.56364843D-01 0.89602138D-01 0.10651592D+06 0.10651592D+06 0.10651592D+06 0.11194793D+01  1  2 12  3  7  1       -1 0.215681299022D-04 0.100000000000D+01
-.254373095662D-06 0.000000000000D+00 -.208797308767D-06 0.237608641870D-07 0.000000000000D+00  7 21 1 23 -13 13 23 1 2 0.60287092D-01 0.89602138D-01 0.60702212D+05 0.60702212D+05 0.60702212D+05 0.11399591D+01  1  2  5  3  7  1       -1 -.370900567016D-04 0.100000000000D+01
  </mgrwgt>
  </event>
  <event>
  8     66 0.27414828E-05 0.10036455E+03 0.75467711E-02 0.10065404E+00
       -1 -1    0    0    0  501 0.00000000E+00 0.00000000E+00 0.84128820E+02 0.84129428E+02 0.32000000E+00 0.0000E+00 0.9000E+01
        1 -1    0    0  501    0 0.00000000E+00 0.00000000E+00 -.13864342E+04 0.13864342E+04 0.32000000E+00 0.0000E+00 0.9000E+01
       25  2    1    2    0    0 0.19970796E+02 -.22037233E+03 -.10819331E+04 0.11445315E+04 0.30068322E+03 0.0000E+00 0.0000E+00
       23  2    1    2    0    0 -.19970796E+02 0.22037233E+03 -.22037226E+03 0.32603211E+03 0.93649404E+02 0.0000E+00 0.0000E+00
       23  1    3    3    0    0 -.54248204E+02 -.22636153E+03 -.63736723E+03 0.68464199E+03 0.91188000E+02 0.0000E+00 0.9000E+01
      -11  1    4    4    0    0 0.58969617E+01 0.23826655E+02 -.78519896E+02 0.82266991E+02 0.51099893E-03 0.0000E+00 0.9000E+01
       11  1    4    4    0    0 -.25867758E+02 0.19654567E+03 -.14185236E+03 0.24376512E+03 0.51099893E-03 0.0000E+00 0.9000E+01
       23  1    3    3    0    0 0.74219000E+02 0.59892075E+01 -.44456588E+03 0.45988956E+03 0.91188000E+02 0.0000E+00 0.9000E+01
#aMCatNLO 1  0  0  2  1 0.15641505D+02 0.00000000D+00  -5  7  0 0.00000000D+00 0.00000000D+00 0.00000000D+00 0.00000000D+00 0.00000000D+00
  <mgrwgt>
 0.3008876168D-03    9    2    0
 0.341525324357745D+03 0.000000000000000D+00 0.000000000000000D+00 0.341525324357745D+03
 0.341525324357745D+03 0.000000000000000D+00 0.000000000000000D+00 -.341525324357745D+03
 0.258784404847750D+03 -.542482041060685D+02 -.226361534324943D+03 -.668708081133154D+02
 0.274093349902082D+02 0.589696170725168D+01 0.238266552339332D+02 -.121978681576718D+02
 0.254354542562331D+03 -.258677575833296D+02 0.196545671610320D+03 0.159364021695460D+03
 0.142502366315202D+03 0.742189999821464D+02 0.598920748069064D+01 -.802953454244725D+02
 0.000000000000000D+00 0.000000000000000D+00 -.000000000000000D+00 -.000000000000000D+00
 0.345242997610368D+03 0.000000000000000D+00 0.000000000000000D+00 0.345242997610368D+03
 0.358473131801151D+03 0.000000000000000D+00 0.000000000000000D+00 -.358473131801151D+03
 0.256180757494102D+03 -.585206816779189D+02 -.222299244273289D+03 -.668708081133154D+02
 0.276946191373177D+02 0.543978435750730D+01 0.242613414244341D+02 -.121978681576718D+02
 0.257951808614489D+03 -.301181759715671D+02 0.200586987695316D+03 0.159364021695460D+03
 0.141402531158355D+03 0.718635449034414D+02 0.822878430056318D+01 -.802953454244725D+02
 0.204864130072551D+02 0.113355283885373D+02 -.107778691470238D+02 -.132301341907831D+02
0.303311572227D-05 0.000000000000D+00 0.000000000000D+00 0.788967038095D-07 0.000000000000D+00  7 -1 1 23 -11 11 23 21 0 0.12942945D-01 0.21329762D+00 0.87174987D+05 0.87174987D+05 0.87174987D+05 0.11266466D+01  1  2  2  2  7  2        1 0.115258976614D-03 0.100000000000D+01
-.164163986688D-06 0.000000000000D+00 -.116479630112D-07 0.788967038095D-07 0.000000000000D+00  7 -1 1 23 -11 11 23 21 2 0.12942945D-01 0.21329762D+00 0.87174987D+05 0.87174987D+05 0.87174987D+05 0.11266466D+01  1  2  3  2  7  2        1 -.791843080497D-05 0.100000000000D+01
0.191989405953D-06 0.000000000000D+00 0.000000000000D+00 0.788967038095D-07 0.000000000000D+00  7 -1 1 23 -11 11 23 21 2 0.12942945D-01 0.21329762D+00 0.87174987D+05 0.87174987D+05 0.87174987D+05 0.11266466D+01  1  2 15  2  7  2        1 0.926058666703D-05 0.100000000000D+01
0.121113957408D-04 0.000000000000D+00 0.000000000000D+00 0.788967038095D-07 0.000000000000D+00  7 -1 1 23 -11 11 23 21 2 0.12942945D-01 0.22500653D+00 0.92122234D+05 0.92122234D+05 0.92122234D+05 0.11246581D+01  1  2 12  2  7  2        1 0.517317498738D-03 0.100000000000D+01
-.122319128485D-04 0.000000000000D+00 0.000000000000D+00 0.788967038095D-07 0.000000000000D+00  7 -1 1 23 -11 11 23 21 2 0.12942945D-01 0.21329762D+00 0.87174987D+05 0.87174987D+05 0.87174987D+05 0.11266466D+01  1  2  4  2  7  2        1 -.590004893630D-03 0.100000000000D+01
-.475082116599D-04 0.000000000000D+00 -.624617625501D-05 0.788967038095D-07 0.000000000000D+00  7 -1 1 23 -11 11 23 21 2 0.12942945D-01 0.22503013D+00 0.87174987D+05 0.87174987D+05 0.87174987D+05 0.11266466D+01  1  2  5  2  7  2        1 -.203828569585D-02 0.100000000000D+01
0.477830950026D-04 0.000000000000D+00 0.623723254975D-05 0.788967038095D-07 0.000000000000D+00  7 -1 1 23 -11 11 23 21 2 0.12942945D-01 0.21329762D+00 0.87174987D+05 0.87174987D+05 0.87174987D+05 0.11266466D+01  1  2  6  2  7  2        1 0.230481203009D-02 0.100000000000D+01
0.173312063980D-06 0.000000000000D+00 0.000000000000D+00 0.788967038095D-07 0.000000000000D+00  7 -1 21 23 -11 11 23 -1 2 0.12942945D-01 0.22500653D+00 0.92122234D+05 0.92122234D+05 0.92122234D+05 0.11246581D+01  1  2 12  4  7  2        1 0.626314209856D-05 0.100000000000D+01
-.434640520222D-06 0.000000000000D+00 -.579696909199D-07 0.788967038095D-07 0.000000000000D+00  7 -1 21 23 -11 11 23 -1 2 0.12942945D-01 0.22503013D+00 0.87174987D+05 0.87174987D+05 0.87174987D+05 0.11266466D+01  1  2  5  4  7  2        1 -.158155971041D-04 0.100000000000D+01
  </mgrwgt>
  </event>
  <event>
  8     66 0.27414828E-05 0.29462742E+03 0.75467711E-02 0.93651341E-01
       -3 -1    0    0    0  501 0.00000000E+00 0.00000000E+00 0.69897046E+03 0.69897064E+03 0.50000000E+00 0.0000E+00 0.9000E+01
        3 -1    0    0  501    0 0.00000000E+00 0.00000000E+00 -.25241595E+03 0.25241644E+03 0.50000000E+00 0.0000E+00 0.9000E+01
       25  2    1    2    0    0 0.23229409E+03 -.24567990E+01 0.56014298E+03 0.67643393E+03 0.29972676E+03 0.0000E+00 0.0000E+00
       23  2    1    2    0    0 -.23229409E+03 0.24567990E+01 -.11358846E+03 0.27495315E+03 0.93436170E+02 0.0000E+00 0.0000E+00
       23  1    3    3    0    0 -.47088943E+01 -.11218905E+02 0.45832245E+02 0.10278075E+03 0.91188000E+02 0.0000E+00 0.9000E+01
      -11  1    4    4    0    0 -.18244355E+03 -.28250836E+02 -.56233784E+02 0.19299222E+03 0.51099893E-03 0.0000E+00 0.9000E+01
       11  1    4    4    0    0 -.49850536E+02 0.30707635E+02 -.57354680E+02 0.81960930E+02 0.51099893E-03 0.0000E+00 0.9000E+01
       23  1    3    3    0    0 0.23700298E+03 0.87621065E+01 0.51431073E+03 0.57365318E+03 0.91188000E+02 0.0000E+00 0.9000E+01
#aMCatNLO 1  0  0  1  1 0.40464035D+03 0.00000000D+00  -5  7  0 0.00000000D+00 0.00000000D+00 0.00000000D+00 0.00000000D+00 0.00000000D+00
  <mgrwgt>
 0.3257033952D-04    3    2    0
 0.420037632487747D+03 0.000000000000000D+00 0.000000000000000D+00 0.420037632487747D+03
 0.420037632487747D+03 0.000000000000000D+00 0.000000000000000D+00 -.420037632487747D+03
 0.920366185603146D+02 -.470889425689755D+01 -.112189054177774D+02 -.272952159199585D+01
 0.248456021186022D+03 -.182443552418833D+03 -.282508358221174D+02 -.166272772635021D+03
 0.123308666830674D+03 -.498505356201221D+02 0.307076347804526D+02 -.108521853007288D+03
 0.376273958398483D+03 0.237002982295853D+03 0.876210645944220D+01 0.277524147234305D+03
 0.000000000000000D+00 -.000000000000000D+00 0.000000000000000D+00 -.000000000000000D+00
 0.538786699113048D+03 0.000000000000000D+00 0.000000000000000D+00 0.538786699113048D+03
 0.103033783942684D+04 0.000000000000000D+00 0.000000000000000D+00 -.103033783942684D+04
 0.105111467724570D+03 0.223481554133029D+02 -.471834607115142D+02 -.272952159199585D+01
 0.233818602857309D+03 -.116255091230518D+03 -.116229333153858D+03 -.166272772635021D+03
 0.110612400443792D+03 -.177466787913745D+02 -.119651971850862D+02 -.108521853007288D+03
 0.482906060896096D+03 0.354918793175725D+03 -.147973005168992D+03 0.277524147234305D+03
 0.636676006618125D+03 -.243265178567135D+03 0.323350996219451D+03 -.491551140313794D+03
0.170856056073D-04 0.000000000000D+00 0.000000000000D+00 0.240110795776D-06 0.000000000000D+00  7 -3 3 23 -11 11 23 21 0 0.10753397D+00 0.38833275D-01 0.86805314D+05 0.86805314D+05 0.86805314D+05 0.11268002D+01  1  2  2  1  7  1       -3 0.319867271623D-04 0.100000000000D+01
-.804056992255D-06 0.000000000000D+00 -.656132242752D-07 0.240110795776D-06 0.000000000000D+00  7 -3 3 23 -11 11 23 21 2 0.10753397D+00 0.38833275D-01 0.86805314D+05 0.86805314D+05 0.86805314D+05 0.11268002D+01  1  2  3  1  7  1       -3 -.191126136688D-05 0.100000000000D+01
0.104957945262D-05 0.000000000000D+00 0.000000000000D+00 0.240110795776D-06 0.000000000000D+00  7 -3 3 23 -11 11 23 21 2 0.10753397D+00 0.38833275D-01 0.86805314D+05 0.86805314D+05 0.86805314D+05 0.11268002D+01  1  2 15  1  7  1       -3 0.249487371987D-05 0.100000000000D+01
  </mgrwgt>
  </event>
  <event>
  8     66 0.27414828E-05 0.36554624E+03 0.75467711E-02 0.94559072E-01
       -1 -1    0    0    0  501 0.00000000E+00 0.00000000E+00 0.16946896E+04 0.16946896E+04 0.32000000E+00 0.0000E+00 0.9000E+01
        1 -1    0    0  501    0 0.00000000E+00 0.00000000E+00 -.85882359E+02 0.85882955E+02 0.32000000E+00 0.0000E+00 0.9000E+01
       25  2    1    2    0    0 0.13303118E+02 0.30342946E+03 0.72859967E+03 0.84453229E+03 0.30021811E+03 0.0000E+00 0.0000E+00
       23  2    1    2    0    0 -.13303118E+02 -.30342946E+03 0.88020758E+03 0.93604030E+03 0.95706026E+02 0.0000E+00 0.0000E+00
       23  1    3    3    0    0 -.85814295E+02 0.40498263E+02 0.22950987E+03 0.26456424E+03 0.91188000E+02 0.0000E+00 0.9000E+01
      -11  1    4    4    0    0 0.31589157E+01 -.38229826E+02 0.42733885E+02 0.57425459E+02 0.51099893E-03 0.0000E+00 0.9000E+01
       11  1    4    4    0    0 -.16462034E+02 -.26519963E+03 0.83747370E+03 0.87861484E+03 0.51099893E-03 0.0000E+00 0.9000E+01
       23  1    3    3    0    0 0.99117414E+02 0.26293119E+03 0.49908980E+03 0.57996806E+03 0.91188000E+02 0.0000E+00 0.9000E+01
#aMCatNLO 1  0  0  2  1 0.23556849D+03 0.00000000D+00  -5  7  0 0.00000000D+00 0.00000000D+00 0.00000000D+00 0.00000000D+00 0.00000000D+00
  <mgrwgt>
 0.2169296999D-03    4    2    0
 0.381502946714998D+03 0.000000000000000D+00 0.000000000000000D+00 0.381502946714998D+03
 0.381502946714998D+03 0.000000000000000D+00 0.000000000000000D+00 -.381502946714998D+03
 0.133470375311543D+03 -.858142954564114D+02 0.404982629077743D+02 -.222460589448244D+02
 0.439047901648212D+02 0.315891569148096D+01 -.382298263505911D+02 -.213572523577999D+02
 0.284537444834199D+03 -.164620338290975D+02 -.265199629880976D+03 0.101782686474555D+03
 0.301093283119434D+03 0.991174135940279D+02 0.262931193323793D+03 -.581793751719310D+02
 0.000000000000000D+00 -.000000000000000D+00 0.000000000000000D+00 0.000000000000000D+00
 0.524526086527790D+03 0.000000000000000D+00 0.000000000000000D+00 0.524526086527790D+03
 0.510030697157401D+03 0.000000000000000D+00 0.000000000000000D+00 -.510030697157401D+03
 0.110606182255872D+03 -.546643450678635D+02 0.208662035105621D+02 -.222460589448244D+02
 0.530679025692006D+02 0.155349283565824D+02 -.460297301292901D+02 -.213572523577999D+02
 0.337145613537776D+03 0.628794507390751D+02 -.315204099174706D+03 0.101782686474555D+03
 0.297723040818364D+03 0.175540561185181D+03 0.214765987468986D+03 -.581793751719310D+02
 0.236014044503979D+03 -.199290595212974D+03 0.125601638324448D+03 0.144953893703888D+02
0.119824696701D-03 0.000000000000D+00 0.000000000000D+00 0.750867455520D-07 0.000000000000D+00  7 -1 1 23 -11 11 23 21 0 0.26072153D+00 0.13212719D-01 0.13362405D+06 0.13362405D+06 0.13362405D+06 0.11115358D+01  1  2  2  2  7  2        1 0.314299633920D-03 0.100000000000D+01
-.664215232012D-05 0.000000000000D+00 -.460158385898D-06 0.750867455520D-07 0.000000000000D+00  7 -1 1 23 -11 11 23 21 2 0.26072153D+00 0.13212719D-01 0.13362405D+06 0.13362405D+06 0.13362405D+06 0.11115358D+01  1  2  3  2  7  2        1 -.215255029032D-04 0.100000000000D+01
0.748002993017D-05 0.000000000000D+00 0.000000000000D+00 0.750867455520D-07 0.000000000000D+00  7 -1 1 23 -11 11 23 21 2 0.26072153D+00 0.13212719D-01 0.13362405D+06 0.13362405D+06 0.13362405D+06 0.11115358D+01  1  2 15  2  7  2        1 0.242408481796D-04 0.100000000000D+01
-.308834443014D-04 0.000000000000D+00 0.000000000000D+00 0.750867455520D-07 0.000000000000D+00  7 -1 1 23 -11 11 23 21 2 0.26072153D+00 0.13212719D-01 0.13362405D+06 0.13362405D+06 0.13362405D+06 0.11115358D+01  1  2  4  2  7  2        1 -.100085279278D-03 0.100000000000D+01
  </mgrwgt>
  </event>
  <event>
  8     66 0.27414828E-05 0.18948443E+03 0.75467711E-02 0.98501823E-01
       -1 -1    0    0    0  501 0.00000000E+00 0.00000000E+00 0.40741344E+03 0.40741357E+03 0.32000000E+00 0.0000E+00 0.9000E+01
        1 -1    0    0  501    0 0.00000000E+00 0.00000000E+00 -.39383556E+03 0.39383569E+03 0.32000000E+00 0.0000E+00 0.9000E+01
       25  2    1    2    0    0 0.50966364E+02 0.29954450E+03 0.15326221E+03 0.45374824E+03 0.30012279E+03 0.0000E+00 0.0000E+00
       23  2    1    2    0    0 -.50966364E+02 -.29954450E+03 -.13968433E+03 0.34750102E+03 0.94449834E+02 0.0000E+00 0.0000E+00
       23  1    3    3    0    0 0.11781087E+03 0.18808799E+03 0.17006389E+03 0.29409772E+03 0.91188000E+02 0.0000E+00 0.9000E+01
      -13  1    4    4    0    0 -.54066321E+02 -.13553255E+03 -.26767498E+02 0.14835346E+03 0.10565837E+00 0.0000E+00 0.9000E+01
       13  1    4    4    0    0 0.30999573E+01 -.16401195E+03 -.11291683E+03 0.19914756E+03 0.10565837E+00 0.0000E+00 0.9000E+01
       23  1    3    3    0    0 -.66844505E+02 0.11145650E+03 -.16801679E+02 0.15965052E+03 0.91188000E+02 0.0000E+00 0.9000E+01
#aMCatNLO 1  0  0  1  2 0.11744411D+02 0.00000000D+00  -5  7  0 0.00000000D+00 0.00000000D+00 0.00000000D+00 0.00000000D+00 0.00000000D+00
  <mgrwgt>
 0.1757068424D-03    9    2    0
 0.400567104211108D+03 0.000000000000000D+00 0.000000000000000D+00 0.400567104211108D+03
 0.400567104211108D+03 0.000000000000000D+00 0.000000000000000D+00 -.400567104211108D+03
 0.291257663005052D+03 0.117810868645072D+03 0.188087992236927D+03 0.165103850108165D+03
 0.148828360952643D+03 -.540663902168530D+02 -.135532510453277D+03 -.292855780718366D+02
 0.201089977991786D+03 0.310002636710027D+01 -.164011986517924D+03 -.116308371855617D+03
 0.159958206472735D+03 -.668445047953193D+02 0.111456504734274D+03 -.195099001807115D+02
 0.000000000000000D+00 0.000000000000000D+00 -.000000000000000D+00 0.000000000000000D+00
 0.411487886840528D+03 0.000000000000000D+00 0.000000000000000D+00 0.411487886840528D+03
 0.403780176728171D+03 0.000000000000000D+00 0.000000000000000D+00 -.403780176728171D+03
 0.292296687006862D+03 0.115067552210530D+03 0.191369482935303D+03 0.165103850108165D+03
 0.147828359910675D+03 -.554609874086059D+02 -.133864326041485D+03 -.292855780718366D+02
 0.199237765999050D+03 0.121806682165105D+01 -.161760830703251D+03 -.116308371855617D+03
 0.161857475822274D+03 -.683573754475822D+02 0.113266165082142D+03 -.195099001807115D+02
 0.140477748298376D+02 0.753274382400739D+01 -.901049127270901D+01 0.770771011235719D+01
0.421784290531D-05 0.000000000000D+00 0.000000000000D+00 0.143539947661D-06 0.000000000000D+00  7 -1 1 23 -13 13 23 21 0 0.62679011D-01 0.60590106D-01 0.12555150D+06 0.12555150D+06 0.12555150D+06 0.11137017D+01  1  2  2  1  7  1       -1 0.838372933199D-04 0.100000000000D+01
-.230039085348D-06 0.000000000000D+00 -.161976273399D-07 0.143539947661D-06 0.000000000000D+00  7 -1 1 23 -13 13 23 21 2 0.62679011D-01 0.60590106D-01 0.12555150D+06 0.12555150D+06 0.12555150D+06 0.11137017D+01  1  2  3  1  7  1       -1 -.567134689650D-05 0.100000000000D+01
0.269173252353D-06 0.000000000000D+00 0.000000000000D+00 0.143539947661D-06 0.000000000000D+00  7 -1 1 23 -13 13 23 21 2 0.62679011D-01 0.60590106D-01 0.12555150D+06 0.12555150D+06 0.12555150D+06 0.11137017D+01  1  2 15  1  7  1       -1 0.663615440414D-05 0.100000000000D+01
0.854825896567D-05 0.000000000000D+00 0.000000000000D+00 0.143539947661D-06 0.000000000000D+00  7 -1 1 23 -13 13 23 21 2 0.64634708D-01 0.60590106D-01 0.12970334D+06 0.12970334D+06 0.12970334D+06 0.11125693D+01  1  2 12  1  7  1       -1 0.198279170823D-03 0.100000000000D+01
-.848375569254D-05 0.000000000000D+00 0.000000000000D+00 0.143539947661D-06 0.000000000000D+00  7 -1 1 23 -13 13 23 21 2 0.62679011D-01 0.60590106D-01 0.12555150D+06 0.12555150D+06 0.12555150D+06 0.11137017D+01  1  2  4  1  7  1       -1 -.209157158858D-03 0.100000000000D+01
-.131196521396D-03 0.000000000000D+00 -.162747316746D-04 0.143539947661D-06 0.000000000000D+00  7 -1 1 23 -13 13 23 21 2 0.64787955D-01 0.60590106D-01 0.12555150D+06 0.12555150D+06 0.12555150D+06 0.11137017D+01  1  2  5  1  7  1       -1 -.303780112893D-02 0.100000000000D+01
0.131671902858D-03 0.000000000000D+00 0.162658240947D-04 0.143539947661D-06 0.000000000000D+00  7 -1 1 23 -13 13 23 21 2 0.62679011D-01 0.60590106D-01 0.12555150D+06 0.12555150D+06 0.12555150D+06 0.11137017D+01  1  2  6  1  7  1       -1 0.324621807857D-02 0.100000000000D+01
0.219903261247D-06 0.000000000000D+00 0.000000000000D+00 0.143539947661D-06 0.000000000000D+00  7 21 1 23 -13 13 23 1 2 0.64634708D-01 0.60590106D-01 0.12970334D+06 0.12970334D+06 0.12970334D+06 0.11125693D+01  1  2 12  3  7  1       -1 0.428255522033D-04 0.100000000000D+01
-.768721711805D-06 0.000000000000D+00 -.961539994296D-07 0.143539947661D-06 0.000000000000D+00  7 21 1 23 -13 13 23 1 2 0.64787955D-01 0.60590106D-01 0.12555150D+06 0.12555150D+06 0.12555150D+06 0.11137017D+01  1  2  5  3  7  1       -1 -.149459772212D-03 0.100000000000D+01
  </mgrwgt>
  </event>
  <event>
  8     66 0.27414828E-05 0.20772461E+03 0.75467711E-02 0.10301772E+00
       -1 -1    0    0    0  501 0.00000000E+00 0.00000000E+00 0.18098515E+03 0.18098543E+03 0.32000000E+00 0.0000E+00 0.9000E+01
        1 -1    0    0  501    0 0.00000000E+00 0.00000000E+00 -.72717441E+03 0.72717448E+03 0.32000000E+00 0.0000E+00 0.9000E+01
       25  2    1    2    0    0 -.22543332E+02 -.13543297E+03 0.80480252E+01 0.33011613E+03 0.30010264E+03 0.0000E+00 0.0000E+00
       23  2    1    2    0    0 0.22543332E+02 0.13543297E+03 -.55423728E+03 0.57804378E+03 0.90029744E+02 0.0000E+00 0.0000E+00
       23  1    3    3    0    0 0.41766582E+02 -.83413837E+02 0.10971123E+03 0.17045269E+03 0.91188000E+02 0.0000E+00 0.9000E+01
      -13  1    4    4    0    0 0.55452298E+02 0.91509060E+02 -.40954346E+03 0.42329035E+03 0.10565837E+00 0.0000E+00 0.9000E+01
       13  1    4    4    0    0 -.32908966E+02 0.43923912E+02 -.14469382E+03 0.15475343E+03 0.10565837E+00 0.0000E+00 0.9000E+01
       23  1    3    3    0    0 -.64309914E+02 -.52019136E+02 -.10166320E+03 0.15966344E+03 0.91188000E+02 0.0000E+00 0.9000E+01
#aMCatNLO 1  0  0  1  2 0.85690429D+02 0.00000000D+00  -5  7  0 0.00000000D+00 0.00000000D+00 0.00000000D+00 0.00000000D+00 0.00000000D+00
  <mgrwgt>
 0.6687507296D-04    4    2    0
 0.362778071058092D+03 0.000000000000000D+00 0.000000000000000D+00 0.362778071058092D+03
 0.362778071058092D+03 0.000000000000000D+00 0.000000000000000D+00 -.362778071058092D+03
 0.295940425649389D+03 0.417665822760742D+02 -.834138367628614D+02 0.265637287727111D+03
 0.221522797423943D+03 0.554524191936030D+02 0.915091256847164D+02 -.193967674885598D+03
 0.847770520663289D+02 -.329090872824504D+02 0.439238466861149D+02 -.646129725642443D+02
 0.123315866976523D+03 -.643099141872269D+02 -.520191356079699D+02 -.705664027726897D+01
 0.000000000000000D+00 -.000000000000000D+00 0.000000000000000D+00 -.000000000000000D+00
 0.399283444360813D+03 0.000000000000000D+00 0.000000000000000D+00 0.399283444360813D+03
 0.419316253976029D+03 0.000000000000000D+00 0.000000000000000D+00 -.419316253976029D+03
 0.308582278931061D+03 0.482456904564790D+02 -.118393227203455D+03 0.265637287727111D+03
 0.213628410424616D+03 0.601162502277762D+02 0.663300482328703D+02 -.193967674885598D+03
 0.795576023599610D+02 -.311477936275556D+02 0.344149796137249D+02 -.646129725642443D+02
 0.128830479850495D+03 -.616074789502908D+02 -.666090351220879D+02 -.705664027726897D+01
 0.880009267707077D+02 -.156066681064088D+02 0.842572344789477D+02 -.200328096152159D+02
0.433079029372D-05 0.000000000000D+00 0.000000000000D+00 0.459466809313D-06 0.000000000000D+00  7 -1 1 23 -13 13 23 21 0 0.27843896D-01 0.11187301D+00 0.43149514D+05 0.43149514D+05 0.43149514D+05 0.11529672D+01  1  2  2  1  7  1       -1 0.152900350097D-03 0.100000000000D+01
-.149652643377D-06 0.000000000000D+00 -.166313750512D-07 0.459466809313D-06 0.000000000000D+00  7 -1 1 23 -13 13 23 21 2 0.27843896D-01 0.11187301D+00 0.43149514D+05 0.43149514D+05 0.43149514D+05 0.11529672D+01  1  2  3  1  7  1       -1 -.702359737068D-05 0.100000000000D+01
0.256919524770D-06 0.000000000000D+00 0.000000000000D+00 0.459466809313D-06 0.000000000000D+00  7 -1 1 23 -13 13 23 21 2 0.27843896D-01 0.11187301D+00 0.43149514D+05 0.43149514D+05 0.43149514D+05 0.11529672D+01  1  2 15  1  7  1       -1 0.120579179755D-04 0.100000000000D+01
-.194021792361D-05 0.000000000000D+00 0.000000000000D+00 0.459466809313D-06 0.000000000000D+00  7 -1 1 23 -13 13 23 21 2 0.27843896D-01 0.11187301D+00 0.43149514D+05 0.43149514D+05 0.43149514D+05 0.11529672D+01  1  2  4  1  7  1       -1 -.910595977410D-04 0.100000000000D+01
  </mgrwgt>
  </event>
  <event>
  8     66 0.27414828E-05 0.34093493E+03 0.75467711E-02 0.91462838E-01
       -1 -1    0    0    0  501 0.00000000E+00 0.00000000E+00 0.22880855E+03 0.22880877E+03 0.32000000E+00 0.0000E+00 0.9000E+01
        1 -1    0    0  501    0 0.00000000E+00 0.00000000E+00 -.24926898E+04 0.24926898E+04 0.32000000E+00 0.0000E+00 0.9000E+01
       25  2    1    2    0    0 0.36028409E+03 -.49844407E+03 -.18510669E+04 0.19755306E+04 0.31308352E+03 0.0000E+00 0.0000E+00
       23  2    1    2    0    0 -.36028409E+03 0.49844407E+03 -.41281433E+03 0.74596799E+03 0.88325857E+02 0.0000E+00 0.0000E+00
       23  1    3    3    0    0 0.99763035E+02 -.18430748E+02 -.36732405E+03 0.39183487E+03 0.91188000E+02 0.0000E+00 0.9000E+01
      -11  1    4    4    0    0 -.13075312E+03 0.11681959E+03 -.13229670E+03 0.21964884E+03 0.51099893E-03 0.0000E+00 0.9000E+01
       11  1    4    4    0    0 -.22953097E+03 0.38162449E+03 -.28051763E+03 0.52631916E+03 0.51099893E-03 0.0000E+00 0.9000E+01
       23  1    3    3    0    0 0.26052106E+03 -.48001332E+03 -.14837429E+04 0.15836957E+04 0.91188000E+02 0.0000E+00 0.9000E+01
#aMCatNLO 1  0  0  2  1 0.23512812D+02 0.00000000D+00  -5  7  0 0.00000000D+00 0.00000000D+00 0.00000000D+00 0.00000000D+00 0.00000000D+00
  <mgrwgt>
 0.3953876983D-03    9    2    0
 0.755214586537511D+03 0.000000000000000D+00 0.000000000000000D+00 0.755214586537511D+03
 0.755214586537511D+03 0.000000000000000D+00 0.000000000000000D+00 -.755214586537511D+03
 0.155452516454181D+03 0.997630348859144D+02 -.184307484057996D+02 -.745511764594728D+02
 0.197473660077914D+03 -.130753120479777D+03 0.116819585169125D+03 0.908441105976716D+02
 0.527875298298912D+03 -.229530970792388D+03 0.381624487420440D+03 0.283426559451219D+03
 0.629627698244013D+03 0.260521056386251D+03 -.480013324183766D+03 -.299719493589418D+03
 0.000000000000000D+00 -.000000000000000D+00 -.000000000000000D+00 -.000000000000000D+00
 0.758491263827636D+03 0.000000000000000D+00 0.000000000000000D+00 0.758491263827636D+03
 0.798698676500263D+03 0.000000000000000D+00 0.000000000000000D+00 -.798698676500263D+03
 0.155593053328844D+03 0.100384981293393D+03 -.160911317012238D+02 -.745511764594728D+02
 0.198732152283226D+03 -.129960893212910D+03 0.119799758581326D+03 0.908441105976716D+02
 0.532762628268377D+03 -.227410188462890D+03 0.389602373786847D+03 0.283426559451219D+03
 0.623524339773209D+03 0.263026777360235D+03 -.470587388802132D+03 -.299719493589418D+03
 0.465777666742429D+02 -.604067697782782D+01 -.227236118648177D+02 -.402074126726263D+02
0.912398485924D-04 0.000000000000D+00 0.000000000000D+00 0.809353318363D-09 0.000000000000D+00  7 -1 1 23 -11 11 23 21 0 0.35201334D-01 0.38349076D+00 0.42954549D+06 0.42954549D+06 0.42954549D+06 0.10732036D+01  1  2  2  2  7  2        1 0.115968266420D-03 0.100000000000D+01
-.494502825454D-05 0.000000000000D+00 -.350385042599D-06 0.809353318363D-09 0.000000000000D+00  7 -1 1 23 -11 11 23 21 2 0.35201334D-01 0.38349076D+00 0.42954549D+06 0.42954549D+06 0.42954549D+06 0.10732036D+01  1  2  3  2  7  2        1 -.723915101888D-05 0.100000000000D+01
0.563253651485D-05 0.000000000000D+00 0.000000000000D+00 0.809353318363D-09 0.000000000000D+00  7 -1 1 23 -11 11 23 21 2 0.35201334D-01 0.38349076D+00 0.42954549D+06 0.42954549D+06 0.42954549D+06 0.10732036D+01  1  2 15  2  7  2        1 0.824561162272D-05 0.100000000000D+01
0.662193188946D-03 0.000000000000D+00 0.000000000000D+00 0.809353318363D-09 0.000000000000D+00  7 -1 1 23 -11 11 23 21 2 0.35201334D-01 0.40637590D+00 0.44536662D+06 0.44536662D+06 0.44536662D+06 0.10720802D+01  1  2 12  2  7  2        1 0.758909207588D-03 0.100000000000D+01
-.673657190315D-03 0.000000000000D+00 0.000000000000D+00 0.809353318363D-09 0.000000000000D+00  7 -1 1 23 -11 11 23 21 2 0.35201334D-01 0.38349076D+00 0.42954549D+06 0.42954549D+06 0.42954549D+06 0.10732036D+01  1  2  4  2  7  2        1 -.986183674717D-03 0.100000000000D+01
-.161481688806D-02 0.000000000000D+00 -.137907232965D-03 0.809353318363D-09 0.000000000000D+00  7 -1 1 23 -11 11 23 21 2 0.35201334D-01 0.40610217D+00 0.42954549D+06 0.42954549D+06 0.42954549D+06 0.10732036D+01  1  2  5  2  7  2        1 -.186423876296D-02 0.100000000000D+01
0.162028383056D-02 0.000000000000D+00 0.137681232251D-03 0.809353318363D-09 0.000000000000D+00  7 -1 1 23 -11 11 23 21 2 0.35201334D-01 0.38349076D+00 0.42954549D+06 0.42954549D+06 0.42954549D+06 0.10732036D+01  1  2  6  2  7  2        1 0.237197418075D-02 0.100000000000D+01
0.992987996426D-05 0.000000000000D+00 0.000000000000D+00 0.809353318363D-09 0.000000000000D+00  7 -1 21 23 -11 11 23 -1 2 0.35201334D-01 0.40637590D+00 0.44536662D+06 0.44536662D+06 0.44536662D+06 0.10720802D+01  1  2 12  4  7  2        1 0.337281652741D-05 0.100000000000D+01
-.157910934680D-04 0.000000000000D+00 -.136205660666D-05 0.809353318363D-09 0.000000000000D+00  7 -1 21 23 -11 11 23 -1 2 0.35201334D-01 0.40610217D+00 0.42954549D+06 0.42954549D+06 0.42954549D+06 0.10732036D+01  1  2  5  4  7  2        1 -.542079586242D-05 0.100000000000D+01
  </mgrwgt>
  </event>
  <event>
  8     66 0.27414828E-05 0.15875927E+03 0.75467711E-02 0.97558822E-01
       -1 -1    0    0    0  501 0.00000000E+00 0.00000000E+00 0.59515426E+03 0.59515435E+03 0.32000000E+00 0.0000E+00 0.9000E+01
        1 -1    0    0  501    0 0.00000000E+00 0.00000000E+00 -.27021378E+03 0.27021397E+03 0.32000000E+00 0.0000E+00 0.9000E+01
       25  2    1    2    0    0 0.16136706E+03 0.19159274E+03 0.42767015E+03 0.57948825E+03 0.30026282E+03 0.0000E+00 0.0000E+00
       23  2    1    2    0    0 -.16136706E+03 -.19159274E+03 -.10272967E+03 0.28588007E+03 0.91798271E+02 0.0000E+00 0.0000E+00
       23  1    3    3    0    0 0.12621583E+03 0.23851679E+01 0.27983327E+03 0.32024683E+03 0.91188000E+02 0.0000E+00 0.9000E+01
      -11  1    4    4    0    0 -.15211108E+03 -.15196795E+03 -.52679412E+02 0.22137561E+03 0.51099893E-03 0.0000E+00 0.9000E+01
       11  1    4    4    0    0 -.92559760E+01 -.39624786E+02 -.50050256E+02 0.64504457E+02 0.51099893E-03 0.0000E+00 0.9000E+01
       23  1    3    3    0    0 0.35151229E+02 0.18920757E+03 0.14783689E+03 0.25924141E+03 0.91188000E+02 0.0000E+00 0.9000E+01
#aMCatNLO 1  0  0  1  2 0.14268763D+03 0.00000000D+00  -5  7  0 0.00000000D+00 0.00000000D+00 0.00000000D+00 0.00000000D+00 0.00000000D+00
  <mgrwgt>
 0.1602860153D-03    9    2    0
 0.401022443814589D+03 0.000000000000000D+00 0.000000000000000D+00 0.401022443814589D+03
 0.401022443814589D+03 0.000000000000000D+00 0.000000000000000D+00 -.401022443814589D+03
 0.232159456051494D+03 0.126215831341552D+03 0.238516789718089D+01 0.172181986813338D+03
 0.260196302019506D+03 -.152111084220235D+03 -.151967954048761D+03 -.146526702631991D+03
 0.898746050367425D+02 -.925597602541043D+01 -.396247860058801D+02 -.801351849833499D+02
 0.219814524521435D+03 0.351512289040932D+02 0.189207572157461D+03 0.544799008020022D+02
 0.000000000000000D+00 0.000000000000000D+00 0.000000000000000D+00 0.000000000000000D+00
 0.518605101559646D+03 0.000000000000000D+00 0.000000000000000D+00 0.518605101559646D+03
 0.453056722186654D+03 0.000000000000000D+00 0.000000000000000D+00 -.453056722186654D+03
 0.213368365105510D+03 0.869721904835230D+02 -.968674733379977D-01 0.172181986813338D+03
 0.292995695444184D+03 -.200838160382670D+03 -.155049786516209D+03 -.146526702631991D+03
 0.933741609468511D+02 -.253971650116825D+02 -.406456648313462D+02 -.801351849833499D+02
 0.214900201445657D+03 -.313995690164666D+01 0.186785776537305D+03 0.544799008020022D+02
 0.157023400804098D+03 0.142403091812476D+03 0.900654228358879D+01 0.655483793729925D+02
0.821117523950D-05 0.000000000000D+00 0.000000000000D+00 0.812072795440D-06 0.000000000000D+00  7 -1 1 23 -11 11 23 21 0 0.91562216D-01 0.41571371D-01 0.97466543D+05 0.97466543D+05 0.97466543D+05 0.11226377D+01  1  2  2  1  7  1       -1 0.126874470603D-03 0.100000000000D+01
-.421404254375D-06 0.000000000000D+00 -.315330749718D-07 0.812072795440D-06 0.000000000000D+00  7 -1 1 23 -11 11 23 21 2 0.91562216D-01 0.41571371D-01 0.97466543D+05 0.97466543D+05 0.97466543D+05 0.11226377D+01  1  2  3  1  7  1       -1 -.820629453527D-05 0.100000000000D+01
0.529742723571D-06 0.000000000000D+00 0.000000000000D+00 0.812072795440D-06 0.000000000000D+00  7 -1 1 23 -11 11 23 21 2 0.91562216D-01 0.41571371D-01 0.97466543D+05 0.97466543D+05 0.97466543D+05 0.11226377D+01  1  2 15  1  7  1       -1 0.103160439706D-04 0.100000000000D+01
0.434068013762D-05 0.000000000000D+00 0.000000000000D+00 0.812072795440D-06 0.000000000000D+00  7 -1 1 23 -11 11 23 21 2 0.12297937D+00 0.41571371D-01 0.15141206D+06 0.15141206D+06 0.15141206D+06 0.11072309D+01  1  2 12  1  7  1       -1 0.413506250286D-04 0.100000000000D+01
-.595015234192D-05 0.000000000000D+00 0.000000000000D+00 0.812072795440D-06 0.000000000000D+00  7 -1 1 23 -11 11 23 21 2 0.91562216D-01 0.41571371D-01 0.97466543D+05 0.97466543D+05 0.97466543D+05 0.11226377D+01  1  2  4  1  7  1       -1 -.115871404098D-03 0.100000000000D+01
-.882697724033D-05 0.000000000000D+00 -.363045455454D-05 0.812072795440D-06 0.000000000000D+00  7 -1 1 23 -11 11 23 21 2 0.12927094D+00 0.41571371D-01 0.97466543D+05 0.97466543D+05 0.97466543D+05 0.11226377D+01  1  2  5  1  7  1       -1 -.774545330374D-04 0.100000000000D+01
0.970203272888D-05 0.000000000000D+00 0.342474040926D-05 0.812072795440D-06 0.000000000000D+00  7 -1 1 23 -11 11 23 21 2 0.91562216D-01 0.41571371D-01 0.97466543D+05 0.97466543D+05 0.97466543D+05 0.11226377D+01  1  2  6  1  7  1       -1 0.188934348283D-03 0.100000000000D+01
0.165762758581D-06 0.000000000000D+00 0.000000000000D+00 0.812072795440D-06 0.000000000000D+00  7 21 1 23 -11 11 23 1 2 0.12297937D+00 0.41571371D-01 0.15141206D+06 0.15141206D+06 0.15141206D+06 0.11072309D+01  1  2 12  3  7  1       -1 0.104972450132D-04 0.100000000000D+01
-.276804539200D-06 0.000000000000D+00 -.155176615807D-06 0.812072795440D-06 0.000000000000D+00  7 21 1 23 -11 11 23 1 2 0.12927094D+00 0.41571371D-01 0.97466543D+05 0.97466543D+05 0.97466543D+05 0.11226377D+01  1  2  5  3  7  1       -1 -.161544859095D-04 0.100000000000D+01
  </mgrwgt>
  </event>
  <event>
  8     66 0.27414828E-05 0.44109363E+03 0.75467711E-02 0.94259119E-01
       -1 -1    0    0    0  501 0.00000000E+00 0.00000000E+00 0.24431880E+03 0.24431901E+03 0.32000000E+00 0.0000E+00 0.9000E+01
        1 -1    0    0  501    0 0.00000000E+00 0.00000000E+00 -.12296549E+04 0.12296550E+04 0.32000000E+00 0.0000E+00 0.9000E+01
       25  2    1    2    0    0 -.37794142E+02 0.49146404E+03 -.39487029E+03 0.69925627E+03 0.30011913E+03 0.0000E+00 0.0000E+00
       23  2    1    2    0    0 0.37794142E+02 -.49146404E+03 -.59046583E+03 0.77471770E+03 0.92586857E+02 0.0000E+00 0.0000E+00
       23  1    3    3    0    0 -.61536884E+02 0.17918584E+03 -.28683472E+03 0.35564555E+03 0.91188000E+02 0.0000E+00 0.9000E+01
      -13  1    4    4    0    0 0.75432407E+01 -.40246620E+03 -.51805920E+03 0.65606500E+03 0.10565837E+00 0.0000E+00 0.9000E+01
       13  1    4    4    0    0 0.30250901E+02 -.88997838E+02 -.72406633E+02 0.11865270E+03 0.10565837E+00 0.0000E+00 0.9000E+01
       23  1    3    3    0    0 0.23742742E+02 0.31227820E+03 -.10803558E+03 0.34361072E+03 0.91188000E+02 0.0000E+00 0.9000E+01
#aMCatNLO 1  0  0  2  1 0.23512812D+02 0.00000000D+00  -5  7  0 0.00000000D+00 0.00000000D+00 0.00000000D+00 0.00000000D+00 0.00000000D+00
  <mgrwgt>
 0.9104479690D-06    1    2    0
 0.548113127083629D+03 0.000000000000000D+00 0.000000000000000D+00 0.548113127083629D+03
 0.548113127083629D+03 0.000000000000000D+00 0.000000000000000D+00 -.548113127083629D+03
 0.220377572843643D+03 -.615368836213638D+02 0.179185840024038D+03 -.660050752405134D+02
 0.416484052567124D+03 0.754321119253909D+01 -.402466605251116D+03 -.106877021221973D+03
 0.944564727606547D+02 0.302509303519240D+02 -.889974302672425D+02 0.929321607704458D+01
 0.364908155995836D+03 0.237427420769007D+02 0.312278195494320D+03 0.163588880385442D+03
 0.000000000000000D+00 -.000000000000000D+00 0.000000000000000D+00 -.000000000000000D+00
 0.559512368887603D+03 0.000000000000000D+00 0.000000000000000D+00 0.559512368887603D+03
 0.563887444871131D+03 0.000000000000000D+00 0.000000000000000D+00 -.563887444871131D+03
 0.216657246878331D+03 -.573080274674145D+02 0.176023382853489D+03 -.660050752405134D+02
 0.422577160145628D+03 0.156621733731217D+02 -.408538192751537D+03 -.106877021221973D+03
 0.963577615624641D+02 0.320972957046704D+02 -.903781940333009D+02 0.929321607704458D+01
 0.360954212503682D+03 0.307663644644764D+02 0.307025733794465D+03 0.163588880385442D+03
 0.268534326686294D+02 -.212178060748539D+02 0.158672701368842D+02 -.437507598352834D+01
0.926991611562D-07 0.000000000000D+00 0.000000000000D+00 0.918090332242D-06 0.000000000000D+00  7 -1 1 23 -13 13 23 21 2 0.37587527D-01 0.18917770D+00 0.26676257D+06 0.26676257D+06 0.26676257D+06 0.10883451D+01  1  2 14  2  7  2        1 0.910447968952D-06 0.100000000000D+01
  </mgrwgt>
  </event>
  <event>
  8     66 0.27414828E-05 0.33404872E+03 0.75467711E-02 0.93616344E-01
       -1 -1    0    0    0  501 0.00000000E+00 0.00000000E+00 0.41362341E+03 0.41362353E+03 0.32000000E+00 0.0000E+00 0.9000E+01
        1 -1    0    0  501    0 0.00000000E+00 0.00000000E+00 -.31067392E+03 0.31067408E+03 0.32000000E+00 0.0000E+00 0.9000E+01
       25  2    1    2    0    0 0.13822523E+03 -.23140596E+03 -.38477486E+02 0.40507067E+03 0.29991132E+03 0.0000E+00 0.0000E+00
       23  2    1    2    0    0 -.13822523E+03 0.23140596E+03 0.14142698E+03 0.31922694E+03 0.96173380E+02 0.0000E+00 0.0000E+00
       23  1    3    3    0    0 -.37226707E+02 -.12076486E+03 0.47202009E+02 0.16282893E+03 0.91188000E+02 0.0000E+00 0.9000E+01
      -11  1    4    4    0    0 -.18176707E+02 -.64137214E+01 0.14576295E+02 0.24166027E+02 0.51099893E-03 0.0000E+00 0.9000E+01
       11  1    4    4    0    0 -.12004852E+03 0.23781968E+03 0.12685068E+03 0.29506091E+03 0.51099893E-03 0.0000E+00 0.9000E+01
       23  1    3    3    0    0 0.17545194E+03 -.11064110E+03 -.85679494E+02 0.24224174E+03 0.91188000E+02 0.0000E+00 0.9000E+01
#aMCatNLO 1  0  0  2  1 0.35323383D+03 0.00000000D+00  -5  7  0 0.00000000D+00 0.00000000D+00 0.00000000D+00 0.00000000D+00 0.00000000D+00
  <mgrwgt>
 0.2848368967D-03    3    2    0
 0.358471907677327D+03 0.000000000000000D+00 0.000000000000000D+00 0.358471907677327D+03
 0.358471907677327D+03 0.000000000000000D+00 0.000000000000000D+00 -.358471907677327D+03
 0.157721118094431D+03 -.372267071122917D+02 -.120764856942417D+03 0.243047599085133D+02
 0.223208200138082D+02 -.181767074150164D+02 -.641372137188360D+01 0.112556870870486D+02
 0.279872283609790D+03 -.120048523059285D+03 0.237819679315919D+03 0.857825586836656D+02
 0.257029593636626D+03 0.175451937586593D+03 -.110641101001618D+03 -.121343005679228D+03
 0.000000000000000D+00 0.000000000000000D+00 -.000000000000000D+00 0.000000000000000D+00
 0.140834893476614D+04 0.000000000000000D+00 0.000000000000000D+00 0.140834893476614D+04
 0.430542957412535D+03 0.000000000000000D+00 0.000000000000000D+00 -.430542957412535D+03
 0.159754855264095D+03 -.998902723915583D+02 -.814713112928818D+02 0.243047599085133D+02
 0.307914539392579D+02 -.286600344232927D+02 0.159908560006186D+00 0.112556870870486D+02
 0.424355855094005D+03 -.259049422794542D+03 0.324980985486939D+03 0.857825586836656D+02
 0.184336580690733D+03 0.883348629165394D+02 -.560138429586674D+02 -.121343005679228D+03
 0.103965314719058D+04 0.299264866692854D+03 -.187655739795396D+03 0.977805977353603D+03
0.106574139365D-04 0.000000000000D+00 0.000000000000D+00 0.517692540656D-07 0.000000000000D+00  7 -1 1 23 -11 11 23 21 0 0.63634393D-01 0.47796009D-01 0.11158855D+06 0.11158855D+06 0.11158855D+06 0.11178351D+01  1  2  2  2  7  2        1 0.282682529903D-03 0.100000000000D+01
-.588494119820D-06 0.000000000000D+00 -.409272756778D-07 0.517692540656D-07 0.000000000000D+00  7 -1 1 23 -11 11 23 21 2 0.63634393D-01 0.47796009D-01 0.11158855D+06 0.11158855D+06 0.11158855D+06 0.11178351D+01  1  2  3  2  7  2        1 -.195049466848D-04 0.100000000000D+01
0.653494667235D-06 0.000000000000D+00 0.000000000000D+00 0.517692540656D-07 0.000000000000D+00  7 -1 1 23 -11 11 23 21 2 0.63634393D-01 0.47796009D-01 0.11158855D+06 0.11158855D+06 0.11158855D+06 0.11178351D+01  1  2 15  2  7  2        1 0.216593135155D-04 0.100000000000D+01
  </mgrwgt>
  </event>
  <event>
  9     66 0.27414828E-05 0.25289985E+03 0.75467711E-02 0.10278373E+00
       -1 -1    0    0    0  502 0.00000000E+00 0.00000000E+00 0.90708970E+02 0.90709534E+02 0.32000000E+00 0.0000E+00 0.9000E+01
        1 -1    0    0  501    0 0.00000000E+00 0.00000000E+00 -.10240838E+04 0.10240838E+04 0.32000000E+00 0.0000E+00 0.9000E+01
       25  2    1    2    0    0 -.28669408E+02 -.18023819E+03 -.62897766E+03 0.72046176E+03 0.30024075E+03 0.0000E+00 0.0000E+00
       23  2    1    2    0    0 0.26856992E+02 0.19090768E+03 -.20784815E+03 0.29717506E+03 0.89135419E+02 0.0000E+00 0.0000E+00
       23  1    3    3    0    0 0.18137645E+02 -.69912971E+01 -.46514294E+02 0.10419541E+03 0.91188000E+02 0.0000E+00 0.9000E+01
      -11  1    4    4    0    0 0.32917123E+02 0.17407980E+02 -.23933006E+02 0.44264698E+02 0.51099893E-03 0.0000E+00 0.9000E+01
       11  1    4    4    0    0 -.60601311E+01 0.17349970E+03 -.18391515E+03 0.25291036E+03 0.51099893E-03 0.0000E+00 0.9000E+01
       23  1    3    3    0    0 -.46807053E+02 -.17324690E+03 -.58246337E+03 0.61626635E+03 0.91188000E+02 0.0000E+00 0.9000E+01
       21  1    1    2  501  502 0.18124160E+01 -.10669484E+02 -.96549018E+02 0.97156565E+02 0.75000000E+00 0.0000E+00 0.9000E+01
#aMCatNLO 2  0  0  1  1 0.10822326D+02 0.00000000D+00  -5  7  0 0.00000000D+00 0.00000000D+00 0.00000000D+00 0.00000000D+00 0.00000000D+00
  <mgrwgt>
 0.1565867732D-04    4    2    0
 0.289478035684214D+03 0.000000000000000D+00 0.000000000000000D+00 0.289478035684214D+03
 0.289478035684214D+03 0.000000000000000D+00 0.000000000000000D+00 -.289478035684214D+03
 0.116098945329186D+03 0.185007373183700D+02 -.912878144741023D+01 0.688338712445508D+02
 0.429938582509030D+02 0.330520321265360D+02 0.166137858918442D+02 0.219092934150130D+02
 0.175494869117004D+03 -.550580914641625D+01 0.170236469151825D+03 0.422809617056799D+02
 0.244368398671336D+03 -.460469602984897D+02 -.177721473596259D+03 -.133024126365244D+03
 0.000000000000000D+00 0.000000000000000D+00 -.000000000000000D+00 -.000000000000000D+00
 0.290496965969589D+03 0.000000000000000D+00 0.000000000000000D+00 0.290496965969589D+03
 0.319766011875696D+03 0.000000000000000D+00 0.000000000000000D+00 -.319766011875696D+03
 0.115893078163867D+03 0.181376447228149D+02 -.699129713957275D+01 0.688338712445508D+02
 0.432040727162598D+02 0.329171230464086D+02 0.174079801147154D+02 0.219092934150130D+02
 0.178680022474454D+03 -.606013113875069D+01 0.173499698902608D+03 0.422809617056799D+02
 0.241280039119713D+03 -.468070526031722D+02 -.173246897706648D+03 -.133024126365244D+03
 0.312057653709908D+02 0.181241597269942D+01 -.106694841711025D+02 -.292690459061075D+02
-.917758274073D-10 0.000000000000D+00 0.000000000000D+00 0.722266464750D-07 0.000000000000D+00  7 -1 1 23 -11 11 23 21 2 0.13906110D-01 0.14262606D+00 0.63958337D+05 0.63958337D+05 0.63958337D+05 0.11380072D+01  1  2  8  1  7  1       -1 -.860670840301D-08 0.100000000000D+01
-.860908253116D-10 0.000000000000D+00 0.000000000000D+00 0.722266464750D-07 0.000000000000D+00  7 -1 1 23 -11 11 23 21 2 0.15633633D-01 0.14262606D+00 0.63958337D+05 0.63958337D+05 0.63958337D+05 0.11380072D+01  1  2  9  1  7  1       -1 -.672500856522D-08 0.100000000000D+01
0.855039600183D-10 0.000000000000D+00 0.000000000000D+00 0.722266464750D-07 0.000000000000D+00  7 -1 1 23 -11 11 23 21 2 0.13906110D-01 0.14262606D+00 0.63958337D+05 0.63958337D+05 0.63958337D+05 0.11380072D+01  1  2 10  1  7  1       -1 0.801853464000D-08 0.100000000000D+01
0.199558219422D-06 0.000000000000D+00 0.000000000000D+00 0.722266464750D-07 0.427095781418D-08  7 -1 1 23 -11 11 23 21 2 0.13955058D-01 0.15754897D+00 0.66615293D+05 0.66615293D+05 0.66615293D+05 0.11364939D+01  1  2  1  1  7  1       -1 0.156659905003D-04 0.100000000000D+01
  </mgrwgt>
  </event>
  <event>
  8     66 0.27414828E-05 0.30003686E+03 0.75467711E-02 0.10080256E+00
       -1 -1    0    0    0  501 0.00000000E+00 0.00000000E+00 0.36335209E+03 0.36335223E+03 0.32000000E+00 0.0000E+00 0.9000E+01
        1 -1    0    0  501    0 0.00000000E+00 0.00000000E+00 -.34609931E+03 0.34609946E+03 0.32000000E+00 0.0000E+00 0.9000E+01
       25  2    1    2    0    0 0.10725843E+03 0.18936132E+03 0.19116527E+03 0.41610205E+03 0.29872173E+03 0.0000E+00 0.0000E+00
       23  2    1    2    0    0 -.10725843E+03 -.18936132E+03 -.17391250E+03 0.29334964E+03 0.91904159E+02 0.0000E+00 0.0000E+00
       23  1    3    3    0    0 0.11443327E+03 0.22671226E+03 0.15296467E+03 0.31017231E+03 0.91188000E+02 0.0000E+00 0.9000E+01
      -11  1    4    4    0    0 -.45719486E+02 -.15361283E+03 -.14632443E+03 0.21702076E+03 0.51099893E-03 0.0000E+00 0.9000E+01
       11  1    4    4    0    0 -.61538943E+02 -.35748493E+02 -.27588066E+02 0.76328878E+02 0.51099893E-03 0.0000E+00 0.9000E+01
       23  1    3    3    0    0 -.71748395E+01 -.37350944E+02 0.38200606E+02 0.10592974E+03 0.91188000E+02 0.0000E+00 0.9000E+01
#aMCatNLO 1  0  0  1  1 0.10822326D+02 0.00000000D+00  -5  7  0 0.00000000D+00 0.00000000D+00 0.00000000D+00 0.00000000D+00 0.00000000D+00
  <mgrwgt>
 0.1157960357D-05    1    2    0
 0.354620937671719D+03 0.000000000000000D+00 0.000000000000000D+00 0.354620937671719D+03
 0.354620937671719D+03 0.000000000000000D+00 0.000000000000000D+00 -.354620937671719D+03
 0.306543102944053D+03 0.114433268379485D+03 0.226712262698440D+03 0.145464771160274D+03
 0.220644398937182D+03 -.457194861461390D+02 -.153612825999359D+03 -.151646889375859D+03
 0.770225558304335D+02 -.615389427574621D+02 -.357484929191694D+02 -.294529775227251D+02
 0.105031817631770D+03 -.717483947588435D+01 -.373509437799116D+02 0.356350957383105D+02
 0.000000000000000D+00 -.000000000000000D+00 0.000000000000000D+00 -.000000000000000D+00
 0.250977791197281D+04 0.000000000000000D+00 0.000000000000000D+00 0.250977791197281D+04
 0.386533575128981D+04 0.000000000000000D+00 0.000000000000000D+00 -.386533575128981D+04
 0.770163036481262D+03 0.561490758331580D+03 -.498401424634354D+03 0.145464771160274D+03
 0.141071422922499D+04 0.631634405331752D+03 -.125226029062719D+04 -.151646889375859D+03
 0.326902830318732D+03 0.106174291752521D+03 -.307774271758206D+03 -.294529775227251D+02
 0.575110914063144D+03 0.275226171632848D+03 -.495396817239061D+03 0.356350957383105D+02
 0.329222265317449D+04 -.157452562704870D+04 0.255383280425881D+04 -.135555783931700D+04
0.311075968997D-07 0.000000000000D+00 0.000000000000D+00 0.768134905879D-07 0.000000000000D+00  7 -1 1 23 -11 11 23 21 2 0.55900343D-01 0.53246070D-01 0.90022120D+05 0.90022120D+05 0.90022120D+05 0.11254876D+01  1  2 14  1  7  1       -1 0.115796035685D-05 0.100000000000D+01
  </mgrwgt>
  </event>
  <event>
  8     66 0.27414828E-05 0.28421359E+03 0.75467711E-02 0.97299474E-01
       -1 -1    0    0    0  501 0.00000000E+00 0.00000000E+00 0.30157266E+03 0.30157283E+03 0.32000000E+00 0.0000E+00 0.9000E+01
        1 -1    0    0  501    0 0.00000000E+00 0.00000000E+00 -.21736013E+04 0.21736013E+04 0.32000000E+00 0.0000E+00 0.9000E+01
       25  2    1    2    0    0 -.57899026E+02 -.22806403E+03 -.20994755E+04 0.21338438E+04 0.30021070E+03 0.0000E+00 0.0000E+00
       23  2    1    2    0    0 0.57899026E+02 0.22806403E+03 0.22744692E+03 0.34133030E+03 0.96998837E+02 0.0000E+00 0.0000E+00
       23  1    3    3    0    0 0.33727582E+02 -.40660066E+02 -.26327981E+03 0.28358826E+03 0.91188000E+02 0.0000E+00 0.9000E+01
      -11  1    4    4    0    0 0.93680096E+01 0.28618828E+02 0.88439666E+02 0.93425754E+02 0.51099893E-03 0.0000E+00 0.9000E+01
       11  1    4    4    0    0 0.48531017E+02 0.19944520E+03 0.13900725E+03 0.24790455E+03 0.51099893E-03 0.0000E+00 0.9000E+01
       23  1    3    3    0    0 -.91626608E+02 -.18740396E+03 -.18361957E+04 0.18502556E+04 0.91188000E+02 0.0000E+00 0.9000E+01
#aMCatNLO 1  0  0  1  2 0.20602393D+03 0.00000000D+00  -5  7  0 0.00000000D+00 0.00000000D+00 0.00000000D+00 0.00000000D+00 0.00000000D+00
  <mgrwgt>
 0.2132874083D-03    4    2    0
 0.809628897508899D+03 0.000000000000000D+00 0.000000000000000D+00 0.809628897508899D+03
 0.809628897508899D+03 0.000000000000000D+00 0.000000000000000D+00 -.809628897508899D+03
 0.129110374955506D+03 0.337275815916036D+02 -.406600659142380D+02 -.745885169244093D+02
 0.245054612736319D+03 0.936800962776293D+01 0.286188281427139D+02 0.243197381348359D+03
 0.539649999101050D+03 0.485310166225842D+02 0.199445202231853D+03 0.499087640862841D+03
 0.705442808224923D+03 -.916266078419508D+02 -.187403964460329D+03 -.667696505286791D+03
 0.000000000000000D+00 0.000000000000000D+00 0.000000000000000D+00 -.000000000000000D+00
 0.871250920305735D+03 0.000000000000000D+00 0.000000000000000D+00 0.871250920305735D+03
 0.100875876692089D+04 0.000000000000000D+00 0.000000000000000D+00 -.100875876692089D+04
 0.130005864991135D+03 0.208674465072256D+02 -.508662600097396D+02 -.745885169244093D+02
 0.243832945157601D+03 -.148958498543065D+02 0.936229174125695D+01 0.243197381348359D+03
 0.523388795093896D+03 -.422840322735055D+01 0.157573722980549D+03 0.499087640862841D+03
 0.735084149481658D+03 -.163121050925138D+03 -.244144127613296D+03 -.667696505286791D+03
 0.247697932502339D+03 0.161377857499570D+03 0.128074372901230D+03 -.137507846615160D+03
0.170290375084D-03 0.000000000000D+00 0.000000000000D+00 0.270138518830D-06 0.000000000000D+00  7 -1 1 23 -11 11 23 21 0 0.46395809D-01 0.33440021D+00 0.80777365D+05 0.80777365D+05 0.80777365D+05 0.11294103D+01  1  2  2  1  7  1       -1 0.243617253467D-03 0.100000000000D+01
0.314515294365D-05 0.000000000000D+00 -.653959878808D-06 0.270138518830D-06 0.000000000000D+00  7 -1 1 23 -11 11 23 21 2 0.46395809D-01 0.33440021D+00 0.80777365D+05 0.80777365D+05 0.80777365D+05 0.11294103D+01  1  2  3  1  7  1       -1 0.573935678825D-05 0.100000000000D+01
0.102777435862D-04 0.000000000000D+00 0.000000000000D+00 0.270138518830D-06 0.000000000000D+00  7 -1 1 23 -11 11 23 21 2 0.46395809D-01 0.33440021D+00 0.80777365D+05 0.80777365D+05 0.80777365D+05 0.11294103D+01  1  2 15  1  7  1       -1 0.187550934649D-04 0.100000000000D+01
-.300435746766D-04 0.000000000000D+00 0.000000000000D+00 0.270138518830D-06 0.000000000000D+00  7 -1 1 23 -11 11 23 21 2 0.46395809D-01 0.33440021D+00 0.80777365D+05 0.80777365D+05 0.80777365D+05 0.11294103D+01  1  2  4  1  7  1       -1 -.548242954643D-04 0.100000000000D+01
  </mgrwgt>
  </event>
  <event>
  8     66 0.27414828E-05 0.19918766E+03 0.75467711E-02 0.98596535E-01
       -1 -1    0    0    0  501 0.00000000E+00 0.00000000E+00 0.14757691E+03 0.14757726E+03 0.32000000E+00 0.0000E+00 0.9000E+01
        1 -1    0    0  501    0 0.00000000E+00 0.00000000E+00 -.87850853E+03 0.87850859E+03 0.32000000E+00 0.0000E+00 0.9000E+01
       25  2    1    2    0    0 0.14613209E+02 0.28898492E+03 -.41094964E+03 0.58541161E+03 0.30016880E+03 0.0000E+00 0.0000E+00
       23  2    1    2    0    0 -.14613209E+02 -.28898492E+03 -.31998198E+03 0.44067425E+03 0.89886012E+02 0.0000E+00 0.0000E+00
       23  1    3    3    0    0 0.58266713E+02 0.13703505E+03 -.35316587E+03 0.39397334E+03 0.91188000E+02 0.0000E+00 0.9000E+01
      -11  1    4    4    0    0 -.16157341E+02 -.28250158E+03 -.27288710E+03 0.39311013E+03 0.51099893E-03 0.0000E+00 0.9000E+01
       11  1    4    4    0    0 0.15441318E+01 -.64833393E+01 -.47094873E+02 0.47564116E+02 0.51099893E-03 0.0000E+00 0.9000E+01
       23  1    3    3    0    0 -.43653504E+02 0.15194987E+03 -.57783774E+02 0.19143826E+03 0.91188000E+02 0.0000E+00 0.9000E+01
#aMCatNLO 1  0  0  1  2 0.65821488D+02 0.00000000D+00  -5  7  0 0.00000000D+00 0.00000000D+00 0.00000000D+00 0.00000000D+00 0.00000000D+00
  <mgrwgt>
 0.2758860295D-03    9    2    0
 0.360066361971830D+03 0.000000000000000D+00 0.000000000000000D+00 0.360066361971830D+03
 0.360066361971830D+03 0.000000000000000D+00 0.000000000000000D+00 -.360066361971830D+03
 0.202893672530808D+03 0.582667127075799D+02 0.137035045575329D+03 -.103329460868905D+03
 0.283146316453250D+03 -.161573406500006D+02 -.282501579330378D+03 0.101801051077957D+02
 0.199709496021691D+02 0.154413181844580D+01 -.648333934090517D+01 -.188260669267458D+02
 0.214121785357433D+03 -.436535038760251D+02 0.151949873095954D+03 0.111975422687856D+03
 0.000000000000000D+00 0.000000000000000D+00 0.000000000000000D+00 0.000000000000000D+00
 0.436281782644100D+03 0.000000000000000D+00 0.000000000000000D+00 0.436281782644100D+03
 0.376064031459545D+03 0.000000000000000D+00 0.000000000000000D+00 -.376064031459545D+03
 0.195629568749922D+03 0.405967417580476D+02 0.132780284306264D+03 -.103329460868905D+03
 0.291807102789501D+03 -.416499823908047D+02 -.288639965467782D+03 0.101801051077957D+02
 0.200557079787676D+02 -.230594981399248D+00 -.691067670737396D+01 -.188260669267458D+02
 0.215642191886523D+03 -.627086459767760D+02 0.147361575762678D+03 0.111975422687856D+03
 0.892112426989316D+02 0.639924815909323D+02 0.154087821062145D+02 0.602177511845558D+02
0.602187326387D-05 0.000000000000D+00 0.000000000000D+00 0.466357162907D-06 0.000000000000D+00  7 -1 1 23 -11 11 23 21 0 0.22704172D-01 0.13515519D+00 0.10457069D+06 0.10457069D+06 0.10457069D+06 0.11201327D+01  1  2  2  1  7  1       -1 0.217655008923D-03 0.100000000000D+01
-.329849701107D-06 0.000000000000D+00 -.231255789289D-07 0.466357162907D-06 0.000000000000D+00  7 -1 1 23 -11 11 23 21 2 0.22704172D-01 0.13515519D+00 0.10457069D+06 0.10457069D+06 0.10457069D+06 0.11201327D+01  1  2  3  1  7  1       -1 -.149586397543D-04 0.100000000000D+01
0.379621298954D-06 0.000000000000D+00 0.000000000000D+00 0.466357162907D-06 0.000000000000D+00  7 -1 1 23 -11 11 23 21 2 0.22704172D-01 0.13515519D+00 0.10457069D+06 0.10457069D+06 0.10457069D+06 0.11201327D+01  1  2 15  1  7  1       -1 0.172157750486D-04 0.100000000000D+01
0.112716280342D-04 0.000000000000D+00 0.000000000000D+00 0.466357162907D-06 0.000000000000D+00  7 -1 1 23 -11 11 23 21 2 0.27938806D-01 0.13515519D+00 0.12772420D+06 0.12772420D+06 0.12772420D+06 0.11131040D+01  1  2 12  1  7  1       -1 0.357874214663D-03 0.100000000000D+01
-.115303612764D-04 0.000000000000D+00 0.000000000000D+00 0.466357162907D-06 0.000000000000D+00  7 -1 1 23 -11 11 23 21 2 0.22704172D-01 0.13515519D+00 0.10457069D+06 0.10457069D+06 0.10457069D+06 0.11201327D+01  1  2  4  1  7  1       -1 -.522900339129D-03 0.100000000000D+01
-.185399365007D-04 0.000000000000D+00 -.393016671067D-05 0.466357162907D-06 0.000000000000D+00  7 -1 1 23 -11 11 23 21 2 0.28591061D-01 0.13515519D+00 0.10457069D+06 0.10457069D+06 0.10457069D+06 0.11201327D+01  1  2  5  1  7  1       -1 -.576061066551D-03 0.100000000000D+01
0.190399574161D-04 0.000000000000D+00 0.382798434699D-05 0.466357162907D-06 0.000000000000D+00  7 -1 1 23 -11 11 23 21 2 0.22704172D-01 0.13515519D+00 0.10457069D+06 0.10457069D+06 0.10457069D+06 0.11201327D+01  1  2  6  1  7  1       -1 0.863459517981D-03 0.100000000000D+01
0.331724137636D-06 0.000000000000D+00 0.000000000000D+00 0.466357162907D-06 0.000000000000D+00  7 21 1 23 -11 11 23 1 2 0.27938806D-01 0.13515519D+00 0.12772420D+06 0.12772420D+06 0.12772420D+06 0.11131040D+01  1  2 12  3  7  1       -1 0.116258093167D-03 0.100000000000D+01
-.533222203802D-06 0.000000000000D+00 -.125244960731D-06 0.466357162907D-06 0.000000000000D+00  7 21 1 23 -11 11 23 1 2 0.28591061D-01 0.13515519D+00 0.10457069D+06 0.10457069D+06 0.10457069D+06 0.11201327D+01  1  2  5  3  7  1       -1 -.182656534836D-03 0.100000000000D+01
  </mgrwgt>
  </event>
  <event>
  8     66 0.27414828E-05 0.11214285E+03 0.75467711E-02 0.10217128E+00
       -1 -1    0    0    0  501 0.00000000E+00 0.00000000E+00 0.10928837E+03 0.10928884E+03 0.32000000E+00 0.0000E+00 0.9000E+01
        1 -1    0    0  501    0 0.00000000E+00 0.00000000E+00 -.45028617E+03 0.45028628E+03 0.32000000E+00 0.0000E+00 0.9000E+01
       25  2    1    2    0    0 -.55590727E+02 -.16665555E+02 -.30746158E+03 0.43451464E+03 0.30150005E+03 0.0000E+00 0.0000E+00
       23  2    1    2    0    0 0.55590727E+02 0.16665555E+02 -.33536213E+02 0.12506047E+03 0.10558113E+03 0.0000E+00 0.0000E+00
       23  1    3    3    0    0 0.49454015E+02 0.48601718E+02 -.31743800E+02 0.11887282E+03 0.91188000E+02 0.0000E+00 0.9000E+01
      -13  1    4    4    0    0 0.46196147E+01 -.42210825E+02 -.14748472E+02 0.44951342E+02 0.10565837E+00 0.0000E+00 0.9000E+01
       13  1    4    4    0    0 0.50971113E+02 0.58876380E+02 -.18787741E+02 0.80109131E+02 0.10565837E+00 0.0000E+00 0.9000E+01
       23  1    3    3    0    0 -.10504474E+03 -.65267273E+02 -.27571778E+03 0.31564183E+03 0.91188000E+02 0.0000E+00 0.9000E+01
#aMCatNLO 1  0  0  1  2 0.12934884D+03 0.00000000D+00  -5  7  0 0.00000000D+00 0.00000000D+00 0.00000000D+00 0.00000000D+00 0.00000000D+00
  <mgrwgt>
 0.1155902439D-03    9    2    0
 0.221835983223532D+03 0.000000000000000D+00 0.000000000000000D+00 0.221835983223532D+03
 0.221835983223532D+03 0.000000000000000D+00 0.000000000000000D+00 -.221835983223532D+03
 0.125525217409207D+03 0.494498226182558D+02 0.486004614602999D+02 0.513228901222220D+02
 0.453530791639305D+02 0.462531691867041D+01 -.422026716020983D+02 0.159512614766687D+02
 0.865986523337387D+02 0.509758202364620D+02 0.588713474649024D+02 0.378808234454636D+02
 0.186195017540188D+03 -.105050959773388D+03 -.652691373231040D+02 -.105154975044354D+03
 0.000000000000000D+00 0.000000000000000D+00 -.000000000000000D+00 0.000000000000000D+00
 0.369990626023017D+03 0.000000000000000D+00 0.000000000000000D+00 0.369990626023017D+03
 0.261180825165077D+03 0.000000000000000D+00 0.000000000000000D+00 -.261180825165077D+03
 0.118505974175420D+03 0.149598649736678D+02 0.535777748766895D+02 0.513228901222220D+02
 0.441491715043857D+02 -.802441369404520D+01 -.403771641734957D+02 0.159512614766687D+02
 0.779461970341926D+02 0.277200026154306D+02 0.622274401063334D+02 0.378808234454636D+02
 0.221541424314681D+03 -.162678070957053D+03 -.569528559116296D+02 -.105154975044354D+03
 0.169028684159415D+03 0.128022617062000D+03 -.184751948978976D+02 0.108809800857940D+03
0.854629847990D-06 0.000000000000D+00 0.000000000000D+00 0.198728264453D-09 0.000000000000D+00  7 -1 1 23 -13 13 23 21 0 0.16813640D-01 0.69274840D-01 0.37741195D+05 0.37741195D+05 0.37741195D+05 0.11581976D+01  1  2  2  1  7  1       -1 0.132627063114D-03 0.100000000000D+01
-.464631223513D-07 0.000000000000D+00 -.328200364549D-08 0.198728264453D-09 0.000000000000D+00  7 -1 1 23 -13 13 23 21 2 0.16813640D-01 0.69274840D-01 0.37741195D+05 0.37741195D+05 0.37741195D+05 0.11581976D+01  1  2  3  1  7  1       -1 -.967225632031D-05 0.100000000000D+01
0.539121537642D-07 0.000000000000D+00 0.000000000000D+00 0.198728264453D-09 0.000000000000D+00  7 -1 1 23 -13 13 23 21 2 0.16813640D-01 0.69274840D-01 0.37741195D+05 0.37741195D+05 0.37741195D+05 0.11581976D+01  1  2 15  1  7  1       -1 0.112229257011D-04 0.100000000000D+01
0.153720242688D-06 0.000000000000D+00 0.000000000000D+00 0.198728264453D-09 0.000000000000D+00  7 -1 1 23 -13 13 23 21 2 0.28706714D-01 0.69274840D-01 0.73021229D+05 0.73021229D+05 0.73021229D+05 0.11331029D+01  1  2 12  1  7  1       -1 0.129852526551D-04 0.100000000000D+01
-.553687281216D-06 0.000000000000D+00 0.000000000000D+00 0.198728264453D-09 0.000000000000D+00  7 -1 1 23 -13 13 23 21 2 0.16813640D-01 0.69274840D-01 0.37741195D+05 0.37741195D+05 0.37741195D+05 0.11581976D+01  1  2  4  1  7  1       -1 -.115261416672D-03 0.100000000000D+01
-.508227860496D-06 0.000000000000D+00 -.285497369918D-06 0.198728264453D-09 0.000000000000D+00  7 -1 1 23 -13 13 23 21 2 0.32534935D-01 0.69274840D-01 0.37741195D+05 0.37741195D+05 0.37741195D+05 0.11581976D+01  1  2  5  1  7  1       -1 -.365929568357D-04 0.100000000000D+01
0.611221805064D-06 0.000000000000D+00 0.232886127963D-06 0.198728264453D-09 0.000000000000D+00  7 -1 1 23 -13 13 23 21 2 0.16813640D-01 0.69274840D-01 0.37741195D+05 0.37741195D+05 0.37741195D+05 0.11581976D+01  1  2  6  1  7  1       -1 0.127238413347D-03 0.100000000000D+01
0.915223307053D-08 0.000000000000D+00 0.000000000000D+00 0.198728264453D-09 0.000000000000D+00  7 21 1 23 -13 13 23 1 2 0.28706714D-01 0.69274840D-01 0.73021229D+05 0.73021229D+05 0.73021229D+05 0.11331029D+01  1  2 12  3  7  1       -1 0.859551988223D-05 0.100000000000D+01
-.197566622116D-07 0.000000000000D+00 -.204376397999D-07 0.198728264453D-09 0.000000000000D+00  7 21 1 23 -13 13 23 1 2 0.32534935D-01 0.69274840D-01 0.37741195D+05 0.37741195D+05 0.37741195D+05 0.11581976D+01  1  2  5  3  7  1       -1 -.155523009513D-04 0.100000000000D+01
  </mgrwgt>
  </event>
  <event>
  8     66 0.27414828E-05 0.30404627E+03 0.75467711E-02 0.99084958E-01
       -1 -1    0    0    0  501 0.00000000E+00 0.00000000E+00 0.57896246E+03 0.57896255E+03 0.32000000E+00 0.0000E+00 0.9000E+01
        1 -1    0    0  501    0 0.00000000E+00 0.00000000E+00 -.18139584E+03 0.18139612E+03 0.32000000E+00 0.0000E+00 0.9000E+01
       25  2    1    2    0    0 -.23288182E+03 0.60258465E+01 0.32365078E+03 0.49938971E+03 0.30061603E+03 0.0000E+00 0.0000E+00
       23  2    1    2    0    0 0.23288182E+03 -.60258465E+01 0.73915834E+02 0.26096896E+03 0.91493142E+02 0.0000E+00 0.0000E+00
       23  1    3    3    0    0 -.17758256E+03 -.96775365E+02 0.13560294E+03 0.26000855E+03 0.91188000E+02 0.0000E+00 0.9000E+01
      -13  1    4    4    0    0 0.70227477E+01 -.10006201E+02 0.27864719E+02 0.30428552E+02 0.10565837E+00 0.0000E+00 0.9000E+01
       13  1    4    4    0    0 0.22585907E+03 0.39803547E+01 0.46051115E+02 0.23054041E+03 0.10565837E+00 0.0000E+00 0.9000E+01
       23  1    3    3    0    0 -.55299265E+02 0.10280121E+03 0.18804784E+03 0.23938116E+03 0.91188000E+02 0.0000E+00 0.9000E+01
#aMCatNLO 1  0  0  1  2 0.76255088D+02 0.00000000D+00  -5  7  0 0.00000000D+00 0.00000000D+00 0.00000000D+00 0.00000000D+00 0.00000000D+00
  <mgrwgt>
 0.1565802765D-03    4    2    0
 0.324070244108308D+03 0.000000000000000D+00 0.000000000000000D+00 0.324070244108308D+03
 0.324070244108308D+03 0.000000000000000D+00 0.000000000000000D+00 -.324070244108308D+03
 0.221847814356274D+03 -.177582556444480D+03 -.967753652583963D+02 -.407082796040804D+00
 0.186045123269030D+02 0.702245612466135D+01 -.100062196301509D+02 0.140245697835005D+02
 0.242208610537777D+03 0.225859365540139D+03 0.398037309501620D+01 -.873882981094784D+02
 0.165479550995663D+03 -.552992652203203D+02 0.102801211793531D+03 0.737708111220188D+02
 0.000000000000000D+00 0.000000000000000D+00 0.000000000000000D+00 -.000000000000000D+00
 0.343451073039848D+03 0.000000000000000D+00 0.000000000000000D+00 0.343451073039848D+03
 0.411091369410069D+03 0.000000000000000D+00 0.000000000000000D+00 -.411091369410069D+03
 0.246480256526961D+03 -.204134226954243D+03 -.103760865373161D+03 -.407082796040804D+00
 0.182333466191812D+02 0.493394861500701D+01 -.105556867321554D+02 0.140245697835005D+02
 0.218061696853919D+03 0.199764526671642D+03 -.288493881986436D+01 -.873882981094784D+02
 0.169835557139548D+03 -.743098196194213D+02 0.977997099148511D+02 0.737708111220188D+02
 0.101931585310307D+03 0.737455712870153D+02 0.194017810103301D+02 -.676402963702210D+02
0.720735398093D-05 0.000000000000D+00 0.000000000000D+00 0.409858026366D-06 0.000000000000D+00  7 -1 1 23 -13 13 23 21 0 0.89071176D-01 0.27907081D-01 0.92444135D+05 0.92444135D+05 0.92444135D+05 0.11245328D+01  1  2  2  1  7  1       -1 0.198323071279D-03 0.100000000000D+01
-.398428125292D-06 0.000000000000D+00 -.276781370267D-07 0.409858026366D-06 0.000000000000D+00  7 -1 1 23 -13 13 23 21 2 0.89071176D-01 0.27907081D-01 0.92444135D+05 0.92444135D+05 0.92444135D+05 0.11245328D+01  1  2  3  1  7  1       -1 -.138640992114D-04 0.100000000000D+01
0.472537542623D-06 0.000000000000D+00 0.000000000000D+00 0.409858026366D-06 0.000000000000D+00  7 -1 1 23 -13 13 23 21 2 0.89071176D-01 0.27907081D-01 0.92444135D+05 0.92444135D+05 0.92444135D+05 0.11245328D+01  1  2 15  1  7  1       -1 0.164428838130D-04 0.100000000000D+01
-.127371879763D-05 0.000000000000D+00 0.000000000000D+00 0.409858026366D-06 0.000000000000D+00  7 -1 1 23 -13 13 23 21 2 0.89071176D-01 0.27907081D-01 0.92444135D+05 0.92444135D+05 0.92444135D+05 0.11245328D+01  1  2  4  1  7  1       -1 -.443215793683D-04 0.100000000000D+01
  </mgrwgt>
  </event>
  <event>
  8     66 0.27414828E-05 0.27122335E+03 0.75467711E-02 0.98745765E-01
       -1 -1    0    0    0  501 0.00000000E+00 0.00000000E+00 0.14568206E+03 0.14568242E+03 0.32000000E+00 0.0000E+00 0.9000E+01
        1 -1    0    0  501    0 0.00000000E+00 0.00000000E+00 -.11012969E+04 0.11012969E+04 0.32000000E+00 0.0000E+00 0.9000E+01
       25  2    1    2    0    0 -.14040707E+03 0.26306878E+03 -.29473100E+03 0.51637612E+03 0.30142762E+03 0.0000E+00 0.0000E+00
       23  2    1    2    0    0 0.14040707E+03 -.26306878E+03 -.66088379E+03 0.73060319E+03 0.89968397E+02 0.0000E+00 0.0000E+00
       23  1    3    3    0    0 0.13907626E+02 0.11877692E+03 -.23439547E+03 0.27849213E+03 0.91188000E+02 0.0000E+00 0.9000E+01
      -11  1    4    4    0    0 0.26652861E+02 -.20524561E+01 -.58479161E+02 0.64299299E+02 0.51099893E-03 0.0000E+00 0.9000E+01
       11  1    4    4    0    0 0.11375421E+03 -.26101633E+03 -.60240463E+03 0.66630389E+03 0.51099893E-03 0.0000E+00 0.9000E+01
       23  1    3    3    0    0 -.15431470E+03 0.14429186E+03 -.60335533E+02 0.23788399E+03 0.91188000E+02 0.0000E+00 0.9000E+01
#aMCatNLO 1  0  0  2  1 0.13845846D+02 0.00000000D+00  -5  7  0 0.00000000D+00 0.00000000D+00 0.00000000D+00 0.00000000D+00 0.00000000D+00
  <mgrwgt>
 0.3821723544D-03    9    2    0
 0.400548932101361D+03 0.000000000000000D+00 0.000000000000000D+00 0.400548932101361D+03
 0.400548932101361D+03 0.000000000000000D+00 0.000000000000000D+00 -.400548932101361D+03
 0.153891496663817D+03 0.139076255343498D+02 0.118776922738290D+03 -.326490731606272D+02
 0.303288095768707D+02 0.266528607737630D+02 -.205245607220942D+01 -.143265183138171D+02
 0.318563327799104D+03 0.113754212540979D+03 -.261016325053973D+03 -.142874248914701D+03
 0.298314230162930D+03 -.154314698849091D+03 0.144291858387892D+03 0.189849840389146D+03
 0.000000000000000D+00 0.000000000000000D+00 -.000000000000000D+00 -.000000000000000D+00
 0.405680891290223D+03 0.000000000000000D+00 0.000000000000000D+00 0.405680891290223D+03
 0.410057801668573D+03 0.000000000000000D+00 0.000000000000000D+00 -.410057801668573D+03
 0.155954380277630D+03 0.137863762777592D+02 0.121451600379161D+03 -.326490731606272D+02
 0.302770405568914D+02 0.266291444205028D+02 -.152928915497013D+01 -.143265183138171D+02
 0.314015199078011D+03 0.113506671160483D+03 -.255555727486450D+03 -.142874248914701D+03
 0.300970888315837D+03 -.154549211813468D+03 0.149465057795044D+03 0.189849840389146D+03
 0.145211847304274D+02 0.627019954722928D+00 -.138316415327851D+02 -.437691037835044D+01
0.524196607495D-05 0.000000000000D+00 0.000000000000D+00 0.956688144751D-07 0.000000000000D+00  7 -1 1 23 -11 11 23 21 0 0.22412656D-01 0.16943032D+00 0.11969953D+06 0.11969953D+06 0.11969953D+06 0.11153694D+01  1  2  2  2  7  2        1 0.130601108129D-03 0.100000000000D+01
-.283624485674D-06 0.000000000000D+00 -.201305299692D-07 0.956688144751D-07 0.000000000000D+00  7 -1 1 23 -11 11 23 21 2 0.22412656D-01 0.16943032D+00 0.11969953D+06 0.11969953D+06 0.11969953D+06 0.11153694D+01  1  2  3  2  7  2        1 -.879091047125D-05 0.100000000000D+01
0.340703518100D-06 0.000000000000D+00 0.000000000000D+00 0.956688144751D-07 0.000000000000D+00  7 -1 1 23 -11 11 23 21 2 0.22412656D-01 0.16943032D+00 0.11969953D+06 0.11969953D+06 0.11969953D+06 0.11153694D+01  1  2 15  2  7  2        1 0.105600689508D-04 0.100000000000D+01
0.762703788451D-05 0.000000000000D+00 0.000000000000D+00 0.956688144751D-07 0.000000000000D+00  7 -1 1 23 -11 11 23 21 2 0.22412656D-01 0.17451797D+00 0.12467457D+06 0.12467457D+06 0.12467457D+06 0.11139461D+01  1  2 12  2  7  2        1 0.223014085958D-03 0.100000000000D+01
-.697762934479D-05 0.000000000000D+00 0.000000000000D+00 0.956688144751D-07 0.000000000000D+00  7 -1 1 23 -11 11 23 21 2 0.22412656D-01 0.16943032D+00 0.11969953D+06 0.11969953D+06 0.11969953D+06 0.11153694D+01  1  2  4  2  7  2        1 -.216270872121D-03 0.100000000000D+01
-.140367670311D-03 0.000000000000D+00 -.191069416592D-04 0.956688144751D-07 0.000000000000D+00  7 -1 1 23 -11 11 23 21 2 0.22412656D-01 0.17486328D+00 0.11969953D+06 0.11969953D+06 0.11969953D+06 0.11153694D+01  1  2  5  2  7  2        1 -.410349373645D-02 0.100000000000D+01
0.140910056706D-03 0.000000000000D+00 0.190974284066D-04 0.956688144751D-07 0.000000000000D+00  7 -1 1 23 -11 11 23 21 2 0.22412656D-01 0.16943032D+00 0.11969953D+06 0.11969953D+06 0.11969953D+06 0.11153694D+01  1  2  6  2  7  2        1 0.436749207340D-02 0.100000000000D+01
0.173632671535D-06 0.000000000000D+00 0.000000000000D+00 0.956688144751D-07 0.000000000000D+00  7 -1 21 23 -11 11 23 -1 2 0.22412656D-01 0.17451797D+00 0.12467457D+06 0.12467457D+06 0.12467457D+06 0.11139461D+01  1  2 12  4  7  2        1 0.594642963430D-05 0.100000000000D+01
-.785877627510D-06 0.000000000000D+00 -.107907915091D-06 0.956688144751D-07 0.000000000000D+00  7 -1 21 23 -11 11 23 -1 2 0.22412656D-01 0.17486328D+00 0.11969953D+06 0.11969953D+06 0.11969953D+06 0.11153694D+01  1  2  5  4  7  2        1 -.268858926279D-04 0.100000000000D+01
  </mgrwgt>
  </event>
  <event>
  8     66 0.27414828E-05 0.31665830E+03 0.75467711E-02 0.85565116E-01
       -1 -1    0    0    0  501 0.00000000E+00 0.00000000E+00 0.68681152E+02 0.68681897E+02 0.32000000E+00 0.0000E+00 0.9000E+01
        1 -1    0    0  501    0 0.00000000E+00 0.00000000E+00 -.21151225E+04 0.21151226E+04 0.32000000E+00 0.0000E+00 0.9000E+01
       25  2    1    2    0    0 0.13183048E+03 0.24318894E+03 -.73733368E+03 0.84266333E+03 0.29983394E+03 0.0000E+00 0.0000E+00
       23  2    1    2    0    0 -.13183048E+03 -.24318894E+03 -.13091077E+04 0.13411411E+04 0.91522720E+02 0.0000E+00 0.0000E+00
       23  1    3    3    0    0 0.28620926E+02 0.14150552E+03 -.13857407E+03 0.21991133E+03 0.91188000E+02 0.0000E+00 0.9000E+01
      -13  1    4    4    0    0 -.96787394E+02 -.83348886E+02 -.57034996E+03 0.58447748E+03 0.10565837E+00 0.0000E+00 0.9000E+01
       13  1    4    4    0    0 -.35043086E+02 -.15984006E+03 -.73875775E+03 0.75666365E+03 0.10565837E+00 0.0000E+00 0.9000E+01
       23  1    3    3    0    0 0.10320955E+03 0.10168342E+03 -.59875961E+03 0.62275200E+03 0.91188000E+02 0.0000E+00 0.9000E+01
#aMCatNLO 1  0  0  2  1 0.11519554D+04 0.00000000D+00  -5  7  0 0.00000000D+00 0.00000000D+00 0.00000000D+00 0.00000000D+00 0.00000000D+00
  <mgrwgt>
 0.1102829434D-03    3    2    0
 0.381142877699429D+03 0.000000000000000D+00 0.000000000000000D+00 0.381142877699429D+03
 0.381142877699429D+03 0.000000000000000D+00 0.000000000000000D+00 -.381142877699429D+03
 0.257986759444486D+03 0.286209259109110D+02 0.141505519729255D+03 0.193388074065654D+03
 0.143249065807472D+03 -.967874758830814D+02 -.833487846345141D+02 -.648495140062345D+02
 0.184420436033171D+03 -.350430041545827D+02 -.159840159082893D+03 -.850529754379136D+02
 0.176629494113728D+03 0.103209554126753D+03 0.101683423988152D+03 -.434855846215057D+02
 0.000000000000000D+00 0.000000000000000D+00 0.000000000000000D+00 0.000000000000000D+00
 0.150796238699105D+04 0.000000000000000D+00 0.000000000000000D+00 0.150796238699105D+04
 0.109657856259098D+04 0.000000000000000D+00 0.000000000000000D+00 -.109657856259098D+04
 0.251374497360279D+03 -.618240608242072D+02 -.116844875332702D+03 0.193388074065654D+03
 0.426790583937420D+03 -.198006851858176D+03 -.372475542402469D+03 -.648495140062345D+02
 0.579666204335521D+03 -.170718431229940D+03 -.547388451701619D+03 -.850529754379136D+02
 0.123501666937625D+03 0.499166141603944D+02 -.505444947868740D+02 -.434855846215057D+02
 0.122320799701118D+04 0.380632729751929D+03 0.108725336422366D+04 0.411383824400077D+03
0.633909146014D-05 0.000000000000D+00 0.000000000000D+00 0.336450028408D-06 0.000000000000D+00  7 -1 1 23 -13 13 23 21 0 0.10566390D-01 0.32540353D+00 0.10027248D+06 0.10027248D+06 0.10027248D+06 0.11216251D+01  1  2  2  2  7  2        1 0.109072358004D-03 0.100000000000D+01
-.337461294032D-06 0.000000000000D+00 -.243437803281D-07 0.336450028408D-06 0.000000000000D+00  7 -1 1 23 -13 13 23 21 2 0.10566390D-01 0.32540353D+00 0.10027248D+06 0.10027248D+06 0.10027248D+06 0.11216251D+01  1  2  3  2  7  2        1 -.730477891220D-05 0.100000000000D+01
0.393387110839D-06 0.000000000000D+00 0.000000000000D+00 0.336450028408D-06 0.000000000000D+00  7 -1 1 23 -13 13 23 21 2 0.10566390D-01 0.32540353D+00 0.10027248D+06 0.10027248D+06 0.10027248D+06 0.11216251D+01  1  2 15  2  7  2        1 0.851536434671D-05 0.100000000000D+01
  </mgrwgt>
  </event>
  <event>
  8     66 0.27414828E-05 0.18873497E+03 0.75467711E-02 0.96750055E-01
       -1 -1    0    0    0  501 0.00000000E+00 0.00000000E+00 0.47786898E+03 0.47786909E+03 0.32000000E+00 0.0000E+00 0.9000E+01
        1 -1    0    0  501    0 0.00000000E+00 0.00000000E+00 -.17095017E+03 0.17095047E+03 0.32000000E+00 0.0000E+00 0.9000E+01
       25  2    1    2    0    0 0.54688950E+02 0.60251104E+02 -.83143372E+01 0.31074996E+03 0.29979215E+03 0.0000E+00 0.0000E+00
       23  2    1    2    0    0 -.54688950E+02 -.60251104E+02 0.31523315E+03 0.33806960E+03 0.91093551E+02 0.0000E+00 0.0000E+00
       23  1    3    3    0    0 -.68956421E+02 0.82079698E+02 0.43243180E+02 0.14723209E+03 0.91188000E+02 0.0000E+00 0.9000E+01
      -11  1    4    4    0    0 -.27655339E+01 -.51351754E+01 -.58009595E+01 0.82261374E+01 0.51099893E-03 0.0000E+00 0.9000E+01
       11  1    4    4    0    0 -.51923416E+02 -.55115929E+02 0.32103411E+03 0.32984346E+03 0.51099893E-03 0.0000E+00 0.9000E+01
       23  1    3    3    0    0 0.12364537E+03 -.21828593E+02 -.51557517E+02 0.16351787E+03 0.91188000E+02 0.0000E+00 0.9000E+01
#aMCatNLO 1  0  0  1  2 0.33757144D+03 0.00000000D+00  -5  7  0 0.00000000D+00 0.00000000D+00 0.00000000D+00 0.00000000D+00 0.00000000D+00
  <mgrwgt>
 0.2381003139D-03    3    2    0
 0.285817975444140D+03 0.000000000000000D+00 0.000000000000000D+00 0.285817975444140D+03
 0.285817975444140D+03 0.000000000000000D+00 0.000000000000000D+00 -.285817975444140D+03
 0.143893879844001D+03 -.689564209791668D+02 0.820796975644895D+02 -.299688599387031D+02
 0.124514604383313D+02 -.276553390569546D+01 -.513517539310989D+01 -.110009391847140D+02
 0.202012273807977D+03 -.519234159714827D+02 -.551159289073860D+02 0.187283613868372D+03
 0.213278336797971D+03 0.123645370856345D+03 -.218285932639936D+02 -.146313814744955D+03
 0.000000000000000D+00 0.000000000000000D+00 -.000000000000000D+00 -.000000000000000D+00
 0.360456399843290D+03 0.000000000000000D+00 0.000000000000000D+00 0.360456399843290D+03
 0.133076880730646D+04 0.000000000000000D+00 0.000000000000000D+00 -.133076880730646D+04
 0.220316827055550D+03 -.164041409516474D+03 0.111429512866422D+03 -.299688599387031D+02
 0.151265916914470D+02 -.996537378125532D+01 -.291280597600408D+01 -.110009391847140D+02
 0.254305837056044D+03 -.171055010729453D+03 -.183436648880326D+02 0.187283613868372D+03
 0.174119809084561D+03 0.225068058366897D+02 0.938977515453606D+01 -.146313814744955D+03
 0.102735614226215D+04 0.322554988190493D+03 -.995628171569211D+02 -.970312407463170D+03
0.526719825015D-05 0.000000000000D+00 0.000000000000D+00 0.701370482548D-06 0.000000000000D+00  7 -1 1 23 -11 11 23 21 0 0.73518336D-01 0.26300057D-01 0.35620888D+05 0.35620888D+05 0.35620888D+05 0.11604785D+01  1  2  2  1  7  1       -1 0.232979083299D-03 0.100000000000D+01
-.231343535561D-06 0.000000000000D+00 -.202274281657D-07 0.701370482548D-06 0.000000000000D+00  7 -1 1 23 -11 11 23 21 2 0.73518336D-01 0.26300057D-01 0.35620888D+05 0.35620888D+05 0.35620888D+05 0.11604785D+01  1  2  3  1  7  1       -1 -.137806235548D-04 0.100000000000D+01
0.317316683425D-06 0.000000000000D+00 0.000000000000D+00 0.701370482548D-06 0.000000000000D+00  7 -1 1 23 -11 11 23 21 2 0.73518336D-01 0.26300057D-01 0.35620888D+05 0.35620888D+05 0.35620888D+05 0.11604785D+01  1  2 15  1  7  1       -1 0.189018541250D-04 0.100000000000D+01
  </mgrwgt>
  </event>
  <event>
  9     66 0.27414828E-05 0.32901449E+03 0.75467711E-02 0.99420148E-01
       -1 -1    0    0    0  501 0.00000000E+00 0.00000000E+00 0.17732985E+03 0.17733014E+03 0.32000000E+00 0.0000E+00 0.9000E+01
        1 -1    0    0  502    0 0.00000000E+00 0.00000000E+00 -.91210337E+03 0.91210342E+03 0.32000000E+00 0.0000E+00 0.9000E+01
       25  2    1    2    0    0 0.15865633E+03 0.22869595E+03 -.64826061E+03 0.76609905E+03 0.29865075E+03 0.0000E+00 0.0000E+00
       23  2    1    2    0    0 -.15997287E+03 -.23905724E+03 -.83091978E+02 0.31231840E+03 0.88875342E+02 0.0000E+00 0.0000E+00
       23  1    3    3    0    0 0.60925938E+02 0.20378259E+03 -.22992057E+03 0.32621777E+03 0.91188000E+02 0.0000E+00 0.9000E+01
      -13  1    4    4    0    0 -.15166768E+03 -.19889855E+03 -.98061551E+02 0.26866298E+03 0.10565837E+00 0.0000E+00 0.9000E+01
       13  1    4    4    0    0 -.83051828E+01 -.40158689E+02 0.14969574E+02 0.43655419E+02 0.10565837E+00 0.0000E+00 0.9000E+01
       23  1    3    3    0    0 0.97730389E+02 0.24913364E+02 -.41834003E+03 0.43988128E+03 0.91188000E+02 0.0000E+00 0.9000E+01
       21  1    1    2  502  501 0.13165402E+01 0.10361287E+02 -.34209328E+01 0.11016117E+02 0.75000000E+00 0.0000E+00 0.9000E+01
#aMCatNLO 2  0  0  2  1 0.10444594D+02 0.00000000D+00  -5  7  0 0.00000000D+00 0.00000000D+00 0.00000000D+00 0.00000000D+00 0.00000000D+00
  <mgrwgt>
 0.6056495023D-04    2    2    0
 0.396231783108489D+03 0.000000000000000D+00 0.000000000000000D+00 0.396231783108489D+03
 0.396231783108489D+03 0.000000000000000D+00 0.000000000000000D+00 -.396231783108489D+03
 0.234506164631307D+03 0.613131982597830D+02 0.206830358319285D+03 -.118230496386563D+02
 0.272256025455164D+03 -.151213250754752D+03 -.195320748491844D+03 0.114488870207585D+03
 0.726841604373944D+02 -.818379114121610D+01 -.392046952248031D+02 0.606547987662654D+02
 0.213017215693113D+03 0.980838436361853D+02 0.276950853973618D+02 -.163320619335194D+03
 0.000000000000000D+00 0.000000000000000D+00 0.000000000000000D+00 0.000000000000000D+00
 0.404926088251705D+03 0.000000000000000D+00 0.000000000000000D+00 0.404926088251705D+03
 0.399415471786318D+03 0.000000000000000D+00 0.000000000000000D+00 -.399415471786318D+03
 0.231720409137348D+03 0.609259379624316D+02 0.203782585731509D+03 -.118230496386563D+02
 0.275084661495246D+03 -.151667886610164D+03 -.198898772645161D+03 0.114488870207585D+03
 0.732166618494165D+02 -.830498027757506D+01 -.401584643828015D+02 0.606547987662654D+02
 0.212510660119731D+03 0.977303887689807D+02 0.249133645169883D+02 -.163320619335194D+03
 0.118091674362817D+02 0.131654015632669D+01 0.103612867794652D+02 0.551061646538696D+01
-.163185534659D-04 0.000000000000D+00 0.000000000000D+00 0.390564111417D-07 0.000000000000D+00  7 -1 1 23 -13 13 23 21 2 0.26694979D-01 0.13920099D+00 0.10825053D+06 0.10825053D+06 0.10825053D+06 0.11189076D+01  1  2  8  2  7  2        1 -.539521017719D-03 0.100000000000D+01
0.191164519486D-04 0.000000000000D+00 0.000000000000D+00 0.390564111417D-07 0.238594603172D-08  7 -1 1 23 -13 13 23 21 2 0.27280733D-01 0.14031946D+00 0.11187908D+06 0.11187908D+06 0.11187908D+06 0.11177435D+01  1  2  1  2  7  2        1 0.600085967952D-03 0.100000000000D+01
  </mgrwgt>
  </event>
  <event>
  8     66 0.27414828E-05 0.97850055E+02 0.75467711E-02 0.10522227E+00
       -1 -1    0    0    0  501 0.00000000E+00 0.00000000E+00 0.26541071E+03 0.26541091E+03 0.32000000E+00 0.0000E+00 0.9000E+01
        1 -1    0    0  501    0 0.00000000E+00 0.00000000E+00 -.20180972E+03 0.20180997E+03 0.32000000E+00 0.0000E+00 0.9000E+01
       25  2    1    2    0    0 -.94379480E+02 -.56174955E+02 0.44270397E+02 0.32236126E+03 0.29982295E+03 0.0000E+00 0.0000E+00
       23  2    1    2    0    0 0.94379480E+02 0.56174955E+02 0.19330597E+02 0.14485962E+03 0.92452824E+02 0.0000E+00 0.0000E+00
       23  1    3    3    0    0 -.61526358E+00 -.11589624E+03 0.88427173E+02 0.17195038E+03 0.91188000E+02 0.0000E+00 0.9000E+01
      -13  1    4    4    0    0 0.68852458E+02 -.65058803E+01 -.12147283E+02 0.70217912E+02 0.10565837E+00 0.0000E+00 0.9000E+01
       13  1    4    4    0    0 0.25527022E+02 0.62680835E+02 0.31477881E+02 0.74641705E+02 0.10565837E+00 0.0000E+00 0.9000E+01
       23  1    3    3    0    0 -.93764217E+02 0.59721289E+02 -.44156776E+02 0.15041088E+03 0.91188000E+02 0.0000E+00 0.9000E+01
#aMCatNLO 1  0  0  1  2 0.41663461D+01 0.00000000D+00  -5  7  0 0.00000000D+00 0.00000000D+00 0.00000000D+00 0.00000000D+00 0.00000000D+00
  <mgrwgt>
 0.4445927172D-04   11    2    0
 0.231435878613768D+03 0.000000000000000D+00 0.000000000000000D+00 0.231435878613768D+03
 0.231435878613768D+03 0.000000000000000D+00 0.000000000000000D+00 -.231435878613768D+03
 0.161415665403812D+03 -.615269330213764D+00 -.115896244018273D+03 0.656311493108545D+02
 0.725467787298059D+02 0.688525166555484D+02 -.650596423287852D+01 -.219097805481788D+02
 0.710178084975093D+02 0.255269722540267D+02 0.626809243101306D+02 0.215175402627422D+02
 0.157891504596408D+03 -.937642195793613D+02 0.597212839410212D+02 -.652389090254179D+02
 0.000000000000000D+00 -.000000000000000D+00 0.000000000000000D+00 0.000000000000000D+00
 0.256688185758766D+03 0.000000000000000D+00 0.000000000000000D+00 0.256688185758766D+03
 0.231617167696062D+03 0.000000000000000D+00 0.000000000000000D+00 -.231617167696062D+03
 0.162460956193771D+03 -.488426042838172D+00 -.117348304732243D+03 0.656311493108545D+02
 0.726619880684213D+02 0.689093863278501D+02 -.715698975164451D+01 -.219097805481788D+02
 0.704786248587301D+02 0.255823880252247D+02 0.620465425785008D+02 0.215175402627422D+02
 0.157288938536260D+03 -.936407820699596D+02 0.583082114659931D+02 -.652389090254179D+02
 0.254148457976452D+02 -.362566240276998D+00 0.415054043939388D+01 0.250710180627044D+02
0.390520968591D-06 0.000000000000D+00 0.000000000000D+00 0.514849924442D-07 0.000000000000D+00  7 -1 1 23 -13 13 23 21 0 0.40832452D-01 0.31047683D-01 0.45815812D+05 0.45815812D+05 0.45815812D+05 0.11506489D+01  1  2  2  1  7  1       -1 0.405360338758D-04 0.100000000000D+01
-.215346659931D-07 0.000000000000D+00 -.149970334592D-08 0.514849924442D-07 0.000000000000D+00  7 -1 1 23 -13 13 23 21 2 0.40832452D-01 0.31047683D-01 0.45815812D+05 0.45815812D+05 0.45815812D+05 0.11506489D+01  1  2  3  1  7  1       -1 -.295951596342D-05 0.100000000000D+01
0.244358787084D-07 0.000000000000D+00 0.000000000000D+00 0.514849924442D-07 0.000000000000D+00  7 -1 1 23 -13 13 23 21 2 0.40832452D-01 0.31047683D-01 0.45815812D+05 0.45815812D+05 0.45815812D+05 0.11506489D+01  1  2 15  1  7  1       -1 0.335823054515D-05 0.100000000000D+01
0.461783341910D-05 0.000000000000D+00 0.000000000000D+00 0.514849924442D-07 0.000000000000D+00  7 -1 1 23 -13 13 23 21 2 0.45302720D-01 0.31047683D-01 0.46719788D+05 0.46719788D+05 0.46719788D+05 0.11498965D+01  1  2 12  1  7  1       -1 0.529334467265D-03 0.100000000000D+01
-.341536324369D-04 0.000000000000D+00 0.000000000000D+00 0.514849924442D-07 0.000000000000D+00  7 -1 1 23 -13 13 23 21 2 0.40832452D-01 0.31047683D-01 0.45815812D+05 0.45815812D+05 0.45815812D+05 0.11506489D+01  1  2  4  1  7  1       -1 -.469374451584D-02 0.100000000000D+01
-.359797777778D-04 0.000000000000D+00 -.510943766843D-06 0.514849924442D-07 0.000000000000D+00  7 -1 1 23 -13 13 23 21 2 0.45304615D-01 0.31047683D-01 0.45815812D+05 0.45815812D+05 0.45815812D+05 0.11506489D+01  1  2  5  1  7  1       -1 -.412931501332D-02 0.100000000000D+01
0.358418754030D-04 0.000000000000D+00 0.508196574303D-06 0.514849924442D-07 0.000000000000D+00  7 -1 1 23 -13 13 23 21 2 0.40832452D-01 0.31047683D-01 0.45815812D+05 0.45815812D+05 0.45815812D+05 0.11506489D+01  1  2  6  1  7  1       -1 0.492576028104D-02 0.100000000000D+01
0.297364185128D-04 0.000000000000D+00 0.000000000000D+00 0.514849924442D-07 0.210521803799D-07  7 -1 1 23 -13 13 23 21 2 0.45287740D-01 0.31072004D-01 0.46719788D+05 0.46719788D+05 0.46719788D+05 0.11498965D+01  1  2 11  1  7  1       -1 0.340717949309D-02 0.100000000000D+01
0.775178983966D-07 0.000000000000D+00 0.000000000000D+00 0.514849924442D-07 0.000000000000D+00  7 21 1 23 -13 13 23 1 2 0.45302720D-01 0.31047683D-01 0.46719788D+05 0.46719788D+05 0.46719788D+05 0.11498965D+01  1  2 12  3  7  1       -1 0.872077620014D-04 0.100000000000D+01
-.602332258739D-06 0.000000000000D+00 -.857926061872D-08 0.514849924442D-07 0.000000000000D+00  7 21 1 23 -13 13 23 1 2 0.45304615D-01 0.31047683D-01 0.45815812D+05 0.45815812D+05 0.45815812D+05 0.11506489D+01  1  2  5  3  7  1       -1 -.678851797479D-03 0.100000000000D+01
0.494338117900D-06 0.000000000000D+00 0.000000000000D+00 0.514849924442D-07 0.349742045322D-09  7 21 1 23 -13 13 23 1 2 0.45287740D-01 0.31072004D-01 0.46719788D+05 0.46719788D+05 0.46719788D+05 0.11498965D+01  1  2 11  3  7  1       -1 0.555953846509D-03 0.100000000000D+01
  </mgrwgt>
  </event>
  <event>
  8     66 0.27414828E-05 0.34247824E+03 0.75467711E-02 0.93469775E-01
       -1 -1    0    0    0  501 0.00000000E+00 0.00000000E+00 0.18900839E+03 0.18900867E+03 0.32000000E+00 0.0000E+00 0.9000E+01
        1 -1    0    0  501    0 0.00000000E+00 0.00000000E+00 -.16864908E+04 0.16864908E+04 0.32000000E+00 0.0000E+00 0.9000E+01
       25  2    1    2    0    0 0.50959540E+03 -.45341254E+02 -.95394819E+03 0.11234084E+04 0.30047617E+03 0.0000E+00 0.0000E+00
       23  2    1    2    0    0 -.50959540E+03 0.45341254E+02 -.54353418E+03 0.75209108E+03 0.92023273E+02 0.0000E+00 0.0000E+00
       23  1    3    3    0    0 0.34895328E+03 0.68547760E+02 -.69104685E+03 0.78251402E+03 0.91188000E+02 0.0000E+00 0.9000E+01
      -13  1    4    4    0    0 -.11570841E+03 -.18048105E+02 -.87562961E+02 0.14622398E+03 0.10565837E+00 0.0000E+00 0.9000E+01
       13  1    4    4    0    0 -.39388700E+03 0.63389359E+02 -.45597121E+03 0.60586709E+03 0.10565837E+00 0.0000E+00 0.9000E+01
       23  1    3    3    0    0 0.16064212E+03 -.11388901E+03 -.26290133E+03 0.34089436E+03 0.91188000E+02 0.0000E+00 0.9000E+01
#aMCatNLO 1  0  0  2  1 0.84673389D+01 0.00000000D+00  -5  7  0 0.00000000D+00 0.00000000D+00 0.00000000D+00 0.00000000D+00 0.00000000D+00
  <mgrwgt>
 0.3502563892D-03   11    2    0
 0.564589402164543D+03 0.000000000000000D+00 0.000000000000000D+00 0.564589402164543D+03
 0.564589402164543D+03 0.000000000000000D+00 0.000000000000000D+00 -.564589402164543D+03
 0.383264493629693D+03 0.348953280300353D+03 0.685477596277699D+02 -.110041962681794D+03
 0.126745736244138D+03 -.115708040229844D+03 -.180482127110868D+02 0.484808529233216D+02
 0.401614838408477D+03 -.393887363704058D+03 0.633894663109921D+02 0.461410739465561D+02
 0.217553736046778D+03 0.160642123633549D+03 -.113889013227675D+03 0.154200358119163D+02
 0.000000000000000D+00 -.000000000000000D+00 -.000000000000000D+00 -.000000000000000D+00
 0.566276554103796D+03 0.000000000000000D+00 0.000000000000000D+00 0.566276554103796D+03
 0.575329971888523D+03 0.000000000000000D+00 0.000000000000000D+00 -.575329971888523D+03
 0.385388573043509D+03 0.350855503403756D+03 0.707126796900499D+02 -.110041962681794D+03
 0.126074927560976D+03 -.115082372645131D+03 -.173361404499306D+02 0.484808529233216D+02
 0.400033637166688D+03 -.391903485258550D+03 0.656473183159029D+02 0.461410739465561D+02
 0.217713413000536D+03 0.161719300402847D+03 -.112663078375815D+03 0.154200358119163D+02
 0.123959752206090D+02 -.558894590292131D+01 -.636077918020730D+01 -.905341778472703D+01
0.133776569388D-04 0.000000000000D+00 0.000000000000D+00 0.802008800757D-06 0.000000000000D+00  7 -1 1 23 -13 13 23 21 0 0.29078238D-01 0.25946014D+00 0.30260808D+06 0.30260808D+06 0.30260808D+06 0.10842738D+01  1  2  2  2  7  2        1 0.837803558664D-04 0.100000000000D+01
-.742592224827D-06 0.000000000000D+00 -.513737250631D-07 0.802008800757D-06 0.000000000000D+00  7 -1 1 23 -13 13 23 21 2 0.29078238D-01 0.25946014D+00 0.30260808D+06 0.30260808D+06 0.30260808D+06 0.10842738D+01  1  2  3  2  7  2        1 -.546752163384D-05 0.100000000000D+01
0.839922392835D-06 0.000000000000D+00 0.000000000000D+00 0.802008800757D-06 0.000000000000D+00  7 -1 1 23 -13 13 23 21 2 0.29078238D-01 0.25946014D+00 0.30260808D+06 0.30260808D+06 0.30260808D+06 0.10842738D+01  1  2 15  2  7  2        1 0.618413942408D-05 0.100000000000D+01
0.187392109871D-04 0.000000000000D+00 0.000000000000D+00 0.802008800757D-06 0.000000000000D+00  7 -1 1 23 -13 13 23 21 2 0.29078238D-01 0.26477934D+00 0.30731649D+06 0.30731649D+06 0.30731649D+06 0.10837785D+01  1  2 12  2  7  2        1 0.130650650521D-03 0.100000000000D+01
-.194205596330D-04 0.000000000000D+00 0.000000000000D+00 0.802008800757D-06 0.000000000000D+00  7 -1 1 23 -13 13 23 21 2 0.29078238D-01 0.25946014D+00 0.30260808D+06 0.30260808D+06 0.30260808D+06 0.10842738D+01  1  2  4  2  7  2        1 -.142988744542D-03 0.100000000000D+01
-.728497907617D-03 0.000000000000D+00 -.679058410982D-04 0.802008800757D-06 0.000000000000D+00  7 -1 1 23 -13 13 23 21 2 0.29078238D-01 0.26472451D+00 0.30260808D+06 0.30260808D+06 0.30260808D+06 0.10842738D+01  1  2  5  2  7  2        1 -.508985783278D-02 0.100000000000D+01
0.729728384337D-03 0.000000000000D+00 0.678921443708D-04 0.802008800757D-06 0.000000000000D+00  7 -1 1 23 -13 13 23 21 2 0.29078238D-01 0.25946014D+00 0.30260808D+06 0.30260808D+06 0.30260808D+06 0.10842738D+01  1  2  6  2  7  2        1 0.537280837961D-02 0.100000000000D+01
0.370121002684D-06 0.000000000000D+00 0.000000000000D+00 0.802008800757D-06 0.700818235622D-07  7 -1 1 23 -13 13 23 21 2 0.29165132D-01 0.26439603D+00 0.30731649D+06 0.30731649D+06 0.30731649D+06 0.10837785D+01  1  2 11  2  7  2        1 0.257738054805D-05 0.100000000000D+01
0.981433860429D-06 0.000000000000D+00 0.000000000000D+00 0.802008800757D-06 0.000000000000D+00  7 -1 21 23 -13 13 23 -1 2 0.29078238D-01 0.26477934D+00 0.30731649D+06 0.30731649D+06 0.30731649D+06 0.10837785D+01  1  2 12  4  7  2        1 0.434502559190D-05 0.100000000000D+01
-.265284661563D-05 0.000000000000D+00 -.248214954398D-06 0.802008800757D-06 0.000000000000D+00  7 -1 21 23 -13 13 23 -1 2 0.29078238D-01 0.26472451D+00 0.30260808D+06 0.30260808D+06 0.30260808D+06 0.10842738D+01  1  2  5  4  7  2        1 -.117814811042D-04 0.100000000000D+01
0.136250764397D-08 0.000000000000D+00 0.000000000000D+00 0.802008800757D-06 0.242699043458D-09  7 -1 21 23 -13 13 23 -1 2 0.29165132D-01 0.26439603D+00 0.30731649D+06 0.30731649D+06 0.30731649D+06 0.10837785D+01  1  2 11  4  7  2        1 0.603772568062D-08 0.100000000000D+01
  </mgrwgt>
  </event>
  <event>
  8     66 0.27414828E-05 0.32943759E+03 0.75467711E-02 0.89570492E-01
       -1 -1    0    0    0  501 0.00000000E+00 0.00000000E+00 0.17963173E+03 0.17963201E+03 0.32000000E+00 0.0000E+00 0.9000E+01
        1 -1    0    0  501    0 0.00000000E+00 0.00000000E+00 -.37111625E+04 0.37111625E+04 0.32000000E+00 0.0000E+00 0.9000E+01
       25  2    1    2    0    0 -.37805244E+03 -.41316355E+03 -.31356110E+04 0.31993850E+04 0.30063383E+03 0.0000E+00 0.0000E+00
       23  2    1    2    0    0 0.37805244E+03 0.41316355E+03 -.39591976E+03 0.69140944E+03 0.87560217E+02 0.0000E+00 0.0000E+00
       23  1    3    3    0    0 -.17471936E+03 -.41213477E+02 -.92707100E+03 0.94868398E+03 0.91188000E+02 0.0000E+00 0.9000E+01
      -11  1    4    4    0    0 0.35044532E+03 0.40940030E+03 -.37858202E+03 0.65859310E+03 0.51099893E-03 0.0000E+00 0.9000E+01
       11  1    4    4    0    0 0.27607115E+02 0.37632561E+01 -.17337734E+02 0.32816336E+02 0.51099893E-03 0.0000E+00 0.9000E+01
       23  1    3    3    0    0 -.20333308E+03 -.37195008E+03 -.22085400E+04 0.22507011E+04 0.91188000E+02 0.0000E+00 0.9000E+01
#aMCatNLO 1  0  0  1  2 0.35760791D+03 0.00000000D+00  -5  7  0 0.00000000D+00 0.00000000D+00 0.00000000D+00 0.00000000D+00 0.00000000D+00
  <mgrwgt>
 0.1482958072D-03    9    2    0
 0.816482146528411D+03 0.000000000000000D+00 0.000000000000000D+00 0.816482146528411D+03
 0.816482146528411D+03 0.000000000000000D+00 0.000000000000000D+00 -.816482146528411D+03
 0.255458538942399D+03 -.174719361720212D+03 -.412134772664987D+02 -.157220888263203D+03
 0.750461208210419D+03 0.350445322549945D+03 0.409400296259788D+03 0.522275308964443D+03
 0.406946310268775D+02 0.276071152367106D+02 0.376325609037524D+01 0.296603790656650D+02
 0.586349914877127D+03 -.203333076066444D+03 -.371950075083665D+03 -.394714799766905D+03
 0.000000000000000D+00 -.000000000000000D+00 -.000000000000000D+00 0.000000000000000D+00
 0.111255522503082D+04 0.000000000000000D+00 0.000000000000000D+00 0.111255522503082D+04
 0.951364687903925D+03 0.000000000000000D+00 0.000000000000000D+00 -.951364687903925D+03
 0.250492378545118D+03 -.171847431596648D+03 0.134622773911139D+02 -.157220888263203D+03
 0.861803800337055D+03 0.359597025383510D+03 0.583630252177539D+03 0.522275308964443D+03
 0.427991388734990D+02 0.280810510763718D+02 0.127860381839066D+02 0.296603790656650D+02
 0.516567268787250D+03 -.197072585228141D+03 -.252762961754265D+03 -.394714799766905D+03
 0.392257326391821D+03 -.187580596350932D+02 -.357115605998295D+03 0.161190537126894D+03
0.618547133448D-03 0.000000000000D+00 0.000000000000D+00 0.456870707245D-06 0.000000000000D+00  7 -1 1 23 -11 11 23 21 0 0.27635673D-01 0.57094809D+00 0.36102879D+06 0.36102879D+06 0.36102879D+06 0.10786517D+01  1  2  2  1  7  1       -1 0.139733641469D-03 0.100000000000D+01
-.304348960684D-04 0.000000000000D+00 -.237538385964D-05 0.456870707245D-06 0.000000000000D+00  7 -1 1 23 -11 11 23 21 2 0.27635673D-01 0.57094809D+00 0.36102879D+06 0.36102879D+06 0.36102879D+06 0.10786517D+01  1  2  3  1  7  1       -1 -.799949267214D-05 0.100000000000D+01
0.389713828643D-04 0.000000000000D+00 0.000000000000D+00 0.456870707245D-06 0.000000000000D+00  7 -1 1 23 -11 11 23 21 2 0.27635673D-01 0.57094809D+00 0.36102879D+06 0.36102879D+06 0.36102879D+06 0.10786517D+01  1  2 15  1  7  1       -1 0.102432185392D-04 0.100000000000D+01
0.126821615944D-03 0.000000000000D+00 0.000000000000D+00 0.456870707245D-06 0.000000000000D+00  7 -1 1 23 -11 11 23 21 2 0.39280215D-01 0.57094809D+00 0.64177544D+06 0.64177544D+06 0.64177544D+06 0.10609317D+01  1  2 12  1  7  1       -1 0.168035755911D-04 0.100000000000D+01
-.300691168230D-03 0.000000000000D+00 0.000000000000D+00 0.456870707245D-06 0.000000000000D+00  7 -1 1 23 -11 11 23 21 2 0.27635673D-01 0.57094809D+00 0.36102879D+06 0.36102879D+06 0.36102879D+06 0.10786517D+01  1  2  4  1  7  1       -1 -.790335144048D-04 0.100000000000D+01
-.219541678873D-03 0.000000000000D+00 -.211156148764D-03 0.456870707245D-06 0.000000000000D+00  7 -1 1 23 -11 11 23 21 2 0.50527421D-01 0.57094809D+00 0.36102879D+06 0.36102879D+06 0.36102879D+06 0.10786517D+01  1  2  5  1  7  1       -1 -.201323365415D-04 0.100000000000D+01
0.320228486218D-03 0.000000000000D+00 0.177794398657D-03 0.456870707245D-06 0.000000000000D+00  7 -1 1 23 -11 11 23 21 2 0.27635673D-01 0.57094809D+00 0.36102879D+06 0.36102879D+06 0.36102879D+06 0.10786517D+01  1  2  6  1  7  1       -1 0.841686931721D-04 0.100000000000D+01
0.549674356875D-05 0.000000000000D+00 0.000000000000D+00 0.456870707245D-06 0.000000000000D+00  7 21 1 23 -11 11 23 1 2 0.39280215D-01 0.57094809D+00 0.64177544D+06 0.64177544D+06 0.64177544D+06 0.10609317D+01  1  2 12  3  7  1       -1 0.696167193745D-05 0.100000000000D+01
-.299722797590D-05 0.000000000000D+00 -.139286745477D-04 0.456870707245D-06 0.000000000000D+00  7 21 1 23 -11 11 23 1 2 0.50527421D-01 0.57094809D+00 0.36102879D+06 0.36102879D+06 0.36102879D+06 0.10786517D+01  1  2  5  3  7  1       -1 -.244964992982D-05 0.100000000000D+01
  </mgrwgt>
  </event>
  <event>
  8     66 0.27414828E-05 0.15846147E+03 0.75467711E-02 0.10190507E+00
       -3 -1    0    0    0  501 0.00000000E+00 0.00000000E+00 0.21948249E+03 0.21948306E+03 0.50000000E+00 0.0000E+00 0.9000E+01
        3 -1    0    0  501    0 0.00000000E+00 0.00000000E+00 -.18843734E+03 0.18843801E+03 0.50000000E+00 0.0000E+00 0.9000E+01
       25  2    1    2    0    0 -.32256263E+01 -.31930389E+02 0.58691890E+02 0.30616114E+03 0.29876404E+03 0.0000E+00 0.0000E+00
       23  2    1    2    0    0 0.32256263E+01 0.31930389E+02 -.27646745E+02 0.10175992E+03 0.92524510E+02 0.0000E+00 0.0000E+00
       23  1    3    3    0    0 -.21714369E+02 -.77003381E+02 0.13211038E+03 0.17935841E+03 0.91188000E+02 0.0000E+00 0.9000E+01
      -13  1    4    4    0    0 0.93607712E+01 0.61407653E+02 -.34252080E+02 0.70934759E+02 0.10565837E+00 0.0000E+00 0.9000E+01
       13  1    4    4    0    0 -.61351449E+01 -.29477264E+02 0.66053348E+01 0.30825164E+02 0.10565837E+00 0.0000E+00 0.9000E+01
       23  1    3    3    0    0 0.18488743E+02 0.45072993E+02 -.73418487E+02 0.12680274E+03 0.91188000E+02 0.0000E+00 0.9000E+01
#aMCatNLO 1  0  0  1  2 0.18751381D+03 0.00000000D+00  -5  7  0 0.00000000D+00 0.00000000D+00 0.00000000D+00 0.00000000D+00 0.00000000D+00
  <mgrwgt>
 0.6214301507D-04    5    2    0
 0.203368995978269D+03 0.000000000000000D+00 0.000000000000000D+00 0.203368995978269D+03
 0.203368995978269D+03 0.000000000000000D+00 0.000000000000000D+00 -.203368995978269D+03
 0.169796563870807D+03 -.217143593267455D+02 -.770034610585723D+02 0.118804778280855D+03
 0.737557780511598D+02 0.936080938447524D+01 0.614079576257964D+02 -.397662266732444D+02
 0.304104982598878D+02 -.613515507603657D+01 -.294772917405525D+02 0.427171490738518D+01
 0.132775151774684D+03 0.184887050183068D+02 0.450727951733284D+02 -.833102665149953D+02
 0.000000000000000D+00 0.000000000000000D+00 -.000000000000000D+00 0.000000000000000D+00
 0.413776787157116D+03 0.000000000000000D+00 0.000000000000000D+00 0.413776787157116D+03
 0.270245320500037D+03 0.000000000000000D+00 0.000000000000000D+00 -.270245320500037D+03
 0.161299292879111D+03 -.581940899715946D+02 -.141803769102287D+02 0.118804778280855D+03
 0.103531410460182D+03 -.101724730527050D+02 0.950469408241993D+02 -.397662266732444D+02
 0.231549456003532D+02 -.120369292120062D+02 -.193136297119544D+02 0.427171490738518D+01
 0.159895164476218D+03 -.137573472560346D+02 0.100604906284705D+03 -.833102665149953D+02
 0.236141294241289D+03 0.941608394923404D+02 -.162157840486721D+03 0.143531466657079D+03
0.151649224610D-05 0.000000000000D+00 0.000000000000D+00 0.925970377336D-08 0.000000000000D+00  7 -3 3 23 -13 13 23 21 0 0.33766632D-01 0.28990455D-01 0.25110037D+05 0.25110037D+05 0.25110037D+05 0.11745741D+01  1  2  2  1  7  1       -3 0.611043013895D-04 0.100000000000D+01
-.778724121047D-07 0.000000000000D+00 -.582372952661D-08 0.925970377336D-08 0.000000000000D+00  7 -3 3 23 -13 13 23 21 2 0.33766632D-01 0.28990455D-01 0.25110037D+05 0.25110037D+05 0.25110037D+05 0.11745741D+01  1  2  3  1  7  1       -3 -.432888529121D-05 0.100000000000D+01
0.964457141028D-07 0.000000000000D+00 0.000000000000D+00 0.925970377336D-08 0.000000000000D+00  7 -3 3 23 -13 13 23 21 2 0.33766632D-01 0.28990455D-01 0.25110037D+05 0.25110037D+05 0.25110037D+05 0.11745741D+01  1  2 15  1  7  1       -3 0.536136510859D-05 0.100000000000D+01
-.173755108518D-06 0.000000000000D+00 -.475262235288D-06 0.925970377336D-08 0.000000000000D+00  7 -3 3 23 -13 13 23 21 2 0.86738437D-01 0.28990455D-01 0.25110037D+05 0.25110037D+05 0.25110037D+05 0.11745741D+01  1  2  5  1  7  1       -3 -.133029331485D-05 0.100000000000D+01
0.107606991544D-07 0.000000000000D+00 -.495759540074D-07 0.925970377336D-08 0.000000000000D+00  7 21 3 23 -13 13 23 3 2 0.86738437D-01 0.28990455D-01 0.25110037D+05 0.25110037D+05 0.25110037D+05 0.11745741D+01  1  2  5  3  7  1       -3 0.133652717342D-05 0.100000000000D+01
  </mgrwgt>
  </event>
  <event>
  8     66 0.27414828E-05 0.11811486E+03 0.75467711E-02 0.99627711E-01
       -1 -1    0    0    0  501 0.00000000E+00 0.00000000E+00 0.82070187E+03 0.82070193E+03 0.32000000E+00 0.0000E+00 0.9000E+01
        1 -1    0    0  501    0 0.00000000E+00 0.00000000E+00 -.25052165E+03 0.25052185E+03 0.32000000E+00 0.0000E+00 0.9000E+01
       25  2    1    2    0    0 -.83091980E+02 -.12256872E+03 -.12350039E+03 0.35628933E+03 0.29960368E+03 0.0000E+00 0.0000E+00
       23  2    1    2    0    0 0.83091980E+02 0.12256872E+03 0.69368062E+03 0.71493446E+03 0.89504814E+02 0.0000E+00 0.0000E+00
       23  1    3    3    0    0 -.14369824E+03 -.13742061E+03 -.11039038E+03 0.24502019E+03 0.91188000E+02 0.0000E+00 0.9000E+01
      -11  1    4    4    0    0 -.44132416E+01 -.11419364E+02 0.69215880E+02 0.70290232E+02 0.51099893E-03 0.0000E+00 0.9000E+01
       11  1    4    4    0    0 0.87505222E+02 0.13398809E+03 0.62446474E+03 0.64464423E+03 0.51099893E-03 0.0000E+00 0.9000E+01
       23  1    3    3    0    0 0.60606258E+02 0.14851885E+02 -.13110017E+02 0.11126914E+03 0.91188000E+02 0.0000E+00 0.9000E+01
#aMCatNLO 1  0  0  2  1 0.15206419D+03 0.00000000D+00  -5  7  0 0.00000000D+00 0.00000000D+00 0.00000000D+00 0.00000000D+00 0.00000000D+00
  <mgrwgt>
 0.1571638424D-03    9    2    0
 0.453435471218808D+03 0.000000000000000D+00 0.000000000000000D+00 0.453435471218808D+03
 0.453435471218808D+03 0.000000000000000D+00 0.000000000000000D+00 -.453435471218808D+03
 0.358831502872368D+03 -.143698237578002D+03 -.137420607574681D+03 -.284448922023663D+03
 0.395106292807209D+02 -.441324161722245D+01 -.114193636797155D+02 0.375660918613711D+02
 0.368851583715196D+03 0.875052216708935D+02 0.133988086717222D+03 0.332327428310385D+03
 0.139677226569331D+03 0.606062575243307D+02 0.148518845371753D+02 -.854445981480933D+02
 0.000000000000000D+00 -.000000000000000D+00 0.000000000000000D+00 -.000000000000000D+00
 0.525981415207464D+03 0.000000000000000D+00 0.000000000000000D+00 0.525981415207464D+03
 0.547069708473281D+03 0.000000000000000D+00 0.000000000000000D+00 -.547069708473281D+03
 0.386226900354582D+03 -.142028576020427D+03 -.199430844070555D+03 -.284448922023663D+03
 0.419564193217759D+02 -.423067552754202D+01 -.181997595904007D+02 0.375660918613711D+02
 0.351937005616503D+03 0.891204950421265D+02 0.739977950912229D+02 0.332327428310385D+03
 0.139411307733258D+03 0.612316895641101D+02 -.837628917435391D+01 -.854445981480933D+02
 0.153519490654626D+03 -.409293305826779D+01 0.152009097744086D+03 -.210882932658169D+02
0.189260837630D-04 0.000000000000D+00 0.000000000000D+00 0.509320071714D-06 0.000000000000D+00  7 -1 1 23 -11 11 23 21 0 0.12626185D+00 0.38541812D-01 0.62878465D+05 0.62878465D+05 0.62878465D+05 0.11386422D+01  1  2  2  2  7  2        1 0.156641315031D-03 0.100000000000D+01
-.602847372980D-06 0.000000000000D+00 -.726811450024D-07 0.509320071714D-06 0.000000000000D+00  7 -1 1 23 -11 11 23 21 2 0.12626185D+00 0.38541812D-01 0.62878465D+05 0.62878465D+05 0.62878465D+05 0.11386422D+01  1  2  3  2  7  2        1 -.646885571144D-05 0.100000000000D+01
0.117764975145D-05 0.000000000000D+00 0.000000000000D+00 0.509320071714D-06 0.000000000000D+00  7 -1 1 23 -11 11 23 21 2 0.12626185D+00 0.38541812D-01 0.62878465D+05 0.62878465D+05 0.62878465D+05 0.11386422D+01  1  2 15  2  7  2        1 0.126367745173D-04 0.100000000000D+01
0.459269795940D-05 0.000000000000D+00 0.000000000000D+00 0.509320071714D-06 0.000000000000D+00  7 -1 1 23 -11 11 23 21 2 0.12626185D+00 0.49035832D-01 0.10824424D+06 0.10824424D+06 0.10824424D+06 0.11189096D+01  1  2 12  2  7  2        1 0.340848333397D-04 0.100000000000D+01
-.106393808176D-04 0.000000000000D+00 0.000000000000D+00 0.509320071714D-06 0.000000000000D+00  7 -1 1 23 -11 11 23 21 2 0.12626185D+00 0.38541812D-01 0.62878465D+05 0.62878465D+05 0.62878465D+05 0.11386422D+01  1  2  4  2  7  2        1 -.114165910731D-03 0.100000000000D+01
-.135313893206D-04 0.000000000000D+00 -.939827679966D-05 0.509320071714D-06 0.000000000000D+00  7 -1 1 23 -11 11 23 21 2 0.12626185D+00 0.53381158D-01 0.62878465D+05 0.62878465D+05 0.62878465D+05 0.11386422D+01  1  2  5  2  7  2        1 -.949932684119D-04 0.100000000000D+01
0.162028430144D-04 0.000000000000D+00 0.892087205968D-05 0.509320071714D-06 0.000000000000D+00  7 -1 1 23 -11 11 23 21 2 0.12626185D+00 0.38541812D-01 0.62878465D+05 0.62878465D+05 0.62878465D+05 0.11386422D+01  1  2  6  2  7  2        1 0.173864660067D-03 0.100000000000D+01
0.151182846456D-06 0.000000000000D+00 0.000000000000D+00 0.509320071714D-06 0.000000000000D+00  7 -1 21 23 -11 11 23 -1 2 0.12626185D+00 0.49035832D-01 0.10824424D+06 0.10824424D+06 0.10824424D+06 0.11189096D+01  1  2 12  4  7  2        1 0.506783628209D-05 0.100000000000D+01
-.316079940387D-06 0.000000000000D+00 -.385489140685D-06 0.509320071714D-06 0.000000000000D+00  7 -1 21 23 -11 11 23 -1 2 0.12626185D+00 0.53381158D-01 0.62878465D+05 0.62878465D+05 0.62878465D+05 0.11386422D+01  1  2  5  4  7  2        1 -.950354194829D-05 0.100000000000D+01
  </mgrwgt>
  </event>
  <event>
  8     66 0.27414828E-05 0.15921343E+03 0.75467711E-02 0.96970023E-01
       -1 -1    0    0    0  501 0.00000000E+00 0.00000000E+00 0.77765513E+02 0.77766172E+02 0.32000000E+00 0.0000E+00 0.9000E+01
        1 -1    0    0  501    0 0.00000000E+00 0.00000000E+00 -.29370105E+04 0.29370105E+04 0.32000000E+00 0.0000E+00 0.9000E+01
       25  2    1    2    0    0 0.18166854E+03 -.30942301E+03 -.83777853E+03 0.95968599E+03 0.30062978E+03 0.0000E+00 0.0000E+00
       23  2    1    2    0    0 -.18166854E+03 0.30942301E+03 -.20214664E+04 0.20550907E+04 0.91242024E+02 0.0000E+00 0.0000E+00
       23  1    3    3    0    0 0.87327109E+02 -.60808046E+02 -.50490053E+03 0.52398801E+03 0.91188000E+02 0.0000E+00 0.9000E+01
      -13  1    4    4    0    0 -.17708585E+03 0.23634063E+03 -.16925665E+04 0.17181378E+04 0.10565837E+00 0.0000E+00 0.9000E+01
       13  1    4    4    0    0 -.45826898E+01 0.73082380E+02 -.32889997E+03 0.33695287E+03 0.10565837E+00 0.0000E+00 0.9000E+01
       23  1    3    3    0    0 0.94341433E+02 -.24861497E+03 -.33287800E+03 0.43569798E+03 0.91188000E+02 0.0000E+00 0.9000E+01
#aMCatNLO 1  0  0  1  2 0.26879027D+02 0.00000000D+00  -5  7  0 0.00000000D+00 0.00000000D+00 0.00000000D+00 0.00000000D+00 0.00000000D+00
  <mgrwgt>
 0.1613207775D-03    6    2    0
 0.477911231473293D+03 0.000000000000000D+00 0.000000000000000D+00 0.477911231473293D+03
 0.477911231473293D+03 0.000000000000000D+00 0.000000000000000D+00 -.477911231473293D+03
 0.142361730980583D+03 0.873271086590598D+02 -.608080460049293D+02 -.250593044216923D+02
 0.356070309090356D+03 -.177086082902610D+03 0.236340852727234D+03 -.198921053662188D+03
 0.789181203036641D+02 -.458245852461162D+01 0.730821607853273D+02 -.294290428162621D+02
 0.378472302571984D+03 0.943414327681623D+02 -.248614967507632D+03 0.253409400900142D+03
 0.000000000000000D+00 -.000000000000000D+00 0.000000000000000D+00 -.000000000000000D+00
 0.488307003276739D+03 0.000000000000000D+00 0.000000000000000D+00 0.488307003276739D+03
 0.495796189133928D+03 0.000000000000000D+00 0.000000000000000D+00 -.495796189133928D+03
 0.145375420103485D+03 0.909604939246195D+02 -.625857909844956D+02 -.250593044216923D+02
 0.348816922482916D+03 -.168185157626085D+03 0.231985802528229D+03 -.198921053662188D+03
 0.779303314737746D+02 -.260186320882809D+01 0.721130938899001D+02 -.294290428162621D+02
 0.384077651573959D+03 0.103970490945768D+03 -.253326279020741D+03 0.253409400900142D+03
 0.279028667765325D+02 -.241439640354745D+02 0.118131735871071D+02 -.748918585718826D+01
0.246982606300D-04 0.000000000000D+00 0.000000000000D+00 0.579630676630D-06 0.000000000000D+00  7 -1 1 23 -13 13 23 21 0 0.11963977D-01 0.45184782D+00 0.15594706D+06 0.15594706D+06 0.15594706D+06 0.11062218D+01  1  2  2  1  7  1       -1 0.932135649805D-04 0.100000000000D+01
-.131139852571D-05 0.000000000000D+00 -.948478240204D-07 0.579630676630D-06 0.000000000000D+00  7 -1 1 23 -13 13 23 21 2 0.11963977D-01 0.45184782D+00 0.15594706D+06 0.15594706D+06 0.15594706D+06 0.11062218D+01  1  2  3  1  7  1       -1 -.605664166595D-05 0.100000000000D+01
0.157019032599D-05 0.000000000000D+00 0.000000000000D+00 0.579630676630D-06 0.000000000000D+00  7 -1 1 23 -13 13 23 21 2 0.11963977D-01 0.45184782D+00 0.15594706D+06 0.15594706D+06 0.15594706D+06 0.11062218D+01  1  2 15  1  7  1       -1 0.725186125000D-05 0.100000000000D+01
0.300926891909D-04 0.000000000000D+00 0.000000000000D+00 0.579630676630D-06 0.000000000000D+00  7 -1 1 23 -13 13 23 21 2 0.12441668D-01 0.45184782D+00 0.16703239D+06 0.16703239D+06 0.16703239D+06 0.11038846D+01  1  2 12  1  7  1       -1 0.129745103291D-03 0.100000000000D+01
-.177148755365D-04 0.000000000000D+00 0.000000000000D+00 0.579630676630D-06 0.000000000000D+00  7 -1 1 23 -13 13 23 21 2 0.11963977D-01 0.45184782D+00 0.15594706D+06 0.15594706D+06 0.15594706D+06 0.11062218D+01  1  2  4  1  7  1       -1 -.818154444879D-04 0.100000000000D+01
0.331128073826D-06 0.000000000000D+00 0.000000000000D+00 0.579630676630D-06 0.000000000000D+00  7 21 1 23 -13 13 23 1 2 0.12441668D-01 0.45184782D+00 0.16703239D+06 0.16703239D+06 0.16703239D+06 0.11038846D+01  1  2 12  3  7  1       -1 0.189823340858D-04 0.100000000000D+01
  </mgrwgt>
  </event>
  <event>
  9     66 0.27414828E-05 0.33380724E+03 0.75467711E-02 0.97738532E-01
       21 -1    0    0  502  501 0.00000000E+00 0.00000000E+00 0.13409411E+03 0.13409620E+03 0.75000000E+00 0.0000E+00 0.9000E+01
        1 -1    0    0  501    0 0.00000000E+00 0.00000000E+00 -.12948050E+04 0.12948050E+04 0.32000000E+00 0.0000E+00 0.9000E+01
       25  2    1    2    0    0 -.30561409E+03 -.10519880E+03 -.78654863E+03 0.90233843E+03 0.30180978E+03 0.0000E+00 0.0000E+00
       23  2    1    2    0    0 0.21722129E+03 0.13673443E+03 -.24203242E+03 0.36449437E+03 0.91624535E+02 0.0000E+00 0.0000E+00
       23  1    3    3    0    0 -.17589236E+03 -.15285309E+03 -.61481307E+03 0.66378652E+03 0.91188000E+02 0.0000E+00 0.9000E+01
      -11  1    4    4    0    0 0.18224287E+03 0.12091258E+03 -.24189114E+03 0.32610373E+03 0.51099893E-03 0.0000E+00 0.9000E+01
       11  1    4    4    0    0 0.34978428E+02 0.15821845E+02 -.14127681E+00 0.38390639E+02 0.51099893E-03 0.0000E+00 0.9000E+01
       23  1    3    3    0    0 -.12972173E+03 0.47654293E+02 -.17173556E+03 0.23855191E+03 0.91188000E+02 0.0000E+00 0.9000E+01
        1  1    1    2  502    0 0.88392794E+02 -.31535626E+02 -.13212983E+03 0.16206843E+03 0.32000000E+00 0.0000E+00 0.9000E+01
#aMCatNLO 2  0  0  1  2 0.93849783D+02 0.00000000D+00  -5  7  0 0.00000000D+00 0.00000000D+00 0.00000000D+00 0.00000000D+00 0.00000000D+00
  <mgrwgt>
 0.1067487059D-04    2    2    0
 0.366769198435905D+03 0.000000000000000D+00 0.000000000000000D+00 0.366769198435905D+03
 0.366769198435905D+03 0.000000000000000D+00 0.000000000000000D+00 -.366769198435905D+03
 0.269643920098475D+03 -.142792015402631D+03 -.164662200013187D+03 -.129959195619799D+03
 0.240764698070909D+03 0.210023178252837D+03 0.111001484658336D+03 0.391991688355570D+02
 0.696379291218318D+02 0.430916908166368D+02 0.129273008634012D+02 0.531547951489587D+02
 0.153491849580592D+03 -.110322853666843D+03 0.407334144914496D+02 0.376052316352833D+02
 0.000000000000000D+00 0.000000000000000D+00 -.000000000000000D+00 -.000000000000000D+00
 0.416222271336922D+03 0.000000000000000D+00 0.000000000000000D+00 0.416222271336922D+03
 0.417149748713593D+03 0.000000000000000D+00 0.000000000000000D+00 -.417149748713593D+03
 0.281969560034912D+03 -.175892355766203D+03 -.152853093194584D+03 -.129959195619799D+03
 0.222191109930508D+03 0.182242865823862D+03 0.120912581442372D+03 0.391991688355570D+02
 0.655686925083257D+02 0.349784278951346D+02 0.158218447694471D+02 0.531547951489587D+02
 0.169788292078264D+03 -.129721731879726D+03 0.476542927199135D+02 0.376052316352833D+02
 0.938543654985048D+02 0.883927939269327D+02 -.315356257371486D+02 -.927477376671406D+00
-.133568033304D-06 0.000000000000D+00 0.000000000000D+00 0.792579163104D-07 0.000000000000D+00  7 21 1 23 -11 11 23 1 2 0.21718972D-01 0.17514266D+00 0.14697731D+06 0.14697731D+06 0.14697731D+06 0.11082503D+01  1  2 13  3  7  1       -1 -.473216368456D-04 0.100000000000D+01
0.191396374839D-06 0.000000000000D+00 0.000000000000D+00 0.792579163104D-07 0.128631151085D-11  7 21 1 23 -11 11 23 1 2 0.20630013D-01 0.19920080D+00 0.14697731D+06 0.14697731D+06 0.14697731D+06 0.11082503D+01  1  2  1  3  7  1       -1 0.579965074354D-04 0.100000000000D+01
  </mgrwgt>
  </event>
  <event>
  9     66 0.27414828E-05 0.20305821E+03 0.75467711E-02 0.10560034E+00
       -1 -1    0    0    0  502 0.00000000E+00 0.00000000E+00 0.56648752E+02 0.56649656E+02 0.32000000E+00 0.0000E+00 0.9000E+01
        1 -1    0    0  501    0 0.00000000E+00 0.00000000E+00 -.12153453E+04 0.12153454E+04 0.32000000E+00 0.0000E+00 0.9000E+01
       25  2    1    2    0    0 -.75608749E+02 -.15501461E+02 -.41225961E+03 0.51563282E+03 0.29993705E+03 0.0000E+00 0.0000E+00
       23  2    1    2    0    0 0.61329914E+02 0.94302026E+01 -.69542955E+03 0.70304182E+03 0.82433339E+02 0.0000E+00 0.0000E+00
       23  1    3    3    0    0 -.78921626E+02 -.11601703E+03 -.27940613E+03 0.32568637E+03 0.91188000E+02 0.0000E+00 0.9000E+01
      -11  1    4    4    0    0 -.19971588E+02 0.61630550E+01 -.18346474E+03 0.18465145E+03 0.51099893E-03 0.0000E+00 0.9000E+01
       11  1    4    4    0    0 0.81301502E+02 0.32671476E+01 -.51196481E+03 0.51839037E+03 0.51099893E-03 0.0000E+00 0.9000E+01
       23  1    3    3    0    0 0.33128765E+01 0.10051556E+03 -.13285348E+03 0.18994645E+03 0.91188000E+02 0.0000E+00 0.9000E+01
       21  1    1    2  501  502 0.14278836E+02 0.60712582E+01 -.51007414E+02 0.53320391E+02 0.75000000E+00 0.0000E+00 0.9000E+01
#aMCatNLO 2  0  0  1  1 0.15515970D+02 0.00000000D+00  -5  7  0 0.00000000D+00 0.00000000D+00 0.00000000D+00 0.00000000D+00 0.00000000D+00
  <mgrwgt>
 0.1459740278D-03    2    2    0
 0.253944797398427D+03 0.000000000000000D+00 0.000000000000000D+00 0.253944797398427D+03
 0.253944797398427D+03 0.000000000000000D+00 0.000000000000000D+00 -.253944797398427D+03
 0.168499799091564D+03 -.741359729450725D+02 -.113982199903330D+03 0.398603383149500D+02
 0.424509233791268D+02 -.187718247697042D+02 0.667318575104733D+01 -.374855716574795D+02
 0.129618817977613D+03 0.849112564778557D+02 0.480198934341080D+01 -.978164474697942D+02
 0.167320054348550D+03 0.799654123692094D+01 0.102507024808871D+03 0.954416808123237D+02
 0.000000000000000D+00 0.000000000000000D+00 0.000000000000000D+00 -.000000000000000D+00
 0.259349673950175D+03 0.000000000000000D+00 0.000000000000000D+00 0.259349673950175D+03
 0.265448395620149D+03 0.000000000000000D+00 0.000000000000000D+00 -.265448395620149D+03
 0.172025204667395D+03 -.789216258150999D+02 -.116017025065196D+03 0.398603383149500D+02
 0.429187099376441D+02 -.199715881532611D+02 0.616305499408472D+01 -.374855716574795D+02
 0.127234688067064D+03 0.813015018201643D+02 0.326714763944238D+01 -.978164474697942D+02
 0.165947942418185D+03 0.331287652035298D+01 0.100515564275930D+03 0.954416808123237D+02
 0.166715244800354D+02 0.142788356278438D+02 0.607125815573861D+01 -.609872166997439D+01
-.421475869190D-06 0.000000000000D+00 0.000000000000D+00 0.742158371241D-08 0.000000000000D+00  7 -1 1 23 -11 11 23 21 2 0.85333629D-02 0.17886761D+00 0.41232635D+05 0.41232635D+05 0.41232635D+05 0.11547338D+01  1  2  8  1  7  1       -1 -.578832256250D-04 0.100000000000D+01
0.167504856158D-05 0.000000000000D+00 0.000000000000D+00 0.742158371241D-08 0.218515119289D-09  7 -1 1 23 -11 11 23 21 2 0.87149842D-02 0.18697024D+00 0.44285647D+05 0.44285647D+05 0.44285647D+05 0.11519605D+01  1  2  1  1  7  1       -1 0.203857253378D-03 0.100000000000D+01
  </mgrwgt>
  </event>
  <event>
  8     66 0.27414828E-05 0.33900333E+03 0.75467711E-02 0.92723342E-01
       -1 -1    0    0    0  501 0.00000000E+00 0.00000000E+00 0.10955517E+03 0.10955563E+03 0.32000000E+00 0.0000E+00 0.9000E+01
        1 -1    0    0  501    0 0.00000000E+00 0.00000000E+00 -.11639248E+04 0.11639248E+04 0.32000000E+00 0.0000E+00 0.9000E+01
       25  2    1    2    0    0 -.22415256E+03 -.16128917E+03 -.74516927E+03 0.84995656E+03 0.30148027E+03 0.0000E+00 0.0000E+00
       23  2    1    2    0    0 0.22415256E+03 0.16128917E+03 -.30920036E+03 0.42352391E+03 0.86654915E+02 0.0000E+00 0.0000E+00
       23  1    3    3    0    0 -.97066531E+02 -.19867737E+03 -.52867413E+03 0.58026390E+03 0.91188000E+02 0.0000E+00 0.9000E+01
      -11  1    4    4    0    0 0.14953559E+03 0.12560057E+03 -.15807798E+03 0.25124698E+03 0.51099893E-03 0.0000E+00 0.9000E+01
       11  1    4    4    0    0 0.74616963E+02 0.35688602E+02 -.15112238E+03 0.17227693E+03 0.51099893E-03 0.0000E+00 0.9000E+01
       23  1    3    3    0    0 -.12708603E+03 0.37388194E+02 -.21649514E+03 0.26969266E+03 0.91188000E+02 0.0000E+00 0.9000E+01
#aMCatNLO 1  0  0  2  1 0.39862564D+03 0.00000000D+00  -5  7  0 0.00000000D+00 0.00000000D+00 0.00000000D+00 0.00000000D+00 0.00000000D+00
  <mgrwgt>
 0.2378141148D-03    5    2    0
 0.357091444487045D+03 0.000000000000000D+00 0.000000000000000D+00 0.357091444487045D+03
 0.357091444487045D+03 0.000000000000000D+00 0.000000000000000D+00 -.357091444487045D+03
 0.254188111792730D+03 -.970665305983862D+02 -.198677366699907D+03 -.860333506934171D+02
 0.214630597178699D+03 0.149535592993880D+03 0.125600570473853D+03 0.890499655805450D+02
 0.840855495112565D+02 0.746169633300580D+02 0.356886021423384D+02 -.151331456457879D+02
 0.161278630491404D+03 -.127086025725552D+03 0.373881940837159D+02 0.121165307586599D+02
 0.000000000000000D+00 -.000000000000000D+00 0.000000000000000D+00 -.000000000000000D+00
 0.531343374931641D+03 0.000000000000000D+00 0.000000000000000D+00 0.531343374931641D+03
 0.733522208745201D+03 0.000000000000000D+00 0.000000000000000D+00 -.733522208745201D+03
 0.349120380185303D+03 -.497421613708173D+01 -.325796421495104D+03 -.860333506934171D+02
 0.237994716212785D+03 0.218626801303132D+03 0.302309498241243D+02 0.890499655805450D+02
 0.104599331368461D+03 0.103418857576727D+03 -.406791385320847D+01 -.151331456457879D+02
 0.126185074572960D+03 -.832059904285132D+02 -.231813403445142D+02 0.121165307586599D+02
 0.446966081337333D+03 -.233865452314264D+03 0.322814725868702D+03 -.202178833813560D+03
0.670733797028D-05 0.000000000000D+00 0.000000000000D+00 0.884837780478D-08 0.000000000000D+00  7 -1 1 23 -11 11 23 21 0 0.16854680D-01 0.17906539D+00 0.11492325D+06 0.11492325D+06 0.11492325D+06 0.11167983D+01  1  2  2  2  7  2        1 0.238235858294D-03 0.100000000000D+01
-.371405652138D-06 0.000000000000D+00 -.257579438885D-07 0.884837780478D-08 0.000000000000D+00  7 -1 1 23 -11 11 23 21 2 0.16854680D-01 0.17906539D+00 0.11492325D+06 0.11492325D+06 0.11492325D+06 0.11167983D+01  1  2  3  2  7  2        1 -.164533736284D-04 0.100000000000D+01
0.440288074437D-06 0.000000000000D+00 0.000000000000D+00 0.884837780478D-08 0.000000000000D+00  7 -1 1 23 -11 11 23 21 2 0.16854680D-01 0.17906539D+00 0.11492325D+06 0.11492325D+06 0.11492325D+06 0.11167983D+01  1  2 15  2  7  2        1 0.195048840833D-04 0.100000000000D+01
-.101157366848D-05 0.000000000000D+00 -.181166281168D-05 0.884837780478D-08 0.000000000000D+00  7 -1 1 23 -11 11 23 21 2 0.16854680D-01 0.43235060D+00 0.11492325D+06 0.11492325D+06 0.11492325D+06 0.11167983D+01  1  2  5  2  7  2        1 -.348850033425D-05 0.100000000000D+01
0.159885474209D-07 0.000000000000D+00 -.174868142245D-06 0.884837780478D-08 0.000000000000D+00  7 -1 21 23 -11 11 23 -1 2 0.16854680D-01 0.43235060D+00 0.11492325D+06 0.11492325D+06 0.11492325D+06 0.11167983D+01  1  2  5  4  7  2        1 0.152463790520D-07 0.100000000000D+01
  </mgrwgt>
  </event>
  <event>
  8     66 0.27414828E-05 0.78344680E+02 0.75467711E-02 0.10460885E+00
       -1 -1    0    0    0  501 0.00000000E+00 0.00000000E+00 0.55312058E+02 0.55312984E+02 0.32000000E+00 0.0000E+00 0.9000E+01
        1 -1    0    0  501    0 0.00000000E+00 0.00000000E+00 -.10541776E+04 0.10541776E+04 0.32000000E+00 0.0000E+00 0.9000E+01
       25  2    1    2    0    0 -.27827169E+02 -.11298996E+03 -.79790949E+03 0.86027942E+03 0.29980001E+03 0.0000E+00 0.0000E+00
       23  2    1    2    0    0 0.27827169E+02 0.11298996E+03 -.20095603E+03 0.24921119E+03 0.90453347E+02 0.0000E+00 0.0000E+00
       23  1    3    3    0    0 0.11181021E+02 -.36574145E+02 -.68368637E+03 0.69080025E+03 0.91188000E+02 0.0000E+00 0.9000E+01
      -11  1    4    4    0    0 0.49340395E+01 -.29441788E+00 -.86201164E+02 0.86342759E+02 0.51099893E-03 0.0000E+00 0.9000E+01
       11  1    4    4    0    0 0.22893130E+02 0.11328438E+03 -.11475487E+03 0.16286843E+03 0.51099893E-03 0.0000E+00 0.9000E+01
       23  1    3    3    0    0 -.39008190E+02 -.76415818E+02 -.11422312E+03 0.16947917E+03 0.91188000E+02 0.0000E+00 0.9000E+01
#aMCatNLO 1  0  0  2  1 0.93799880D+02 0.00000000D+00  -5  7  0 0.00000000D+00 0.00000000D+00 0.00000000D+00 0.00000000D+00 0.00000000D+00
  <mgrwgt>
 0.1820015225D-03    7    2    0
 0.241473128248815D+03 0.000000000000000D+00 0.000000000000000D+00 0.241473128248815D+03
 0.241473128248815D+03 0.000000000000000D+00 0.000000000000000D+00 -.241473128248815D+03
 0.172950198257075D+03 0.111810205130860D+02 -.365741451921939D+02 -.141893750450496D+03
 0.200707846124992D+02 0.493403948622525D+01 -.294417881596203D+00 -.194526339455793D+02
 0.136819189461378D+03 0.228931295601103D+02 0.113284381070940D+03 0.732259805614545D+02
 0.153106084166678D+03 -.390081895594216D+02 -.764158179971496D+02 0.881204038346211D+02
 0.000000000000000D+00 -.000000000000000D+00 -.000000000000000D+00 -.000000000000000D+00
 0.252727080368187D+03 0.000000000000000D+00 0.000000000000000D+00 0.252727080368187D+03
 0.572260780509113D+03 0.000000000000000D+00 0.000000000000000D+00 -.572260780509113D+03
 0.175298447499091D+03 0.418304359016089D+02 -.230363314563128D+02 -.141893750450496D+03
 0.212993475359255D+02 0.857503100291001D+01 0.131380414619683D+01 -.194526339455793D+02
 0.152333151878622D+03 0.483414703599732D+02 0.124524885767965D+03 0.732259805614545D+02
 0.143040093042643D+03 -.129443202188733D+02 -.649034350072668D+02 0.881204038346211D+02
 0.333016820921019D+03 -.858026170456188D+02 -.378989234505820D+02 -.319533700140927D+03
0.172271060864D-05 0.000000000000D+00 0.000000000000D+00 0.195774512990D-06 0.000000000000D+00  7 -1 1 23 -11 11 23 21 0 0.85096223D-02 0.16218124D+00 0.29688251D+05 0.29688251D+05 0.29688251D+05 0.11677571D+01  1  2  2  2  7  2        1 0.212763169594D-03 0.100000000000D+01
-.824510936177D-07 0.000000000000D+00 -.661566233729D-08 0.195774512990D-06 0.000000000000D+00  7 -1 1 23 -11 11 23 21 2 0.85096223D-02 0.16218124D+00 0.29688251D+05 0.29688251D+05 0.29688251D+05 0.11677571D+01  1  2  3  2  7  2        1 -.138862683425D-04 0.100000000000D+01
0.113142919488D-06 0.000000000000D+00 0.000000000000D+00 0.195774512990D-06 0.000000000000D+00  7 -1 1 23 -11 11 23 21 2 0.85096223D-02 0.16218124D+00 0.29688251D+05 0.29688251D+05 0.29688251D+05 0.11677571D+01  1  2 15  2  7  2        1 0.190553317382D-04 0.100000000000D+01
0.271637101341D-05 0.000000000000D+00 0.000000000000D+00 0.195774512990D-06 0.000000000000D+00  7 -1 1 23 -11 11 23 21 2 0.85096223D-02 0.38258950D+00 0.50999793D+05 0.50999793D+05 0.50999793D+05 0.11465398D+01  1  2 12  2  7  2        1 0.494388423645D-04 0.100000000000D+01
-.462558294521D-05 0.000000000000D+00 -.474908778666D-06 0.195774512990D-06 0.000000000000D+00  7 -1 1 23 -11 11 23 21 2 0.85096223D-02 0.38809251D+00 0.29688251D+05 0.29688251D+05 0.29688251D+05 0.11677571D+01  1  2  5  2  7  2        1 -.842698108639D-04 0.100000000000D+01
0.254483794482D-06 0.000000000000D+00 0.000000000000D+00 0.195774512990D-06 0.000000000000D+00  7 -1 21 23 -11 11 23 -1 2 0.85096223D-02 0.38258950D+00 0.50999793D+05 0.50999793D+05 0.50999793D+05 0.11465398D+01  1  2 12  4  7  2        1 0.175195940438D-05 0.100000000000D+01
-.411526248896D-06 0.000000000000D+00 -.453176473036D-07 0.195774512990D-06 0.000000000000D+00  7 -1 21 23 -11 11 23 -1 2 0.85096223D-02 0.38809251D+00 0.29688251D+05 0.29688251D+05 0.29688251D+05 0.11677571D+01  1  2  5  4  7  2        1 -.285170139726D-05 0.100000000000D+01
  </mgrwgt>
  </event>
  <event>
  8     66 0.27414828E-05 0.46742829E+03 0.75467711E-02 0.90096486E-01
       -1 -1    0    0    0  501 0.00000000E+00 0.00000000E+00 0.49262691E+03 0.49262701E+03 0.32000000E+00 0.0000E+00 0.9000E+01
        1 -1    0    0  501    0 0.00000000E+00 0.00000000E+00 -.47957262E+03 0.47957273E+03 0.32000000E+00 0.0000E+00 0.9000E+01
       25  2    1    2    0    0 0.30697405E+03 -.30803327E+03 0.54198344E+01 0.52716202E+03 0.29791418E+03 0.0000E+00 0.0000E+00
       23  2    1    2    0    0 -.30697405E+03 0.30803327E+03 0.76344513E+01 0.44503772E+03 0.94248176E+02 0.0000E+00 0.0000E+00
       23  1    3    3    0    0 0.47578608E+02 -.33885925E+02 -.73588479E+02 0.13092935E+03 0.91188000E+02 0.0000E+00 0.9000E+01
      -13  1    4    4    0    0 -.20867836E+03 0.17182182E+03 0.42074453E+02 0.27356840E+03 0.10565837E+00 0.0000E+00 0.9000E+01
       13  1    4    4    0    0 -.98295684E+02 0.13621146E+03 -.34440002E+02 0.17146932E+03 0.10565837E+00 0.0000E+00 0.9000E+01
       23  1    3    3    0    0 0.25939544E+03 -.27414735E+03 0.79008314E+02 0.39623267E+03 0.91188000E+02 0.0000E+00 0.9000E+01
#aMCatNLO 1  0  0  1  1 0.47389265D+03 0.00000000D+00  -5  7  0 0.00000000D+00 0.00000000D+00 0.00000000D+00 0.00000000D+00 0.00000000D+00
  <mgrwgt>
 0.2167472374D-03    3    2    0
 0.486056045092771D+03 0.000000000000000D+00 0.000000000000000D+00 0.486056045092771D+03
 0.486056045092771D+03 0.000000000000000D+00 0.000000000000000D+00 -.486056045092771D+03
 0.131929361637942D+03 0.475786076512452D+02 -.338859249334648D+02 -.753533363798010D+02
 0.273028179632385D+03 -.208678502359367D+03 0.171821862640601D+03 0.384046487438716D+02
 0.171947139477282D+03 -.982955454531322D+02 0.136211412240177D+03 -.367458255319930D+02
 0.395207409437933D+03 0.259395440161254D+03 -.274147349947312D+03 0.736945131679224D+02
 0.000000000000000D+00 -.000000000000000D+00 -.000000000000000D+00 -.000000000000000D+00
 0.622233625180184D+03 0.000000000000000D+00 0.000000000000000D+00 0.622233625180184D+03
 0.122962203765939D+04 0.000000000000000D+00 0.000000000000000D+00 -.122962203765939D+04
 0.144043248625892D+03 0.793846847928629D+02 0.212873823536576D+02 -.753533363798010D+02
 0.325502736565291D+03 -.139697307181966D+03 0.291482035179632D+03 0.384046487438716D+02
 0.224885616419913D+03 -.525602341324894D+02 0.215547457805640D+03 -.367458255319930D+02
 0.387037842427558D+03 0.349549868170295D+03 -.117758432895702D+03 0.736945131679224D+02
 0.770386218800922D+03 -.236677011648703D+03 -.410558442443229D+03 -.607388412479207D+03
0.206961431002D-04 0.000000000000D+00 0.000000000000D+00 0.147107174846D-07 0.000000000000D+00  7 -1 1 23 -13 13 23 21 0 0.75788771D-01 0.73780419D-01 0.21848920D+06 0.21848920D+06 0.21848920D+06 0.10948883D+01  1  2  2  1  7  1       -1 0.214445454156D-03 0.100000000000D+01
-.114765089944D-05 0.000000000000D+00 -.794786389245D-07 0.147107174846D-07 0.000000000000D+00  7 -1 1 23 -13 13 23 21 2 0.75788771D-01 0.73780419D-01 0.21848920D+06 0.21848920D+06 0.21848920D+06 0.10948883D+01  1  2  3  1  7  1       -1 -.142553159312D-04 0.100000000000D+01
0.133296026865D-05 0.000000000000D+00 0.000000000000D+00 0.147107174846D-07 0.000000000000D+00  7 -1 1 23 -13 13 23 21 2 0.75788771D-01 0.73780419D-01 0.21848920D+06 0.21848920D+06 0.21848920D+06 0.10948883D+01  1  2 15  1  7  1       -1 0.165570991689D-04 0.100000000000D+01
  </mgrwgt>
  </event>
  <event>
  8     66 0.27414828E-05 0.47149403E+03 0.75467711E-02 0.92319615E-01
       -1 -1    0    0    0  501 0.00000000E+00 0.00000000E+00 0.26520841E+03 0.26520860E+03 0.32000000E+00 0.0000E+00 0.9000E+01
        1 -1    0    0  501    0 0.00000000E+00 0.00000000E+00 -.97203787E+03 0.97203792E+03 0.32000000E+00 0.0000E+00 0.9000E+01
       25  2    1    2    0    0 0.25954458E+03 0.35503725E+03 -.54046890E+03 0.75847507E+03 0.29960468E+03 0.0000E+00 0.0000E+00
       23  2    1    2    0    0 -.25954458E+03 -.35503725E+03 -.16636055E+03 0.47877145E+03 0.90174442E+02 0.0000E+00 0.0000E+00
       23  1    3    3    0    0 0.23544841E+03 0.22972316E+03 -.23294459E+03 0.41326398E+03 0.91188000E+02 0.0000E+00 0.9000E+01
      -11  1    4    4    0    0 -.24406106E+03 -.35302435E+03 -.14646330E+03 0.45347932E+03 0.51099893E-03 0.0000E+00 0.9000E+01
       11  1    4    4    0    0 -.15483519E+02 -.20128965E+01 -.19897255E+02 0.25292131E+02 0.51099893E-03 0.0000E+00 0.9000E+01
       23  1    3    3    0    0 0.24096177E+02 0.12531409E+03 -.30752431E+03 0.34521110E+03 0.91188000E+02 0.0000E+00 0.9000E+01
#aMCatNLO 1  0  0  2  1 0.26068589D+03 0.00000000D+00  -5  7  0 0.00000000D+00 0.00000000D+00 0.00000000D+00 0.00000000D+00 0.00000000D+00
  <mgrwgt>
 0.3336955877D-03    3    2    0
 0.507732969996935D+03 0.000000000000000D+00 0.000000000000000D+00 0.507732969996935D+03
 0.507732969996935D+03 0.000000000000000D+00 0.000000000000000D+00 -.507732969996935D+03
 0.341377594160393D+03 0.235448406528453D+03 0.229723156770516D+03 0.383791054342070D+01
 0.450572607285233D+03 -.244061064848622D+03 -.353024349661551D+03 0.137199415475465D+03
 0.169662357970719D+02 -.154835188530059D+02 -.201289650862191D+01 -.663792502940737D+01
 0.206549502751173D+03 0.240961771731744D+02 0.125314089399656D+03 -.134399400989478D+03
 0.000000000000000D+00 -.000000000000000D+00 0.000000000000000D+00 0.000000000000000D+00
 0.919560146729517D+03 0.000000000000000D+00 0.000000000000000D+00 0.919560146729517D+03
 0.567167867872493D+03 0.000000000000000D+00 0.000000000000000D+00 -.567167867872493D+03
 0.319407849065369D+03 0.265716536640322D+03 0.151941157357376D+03 0.383791054342070D+01
 0.526918632943383D+03 -.199285816928484D+03 -.468086241313778D+03 0.137199415475465D+03
 0.165564602145935D+02 -.139479684939841D+02 -.595890099197943D+01 -.663792502940737D+01
 0.185510212366711D+03 0.420549784610470D+02 0.791641797068119D+02 -.134399400989478D+03
 0.438334860011954D+03 -.945377296789008D+02 0.242939805241570D+03 0.352392278857024D+03
0.296300496417D-04 0.000000000000D+00 0.000000000000D+00 0.109137280970D-05 0.000000000000D+00  7 -1 1 23 -11 11 23 21 0 0.40801313D-01 0.14954431D+00 0.22230662D+06 0.22230662D+06 0.22230662D+06 0.10943157D+01  1  2  2  2  7  2        1 0.331154447063D-03 0.100000000000D+01
-.163513942681D-05 0.000000000000D+00 -.113787192395D-06 0.109137280970D-05 0.000000000000D+00  7 -1 1 23 -11 11 23 21 2 0.40801313D-01 0.14954431D+00 0.22230662D+06 0.22230662D+06 0.22230662D+06 0.10943157D+01  1  2  3  2  7  2        1 -.218845841747D-04 0.100000000000D+01
0.182500455016D-05 0.000000000000D+00 0.000000000000D+00 0.109137280970D-05 0.000000000000D+00  7 -1 1 23 -11 11 23 21 2 0.40801313D-01 0.14954431D+00 0.22230662D+06 0.22230662D+06 0.22230662D+06 0.10943157D+01  1  2 15  2  7  2        1 0.244257248295D-04 0.100000000000D+01
  </mgrwgt>
  </event>
  <event>
  8     66 0.27414828E-05 0.27482222E+03 0.75467711E-02 0.96477280E-01
       -3 -1    0    0    0  501 0.00000000E+00 0.00000000E+00 0.52149947E+03 0.52149971E+03 0.50000000E+00 0.0000E+00 0.9000E+01
        3 -1    0    0  501    0 0.00000000E+00 0.00000000E+00 -.70557389E+03 0.70557407E+03 0.50000000E+00 0.0000E+00 0.9000E+01
       25  2    1    2    0    0 -.12731848E+02 -.36003040E+03 0.34403719E+03 0.58158475E+03 0.30015870E+03 0.0000E+00 0.0000E+00
       23  2    1    2    0    0 0.12731848E+02 0.36003040E+03 -.52811161E+03 0.64548903E+03 0.89276176E+02 0.0000E+00 0.0000E+00
       23  1    3    3    0    0 0.81556851E+02 -.28549376E+03 0.18116857E+03 0.35957685E+03 0.91188000E+02 0.0000E+00 0.9000E+01
      -11  1    4    4    0    0 0.12338736E+02 0.10136738E+03 -.87091231E+02 0.13421056E+03 0.51099893E-03 0.0000E+00 0.9000E+01
       11  1    4    4    0    0 0.39311232E+00 0.25866301E+03 -.44102038E+03 0.51127848E+03 0.51099893E-03 0.0000E+00 0.9000E+01
       23  1    3    3    0    0 -.94288699E+02 -.74536632E+02 0.16286863E+03 0.22200790E+03 0.91188000E+02 0.0000E+00 0.9000E+01
#aMCatNLO 1  0  0  2  1 0.31968222D+02 0.00000000D+00  -5  7  0 0.00000000D+00 0.00000000D+00 0.00000000D+00 0.00000000D+00 0.00000000D+00
  <mgrwgt>
 0.1763645876D-04    9    2    0
 0.606594319862511D+03 0.000000000000000D+00 0.000000000000000D+00 0.606594319862511D+03
 0.606594319862511D+03 0.000000000000000D+00 0.000000000000000D+00 -.606594319862511D+03
 0.391180566661138D+03 0.815568512242550D+02 -.285493762602346D+03 0.237799865270923D+03
 0.122532458379670D+03 0.123387356774025D+02 0.101367382784136D+03 -.677245351844010D+02
 0.450215100622678D+03 0.393112323387223D+00 0.258663012219196D+03 -.368492779306571D+03
 0.249260514061536D+03 -.942886992250447D+02 -.745366324009860D+02 0.198417449220048D+03
 0.000000000000000D+00 -.000000000000000D+00 0.000000000000000D+00 -.000000000000000D+00
 0.621434166896698D+03 0.000000000000000D+00 0.000000000000000D+00 0.621434166896698D+03
 0.624269282342625D+03 0.000000000000000D+00 0.000000000000000D+00 -.624269282342625D+03
 0.399127309529305D+03 0.849865956099120D+02 -.295323315218879D+03 0.237799865270923D+03
 0.120160127684256D+03 0.133919626027188D+02 0.983488635257209D+02 -.677245351844010D+02
 0.443939366636082D+03 0.427352571212071D+01 0.247541854695631D+03 -.368492779306571D+03
 0.250382953340695D+03 -.921203678332162D+02 -.807510102406847D+02 0.198417449220048D+03
 0.320936920489849D+02 -.105317160915353D+02 0.301836072382119D+02 -.283511544592710D+01
0.205148597963D-04 0.000000000000D+00 0.000000000000D+00 0.144062021015D-05 0.000000000000D+00  7 -3 3 23 -11 11 23 21 0 0.80230720D-01 0.10854986D+00 0.16902344D+06 0.16902344D+06 0.16902344D+06 0.11034829D+01  1  2  2  2  7  2        3 0.870191516072D-05 0.100000000000D+01
-.930063828394D-06 0.000000000000D+00 -.787824633045D-07 0.144062021015D-05 0.000000000000D+00  7 -3 3 23 -11 11 23 21 2 0.80230720D-01 0.10854986D+00 0.16902344D+06 0.16902344D+06 0.16902344D+06 0.11034829D+01  1  2  3  2  7  2        3 -.480385870950D-06 0.100000000000D+01
0.122125471958D-05 0.000000000000D+00 0.000000000000D+00 0.144062021015D-05 0.000000000000D+00  7 -3 3 23 -11 11 23 21 2 0.80230720D-01 0.10854986D+00 0.16902344D+06 0.16902344D+06 0.16902344D+06 0.11034829D+01  1  2 15  2  7  2        3 0.630788440757D-06 0.100000000000D+01
0.396616040296D-04 0.000000000000D+00 0.000000000000D+00 0.144062021015D-05 0.000000000000D+00  7 -3 3 23 -11 11 23 21 2 0.80230720D-01 0.11300525D+00 0.18150654D+06 0.18150654D+06 0.18150654D+06 0.11010764D+01  1  2 12  2  7  2        3 0.184138416940D-04 0.100000000000D+01
-.322711213825D-04 0.000000000000D+00 0.000000000000D+00 0.144062021015D-05 0.000000000000D+00  7 -3 3 23 -11 11 23 21 2 0.80230720D-01 0.10854986D+00 0.16902344D+06 0.16902344D+06 0.16902344D+06 0.11034829D+01  1  2  4  2  7  2        3 -.166683084307D-04 0.100000000000D+01
-.305789605121D-03 0.000000000000D+00 -.535747728259D-04 0.144062021015D-05 0.000000000000D+00  7 -3 3 23 -11 11 23 21 2 0.80230720D-01 0.11385240D+00 0.16902344D+06 0.16902344D+06 0.16902344D+06 0.11034829D+01  1  2  5  2  7  2        3 -.140225810765D-03 0.100000000000D+01
0.308055211079D-03 0.000000000000D+00 0.535138986053D-04 0.144062021015D-05 0.000000000000D+00  7 -3 3 23 -11 11 23 21 2 0.80230720D-01 0.10854986D+00 0.16902344D+06 0.16902344D+06 0.16902344D+06 0.11034829D+01  1  2  6  2  7  2        3 0.159113134343D-03 0.100000000000D+01
0.531543380130D-06 0.000000000000D+00 0.000000000000D+00 0.144062021015D-05 0.000000000000D+00  7 -3 21 23 -11 11 23 -3 2 0.80230720D-01 0.11300525D+00 0.18150654D+06 0.18150654D+06 0.18150654D+06 0.11010764D+01  1  2 12  4  7  2        3 0.323335998289D-05 0.100000000000D+01
-.250612199568D-05 0.000000000000D+00 -.446613618463D-06 0.144062021015D-05 0.000000000000D+00  7 -3 21 23 -11 11 23 -3 2 0.80230720D-01 0.11385240D+00 0.16902344D+06 0.16902344D+06 0.16902344D+06 0.11034829D+01  1  2  5  4  7  2        3 -.150820757986D-04 0.100000000000D+01
  </mgrwgt>
  </event>
  <event>
  8     66 0.27414828E-05 0.22872633E+03 0.75467711E-02 0.10211970E+00
       -1 -1    0    0    0  501 0.00000000E+00 0.00000000E+00 0.91365413E+02 0.91365974E+02 0.32000000E+00 0.0000E+00 0.9000E+01
        1 -1    0    0  501    0 0.00000000E+00 0.00000000E+00 -.12485283E+04 0.12485283E+04 0.32000000E+00 0.0000E+00 0.9000E+01
       25  2    1    2    0    0 0.15789024E+03 -.30840344E+01 -.26792063E+03 0.43214338E+03 0.30004599E+03 0.0000E+00 0.0000E+00
       23  2    1    2    0    0 -.15789024E+03 0.30840344E+01 -.88924222E+03 0.90775090E+03 0.91220235E+02 0.0000E+00 0.0000E+00
       23  1    3    3    0    0 0.46339030E+02 -.82577940E+02 -.22741458E+03 0.26267673E+03 0.91188000E+02 0.0000E+00 0.9000E+01
      -13  1    4    4    0    0 -.67023280E+02 0.17897549E+02 -.18614479E+03 0.19865129E+03 0.10565837E+00 0.0000E+00 0.9000E+01
       13  1    4    4    0    0 -.90866960E+02 -.14813515E+02 -.70309743E+03 0.70909961E+03 0.10565837E+00 0.0000E+00 0.9000E+01
       23  1    3    3    0    0 0.11155121E+03 0.79493906E+02 -.40506049E+02 0.16946665E+03 0.91188000E+02 0.0000E+00 0.9000E+01
#aMCatNLO 1  0  0  2  2 0.76166876D+02 0.00000000D+00  -5  7  0 0.00000000D+00 0.00000000D+00 0.00000000D+00 0.00000000D+00 0.00000000D+00
  <mgrwgt>
 0.1617257558D-03    4    2    0
 0.337746508353217D+03 0.000000000000000D+00 0.000000000000000D+00 0.337746508353217D+03
 0.337746508353217D+03 0.000000000000000D+00 0.000000000000000D+00 -.337746508353217D+03
 0.131464488627428D+03 0.463390300641991D+02 -.825779402580297D+02 -.111287983253216D+01
 0.751625534094441D+02 -.670232474758937D+02 0.178975928896970D+02 -.289304321012893D+02
 0.202104820082600D+03 -.908669924636884D+02 -.148135585315171D+02 -.179916943240089D+03
 0.266761154586963D+03 0.111551209875383D+03 0.794939058998497D+02 0.209960255173910D+03
 0.000000000000000D+00 0.000000000000000D+00 0.000000000000000D+00 0.000000000000000D+00
 0.424812114341060D+03 0.000000000000000D+00 0.000000000000000D+00 0.424812114341060D+03
 0.356964753254393D+03 0.000000000000000D+00 0.000000000000000D+00 -.356964753254393D+03
 0.127273182187485D+03 0.318011401384073D+02 -.828894477271045D+02 -.111287983253216D+01
 0.831512663117799D+02 -.759185462454541D+02 0.177069908132943D+02 -.289304321012893D+02
 0.213664929530807D+03 -.114228163008806D+03 -.153141249237708D+02 -.179916943240089D+03
 0.255684267095288D+03 0.821961723629532D+02 0.788649072290130D+02 0.209960255173910D+03
 0.102003222470094D+03 0.761493967528998D+02 0.163167460856805D+01 0.678473610866677D+02
0.495098335760D-05 0.000000000000D+00 0.000000000000D+00 0.131199459168D-05 0.000000000000D+00  7 -1 1 23 -13 13 23 21 0 0.14056264D-01 0.19208132D+00 0.52315733D+05 0.52315733D+05 0.52315733D+05 0.11455699D+01  1  2  2  2  7  2        1 0.206979675553D-03 0.100000000000D+01
-.224248513590D-06 0.000000000000D+00 -.190130797170D-07 0.131199459168D-05 0.000000000000D+00  7 -1 1 23 -13 13 23 21 2 0.14056264D-01 0.19208132D+00 0.52315733D+05 0.52315733D+05 0.52315733D+05 0.11455699D+01  1  2  3  2  7  2        1 -.123029427157D-04 0.100000000000D+01
0.306920260473D-06 0.000000000000D+00 0.000000000000D+00 0.131199459168D-05 0.000000000000D+00  7 -1 1 23 -13 13 23 21 2 0.14056264D-01 0.19208132D+00 0.52315733D+05 0.52315733D+05 0.52315733D+05 0.11455699D+01  1  2 15  2  7  2        1 0.168385614801D-04 0.100000000000D+01
-.907525155218D-06 0.000000000000D+00 0.000000000000D+00 0.131199459168D-05 0.000000000000D+00  7 -1 1 23 -13 13 23 21 2 0.14056264D-01 0.19208132D+00 0.52315733D+05 0.52315733D+05 0.52315733D+05 0.11455699D+01  1  2  4  2  7  2        1 -.497895384856D-04 0.100000000000D+01
  </mgrwgt>
  </event>
  <event>
  9     66 0.27414828E-05 0.21529192E+03 0.75467711E-02 0.10006430E+00
       21 -1    0    0  502  501 0.00000000E+00 0.00000000E+00 0.11195887E+03 0.11196139E+03 0.75000000E+00 0.0000E+00 0.9000E+01
        1 -1    0    0  501    0 0.00000000E+00 0.00000000E+00 -.19225059E+04 0.19225059E+04 0.32000000E+00 0.0000E+00 0.9000E+01
       25  2    1    2    0    0 -.93160920E+00 -.72124313E+02 -.14817598E+04 0.15134719E+04 0.29963729E+03 0.0000E+00 0.0000E+00
       23  2    1    2    0    0 -.15643101E+03 0.16403474E+02 -.38342888E+02 0.18599412E+03 0.91563645E+02 0.0000E+00 0.0000E+00
       23  1    3    3    0    0 -.94072627E+01 0.85718637E+02 -.57685790E+03 0.59035283E+03 0.91188000E+02 0.0000E+00 0.9000E+01
      -13  1    4    4    0    0 -.37197528E+02 0.18427063E+02 0.27480047E+02 0.49783299E+02 0.10565837E+00 0.0000E+00 0.9000E+01
       13  1    4    4    0    0 -.11923348E+03 -.20235890E+01 -.65822934E+02 0.13621082E+03 0.10565837E+00 0.0000E+00 0.9000E+01
       23  1    3    3    0    0 0.84756535E+01 -.15784295E+03 -.90490186E+03 0.92311909E+03 0.91188000E+02 0.0000E+00 0.9000E+01
        1  1    1    2  502    0 0.15736262E+03 0.55720839E+02 -.29044436E+03 0.33500124E+03 0.32000000E+00 0.0000E+00 0.9000E+01
#aMCatNLO 2  0  0  1  2 0.16693653D+03 0.00000000D+00  -5  7  0 0.00000000D+00 0.00000000D+00 0.00000000D+00 0.00000000D+00 0.00000000D+00
  <mgrwgt>
 0.3074142495D-04    2    2    0
 0.370676739493014D+03 0.000000000000000D+00 0.000000000000000D+00 0.370676739493014D+03
 0.370676739493014D+03 0.000000000000000D+00 0.000000000000000D+00 -.370676739493014D+03
 0.174946693475548D+03 0.263658715670455D+02 0.983856163035218D+02 -.109161373823865D+03
 0.163957954244000D+03 -.257941262075583D+01 0.306850478435016D+02 0.161040321749714D+03
 0.151820138118804D+03 -.851912148179911D+02 0.100305153828134D+02 0.125264520185896D+03
 0.250628693147676D+03 0.614047558717014D+02 -.139101179529837D+03 -.177143468111745D+03
 0.000000000000000D+00 0.000000000000000D+00 0.000000000000000D+00 0.000000000000000D+00
 0.474345988863006D+03 0.000000000000000D+00 0.000000000000000D+00 0.474345988863006D+03
 0.453770111083036D+03 0.000000000000000D+00 0.000000000000000D+00 -.453770111083036D+03
 0.166335919684846D+03 -.940726263048534D+01 0.857186368772328D+02 -.109161373823865D+03
 0.166304512344415D+03 -.371974185844009D+02 0.184270900447994D+02 0.161040321749714D+03
 0.172950698142845D+03 -.119233589849772D+03 -.202361612740083D+01 0.125264520185896D+03
 0.254325171850523D+03 0.847565348097120D+01 -.157842949466271D+03 -.177143468111745D+03
 0.168199797923413D+03 0.157362617583687D+03 0.557208386716399D+02 0.205758777799695D+02
-.116555114529D-07 0.000000000000D+00 0.000000000000D+00 0.741750560766D-06 0.000000000000D+00  7 21 1 23 -13 13 23 1 2 0.18372414D-01 0.24160945D+00 0.10102559D+06 0.10102559D+06 0.10102559D+06 0.11213586D+01  1  2 13  3  7  1       -1 -.298154545506D-05 0.100000000000D+01
0.199320761690D-06 0.000000000000D+00 0.000000000000D+00 0.741750560766D-06 0.793411496927D-11  7 21 1 23 -13 13 23 1 2 0.17224632D-01 0.29577023D+00 0.10102559D+06 0.10102559D+06 0.10102559D+06 0.11213586D+01  1  2  1  3  7  1       -1 0.337229704064D-04 0.100000000000D+01
  </mgrwgt>
  </event>
  <event>
  9     66 0.27414828E-05 0.36551772E+03 0.75467711E-02 0.97282451E-01
       -1 -1    0    0    0  501 0.00000000E+00 0.00000000E+00 0.80031452E+03 0.80031458E+03 0.32000000E+00 0.0000E+00 0.9000E+01
        1 -1    0    0  502    0 0.00000000E+00 0.00000000E+00 -.26999939E+03 0.26999958E+03 0.32000000E+00 0.0000E+00 0.9000E+01
       25  2    1    2    0    0 0.26900143E+03 0.16841083E+03 0.46885040E+03 0.64079321E+03 0.30011874E+03 0.0000E+00 0.0000E+00
       23  2    1    2    0    0 -.28900232E+03 -.10738548E+03 0.12129682E+03 0.34174527E+03 0.83802909E+02 0.0000E+00 0.0000E+00
       23  1    3    3    0    0 0.14535247E+03 0.19504089E+03 0.19191673E+03 0.32297921E+03 0.91188000E+02 0.0000E+00 0.9000E+01
      -13  1    4    4    0    0 -.17865675E+03 -.10242454E+03 0.55924628E+02 0.21339305E+03 0.10565837E+00 0.0000E+00 0.9000E+01
       13  1    4    4    0    0 -.11034558E+03 -.49609369E+01 0.65372189E+02 0.12835222E+03 0.10565837E+00 0.0000E+00 0.9000E+01
       23  1    3    3    0    0 0.12364897E+03 -.26630055E+02 0.27693367E+03 0.31781399E+03 0.91188000E+02 0.0000E+00 0.9000E+01
       21  1    1    2  502  501 0.20000889E+02 -.61025355E+02 -.59832087E+02 0.87775684E+02 0.75000000E+00 0.0000E+00 0.9000E+01
#aMCatNLO 2  0  0  2  1 0.64219386D+02 0.00000000D+00  -5  7  0 0.00000000D+00 0.00000000D+00 0.00000000D+00 0.00000000D+00 0.00000000D+00
  <mgrwgt>
 0.1301597980D-04    2    2    0
 0.391466471318617D+03 0.000000000000000D+00 0.000000000000000D+00 0.391466471318617D+03
 0.391466471318617D+03 0.000000000000000D+00 0.000000000000000D+00 -.391466471318617D+03
 0.249172193020221D+03 0.151842557720120D+03 0.175238769372623D+03 -.259649846654149D+01
 0.229062363613559D+03 -.172868246344762D+03 -.120086505057468D+03 -.903624210222349D+02
 0.109367427201016D+03 -.107529997986194D+03 -.135511587018841D+02 -.146594598636847D+02
 0.195330958802439D+03 0.128555686610836D+03 -.416011056132706D+02 0.107618379352461D+03
 0.000000000000000D+00 0.000000000000000D+00 -.000000000000000D+00 -.000000000000000D+00
 0.399759218526546D+03 0.000000000000000D+00 0.000000000000000D+00 0.399759218526546D+03
 0.540534374803297D+03 0.000000000000000D+00 0.000000000000000D+00 -.540534374803297D+03
 0.259788918108387D+03 0.145352467969832D+03 0.195040890273600D+03 -.259649846654149D+01
 0.224887655100143D+03 -.178656854352678D+03 -.102424697589239D+03 -.903624210222349D+02
 0.111425454063197D+03 -.110345469707505D+03 -.496078267261571D+01 -.146594598636847D+02
 0.189460269535702D+03 0.123648966721176D+03 -.266300552548438D+02 0.107618379352461D+03
 0.154731296522414D+03 0.200008893691740D+02 -.610253547569013D+02 -.140775156276751D+03
-.363248701859D-04 0.000000000000D+00 0.000000000000D+00 0.122104312037D-07 0.000000000000D+00  7 -1 1 23 -13 13 23 21 2 0.12057090D+00 0.41766228D-01 0.15852929D+06 0.15852929D+06 0.15852929D+06 0.11056615D+01  1  2 13  2  7  2        1 -.359547511892D-03 0.100000000000D+01
0.393559958543D-04 0.000000000000D+00 0.000000000000D+00 0.122104312037D-07 0.213337740505D-10  7 -1 1 23 -13 13 23 21 2 0.12312505D+00 0.41538294D-01 0.15852929D+06 0.15852929D+06 0.15852929D+06 0.11056615D+01  1  2  1  2  7  2        1 0.372563491692D-03 0.100000000000D+01
  </mgrwgt>
  </event>
  <event>
  8     66 0.27414828E-05 0.86328831E+03 0.75467711E-02 0.84357976E-01
       -1 -1    0    0    0  501 0.00000000E+00 0.00000000E+00 0.36516722E+03 0.36516736E+03 0.32000000E+00 0.0000E+00 0.9000E+01
        1 -1    0    0  501    0 0.00000000E+00 0.00000000E+00 -.23090644E+04 0.23090644E+04 0.32000000E+00 0.0000E+00 0.9000E+01
       25  2    1    2    0    0 -.11530970E+03 0.84537642E+03 -.62012641E+03 0.10966666E+04 0.30027207E+03 0.0000E+00 0.0000E+00
       23  2    1    2    0    0 0.11530970E+03 -.84537642E+03 -.13237707E+04 0.15775651E+04 0.91570228E+02 0.0000E+00 0.0000E+00
       23  1    3    3    0    0 -.52823803E+02 0.48903316E+03 -.49339117E+03 0.70263353E+03 0.91188000E+02 0.0000E+00 0.9000E+01
      -11  1    4    4    0    0 0.15637672E+01 -.17212463E+02 -.59202903E+02 0.61674127E+02 0.51099893E-03 0.0000E+00 0.9000E+01
       11  1    4    4    0    0 0.11374594E+03 -.82816396E+03 -.12645678E+04 0.15158910E+04 0.51099893E-03 0.0000E+00 0.9000E+01
       23  1    3    3    0    0 -.62485899E+02 0.35634326E+03 -.12673524E+03 0.39403309E+03 0.91188000E+02 0.0000E+00 0.9000E+01
#aMCatNLO 1  0  0  2  1 0.84505581D+03 0.00000000D+00  -5  7  0 0.00000000D+00 0.00000000D+00 0.00000000D+00 0.00000000D+00 0.00000000D+00
  <mgrwgt>
 0.4271347821D-03    3    2    0
 0.918256405332591D+03 0.000000000000000D+00 0.000000000000000D+00 0.918256405332591D+03
 0.918256405332591D+03 0.000000000000000D+00 0.000000000000000D+00 -.918256405332591D+03
 0.500896702086124D+03 -.528238033676615D+02 0.489033157683372D+03 0.252679896461962D+02
 0.271419582592248D+02 0.156376719355233D+01 -.172124625223590D+02 -.209277725576867D+02
 0.868849912056993D+03 0.113745935593029D+03 -.828163957134282D+03 -.236868089706482D+03
 0.439624238262839D+03 -.624858994189197D+02 0.356343261973270D+03 0.232527872617973D+03
 0.000000000000000D+00 -.000000000000000D+00 -.000000000000000D+00 0.000000000000000D+00
 0.200100915527712D+04 0.000000000000000D+00 0.000000000000000D+00 0.200100915527712D+04
 0.119109975912979D+04 0.000000000000000D+00 0.000000000000000D+00 -.119109975912979D+04
 0.548947555322135D+03 0.176049097684794D+03 0.511269411420005D+03 0.252679896461962D+02
 0.298277932223772D+02 0.139835448908848D+02 -.160058132119316D+02 -.209277725576867D+02
 0.971662142080516D+03 0.514989577476050D+03 -.789180943461218D+03 -.236868089706482D+03
 0.471170440256560D+03 0.136073285779166D+03 0.375634372469536D+03 0.232527872617973D+03
 0.117050098352532D+04 -.841095505830895D+03 -.817170272163918D+02 0.809909396147332D+03
0.597122637071D-03 0.000000000000D+00 0.000000000000D+00 0.786185366798D-05 0.000000000000D+00  7 -1 1 23 -11 11 23 21 0 0.56179584D-01 0.35524068D+00 0.74526671D+06 0.74526671D+06 0.74526671D+06 0.10564710D+01  1  2  2  2  7  2        1 0.423228946252D-03 0.100000000000D+01
-.330197931986D-04 0.000000000000D+00 -.229310815235D-05 0.786185366798D-05 0.000000000000D+00  7 -1 1 23 -11 11 23 21 2 0.56179584D-01 0.35524068D+00 0.74526671D+06 0.74526671D+06 0.74526671D+06 0.10564710D+01  1  2  3  2  7  2        1 -.261216935389D-04 0.100000000000D+01
0.379570646726D-04 0.000000000000D+00 0.000000000000D+00 0.786185366798D-05 0.000000000000D+00  7 -1 1 23 -11 11 23 21 2 0.56179584D-01 0.35524068D+00 0.74526671D+06 0.74526671D+06 0.74526671D+06 0.10564710D+01  1  2 15  2  7  2        1 0.300275293988D-04 0.100000000000D+01
  </mgrwgt>
  </event>
  <event>
  8     66 0.27414828E-05 0.10831698E+03 0.75467711E-02 0.10208600E+00
       -1 -1    0    0    0  501 0.00000000E+00 0.00000000E+00 0.27324313E+03 0.27324331E+03 0.32000000E+00 0.0000E+00 0.9000E+01
        1 -1    0    0  501    0 0.00000000E+00 0.00000000E+00 -.57698945E+03 0.57698954E+03 0.32000000E+00 0.0000E+00 0.9000E+01
       25  2    1    2    0    0 0.72621746E+02 -.12886121E+03 -.49198907E+03 0.59443267E+03 0.29902813E+03 0.0000E+00 0.0000E+00
       23  2    1    2    0    0 -.72621746E+02 0.12886121E+03 0.18824275E+03 0.25580018E+03 0.90106993E+02 0.0000E+00 0.0000E+00
       23  1    3    3    0    0 -.38208334E+02 0.44590280E+02 -.15679794E+03 0.19065418E+03 0.91188000E+02 0.0000E+00 0.9000E+01
      -11  1    4    4    0    0 -.39084339E+02 0.11753788E+03 0.18154355E+03 0.21977443E+03 0.51099893E-03 0.0000E+00 0.9000E+01
       11  1    4    4    0    0 -.33537407E+02 0.11323333E+02 0.66991967E+01 0.36025752E+02 0.51099893E-03 0.0000E+00 0.9000E+01
       23  1    3    3    0    0 0.11083008E+03 -.17345149E+03 -.33519113E+03 0.40377850E+03 0.91188000E+02 0.0000E+00 0.9000E+01
#aMCatNLO 1  0  0  2  1 0.50393285D+02 0.00000000D+00  -5  7  0 0.00000000D+00 0.00000000D+00 0.00000000D+00 0.00000000D+00 0.00000000D+00
  <mgrwgt>
 0.2020193870D-03    9    2    0
 0.397062360923271D+03 0.000000000000000D+00 0.000000000000000D+00 0.397062360923271D+03
 0.397062360923271D+03 0.000000000000000D+00 0.000000000000000D+00 -.397062360923271D+03
 0.144150715713714D+03 -.382083341657435D+02 0.445902800484236D+02 -.949526599009105D+02
 0.304741332413672D+03 -.390843391649900D+02 0.117537878761703D+03 0.278432291894269D+03
 0.411335058700101D+02 -.335374071525029D+02 0.113233325739055D+02 0.209520826188264D+02
 0.304099167849147D+03 0.110830080483236D+03 -.173451491384032D+03 -.204431714612185D+03
 0.000000000000000D+00 -.000000000000000D+00 -.000000000000000D+00 -.000000000000000D+00
 0.411447794303984D+03 0.000000000000000D+00 0.000000000000000D+00 0.411447794303984D+03
 0.444588125943213D+03 0.000000000000000D+00 0.000000000000000D+00 -.444588125943213D+03
 0.142140168384331D+03 -.291422079803833D+02 0.449811095471862D+02 -.949526599009105D+02
 0.303197630460674D+03 -.198324116445583D+02 0.118367805571588D+03 0.278432291894269D+03
 0.391209593562741D+02 -.309959461801343D+02 0.114328918164803D+02 0.209520826188264D+02
 0.311263276819609D+03 0.130317091362661D+03 -.172611430420985D+03 -.204431714612185D+03
 0.603138852263093D+02 -.503465255575853D+02 -.217037651426961D+01 -.331403316392296D+02
0.547061004469D-05 0.000000000000D+00 0.000000000000D+00 0.311275383531D-06 0.000000000000D+00  7 -1 1 23 -11 11 23 21 0 0.42037425D-01 0.88767629D-01 0.60726151D+05 0.60726151D+05 0.60726151D+05 0.11399443D+01  1  2  2  2  7  2        1 0.134467995654D-03 0.100000000000D+01
-.219834902523D-06 0.000000000000D+00 -.210085830163D-07 0.311275383531D-06 0.000000000000D+00  7 -1 1 23 -11 11 23 21 2 0.42037425D-01 0.88767629D-01 0.60726151D+05 0.60726151D+05 0.60726151D+05 0.11399443D+01  1  2  3  2  7  2        1 -.702177757559D-05 0.100000000000D+01
0.348309161908D-06 0.000000000000D+00 0.000000000000D+00 0.311275383531D-06 0.000000000000D+00  7 -1 1 23 -11 11 23 21 2 0.42037425D-01 0.88767629D-01 0.60726151D+05 0.60726151D+05 0.60726151D+05 0.11399443D+01  1  2 15  2  7  2        1 0.111253919846D-04 0.100000000000D+01
0.121710200862D-04 0.000000000000D+00 0.000000000000D+00 0.311275383531D-06 0.000000000000D+00  7 -1 1 23 -11 11 23 21 2 0.42037425D-01 0.10086534D+00 0.73967327D+05 0.73967327D+05 0.73967327D+05 0.11326299D+01  1  2 12  2  7  2        1 0.318144169135D-03 0.100000000000D+01
-.123175983312D-04 0.000000000000D+00 0.000000000000D+00 0.311275383531D-06 0.000000000000D+00  7 -1 1 23 -11 11 23 21 2 0.42037425D-01 0.88767629D-01 0.60726151D+05 0.60726151D+05 0.60726151D+05 0.11399443D+01  1  2  4  2  7  2        1 -.393438142692D-03 0.100000000000D+01
-.233825453253D-04 0.000000000000D+00 -.532109642767D-05 0.311275383531D-06 0.000000000000D+00  7 -1 1 23 -11 11 23 21 2 0.42037425D-01 0.10190206D+00 0.60726151D+05 0.60726151D+05 0.60726151D+05 0.11399443D+01  1  2  5  2  7  2        1 -.612520295088D-03 0.100000000000D+01
0.239387911036D-04 0.000000000000D+00 0.527083502729D-05 0.311275383531D-06 0.000000000000D+00  7 -1 1 23 -11 11 23 21 2 0.42037425D-01 0.88767629D-01 0.60726151D+05 0.60726151D+05 0.60726151D+05 0.11399443D+01  1  2  6  2  7  2        1 0.764632297370D-03 0.100000000000D+01
0.243365795314D-06 0.000000000000D+00 0.000000000000D+00 0.311275383531D-06 0.000000000000D+00  7 -1 21 23 -11 11 23 -1 2 0.42037425D-01 0.10086534D+00 0.73967327D+05 0.73967327D+05 0.73967327D+05 0.11326299D+01  1  2 12  4  7  2        1 0.146232568817D-04 0.100000000000D+01
-.466517829265D-06 0.000000000000D+00 -.113393023949D-06 0.311275383531D-06 0.000000000000D+00  7 -1 21 23 -11 11 23 -1 2 0.42037425D-01 0.10190206D+00 0.60726151D+05 0.60726151D+05 0.60726151D+05 0.11399443D+01  1  2  5  4  7  2        1 -.279935086873D-04 0.100000000000D+01
  </mgrwgt>
  </event>
  <event>
  9     66 0.27414828E-05 0.19303734E+03 0.75467711E-02 0.10356531E+00
       -1 -1    0    0    0  501 0.00000000E+00 0.00000000E+00 0.83234942E+03 0.83234948E+03 0.32000000E+00 0.0000E+00 0.9000E+01
       21 -1    0    0  501  502 0.00000000E+00 0.00000000E+00 -.19858634E+03 0.19858776E+03 0.75000000E+00 0.0000E+00 0.9000E+01
       25  2    1    2    0    0 0.11212116E+02 0.84913393E+02 -.34080146E+02 0.31454966E+03 0.30073915E+03 0.0000E+00 0.0000E+00
       23  2    1    2    0    0 0.70663337E+02 -.88629198E+02 0.57266792E+03 0.59078569E+03 0.90723414E+02 0.0000E+00 0.0000E+00
       23  1    3    3    0    0 0.12026432E+02 -.66268820E+02 -.71558283E+02 0.13405980E+03 0.91188000E+02 0.0000E+00 0.9000E+01
      -11  1    4    4    0    0 0.51435599E+02 -.47842881E+02 0.50244764E+03 0.50733440E+03 0.51099893E-03 0.0000E+00 0.9000E+01
       11  1    4    4    0    0 0.19227738E+02 -.40786317E+02 0.70220285E+02 0.83451291E+02 0.51099893E-03 0.0000E+00 0.9000E+01
       23  1    3    3    0    0 -.81431609E+00 0.15118221E+03 0.37478137E+02 0.18048985E+03 0.91188000E+02 0.0000E+00 0.9000E+01
       -1  1    1    2    0  502 -.81875452E+02 0.37158052E+01 0.95175300E+02 0.12560190E+03 0.32000000E+00 0.0000E+00 0.9000E+01
#aMCatNLO 2  0  0  2  1 0.81959727D+02 0.00000000D+00  -5  7  0 0.00000000D+00 0.00000000D+00 0.00000000D+00 0.00000000D+00 0.00000000D+00
  <mgrwgt>
 0.1777728891D-04    1    2    0
 0.361537651860585D+03 0.000000000000000D+00 0.000000000000000D+00 0.361537651860585D+03
 0.361537651860585D+03 0.000000000000000D+00 0.000000000000000D+00 -.361537651860585D+03
 0.219449596061049D+03 -.127596967552281D+02 -.651439358701226D+02 -.188245402667426D+03
 0.254892563022990D+03 0.224167938001663D+02 -.465259024995499D+02 0.249605782057932D+03
 0.497953421565251D+02 0.134913315996264D+02 -.405259776458743D+02 0.255969765402172D+02
 0.198937802480607D+03 -.231484286445645D+02 0.152195816015547D+03 -.869573559307235D+02
 0.000000000000000D+00 -.000000000000000D+00 0.000000000000000D+00 0.000000000000000D+00
 0.419485865069718D+03 0.000000000000000D+00 0.000000000000000D+00 0.419485865069718D+03
 0.394038892504979D+03 0.000000000000000D+00 0.000000000000000D+00 -.394038892504979D+03
 0.219744794200963D+03 0.120264317474178D+02 -.662688203337507D+02 -.188245402667426D+03
 0.259302156853666D+03 0.514355988778939D+02 -.478428811871051D+02 0.249605782057932D+03
 0.518501179364392D+02 0.192277378275651D+02 -.407863165786842D+02 0.255969765402172D+02
 0.196808428967922D+03 -.814316086183993D+00 0.151182212934163D+03 -.869573559307235D+02
 0.858192596157074D+02 -.818754523666928D+02 0.371580516537661D+01 0.254469725647385D+02
0.194458811665D-06 0.000000000000D+00 0.000000000000D+00 0.592608929648D-06 0.950629115072D-11  7 -1 21 23 -11 11 23 -1 2 0.12805378D+00 0.30551836D-01 0.59345245D+05 0.59345245D+05 0.59345245D+05 0.11408068D+01  1  2  1  4  7  2        1 0.177772889091D-04 0.100000000000D+01
  </mgrwgt>
  </event>
  <event>
  8     66 0.27414828E-05 0.29221340E+03 0.75467711E-02 0.90215026E-01
       -1 -1    0    0    0  501 0.00000000E+00 0.00000000E+00 0.18770943E+03 0.18770970E+03 0.32000000E+00 0.0000E+00 0.9000E+01
        1 -1    0    0  501    0 0.00000000E+00 0.00000000E+00 -.53695642E+03 0.53695651E+03 0.32000000E+00 0.0000E+00 0.9000E+01
       25  2    1    2    0    0 -.11169269E+03 0.17204907E+03 -.34103745E+03 0.49850209E+03 0.30020269E+03 0.0000E+00 0.0000E+00
       23  2    1    2    0    0 0.11169269E+03 -.17204907E+03 -.82095422E+01 0.22616412E+03 0.94903491E+02 0.0000E+00 0.0000E+00
       23  1    3    3    0    0 0.67878980E+02 0.47083722E+02 -.15048017E+03 0.19438098E+03 0.91188000E+02 0.0000E+00 0.9000E+01
      -13  1    4    4    0    0 0.95864411E+02 -.18197525E+03 0.18383848E+00 0.20568185E+03 0.10565837E+00 0.0000E+00 0.9000E+01
       13  1    4    4    0    0 0.15828281E+02 0.99261796E+01 -.83933807E+01 0.20482274E+02 0.10565837E+00 0.0000E+00 0.9000E+01
       23  1    3    3    0    0 -.17957167E+03 0.12496535E+03 -.19055728E+03 0.30412111E+03 0.91188000E+02 0.0000E+00 0.9000E+01
#aMCatNLO 1  0  0  1  2 0.63653878D+03 0.00000000D+00  -5  7  0 0.00000000D+00 0.00000000D+00 0.00000000D+00 0.00000000D+00 0.00000000D+00
  <mgrwgt>
 0.3401174971D-03    3    2    0
 0.317477427145096D+03 0.000000000000000D+00 0.000000000000000D+00 0.317477427145096D+03
 0.317477427145096D+03 0.000000000000000D+00 0.000000000000000D+00 -.317477427145096D+03
 0.139075374950395D+03 0.678789787351462D+02 0.470837236772280D+02 -.648249626621804D+02
 0.234843567881565D+03 0.958645158507162D+02 -.181975488854253D+03 0.113342037357315D+03
 0.187592467894925D+02 0.158281796540570D+02 0.992640915981157D+01 0.168655570319841D+01
 0.242276664668740D+03 -.179571674239919D+03 0.124965356017213D+03 -.502036303983330D+02
 0.000000000000000D+00 -.000000000000000D+00 0.000000000000000D+00 -.000000000000000D+00
 0.535828825934793D+03 0.000000000000000D+00 0.000000000000000D+00 0.535828825934793D+03
 0.162346907969336D+04 0.000000000000000D+00 0.000000000000000D+00 -.162346907969336D+04
 0.261674497805483D+03 0.233796846673985D+03 0.359868053444574D+02 -.648249626621804D+02
 0.440596935572994D+03 0.375509391298958D+03 -.200678696553202D+03 0.113342037357315D+03
 0.417309138352018D+02 0.408722262387978D+02 0.825141331321948D+01 0.168655570319841D+01
 0.155080123185719D+03 -.150586062794501D+02 0.113962393512272D+03 -.502036303983330D+02
 0.126021543522876D+04 -.635119857932291D+03 0.424780843832532D+02 -.108764025375857D+04
0.658550730844D-05 0.000000000000D+00 0.000000000000D+00 0.859704027587D-07 0.000000000000D+00  7 -1 1 23 -13 13 23 21 0 0.28878402D-01 0.82608708D-01 0.85388670D+05 0.85388670D+05 0.85388670D+05 0.11273953D+01  1  2  2  1  7  1       -1 0.336499930473D-03 0.100000000000D+01
-.362802783435D-06 0.000000000000D+00 -.252900820683D-07 0.859704027587D-07 0.000000000000D+00  7 -1 1 23 -13 13 23 21 2 0.28878402D-01 0.82608708D-01 0.85388670D+05 0.85388670D+05 0.85388670D+05 0.11273953D+01  1  2  3  1  7  1       -1 -.235623600894D-04 0.100000000000D+01
0.418504471531D-06 0.000000000000D+00 0.000000000000D+00 0.859704027587D-07 0.000000000000D+00  7 -1 1 23 -13 13 23 21 2 0.28878402D-01 0.82608708D-01 0.85388670D+05 0.85388670D+05 0.85388670D+05 0.11273953D+01  1  2 15  1  7  1       -1 0.271799266916D-04 0.100000000000D+01
  </mgrwgt>
  </event>
  <event>
  8     66 0.27414828E-05 0.26651659E+03 0.75467711E-02 0.91562094E-01
       -1 -1    0    0    0  501 0.00000000E+00 0.00000000E+00 0.10825917E+03 0.10825965E+03 0.32000000E+00 0.0000E+00 0.9000E+01
        1 -1    0    0  501    0 0.00000000E+00 0.00000000E+00 -.90186541E+03 0.90186547E+03 0.32000000E+00 0.0000E+00 0.9000E+01
       25  2    1    2    0    0 0.18969130E+03 -.12523209E+03 -.40824308E+03 0.55473169E+03 0.29899660E+03 0.0000E+00 0.0000E+00
       23  2    1    2    0    0 -.18969130E+03 0.12523209E+03 -.38536316E+03 0.45539343E+03 0.84926679E+02 0.0000E+00 0.0000E+00
       23  1    3    3    0    0 0.80403152E+02 -.43052611E+02 -.16643472E+02 0.13004019E+03 0.91188000E+02 0.0000E+00 0.9000E+01
      -13  1    4    4    0    0 -.78844642E+02 0.97600575E+02 -.23679895E+03 0.26798526E+03 0.10565837E+00 0.0000E+00 0.9000E+01
       13  1    4    4    0    0 -.11084666E+03 0.27631519E+02 -.14856421E+03 0.18740816E+03 0.10565837E+00 0.0000E+00 0.9000E+01
       23  1    3    3    0    0 0.10928815E+03 -.82179483E+02 -.39159961E+03 0.42469150E+03 0.91188000E+02 0.0000E+00 0.9000E+01
#aMCatNLO 1  0  0  2  1 0.54877537D+03 0.00000000D+00  -5  7  0 0.00000000D+00 0.00000000D+00 0.00000000D+00 0.00000000D+00 0.00000000D+00
  <mgrwgt>
 0.1208851336D-03    3    2    0
 0.312466751631536D+03 0.000000000000000D+00 0.000000000000000D+00 0.312466751631536D+03
 0.312466751631536D+03 0.000000000000000D+00 0.000000000000000D+00 -.312466751631536D+03
 0.189057710405184D+03 0.804031521636175D+02 -.430526115399244D+02 0.138236653176345D+03
 0.132451759550837D+03 -.788445946927155D+02 0.976006819676524D+02 -.424394318447292D+02
 0.114258853018814D+03 -.110846704770630D+03 0.276314133220027D+02 -.214441891811665D+01
 0.189165180288237D+03 0.109288147299728D+03 -.821794837497307D+02 -.936528024134989D+02
 0.000000000000000D+00 -.000000000000000D+00 0.000000000000000D+00 0.000000000000000D+00
 0.809260497588983D+03 0.000000000000000D+00 0.000000000000000D+00 0.809260497588983D+03
 0.607211379748819D+03 0.000000000000000D+00 0.000000000000000D+00 -.607211379748819D+03
 0.326662130052398D+03 0.208931077021803D+03 -.188762625112818D+03 0.138236653176345D+03
 0.661965044539938D+02 -.293373872008179D+02 0.414751677374967D+02 -.424394318447292D+02
 0.694730780277501D+02 -.650569523216076D+02 -.242796827157514D+02 -.214441891811665D+01
 0.369351095456990D+03 0.248481818532860D+03 -.239981080150039D+03 -.936528024134989D+02
 0.584789069346671D+03 -.363018556032237D+03 0.411548220241112D+03 0.202049117840164D+03
0.209028438311D-05 0.000000000000D+00 0.000000000000D+00 0.135568250924D-08 0.000000000000D+00  7 -1 1 23 -13 13 23 21 0 0.16655298D-01 0.13874857D+00 0.71031092D+05 0.71031092D+05 0.71031092D+05 0.11341202D+01  1  2  2  2  7  2        1 0.119340149268D-03 0.100000000000D+01
-.112554634513D-06 0.000000000000D+00 -.802724241568D-08 0.135568250924D-08 0.000000000000D+00  7 -1 1 23 -13 13 23 21 2 0.16655298D-01 0.13874857D+00 0.71031092D+05 0.71031092D+05 0.71031092D+05 0.11341202D+01  1  2  3  2  7  2        1 -.826537813494D-05 0.100000000000D+01
0.133593616764D-06 0.000000000000D+00 0.000000000000D+00 0.135568250924D-08 0.000000000000D+00  7 -1 1 23 -13 13 23 21 2 0.16655298D-01 0.13874857D+00 0.71031092D+05 0.71031092D+05 0.71031092D+05 0.11341202D+01  1  2 15  2  7  2        1 0.981036244077D-05 0.100000000000D+01
  </mgrwgt>
  </event>
  <event>
  8     66 0.27414828E-05 0.30410680E+03 0.75467711E-02 0.10041901E+00
       -1 -1    0    0    0  501 0.00000000E+00 0.00000000E+00 0.84665834E+03 0.84665840E+03 0.32000000E+00 0.0000E+00 0.9000E+01
        1 -1    0    0  501    0 0.00000000E+00 0.00000000E+00 -.38532400E+03 0.38532414E+03 0.32000000E+00 0.0000E+00 0.9000E+01
       25  2    1    2    0    0 -.35074395E+02 0.25582253E+03 0.74139658E+03 0.84024017E+03 0.29943158E+03 0.0000E+00 0.0000E+00
       23  2    1    2    0    0 0.35074395E+02 -.25582253E+03 -.28006225E+03 0.39174237E+03 0.91388396E+02 0.0000E+00 0.0000E+00
       23  1    3    3    0    0 -.20913135E+02 0.23313002E+03 0.31252601E+03 0.40096724E+03 0.91188000E+02 0.0000E+00 0.9000E+01
      -13  1    4    4    0    0 0.32465551E+02 -.82767101E+02 -.15328421E+03 0.17720177E+03 0.10565837E+00 0.0000E+00 0.9000E+01
       13  1    4    4    0    0 0.26088438E+01 -.17305543E+03 -.12677804E+03 0.21454060E+03 0.10565837E+00 0.0000E+00 0.9000E+01
       23  1    3    3    0    0 -.14161260E+02 0.22692510E+02 0.42887057E+03 0.43927293E+03 0.91188000E+02 0.0000E+00 0.9000E+01
#aMCatNLO 1  0  0  1  2 0.97032094D+01 0.00000000D+00  -5  7  0 0.00000000D+00 0.00000000D+00 0.00000000D+00 0.00000000D+00 0.00000000D+00
  <mgrwgt>
 0.1185388265D-03    8    2    0
 0.571172391532875D+03 0.000000000000000D+00 0.000000000000000D+00 0.571172391532875D+03
 0.571172391532875D+03 0.000000000000000D+00 0.000000000000000D+00 -.571172391532875D+03
 0.306217229352942D+03 -.209131349488015D+02 0.233130021831173D+03 0.175119313372918D+03
 0.253010045122504D+03 0.324655907041895D+02 -.827669799137649D+02 -.236874851744701D+03
 0.282574390811569D+03 0.260880391899978D+01 -.173055552417203D+03 -.223367983968647D+03
 0.300543117778735D+03 -.141612596743878D+02 0.226925104997948D+02 0.285123522340430D+03
 0.000000000000000D+00 0.000000000000000D+00 0.000000000000000D+00 -.000000000000000D+00
 0.571956342590395D+03 0.000000000000000D+00 0.000000000000000D+00 0.571956342590395D+03
 0.602028366231200D+03 0.000000000000000D+00 0.000000000000000D+00 -.602028366231200D+03
 0.305734380404581D+03 -.233628619216896D+02 0.232262056272648D+03 0.175119313372918D+03
 0.252994029511086D+03 0.304399863749316D+02 -.834846740945668D+02 -.236874851744701D+03
 0.283054615115946D+03 0.344512739150530D+00 -.173857816008343D+03 -.223367983968647D+03
 0.300602967385186D+03 -.165677306371092D+02 0.218398710275803D+02 0.285123522340430D+03
 0.315987164047964D+02 0.914609344471668D+01 0.324056280268129D+01 -.300720236408051D+02
0.322606843068D-04 0.000000000000D+00 0.000000000000D+00 0.140858475030D-05 0.000000000000D+00  7 -1 1 23 -13 13 23 21 0 0.13025514D+00 0.59280631D-01 0.92480947D+05 0.92480947D+05 0.92480947D+05 0.11245185D+01  1  2  2  1  7  1       -1 0.138354923309D-03 0.100000000000D+01
-.926507497783D-06 0.000000000000D+00 -.123889522171D-06 0.140858475030D-05 0.000000000000D+00  7 -1 1 23 -13 13 23 21 2 0.13025514D+00 0.59280631D-01 0.92480947D+05 0.92480947D+05 0.92480947D+05 0.11245185D+01  1  2  3  1  7  1       -1 -.502461995952D-05 0.100000000000D+01
0.195893555162D-05 0.000000000000D+00 0.000000000000D+00 0.140858475030D-05 0.000000000000D+00  7 -1 1 23 -13 13 23 21 2 0.13025514D+00 0.59280631D-01 0.92480947D+05 0.92480947D+05 0.92480947D+05 0.11245185D+01  1  2 15  1  7  1       -1 0.106236665064D-04 0.100000000000D+01
-.364981031088D-05 0.000000000000D+00 0.000000000000D+00 0.140858475030D-05 0.000000000000D+00  7 -1 1 23 -13 13 23 21 2 0.13025514D+00 0.59280631D-01 0.92480947D+05 0.92480947D+05 0.92480947D+05 0.11245185D+01  1  2  4  1  7  1       -1 -.197935902088D-04 0.100000000000D+01
0.874365352980D-05 0.000000000000D+00 0.000000000000D+00 0.140858475030D-05 0.000000000000D+00  7 -1 1 23 -13 13 23 21 2 0.13682234D+00 0.59280631D-01 0.92480947D+05 0.92480947D+05 0.92480947D+05 0.11245185D+01  1  2  5  1  7  1       -1 0.417395251771D-04 0.100000000000D+01
-.873308666414D-05 0.000000000000D+00 0.000000000000D+00 0.140858475030D-05 0.000000000000D+00  7 -1 1 23 -13 13 23 21 2 0.13025514D+00 0.59280631D-01 0.92480947D+05 0.92480947D+05 0.92480947D+05 0.11245185D+01  1  2  6  1  7  1       -1 -.473611294737D-04 0.100000000000D+01
0.717549515884D-11 0.000000000000D+00 0.000000000000D+00 0.140858475030D-05 0.100837440810D-06  7 -1 1 23 -13 13 23 21 2 0.13043392D+00 0.62483099D-01 0.95559643D+05 0.95559643D+05 0.95559643D+05 0.11233444D+01  1  2 11  1  7  1       -1 0.360197737445D-10 0.100000000000D+01
0.453182767909D-12 0.000000000000D+00 0.000000000000D+00 0.140858475030D-05 0.266753588931D-10  7 21 1 23 -13 13 23 1 2 0.13043392D+00 0.62483099D-01 0.95559643D+05 0.95559643D+05 0.95559643D+05 0.11233444D+01  1  2 11  3  7  1       -1 0.151075478041D-10 0.100000000000D+01
  </mgrwgt>
  </event>
  <event>
  9     66 -.27414828E-05 0.43626919E+03 0.75467711E-02 0.95177187E-01
       -1 -1    0    0    0  502 0.00000000E+00 0.00000000E+00 0.12152786E+03 0.12152828E+03 0.32000000E+00 0.0000E+00 0.9000E+01
        1 -1    0    0  501    0 0.00000000E+00 0.00000000E+00 -.29828543E+04 0.29828543E+04 0.32000000E+00 0.0000E+00 0.9000E+01
       25  2    1    2    0    0 -.13232205E+03 -.32879183E+03 -.23399910E+04 0.23857530E+04 0.30107569E+03 0.0000E+00 0.0000E+00
       23  2    1    2    0    0 0.20431312E+03 0.35369052E+03 -.45209933E+03 0.61568848E+03 0.88530631E+02 0.0000E+00 0.0000E+00
       23  1    3    3    0    0 -.11643872E+03 -.33813077E+03 -.19679518E+04 0.20022587E+04 0.91188000E+02 0.0000E+00 0.9000E+01
      -13  1    4    4    0    0 0.11794122E+03 0.26830901E+03 -.28234821E+03 0.40696483E+03 0.10565837E+00 0.0000E+00 0.9000E+01
       13  1    4    4    0    0 0.86371901E+02 0.85381508E+02 -.16975112E+03 0.20872365E+03 0.10565837E+00 0.0000E+00 0.9000E+01
       23  1    3    3    0    0 -.15883326E+02 0.93389444E+01 -.37203914E+03 0.38349429E+03 0.91188000E+02 0.0000E+00 0.9000E+01
       21  1    1    2  501  502 -.71991071E+02 -.24898686E+02 -.69236108E+02 0.10294105E+03 0.75000000E+00 0.0000E+00 0.9000E+01
#aMCatNLO 2  0  0  1  2 0.76175185D+02 0.00000000D+00  -5  7  0 0.00000000D+00 0.00000000D+00 0.00000000D+00 0.00000000D+00 0.00000000D+00
  <mgrwgt>
 -.2398421065D-04    2    2    0
 0.549336015292387D+03 0.000000000000000D+00 0.000000000000000D+00 0.549336015292387D+03
 0.549336015292387D+03 0.000000000000000D+00 0.000000000000000D+00 -.549336015292387D+03
 0.484006889848531D+03 -.147578344936617D+03 -.348900661831194D+03 -.287117359900742D+03
 0.380430714410348D+03 0.926222499445197D+02 0.259552485961462D+03 0.262261614257992D+03
 0.131219397500064D+03 0.775463032906459D+02 0.823288601701858D+02 0.665361549032768D+02
 0.103015028825831D+03 -.225902082985486D+02 0.701931569954682D+01 -.416804092605267D+02
 0.000000000000000D+00 -.000000000000000D+00 -.000000000000000D+00 0.000000000000000D+00
 0.639307174557686D+03 0.000000000000000D+00 0.000000000000000D+00 0.639307174557686D+03
 0.567018332478887D+03 0.000000000000000D+00 0.000000000000000D+00 -.567018332478887D+03
 0.467591729791451D+03 -.116438719958882D+03 -.338130774351176D+03 -.287117359900742D+03
 0.393295256483324D+03 0.117941261628541D+03 0.268309267943812D+03 0.262261614257992D+03
 0.138481460359878D+03 0.863718557836807D+02 0.853812478391746D+02 0.665361549032768D+02
 0.101941178142545D+03 -.158833265417540D+02 0.933894420869260D+01 -.416804092605267D+02
 0.105015882259376D+03 -.719910709115860D+02 -.248986856405024D+02 0.722888420787995D+02
-.101536302281D-03 0.000000000000D+00 0.000000000000D+00 0.101512858201D-06 0.000000000000D+00  7 -1 1 23 -13 13 23 21 2 0.18926234D-01 0.44458896D+00 0.22695858D+06 0.22695858D+06 0.22695858D+06 0.10936324D+01  1  2 13  1  7  1       -1 -.235187663079D-03 0.100000000000D+01
0.104636075250D-03 0.000000000000D+00 0.000000000000D+00 0.101512858201D-06 0.112800434170D-09  7 -1 1 23 -13 13 23 21 2 0.18696584D-01 0.45889963D+00 0.22695858D+06 0.22695858D+06 0.22695858D+06 0.10936324D+01  1  2  1  1  7  1       -1 0.211203452432D-03 0.100000000000D+01
  </mgrwgt>
  </event>
  <event>
  8     66 0.27414828E-05 0.44889131E+03 0.75467711E-02 0.88611397E-01
       -1 -1    0    0    0  501 0.00000000E+00 0.00000000E+00 0.33237857E+03 0.33237872E+03 0.32000000E+00 0.0000E+00 0.9000E+01
        1 -1    0    0  501    0 0.00000000E+00 0.00000000E+00 -.63873428E+03 0.63873436E+03 0.32000000E+00 0.0000E+00 0.9000E+01
       25  2    1    2    0    0 -.25165710E+03 -.30911280E+03 -.10099211E+03 0.51280868E+03 0.30641691E+03 0.0000E+00 0.0000E+00
       23  2    1    2    0    0 0.25165710E+03 0.30911280E+03 -.20536360E+03 0.45830440E+03 0.94798190E+02 0.0000E+00 0.0000E+00
       23  1    3    3    0    0 -.26917068E+03 -.20320378E+03 -.19122597E+02 0.34989363E+03 0.91188000E+02 0.0000E+00 0.9000E+01
      -13  1    4    4    0    0 0.18235461E+03 0.15787018E+03 -.98255998E+02 0.26044280E+03 0.10565837E+00 0.0000E+00 0.9000E+01
       13  1    4    4    0    0 0.69302489E+02 0.15124261E+03 -.10710761E+03 0.19786160E+03 0.10565837E+00 0.0000E+00 0.9000E+01
       23  1    3    3    0    0 0.17513573E+02 -.10590902E+03 -.81869513E+02 0.16291505E+03 0.91188000E+02 0.0000E+00 0.9000E+01
#aMCatNLO 1  0  0  1  2 0.65289645D+03 0.00000000D+00  -5  7  0 0.00000000D+00 0.00000000D+00 0.00000000D+00 0.00000000D+00 0.00000000D+00
  <mgrwgt>
 0.7784009025D-04    3    2    0
 0.460762085906284D+03 0.000000000000000D+00 0.000000000000000D+00 0.460762085906284D+03
 0.460762085906284D+03 0.000000000000000D+00 0.000000000000000D+00 -.460762085906284D+03
 0.362364842421094D+03 -.269170666174276D+03 -.203203783196375D+03 0.961686156957737D+02
 0.241793122693453D+03 0.182354756114761D+03 0.157870195110608D+03 -.169605011693602D+02
 0.172901474512716D+03 0.693023521061387D+02 0.151242607895172D+03 -.470932844288371D+02
 0.144464732185304D+03 0.175135579533760D+02 -.105909019809406D+03 -.321148300975764D+02
 0.000000000000000D+00 0.000000000000000D+00 -.000000000000000D+00 -.000000000000000D+00
 0.754447017886765D+03 0.000000000000000D+00 0.000000000000000D+00 0.754447017886765D+03
 0.112627845321253D+04 0.000000000000000D+00 0.000000000000000D+00 -.112627845321253D+04
 0.476874935094355D+03 -.457873372487022D+03 -.140721178137651D+02 0.961686156957737D+02
 0.284256168280958D+03 0.640727972273371D+02 0.276421032595787D+03 -.169605011693602D+02
 0.253075041346490D+03 -.264782859449779D+02 0.247240974532233D+03 -.470932844288371D+02
 0.115165617893040D+03 -.408642156142115D+02 -.473985418628538D+02 -.321148300975764D+02
 0.751353708484453D+03 0.461143076818875D+03 -.462191347451401D+03 -.371831435325767D+03
0.527921242222D-05 0.000000000000D+00 0.000000000000D+00 0.472413454368D-09 0.000000000000D+00  7 -1 1 23 -13 13 23 21 0 0.51135182D-01 0.98266831D-01 0.20150341D+06 0.20150341D+06 0.20150341D+06 0.10975757D+01  1  2  2  1  7  1       -1 0.770217317169D-04 0.100000000000D+01
-.293046642074D-06 0.000000000000D+00 -.202735657499D-07 0.472413454368D-09 0.000000000000D+00  7 -1 1 23 -13 13 23 21 2 0.51135182D-01 0.98266831D-01 0.20150341D+06 0.20150341D+06 0.20150341D+06 0.10975757D+01  1  2  3  1  7  1       -1 -.515050531385D-05 0.100000000000D+01
0.339608523835D-06 0.000000000000D+00 0.000000000000D+00 0.472413454368D-09 0.000000000000D+00  7 -1 1 23 -13 13 23 21 2 0.51135182D-01 0.98266831D-01 0.20150341D+06 0.20150341D+06 0.20150341D+06 0.10975757D+01  1  2 15  1  7  1       -1 0.596886384453D-05 0.100000000000D+01
  </mgrwgt>
  </event>
  <event>
  9     66 0.27414828E-05 0.36636147E+03 0.75467711E-02 0.94083272E-01
       21 -1    0    0  502  501 0.00000000E+00 0.00000000E+00 0.32138719E+03 0.32138806E+03 0.75000000E+00 0.0000E+00 0.9000E+01
        1 -1    0    0  501    0 0.00000000E+00 0.00000000E+00 -.11046064E+04 0.11046064E+04 0.32000000E+00 0.0000E+00 0.9000E+01
       25  2    1    2    0    0 0.39212447E+03 0.18568408E+03 -.97665724E+02 0.53671350E+03 0.30047065E+03 0.0000E+00 0.0000E+00
       23  2    1    2    0    0 -.25166474E+03 0.45327111E+02 -.21339869E+03 0.34519887E+03 0.90739023E+02 0.0000E+00 0.0000E+00
       23  1    3    3    0    0 0.47936414E+02 0.10601859E+03 -.87339882E+02 0.17170133E+03 0.91188000E+02 0.0000E+00 0.9000E+01
      -11  1    4    4    0    0 -.12771299E+03 0.60560966E+02 -.79781018E+02 0.16230603E+03 0.51099893E-03 0.0000E+00 0.9000E+01
       11  1    4    4    0    0 -.12395175E+03 -.15233855E+02 -.13361767E+03 0.18289284E+03 0.51099893E-03 0.0000E+00 0.9000E+01
       23  1    3    3    0    0 0.34418806E+03 0.79665487E+02 -.10325842E+02 0.36501217E+03 0.91188000E+02 0.0000E+00 0.9000E+01
        1  1    1    2  502    0 -.14045974E+03 -.23101119E+03 -.47215478E+03 0.54408211E+03 0.32000000E+00 0.0000E+00 0.9000E+01
#aMCatNLO 2  0  0  1  2 0.27036107D+03 0.00000000D+00  -5  7  0 0.00000000D+00 0.00000000D+00 0.00000000D+00 0.00000000D+00 0.00000000D+00
  <mgrwgt>
 0.2103849757D-04    1    2    0
 0.389843960467350D+03 0.000000000000000D+00 0.000000000000000D+00 0.389843960467350D+03
 0.389843960467350D+03 0.000000000000000D+00 0.000000000000000D+00 -.389843960467350D+03
 0.119320283790311D+03 0.243158921358080D+02 0.671704132499381D+02 -.286173330915469D+02
 0.156820350695756D+03 -.153986071028462D+03 0.173501707740946D+02 -.240807785519295D+02
 0.180407018547777D+03 -.152438539544797D+03 -.620854771190522D+02 -.738551117638253D+02
 0.323140267900856D+03 0.282108718437450D+03 -.224351069049805D+02 0.126553223407302D+03
 0.000000000000000D+00 -.000000000000000D+00 -.000000000000000D+00 -.000000000000000D+00
 0.464606085289839D+03 0.000000000000000D+00 0.000000000000000D+00 0.464606085289839D+03
 0.764102993244999D+03 0.000000000000000D+00 0.000000000000000D+00 -.764102993244999D+03
 0.150572390307760D+03 0.479364142164526D+02 0.106018591849678D+03 -.286173330915469D+02
 0.143381034359292D+03 -.127712985002584D+03 0.605609658113476D+02 -.240807785519295D+02
 0.145088541500581D+03 -.123951752754577D+03 -.152338547382746D+02 -.738551117638253D+02
 0.386190341169471D+03 0.344188059308832D+03 0.796654865235522D+02 0.126553223407302D+03
 0.403476771197734D+03 -.140459735768124D+03 -.231011189446303D+03 -.299496907955160D+03
0.314181713837D-06 0.000000000000D+00 0.000000000000D+00 0.278862024358D-06 0.253902113833D-11  7 21 1 23 -11 11 23 1 2 0.49444247D-01 0.16993949D+00 0.27524914D+06 0.27524914D+06 0.27524914D+06 0.10873294D+01  1  2  1  3  7  1       -1 0.210384975710D-04 0.100000000000D+01
  </mgrwgt>
  </event>
  <event>
  8     66 0.27414828E-05 0.10369870E+03 0.75467711E-02 0.10124836E+00
       -3 -1    0    0    0  501 0.00000000E+00 0.00000000E+00 0.23615646E+03 0.23615699E+03 0.50000000E+00 0.0000E+00 0.9000E+01
        3 -1    0    0  501    0 0.00000000E+00 0.00000000E+00 -.26072054E+03 0.26072102E+03 0.50000000E+00 0.0000E+00 0.9000E+01
       25  2    1    2    0    0 0.99525865E+02 -.85469038E+02 -.62310922E+02 0.33316241E+03 0.29984026E+03 0.0000E+00 0.0000E+00
       23  2    1    2    0    0 -.99525865E+02 0.85469038E+02 0.37746847E+02 0.16371561E+03 0.90374891E+02 0.0000E+00 0.0000E+00
       23  1    3    3    0    0 -.50800968E+02 -.79674768E+02 0.29702875E+02 0.13463402E+03 0.91188000E+02 0.0000E+00 0.9000E+01
      -11  1    4    4    0    0 -.41700124E+01 0.18535166E+02 -.24992413E+02 0.31393663E+02 0.51099893E-03 0.0000E+00 0.9000E+01
       11  1    4    4    0    0 -.95355853E+02 0.66933872E+02 0.62739260E+02 0.13232194E+03 0.51099893E-03 0.0000E+00 0.9000E+01
       23  1    3    3    0    0 0.15032683E+03 -.57942696E+01 -.92013797E+02 0.19852839E+03 0.91188000E+02 0.0000E+00 0.9000E+01
#aMCatNLO 1  0  0  1  2 0.12255208D+03 0.00000000D+00  -5  7  0 0.00000000D+00 0.00000000D+00 0.00000000D+00 0.00000000D+00 0.00000000D+00
  <mgrwgt>
 0.2151401236D-04    7    2    0
 0.248135227780275D+03 0.000000000000000D+00 0.000000000000000D+00 0.248135227780275D+03
 0.248135227780275D+03 0.000000000000000D+00 0.000000000000000D+00 -.248135227780275D+03
 0.136269058044267D+03 -.508009679749004D+02 -.796747682707748D+02 0.364032662007575D+02
 0.301950381930011D+02 -.417001239048716D+01 0.185351661260917D+02 -.234691061785097D+02
 0.135589364589747D+03 -.953558527137185D+02 0.669338717063286D+02 0.693656540478913D+02
 0.194216994733535D+03 0.150326833079106D+03 -.579426956164548D+01 -.822998140701391D+02
 0.000000000000000D+00 0.000000000000000D+00 0.000000000000000D+00 0.000000000000000D+00
 0.463856239959948D+03 0.000000000000000D+00 0.000000000000000D+00 0.463856239959948D+03
 0.273617763782457D+03 0.000000000000000D+00 0.000000000000000D+00 -.273617763782457D+03
 0.161288314043285D+03 -.817573459939722D+02 -.984337720950685D+02 0.364032662007575D+02
 0.296106447411202D+02 -.103918959741769D+02 0.147648174803671D+02 -.234691061785097D+02
 0.151234939343790D+03 -.125195616102310D+03 0.488515161033007D+02 0.693656540478913D+02
 0.169044522815270D+03 0.112534924990491D+03 -.286954806763603D+02 -.822998140701391D+02
 0.226295582798940D+03 0.104809933079968D+03 0.635129191877611D+02 0.190238476177490D+03
0.141000616232D-05 0.000000000000D+00 0.000000000000D+00 0.205064928403D-06 0.000000000000D+00  7 -3 3 23 -11 11 23 21 0 0.36331841D-01 0.40110930D-01 0.49003647D+05 0.49003647D+05 0.49003647D+05 0.11480651D+01  1  2  2  1  7  1       -3 0.274565650806D-04 0.100000000000D+01
-.770926714256D-07 0.000000000000D+00 -.541479492647D-08 0.205064928403D-06 0.000000000000D+00  7 -3 3 23 -11 11 23 21 2 0.36331841D-01 0.40110930D-01 0.49003647D+05 0.49003647D+05 0.49003647D+05 0.11480651D+01  1  2  3  1  7  1       -3 -.197866062396D-05 0.100000000000D+01
0.895476045120D-07 0.000000000000D+00 0.000000000000D+00 0.205064928403D-06 0.000000000000D+00  7 -3 3 23 -11 11 23 21 2 0.36331841D-01 0.40110930D-01 0.49003647D+05 0.49003647D+05 0.49003647D+05 0.11480651D+01  1  2 15  1  7  1       -3 0.229832895581D-05 0.100000000000D+01
0.864653266938D-06 0.000000000000D+00 0.000000000000D+00 0.205064928403D-06 0.000000000000D+00  7 -3 3 23 -11 11 23 21 2 0.68318180D-01 0.40110930D-01 0.84036353D+05 0.84036353D+05 0.84036353D+05 0.11279736D+01  1  2 12  1  7  1       -3 0.582771370808D-05 0.100000000000D+01
-.158075667266D-05 0.000000000000D+00 -.454785301588D-06 0.205064928403D-06 0.000000000000D+00  7 -3 3 23 -11 11 23 21 2 0.72726715D-01 0.40110930D-01 0.49003647D+05 0.49003647D+05 0.49003647D+05 0.11480651D+01  1  2  5  1  7  1       -3 -.955524428517D-05 0.100000000000D+01
0.594102054033D-07 0.000000000000D+00 0.000000000000D+00 0.205064928403D-06 0.000000000000D+00  7 21 3 23 -11 11 23 3 2 0.68318180D-01 0.40110930D-01 0.84036353D+05 0.84036353D+05 0.84036353D+05 0.11279736D+01  1  2 12  3  7  1       -3 0.621526656419D-05 0.100000000000D+01
-.913947375013D-07 0.000000000000D+00 -.341503194375D-07 0.205064928403D-06 0.000000000000D+00  7 21 3 23 -11 11 23 3 2 0.72726715D-01 0.40110930D-01 0.49003647D+05 0.49003647D+05 0.49003647D+05 0.11480651D+01  1  2  5  3  7  1       -3 -.874995704400D-05 0.100000000000D+01
  </mgrwgt>
  </event>
  <event>
  9     66 0.27414828E-05 0.17824687E+03 0.75467711E-02 0.10401557E+00
       -1 -1    0    0    0  501 0.00000000E+00 0.00000000E+00 0.27401005E+03 0.27401023E+03 0.32000000E+00 0.0000E+00 0.9000E+01
        1 -1    0    0  502    0 0.00000000E+00 0.00000000E+00 -.69168138E+03 0.69168145E+03 0.32000000E+00 0.0000E+00 0.9000E+01
       25  2    1    2    0    0 -.72675621E+02 -.13087738E+03 -.33003113E+03 0.47019637E+03 0.29958879E+03 0.0000E+00 0.0000E+00
       23  2    1    2    0    0 0.32581763E+02 0.24873334E+02 0.18048373E+03 0.20440190E+03 0.86749679E+02 0.0000E+00 0.0000E+00
       23  1    3    3    0    0 -.10701407E+03 -.12002421E+03 -.32267812E+03 0.37187934E+03 0.91188000E+02 0.0000E+00 0.9000E+01
      -13  1    4    4    0    0 0.45907819E+02 0.35616804E+02 0.17782732E+03 0.18707927E+03 0.10565837E+00 0.0000E+00 0.9000E+01
       13  1    4    4    0    0 -.13326055E+02 -.10743469E+02 0.26564024E+01 0.17322630E+02 0.10565837E+00 0.0000E+00 0.9000E+01
       23  1    3    3    0    0 0.34338453E+02 -.10853175E+02 -.73530140E+01 0.98317033E+02 0.91188000E+02 0.0000E+00 0.9000E+01
       21  1    1    2  502  501 0.40093858E+02 0.10600405E+03 -.26812393E+03 0.29109342E+03 0.75000000E+00 0.0000E+00 0.9000E+01
#aMCatNLO 2  0  0  2  1 0.11333303D+03 0.00000000D+00  -5  7  0 0.00000000D+00 0.00000000D+00 0.00000000D+00 0.00000000D+00 0.00000000D+00
  <mgrwgt>
 0.1384346616D-03    2    2    0
 0.323988433617989D+03 0.000000000000000D+00 0.000000000000000D+00 0.323988433617989D+03
 0.323988433617989D+03 0.000000000000000D+00 0.000000000000000D+00 -.323988433617989D+03
 0.286429704051712D+03 -.887619809984538D+02 -.717675457905742D+02 -.246368533135990D+03
 0.244473744967395D+03 0.605464860376625D+02 0.743197771470744D+02 0.224895766371187D+03
 0.160649413971318D+02 -.122688834790243D+02 -.794825296074267D+01 0.666199032898194D+01
 0.101008476819738D+03 0.404843784398157D+02 0.539602160424248D+01 0.148107764358213D+02
 0.000000000000000D+00 0.000000000000000D+00 0.000000000000000D+00 -.000000000000000D+00
 0.343294839135253D+03 0.000000000000000D+00 0.000000000000000D+00 0.343294839135253D+03
 0.552082703878734D+03 0.000000000000000D+00 0.000000000000000D+00 -.552082703878734D+03
 0.308010597922679D+03 -.107014074363516D+03 -.120024209463037D+03 -.246368533135990D+03
 0.232280440776942D+03 0.459079060465557D+02 0.356168723818886D+02 0.224895766371187D+03
 0.183682277874633D+02 -.133261425792649D+02 -.107435376327257D+02 0.666199032898194D+01
 0.991540781369558D+02 0.343384532239034D+02 -.108531745930606D+02 0.148107764358213D+02
 0.237564198389946D+03 0.400938576723217D+02 0.106004049306934D+03 -.208787864743482D+03
-.271456447389D-05 0.000000000000D+00 0.000000000000D+00 0.676368185650D-07 0.000000000000D+00  7 -1 1 23 -13 13 23 21 2 0.39784586D-01 0.10713302D+00 0.55567700D+05 0.55567700D+05 0.55567700D+05 0.11432839D+01  1  2 13  2  7  2        1 -.731977844033D-04 0.100000000000D+01
0.858616289341D-05 0.000000000000D+00 0.000000000000D+00 0.676368185650D-07 0.404447304204D-10  7 -1 1 23 -13 13 23 21 2 0.42155342D-01 0.10641236D+00 0.55567700D+05 0.55567700D+05 0.55567700D+05 0.11432839D+01  1  2  1  2  7  2        1 0.211632446016D-03 0.100000000000D+01
  </mgrwgt>
  </event>
  <event>
  8     66 0.27414828E-05 0.23378977E+03 0.75467711E-02 0.97973314E-01
       -3 -1    0    0    0  501 0.00000000E+00 0.00000000E+00 0.23269101E+03 0.23269155E+03 0.50000000E+00 0.0000E+00 0.9000E+01
        3 -1    0    0  501    0 0.00000000E+00 0.00000000E+00 -.87701284E+03 0.87701298E+03 0.50000000E+00 0.0000E+00 0.9000E+01
       25  2    1    2    0    0 -.20814678E+03 0.23509846E+03 -.65085117E+03 0.78242319E+03 0.29997073E+03 0.0000E+00 0.0000E+00
       23  2    1    2    0    0 0.20814678E+03 -.23509846E+03 0.65293433E+01 0.32728133E+03 0.92054718E+02 0.0000E+00 0.0000E+00
       23  1    3    3    0    0 -.10612201E+03 0.93641355E+02 -.51875449E+03 0.54539165E+03 0.91188000E+02 0.0000E+00 0.9000E+01
      -11  1    4    4    0    0 0.62039700E+02 -.16431654E+02 -.98623208E+00 0.64186418E+02 0.51099893E-03 0.0000E+00 0.9000E+01
       11  1    4    4    0    0 0.14610708E+03 -.21866680E+03 0.75155754E+01 0.26309491E+03 0.51099893E-03 0.0000E+00 0.9000E+01
       23  1    3    3    0    0 -.10202477E+03 0.14145710E+03 -.13209668E+03 0.23703154E+03 0.91188000E+02 0.0000E+00 0.9000E+01
#aMCatNLO 1  0  0  2  1 0.60049859D+02 0.00000000D+00  -5  7  0 0.00000000D+00 0.00000000D+00 0.00000000D+00 0.00000000D+00 0.00000000D+00
  <mgrwgt>
 0.1402029285D-04    9    2    0
 0.451744816666831D+03 0.000000000000000D+00 0.000000000000000D+00 0.451744816666831D+03
 0.451744816666831D+03 0.000000000000000D+00 0.000000000000000D+00 -.451744816666831D+03
 0.299924574978188D+03 -.106122006910456D+03 0.936413549392053D+02 -.248211433310985D+03
 0.781331686970761D+02 0.620396998463793D+02 -.164316543489470D+02 0.445630837013512D+02
 0.328504120407803D+03 0.146107079650833D+03 -.218666804989765D+03 0.196856564016487D+03
 0.196927769250595D+03 -.102024772586757D+03 0.141457104399507D+03 0.679178559314653D+01
 0.000000000000000D+00 -.000000000000000D+00 0.000000000000000D+00 -.000000000000000D+00
 0.474931536832069D+03 0.000000000000000D+00 0.000000000000000D+00 0.474931536832069D+03
 0.493367710077732D+03 0.000000000000000D+00 0.000000000000000D+00 -.493367710077732D+03
 0.291334391613908D+03 -.939930540563125D+02 0.782103992824449D+02 -.248211433310985D+03
 0.817123285885448D+02 0.653187342628872D+02 -.206033776037571D+02 0.445630837013512D+02
 0.346656264405739D+03 0.159957167242043D+03 -.236287459471013D+03 0.196856564016487D+03
 0.185780037412007D+03 -.941739911082485D+02 0.131469015376274D+03 0.679178559314653D+01
 0.628162248896022D+02 -.371088563403689D+02 0.472114224160515D+02 -.184361732456628D+02
0.585189556436D-05 0.000000000000D+00 0.000000000000D+00 0.809389727866D-06 0.000000000000D+00  7 -3 3 23 -11 11 23 21 0 0.35798669D-01 0.13492510D+00 0.11983340D+06 0.11983340D+06 0.11983340D+06 0.11153303D+01  1  2  2  2  7  2        3 0.796596986823D-05 0.100000000000D+01
-.297097155828D-06 0.000000000000D+00 -.224728198066D-07 0.809389727866D-06 0.000000000000D+00  7 -3 3 23 -11 11 23 21 2 0.35798669D-01 0.13492510D+00 0.11983340D+06 0.11983340D+06 0.11983340D+06 0.11153303D+01  1  2  3  2  7  2        3 -.503092200494D-06 0.100000000000D+01
0.360458255214D-06 0.000000000000D+00 0.000000000000D+00 0.809389727866D-06 0.000000000000D+00  7 -3 3 23 -11 11 23 21 2 0.35798669D-01 0.13492510D+00 0.11983340D+06 0.11983340D+06 0.11983340D+06 0.11153303D+01  1  2 15  2  7  2        3 0.610385300716D-06 0.100000000000D+01
0.978561598689D-05 0.000000000000D+00 0.000000000000D+00 0.809389727866D-06 0.000000000000D+00  7 -3 3 23 -11 11 23 21 2 0.35798669D-01 0.15056663D+00 0.14140231D+06 0.14140231D+06 0.14140231D+06 0.11095805D+01  1  2 12  2  7  2        3 0.120012295962D-04 0.100000000000D+01
-.908153073306D-05 0.000000000000D+00 0.000000000000D+00 0.809389727866D-06 0.000000000000D+00  7 -3 3 23 -11 11 23 21 2 0.35798669D-01 0.13492510D+00 0.11983340D+06 0.11983340D+06 0.11983340D+06 0.11153303D+01  1  2  4  2  7  2        3 -.153782935674D-04 0.100000000000D+01
-.262280486907D-04 0.000000000000D+00 -.603269953214D-05 0.809389727866D-06 0.000000000000D+00  7 -3 3 23 -11 11 23 21 2 0.35798669D-01 0.15249564D+00 0.11983340D+06 0.11983340D+06 0.11983340D+06 0.11153303D+01  1  2  5  2  7  2        3 -.314171204232D-04 0.100000000000D+01
0.268103331647D-04 0.000000000000D+00 0.598777791538D-05 0.809389727866D-06 0.000000000000D+00  7 -3 3 23 -11 11 23 21 2 0.35798669D-01 0.13492510D+00 0.11983340D+06 0.11983340D+06 0.11983340D+06 0.11153303D+01  1  2  6  2  7  2        3 0.453995241732D-04 0.100000000000D+01
0.172065663010D-06 0.000000000000D+00 0.000000000000D+00 0.809389727866D-06 0.000000000000D+00  7 -3 21 23 -11 11 23 -3 2 0.35798669D-01 0.15056663D+00 0.14140231D+06 0.14140231D+06 0.14140231D+06 0.11095805D+01  1  2 12  4  7  2        3 0.270064885476D-05 0.100000000000D+01
-.477100237761D-06 0.000000000000D+00 -.116394643671D-06 0.809389727866D-06 0.000000000000D+00  7 -3 21 23 -11 11 23 -3 2 0.35798669D-01 0.15249564D+00 0.11983340D+06 0.11983340D+06 0.11983340D+06 0.11153303D+01  1  2  5  4  7  2        3 -.735895875267D-05 0.100000000000D+01
  </mgrwgt>
  </event>
  <event>
  8     66 0.27414828E-05 0.45545119E+03 0.75467711E-02 0.77382372E-01
       -1 -1    0    0    0  501 0.00000000E+00 0.00000000E+00 0.80415989E+03 0.80415996E+03 0.32000000E+00 0.0000E+00 0.9000E+01
        1 -1    0    0  501    0 0.00000000E+00 0.00000000E+00 -.22170659E+04 0.22170659E+04 0.32000000E+00 0.0000E+00 0.9000E+01
       25  2    1    2    0    0 0.12746024E+03 -.40341222E+03 0.69428465E+03 0.86990146E+03 0.30937007E+03 0.0000E+00 0.0000E+00
       23  2    1    2    0    0 -.12746024E+03 0.40341222E+03 -.21071907E+04 0.21513244E+04 0.94640304E+02 0.0000E+00 0.0000E+00
       23  1    3    3    0    0 0.10249027E+03 -.35704858E+03 0.65303788E+03 0.75681019E+03 0.91188000E+02 0.0000E+00 0.9000E+01
      -11  1    4    4    0    0 -.35451279E+01 0.14610783E+02 -.22028300E+03 0.22079548E+03 0.51099893E-03 0.0000E+00 0.9000E+01
       11  1    4    4    0    0 -.12391511E+03 0.38880144E+03 -.18869077E+04 0.19305290E+04 0.51099893E-03 0.0000E+00 0.9000E+01
       23  1    3    3    0    0 0.24969971E+02 -.46363641E+02 0.41246768E+02 0.11309126E+03 0.91188000E+02 0.0000E+00 0.9000E+01
#aMCatNLO 1  0  0  1  2 0.31665408D+04 0.00000000D+00  -5  7  0 0.00000000D+00 0.00000000D+00 0.00000000D+00 0.00000000D+00 0.00000000D+00
  <mgrwgt>
 0.5330702090D-03    3    2    0
 0.133524365853760D+04 0.000000000000000D+00 0.000000000000000D+00 0.133524365853760D+04
 0.133524365853760D+04 0.000000000000000D+00 0.000000000000000D+00 -.133524365853760D+04
 0.120171913839153D+04 0.102490265270703D+03 -.357048581371138D+03 0.113922152907065D+04
 0.133246783081504D+03 -.354512788158531D+01 0.146107834635400D+02 -.132395854453432D+03
 0.118575395041315D+04 -.123915108073824D+03 0.388801438689935D+03 -.111332426461659D+04
 0.149767445189011D+03 0.249699706847072D+02 -.463636407823366D+02 0.106498589999373D+03
 0.000000000000000D+00 -.000000000000000D+00 -.000000000000000D+00 -.000000000000000D+00
 0.349244773792856D+04 0.000000000000000D+00 0.000000000000000D+00 0.349244773792856D+04
 0.383482912598598D+04 0.000000000000000D+00 0.000000000000000D+00 -.383482912598598D+04
 0.171478944722245D+04 0.120166632554935D+04 0.436302586176307D+03 0.113922152907065D+04
 0.213414202314415D+03 0.127104738214929D+03 0.108909802113301D+03 -.132395854453432D+03
 0.198993373269882D+04 0.107294057526496D+04 0.125265472668995D+04 -.111332426461659D+04
 0.224142544102346D+03 0.165889462900631D+03 0.553476752841312D+02 0.106498589999373D+03
 0.318499693757650D+04 -.256760110192987D+04 -.185321479026369D+04 -.342381388057424D+03
0.286687087222D-02 0.000000000000D+00 0.000000000000D+00 0.164524722997D-07 0.000000000000D+00  7 -1 1 23 -11 11 23 21 0 0.12371691D+00 0.34108707D+00 0.20743579D+06 0.20743579D+06 0.20743579D+06 0.10966099D+01  1  2  2  1  7  1       -1 0.484732073958D-03 0.100000000000D+01
0.647577445499D-04 0.000000000000D+00 -.110095390138D-04 0.164524722997D-07 0.000000000000D+00  7 -1 1 23 -11 11 23 21 2 0.12371691D+00 0.34108707D+00 0.20743579D+06 0.20743579D+06 0.20743579D+06 0.10966099D+01  1  2  3  1  7  1       -1 0.131670845691D-04 0.100000000000D+01
0.172976629132D-03 0.000000000000D+00 0.000000000000D+00 0.164524722997D-07 0.000000000000D+00  7 -1 1 23 -11 11 23 21 2 0.12371691D+00 0.34108707D+00 0.20743579D+06 0.20743579D+06 0.20743579D+06 0.10966099D+01  1  2 15  1  7  1       -1 0.351710505067D-04 0.100000000000D+01
  </mgrwgt>
  </event>
  <event>
  8     66 0.27414828E-05 0.66125452E+03 0.75467711E-02 0.90127933E-01
       -1 -1    0    0    0  501 0.00000000E+00 0.00000000E+00 0.11986030E+03 0.11986073E+03 0.32000000E+00 0.0000E+00 0.9000E+01
        1 -1    0    0  501    0 0.00000000E+00 0.00000000E+00 -.39105097E+04 0.39105097E+04 0.32000000E+00 0.0000E+00 0.9000E+01
       25  2    1    2    0    0 -.31120345E+03 0.55562631E+03 -.23421034E+04 0.24453873E+04 0.29816532E+03 0.0000E+00 0.0000E+00
       23  2    1    2    0    0 0.31120345E+03 -.55562631E+03 -.14485460E+04 0.15849831E+04 0.91202256E+02 0.0000E+00 0.0000E+00
       23  1    3    3    0    0 -.14142096E+03 0.12314724E+03 -.46715775E+03 0.51158259E+03 0.91188000E+02 0.0000E+00 0.9000E+01
      -13  1    4    4    0    0 0.36736760E+02 -.29562495E+02 -.15126144E+03 0.15844105E+03 0.10565837E+00 0.0000E+00 0.9000E+01
       13  1    4    4    0    0 0.27446670E+03 -.52606381E+03 -.12972846E+04 0.14265421E+04 0.10565837E+00 0.0000E+00 0.9000E+01
       23  1    3    3    0    0 -.16978249E+03 0.43247907E+03 -.18749456E+04 0.19338047E+04 0.91188000E+02 0.0000E+00 0.9000E+01
#aMCatNLO 1  0  0  2  2 0.18356700D+03 0.00000000D+00  -5  7  0 0.00000000D+00 0.00000000D+00 0.00000000D+00 0.00000000D+00 0.00000000D+00
  <mgrwgt>
 0.2460270740D-03    4    2    0
 0.684628191722934D+03 0.000000000000000D+00 0.000000000000000D+00 0.684628191722934D+03
 0.684628191722934D+03 0.000000000000000D+00 0.000000000000000D+00 -.684628191722934D+03
 0.212550484998495D+03 -.141420964744875D+03 0.123147241934523D+03 0.411986026904329D+02
 0.476141601315679D+02 0.367364404833973D+02 -.295618288463760D+02 -.660609271067108D+01
 0.607587583564594D+03 0.274467014106996D+03 -.526064480368314D+03 0.130716075384280D+03
 0.501504154751211D+03 -.169782489845519D+03 0.432479067280166D+03 -.165308585364042D+03
 0.000000000000000D+00 -.000000000000000D+00 0.000000000000000D+00 0.000000000000000D+00
 0.107866644774036D+04 0.000000000000000D+00 0.000000000000000D+00 0.107866644774036D+04
 0.712469931807103D+03 0.000000000000000D+00 0.000000000000000D+00 -.712469931807103D+03
 0.191423025932527D+03 -.115696339495663D+03 0.115084993273776D+03 0.411986026904329D+02
 0.539249769823588D+02 0.432023502019931D+02 -.315882829332381D+02 -.660609271067108D+01
 0.669226926025813D+03 0.355773272768047D+03 -.551546339429429D+03 0.130716075384280D+03
 0.466931454932305D+03 -.108113488133783D+03 0.413151639897126D+03 -.165308585364042D+03
 0.409629995674460D+03 -.175165795340594D+03 0.548979891917654D+02 0.366196515933257D+03
0.905017246036D-03 0.000000000000D+00 0.000000000000D+00 0.302576471943D-06 0.000000000000D+00  7 -1 1 23 -13 13 23 21 0 0.18440081D-01 0.60161690D+00 0.43725754D+06 0.43725754D+06 0.43725754D+06 0.10726505D+01  1  2  2  2  7  2        1 0.260879295979D-03 0.100000000000D+01
-.502049704953D-04 0.000000000000D+00 -.347550452129D-05 0.302576471943D-06 0.000000000000D+00  7 -1 1 23 -13 13 23 21 2 0.18440081D-01 0.60161690D+00 0.43725754D+06 0.43725754D+06 0.43725754D+06 0.10726505D+01  1  2  3  2  7  2        1 -.166512149033D-04 0.100000000000D+01
0.557507755312D-04 0.000000000000D+00 0.000000000000D+00 0.302576471943D-06 0.000000000000D+00  7 -1 1 23 -13 13 23 21 2 0.18440081D-01 0.60161690D+00 0.43725754D+06 0.43725754D+06 0.43725754D+06 0.10726505D+01  1  2 15  2  7  2        1 0.184905624928D-04 0.100000000000D+01
-.503266437350D-04 0.000000000000D+00 0.000000000000D+00 0.302576471943D-06 0.000000000000D+00  7 -1 1 23 -13 13 23 21 2 0.18440081D-01 0.60161690D+00 0.43725754D+06 0.43725754D+06 0.43725754D+06 0.10726505D+01  1  2  4  2  7  2        1 -.166915696180D-04 0.100000000000D+01
  </mgrwgt>
  </event>
  <event>
  8     66 0.27414828E-05 0.29621887E+03 0.75467711E-02 0.81746109E-01
       -1 -1    0    0    0  501 0.00000000E+00 0.00000000E+00 0.30759875E+03 0.30759892E+03 0.32000000E+00 0.0000E+00 0.9000E+01
        1 -1    0    0  501    0 0.00000000E+00 0.00000000E+00 -.15365074E+04 0.15365074E+04 0.32000000E+00 0.0000E+00 0.9000E+01
       25  2    1    2    0    0 -.22223997E+03 -.11122235E+03 0.16634240E+03 0.42390302E+03 0.30043795E+03 0.0000E+00 0.0000E+00
       23  2    1    2    0    0 0.22223997E+03 0.11122235E+03 -.13952510E+04 0.14202033E+04 0.92146643E+02 0.0000E+00 0.0000E+00
       23  1    3    3    0    0 -.17846437E+03 -.10956184E+03 -.94367174E+00 0.22840637E+03 0.91188000E+02 0.0000E+00 0.9000E+01
      -11  1    4    4    0    0 0.22871498E+03 0.99383026E+02 -.13548341E+04 0.13775932E+04 0.51099893E-03 0.0000E+00 0.9000E+01
       11  1    4    4    0    0 -.64750128E+01 0.11839322E+02 -.40416901E+02 0.42610107E+02 0.51099893E-03 0.0000E+00 0.9000E+01
       23  1    3    3    0    0 -.43775599E+02 -.16605127E+01 0.16728607E+03 0.19549666E+03 0.91188000E+02 0.0000E+00 0.9000E+01
#aMCatNLO 1  0  0  1  1 0.18346863D+04 0.00000000D+00  -5  7  0 0.00000000D+00 0.00000000D+00 0.00000000D+00 0.00000000D+00 0.00000000D+00
  <mgrwgt>
 0.2832921036D-03    5    2    0
 0.687479411618887D+03 0.000000000000000D+00 0.000000000000000D+00 0.687479411618887D+03
 0.687479411618887D+03 0.000000000000000D+00 0.000000000000000D+00 -.687479411618887D+03
 0.305497105659224D+03 -.178464367341234D+03 -.109561835094589D+03 0.202879038104883D+03
 0.636717986072002D+03 0.228714979200053D+03 0.993830258102436D+02 -.585851744264627D+03
 0.210252770618150D+02 -.647501281036182D+01 0.118393220185521D+02 -.161234902788682D+02
 0.411718454444733D+03 -.437755990484563D+02 -.166051273420693D+01 0.399096196438613D+03
 0.000000000000000D+00 0.000000000000000D+00 -.000000000000000D+00 0.000000000000000D+00
 0.289932530522613D+04 0.000000000000000D+00 0.000000000000000D+00 0.289932530522613D+04
 0.162641710221111D+04 0.000000000000000D+00 0.000000000000000D+00 -.162641710221111D+04
 0.668959721350320D+03 -.625027255594577D+03 0.858654942724160D+02 0.202879038104883D+03
 0.835297783107649D+03 -.445863509265802D+03 0.394595807519329D+03 -.585851744264627D+03
 0.493081849352770D+02 -.387066243704812D+02 0.259446987394571D+02 -.161234902788682D+02
 0.739158790094281D+03 -.571186411001603D+03 0.229147933669457D+03 0.399096196438613D+03
 0.223301792794972D+04 0.168078380023246D+04 -.735553934200658D+03 0.127290820301502D+04
0.735534486068D-04 0.000000000000D+00 0.000000000000D+00 0.260340592580D-05 0.000000000000D+00  7 -1 1 23 -11 11 23 21 0 0.47322901D-01 0.23638577D+00 0.87745617D+05 0.87745617D+05 0.87745617D+05 0.11264110D+01  1  2  2  1  7  1       -1 0.264111790948D-03 0.100000000000D+01
-.564480761980D-06 0.000000000000D+00 -.282464609718D-06 0.260340592580D-05 0.000000000000D+00  7 -1 1 23 -11 11 23 21 2 0.47322901D-01 0.23638577D+00 0.87745617D+05 0.87745617D+05 0.87745617D+05 0.11264110D+01  1  2  3  1  7  1       -1 -.257174375365D-05 0.100000000000D+01
0.432053414495D-05 0.000000000000D+00 0.000000000000D+00 0.260340592580D-05 0.000000000000D+00  7 -1 1 23 -11 11 23 21 2 0.47322901D-01 0.23638577D+00 0.87745617D+05 0.87745617D+05 0.87745617D+05 0.11264110D+01  1  2 15  1  7  1       -1 0.196841193679D-04 0.100000000000D+01
0.160812931649D-03 0.000000000000D+00 -.458158407693D-04 0.260340592580D-05 0.000000000000D+00  7 -1 1 23 -11 11 23 21 2 0.40211495D+00 0.23638577D+00 0.87745617D+05 0.87745617D+05 0.87745617D+05 0.11264110D+01  1  2  5  1  7  1       -1 0.440286199519D-06 0.100000000000D+01
0.355907896945D-04 0.000000000000D+00 -.118468479278D-04 0.260340592580D-05 0.000000000000D+00  7 21 1 23 -11 11 23 1 2 0.40211495D+00 0.23638577D+00 0.87745617D+05 0.87745617D+05 0.87745617D+05 0.11264110D+01  1  2  5  3  7  1       -1 0.162765082256D-05 0.100000000000D+01
  </mgrwgt>
  </event>
  <event>
  8     66 0.27414828E-05 0.12459425E+03 0.75467711E-02 0.10404666E+00
       -1 -1    0    0    0  501 0.00000000E+00 0.00000000E+00 0.22122209E+03 0.22122232E+03 0.32000000E+00 0.0000E+00 0.9000E+01
        1 -1    0    0  501    0 0.00000000E+00 0.00000000E+00 -.32751075E+03 0.32751090E+03 0.32000000E+00 0.0000E+00 0.9000E+01
       25  2    1    2    0    0 -.85717706E+01 -.11112909E+03 0.63104664E+02 0.32611154E+03 0.29990563E+03 0.0000E+00 0.0000E+00
       23  2    1    2    0    0 0.85717706E+01 0.11112909E+03 -.16939332E+03 0.22262169E+03 0.91886725E+02 0.0000E+00 0.0000E+00
       23  1    3    3    0    0 -.55640941E+02 -.16872680E+03 0.59510651E+02 0.20837806E+03 0.91188000E+02 0.0000E+00 0.9000E+01
      -11  1    4    4    0    0 0.20572131E+02 -.97347254E+01 -.22290340E+02 0.31856502E+02 0.51099893E-03 0.0000E+00 0.9000E+01
       11  1    4    4    0    0 -.12000360E+02 0.12086381E+03 -.14710298E+03 0.19076519E+03 0.51099893E-03 0.0000E+00 0.9000E+01
       23  1    3    3    0    0 0.47069170E+02 0.57597711E+02 0.35940132E+01 0.11773348E+03 0.91188000E+02 0.0000E+00 0.9000E+01
#aMCatNLO 1  0  0  2  1 0.84249429D+01 0.00000000D+00  -5  7  0 0.00000000D+00 0.00000000D+00 0.00000000D+00 0.00000000D+00 0.00000000D+00
  <mgrwgt>
 0.1493065013D-03   11    2    0
 0.269170427104592D+03 0.000000000000000D+00 0.000000000000000D+00 0.269170427104592D+03
 0.269170427104592D+03 0.000000000000000D+00 0.000000000000000D+00 -.269170427104592D+03
 0.224150315740102D+03 -.556409410141026D+02 -.168726799017766D+03 0.101801108435375D+03
 0.280705257076291D+02 0.205721309058219D+02 -.973472535675032D+01 -.164309757995390D+02
 0.165404164289506D+03 -.120003603094017D+02 0.120863813681595D+03 -.112278526259901D+03
 0.120715848471946D+03 0.470691704176824D+02 0.575977106929212D+02 0.269083936240644D+02
 0.000000000000000D+00 -.000000000000000D+00 -.000000000000000D+00 -.000000000000000D+00
 0.270143222455832D+03 0.000000000000000D+00 0.000000000000000D+00 0.270143222455832D+03
 0.288084268709034D+03 0.000000000000000D+00 0.000000000000000D+00 -.288084268709034D+03
 0.221397962106349D+03 -.546191278229626D+02 -.165393746792411D+03 0.101801108435375D+03
 0.280226725826550D+02 0.207007741366369D+02 -.931510403020765D+01 -.164309757995390D+02
 0.167177795834289D+03 -.112376222383843D+02 0.123351788829118D+03 -.112278526259901D+03
 0.121808344112520D+03 0.476253714658633D+02 0.594119827706931D+02 0.269083936240644D+02
 0.198207165290531D+02 -.246939554115329D+01 -.805492077719303D+01 -.179410462532026D+02
0.124715180126D-05 0.000000000000D+00 0.000000000000D+00 0.450241863204D-06 0.000000000000D+00  7 -1 1 23 -11 11 23 21 0 0.34034198D-01 0.50386299D-01 0.53267566D+05 0.53267566D+05 0.53267566D+05 0.11448850D+01  1  2  2  2  7  2        1 0.943663061295D-04 0.100000000000D+01
-.672934302905D-07 0.000000000000D+00 -.478939129945D-08 0.450241863204D-06 0.000000000000D+00  7 -1 1 23 -11 11 23 21 2 0.34034198D-01 0.50386299D-01 0.53267566D+05 0.53267566D+05 0.53267566D+05 0.11448850D+01  1  2  3  2  7  2        1 -.667411984079D-05 0.100000000000D+01
0.746844440153D-07 0.000000000000D+00 0.000000000000D+00 0.450241863204D-06 0.000000000000D+00  7 -1 1 23 -11 11 23 21 2 0.34034198D-01 0.50386299D-01 0.53267566D+05 0.53267566D+05 0.53267566D+05 0.11448850D+01  1  2 15  2  7  2        1 0.740715590584D-05 0.100000000000D+01
0.202024609707D-04 0.000000000000D+00 0.000000000000D+00 0.450241863204D-06 0.000000000000D+00  7 -1 1 23 -11 11 23 21 2 0.34034198D-01 0.54014180D-01 0.55317120D+05 0.55317120D+05 0.55317120D+05 0.11434548D+01  1  2 12  2  7  2        1 0.182444870792D-02 0.100000000000D+01
-.205136706668D-04 0.000000000000D+00 0.000000000000D+00 0.450241863204D-06 0.000000000000D+00  7 -1 1 23 -11 11 23 21 2 0.34034198D-01 0.50386299D-01 0.53267566D+05 0.53267566D+05 0.53267566D+05 0.11448850D+01  1  2  4  2  7  2        1 -.203453287808D-02 0.100000000000D+01
-.340698970453D-04 0.000000000000D+00 -.239349657377D-05 0.450241863204D-06 0.000000000000D+00  7 -1 1 23 -11 11 23 21 2 0.34034198D-01 0.54039293D-01 0.53267566D+05 0.53267566D+05 0.53267566D+05 0.11448850D+01  1  2  5  2  7  2        1 -.308305778543D-02 0.100000000000D+01
0.341595674883D-04 0.000000000000D+00 0.238764576721D-05 0.450241863204D-06 0.000000000000D+00  7 -1 1 23 -11 11 23 21 2 0.34034198D-01 0.50386299D-01 0.53267566D+05 0.53267566D+05 0.53267566D+05 0.11448850D+01  1  2  6  2  7  2        1 0.338792429130D-02 0.100000000000D+01
0.384436339906D-07 0.000000000000D+00 0.000000000000D+00 0.450241863204D-06 0.443015236121D-07  7 -1 1 23 -11 11 23 21 2 0.34157199D-01 0.53926801D-01 0.55317120D+05 0.55317120D+05 0.55317120D+05 0.11434548D+01  1  2 11  2  7  2        1 0.345813655428D-05 0.100000000000D+01
0.285940775882D-06 0.000000000000D+00 0.000000000000D+00 0.450241863204D-06 0.000000000000D+00  7 -1 21 23 -11 11 23 -1 2 0.34034198D-01 0.54014180D-01 0.55317120D+05 0.55317120D+05 0.55317120D+05 0.11434548D+01  1  2 12  4  7  2        1 0.109963480385D-03 0.100000000000D+01
-.399742301214D-06 0.000000000000D+00 -.283654745221D-07 0.450241863204D-06 0.000000000000D+00  7 -1 21 23 -11 11 23 -1 2 0.34034198D-01 0.54039293D-01 0.53267566D+05 0.53267566D+05 0.53267566D+05 0.11448850D+01  1  2  5  4  7  2        1 -.154171231077D-03 0.100000000000D+01
0.454760619765D-09 0.000000000000D+00 0.000000000000D+00 0.450241863204D-06 0.517723410109D-09  7 -1 21 23 -11 11 23 -1 2 0.34157199D-01 0.53926801D-01 0.55317120D+05 0.55317120D+05 0.55317120D+05 0.11434548D+01  1  2 11  4  7  2        1 0.174437565618D-06 0.100000000000D+01
  </mgrwgt>
  </event>
  <event>
  9     66 0.27414828E-05 0.21336809E+03 0.75467711E-02 0.10002974E+00
       21 -1    0    0  502  501 0.00000000E+00 0.00000000E+00 0.86235794E+02 0.86239055E+02 0.75000000E+00 0.0000E+00 0.9000E+01
        1 -1    0    0  501    0 0.00000000E+00 0.00000000E+00 -.14941059E+04 0.14941059E+04 0.32000000E+00 0.0000E+00 0.9000E+01
       25  2    1    2    0    0 0.10853617E+03 0.17934291E+02 -.10375128E+04 0.10856193E+04 0.30005765E+03 0.0000E+00 0.0000E+00
       23  2    1    2    0    0 0.10554925E+02 -.13637551E+03 -.13717466E+03 0.20734924E+03 0.73940062E+02 0.0000E+00 0.0000E+00
       23  1    3    3    0    0 0.30875829E+02 -.10613211E+03 -.55560729E+03 0.57378746E+03 0.91188000E+02 0.0000E+00 0.9000E+01
      -11  1    4    4    0    0 -.27309489E+02 -.28867828E+02 -.49915186E+02 0.63801924E+02 0.51099893E-03 0.0000E+00 0.9000E+01
       11  1    4    4    0    0 0.37864414E+02 -.10750768E+03 -.87259477E+02 0.14354731E+03 0.51099893E-03 0.0000E+00 0.9000E+01
       23  1    3    3    0    0 0.77660338E+02 0.12406640E+03 -.48190552E+03 0.51183179E+03 0.91188000E+02 0.0000E+00 0.9000E+01
        1  1    1    2  502    0 -.11909109E+03 0.11844122E+03 -.23318263E+03 0.28737650E+03 0.32000000E+00 0.0000E+00 0.9000E+01
#aMCatNLO 2  0  0  1  2 0.16796133D+03 0.00000000D+00  -5  7  0 0.00000000D+00 0.00000000D+00 0.00000000D+00 0.00000000D+00 0.00000000D+00
  <mgrwgt>
 0.2087761487D-03    2    2    0
 0.256742014162107D+03 0.000000000000000D+00 0.000000000000000D+00 0.256742014162107D+03
 0.256742014162107D+03 0.000000000000000D+00 0.000000000000000D+00 -.256742014162107D+03
 0.142120747976812D+03 -.385132133574331D+01 -.715944601671967D+02 -.821124610447463D+02
 0.461403052371262D+02 -.375152999521870D+02 -.187177101009967D+02 0.192659639117190D+02
 0.128254981413513D+03 0.598556760574744D+01 -.758027943610755D+02 0.103283346212591D+03
 0.196967993696763D+03 0.353810536821828D+02 0.166114964629269D+03 -.404368490795640D+02
 0.000000000000000D+00 -.000000000000000D+00 0.000000000000000D+00 0.000000000000000D+00
 0.393895000606426D+03 0.000000000000000D+00 0.000000000000000D+00 0.393895000606426D+03
 0.327112321285031D+03 0.000000000000000D+00 0.000000000000000D+00 -.327112321285031D+03
 0.165151591915862D+03 0.308758289715958D+02 -.106132105862624D+03 -.821124610447463D+02
 0.441626207148739D+02 -.273094894199960D+02 -.288678279504586D+02 0.192659639117190D+02
 0.153815033822791D+03 0.378644142983134D+02 -.107507679515847D+03 0.103283346212591D+03
 0.177127041973660D+03 0.776603377124143D+02 0.124066396889927D+03 -.404368490795640D+02
 0.180751033464270D+03 -.119091091562328D+03 0.118441216439002D+03 0.667826793213954D+02
-.166021218148D-07 0.000000000000D+00 0.000000000000D+00 0.113507227542D-08 0.000000000000D+00  7 21 1 23 -11 11 23 1 2 0.13941542D-01 0.18041322D+00 0.10157679D+06 0.10157679D+06 0.10157679D+06 0.11211649D+01  1  2 13  3  7  1       -1 -.129539692233D-04 0.100000000000D+01
0.430650842103D-06 0.000000000000D+00 0.000000000000D+00 0.113507227542D-08 0.253967128974D-13  7 21 1 23 -11 11 23 1 2 0.13267293D-01 0.22986261D+00 0.10157679D+06 0.10157679D+06 0.10157679D+06 0.11211649D+01  1  2  1  3  7  1       -1 0.221730117938D-03 0.100000000000D+01
  </mgrwgt>
  </event>
  <event>
  9     66 0.27414828E-05 0.48659696E+03 0.75467711E-02 0.86939090E-01
       21 -1    0    0  502  501 0.00000000E+00 0.00000000E+00 0.78855259E+03 0.78855295E+03 0.75000000E+00 0.0000E+00 0.9000E+01
        1 -1    0    0  501    0 0.00000000E+00 0.00000000E+00 -.16826483E+04 0.16826483E+04 0.32000000E+00 0.0000E+00 0.9000E+01
       25  2    1    2    0    0 0.37055433E+03 0.18087334E+03 -.62045680E+03 0.80309371E+03 0.29994531E+03 0.0000E+00 0.0000E+00
       23  2    1    2    0    0 -.42290665E+03 0.63767460E+03 -.34563357E+03 0.84473349E+03 0.92914901E+02 0.0000E+00 0.0000E+00
       23  1    3    3    0    0 0.30323330E+03 0.22007998E+03 -.51512850E+03 0.64347359E+03 0.91188000E+02 0.0000E+00 0.9000E+01
      -11  1    4    4    0    0 -.36653310E+03 0.58655353E+03 -.33279521E+03 0.76755731E+03 0.51099893E-03 0.0000E+00 0.9000E+01
       11  1    4    4    0    0 -.56373550E+02 0.51121065E+02 -.12838354E+02 0.77176186E+02 0.51099893E-03 0.0000E+00 0.9000E+01
       23  1    3    3    0    0 0.67321033E+02 -.39206642E+02 -.10532829E+03 0.15962012E+03 0.91188000E+02 0.0000E+00 0.9000E+01
        1  1    1    2  502    0 0.52352318E+02 -.81854794E+03 0.71994677E+02 0.82337405E+03 0.32000000E+00 0.0000E+00 0.9000E+01
#aMCatNLO 2  0  0  1  2 0.82022040D+03 0.00000000D+00  -5  7  0 0.00000000D+00 0.00000000D+00 0.00000000D+00 0.00000000D+00 0.00000000D+00
  <mgrwgt>
 0.1244770263D-04    1    2    0
 0.526602886800903D+03 0.000000000000000D+00 0.000000000000000D+00 0.526602886800903D+03
 0.526602886800903D+03 0.000000000000000D+00 0.000000000000000D+00 -.526602886800903D+03
 0.378275129466775D+03 0.320766015555355D+03 -.540505219408268D+02 -.170189678217487D+03
 0.421551538453048D+03 -.341801176246810D+03 0.199860682273925D+03 0.144683665869473D+03
 0.664387551707525D+02 -.530323346814581D+02 -.112007875529090D+01 0.400053132778003D+02
 0.186940350511231D+03 0.740674953729137D+02 -.144690081577808D+03 -.144993009297871D+02
 0.000000000000000D+00 0.000000000000000D+00 -.000000000000000D+00 0.000000000000000D+00
 0.154407475193104D+04 0.000000000000000D+00 0.000000000000000D+00 0.154407475193104D+04
 0.859321785777497D+03 0.000000000000000D+00 0.000000000000000D+00 -.859321785777497D+03
 0.421503750887282D+03 0.303233300852954D+03 0.220079983983319D+03 -.170189678217487D+03
 0.706629271100929D+03 -.366533102473565D+03 0.586553534128219D+03 0.144683665869473D+03
 0.859753772621565D+02 -.563735500676123D+02 0.511210647159230D+02 0.400053132778003D+02
 0.120808788505781D+03 0.673210333359240D+02 -.392066420312338D+02 -.144993009297871D+02
 0.106847934995239D+04 0.523523183522999D+02 -.818547940796227D+03 0.684752966153543D+03
0.507889134361D-05 0.000000000000D+00 0.000000000000D+00 0.843868248258D-06 0.333996906379D-11  7 21 1 23 -11 11 23 1 2 0.12131581D+00 0.25886899D+00 0.10957200D+07 0.10957200D+07 0.10957200D+07 0.10452315D+01  1  2  1  3  7  1       -1 0.124477026308D-04 0.100000000000D+01
  </mgrwgt>
  </event>
  <event>
  8     66 0.27414828E-05 0.50992399E+03 0.75467711E-02 0.92041864E-01
       -1 -1    0    0    0  501 0.00000000E+00 0.00000000E+00 0.16582313E+03 0.16582344E+03 0.32000000E+00 0.0000E+00 0.9000E+01
        1 -1    0    0  501    0 0.00000000E+00 0.00000000E+00 -.18645255E+04 0.18645255E+04 0.32000000E+00 0.0000E+00 0.9000E+01
       25  2    1    2    0    0 0.58528374E+02 0.48089964E+03 -.12030442E+04 0.13311050E+04 0.29972525E+03 0.0000E+00 0.0000E+00
       23  2    1    2    0    0 -.58528374E+02 -.48089964E+03 -.49565818E+03 0.69924395E+03 0.92601498E+02 0.0000E+00 0.0000E+00
       23  1    3    3    0    0 0.73661682E+02 0.32421901E+03 -.51742047E+03 0.62175816E+03 0.91188000E+02 0.0000E+00 0.9000E+01
      -11  1    4    4    0    0 0.25016056E+02 -.13749425E+03 -.13617786E+03 0.19512786E+03 0.51099893E-03 0.0000E+00 0.9000E+01
       11  1    4    4    0    0 -.83544430E+02 -.34340539E+03 -.35948032E+03 0.50411609E+03 0.51099893E-03 0.0000E+00 0.9000E+01
       23  1    3    3    0    0 -.15133308E+02 0.15668062E+03 -.68562375E+03 0.70934689E+03 0.91188000E+02 0.0000E+00 0.9000E+01
#aMCatNLO 1  0  0  2  1 0.21785215D+03 0.00000000D+00  -5  7  0 0.00000000D+00 0.00000000D+00 0.00000000D+00 0.00000000D+00 0.00000000D+00
  <mgrwgt>
 0.1114215781D-03    7    2    0
 0.556041187038727D+03 0.000000000000000D+00 0.000000000000000D+00 0.556041187038727D+03
 0.556041187038727D+03 0.000000000000000D+00 0.000000000000000D+00 -.556041187038727D+03
 0.344796992467753D+03 0.736616819475124D+02 0.324219014344046D+03 0.506971609131608D+01
 0.148237214625945D+03 0.250160562966492D+02 -.137494248366488D+03 0.494348095329182D+02
 0.371268824603482D+03 -.835444304712016D+02 -.343405387749950D+03 0.113726021314385D+03
 0.247779342380274D+03 -.151333077729600D+02 0.156680621772392D+03 -.168230546938619D+03
 0.000000000000000D+00 0.000000000000000D+00 -.000000000000000D+00 -.000000000000000D+00
 0.673318835512933D+03 0.000000000000000D+00 0.000000000000000D+00 0.673318835512933D+03
 0.677799026852563D+03 0.000000000000000D+00 0.000000000000000D+00 -.677799026852563D+03
 0.411662537510434D+03 0.616993410403928D+02 0.396633688356731D+03 0.506971609131608D+01
 0.123681657735942D+03 0.207160427184394D+02 -.111463884917235D+03 0.494348095329182D+02
 0.314620754659108D+03 -.943908071068645D+02 -.277746263470783D+03 0.113726021314385D+03
 0.283254696551251D+03 -.235308623746803D+02 0.207515670172105D+03 -.168230546938619D+03
 0.217898215908762D+03 0.355062857227125D+02 -.214939210140818D+03 -.448019133963023D+01
0.133225271607D-04 0.000000000000D+00 0.000000000000D+00 0.280377796183D-06 0.000000000000D+00  7 -1 1 23 -11 11 23 21 0 0.25511277D-01 0.28685011D+00 0.26002248D+06 0.26002248D+06 0.26002248D+06 0.10891772D+01  1  2  2  2  7  2        1 0.795999999129D-04 0.100000000000D+01
-.733394531657D-06 0.000000000000D+00 -.511620121991D-07 0.280377796183D-06 0.000000000000D+00  7 -1 1 23 -11 11 23 21 2 0.25511277D-01 0.28685011D+00 0.26002248D+06 0.26002248D+06 0.26002248D+06 0.10891772D+01  1  2  3  2  7  2        1 -.519829828859D-05 0.100000000000D+01
0.811013446776D-06 0.000000000000D+00 0.000000000000D+00 0.280377796183D-06 0.000000000000D+00  7 -1 1 23 -11 11 23 21 2 0.25511277D-01 0.28685011D+00 0.26002248D+06 0.26002248D+06 0.26002248D+06 0.10891772D+01  1  2 15  2  7  2        1 0.574846093122D-05 0.100000000000D+01
-.528738595786D-05 0.000000000000D+00 0.000000000000D+00 0.280377796183D-06 0.000000000000D+00  7 -1 1 23 -11 11 23 21 2 0.25511277D-01 0.28685011D+00 0.26002248D+06 0.26002248D+06 0.26002248D+06 0.10891772D+01  1  2  4  2  7  2        1 -.374769761560D-04 0.100000000000D+01
-.138734580955D-04 0.000000000000D+00 -.536983778670D-05 0.280377796183D-06 0.000000000000D+00  7 -1 1 23 -11 11 23 21 2 0.25511277D-01 0.38312993D+00 0.26002248D+06 0.26002248D+06 0.26002248D+06 0.10891772D+01  1  2  5  2  7  2        1 -.372768541982D-04 0.100000000000D+01
0.150117682285D-04 0.000000000000D+00 0.515253732570D-05 0.280377796183D-06 0.000000000000D+00  7 -1 1 23 -11 11 23 21 2 0.25511277D-01 0.28685011D+00 0.26002248D+06 0.26002248D+06 0.26002248D+06 0.10891772D+01  1  2  6  2  7  2        1 0.106403369159D-03 0.100000000000D+01
-.408687662918D-06 0.000000000000D+00 -.202247010535D-06 0.280377796183D-06 0.000000000000D+00  7 -1 21 23 -11 11 23 -1 2 0.25511277D-01 0.38312993D+00 0.26002248D+06 0.26002248D+06 0.26002248D+06 0.10891772D+01  1  2  5  4  7  2        1 -.378123281568D-06 0.100000000000D+01
  </mgrwgt>
  </event>
  <event>
  8     66 0.27414828E-05 0.16215304E+03 0.75467711E-02 0.85900460E-01
       -1 -1    0    0    0  501 0.00000000E+00 0.00000000E+00 0.19133370E+03 0.19133397E+03 0.32000000E+00 0.0000E+00 0.9000E+01
        1 -1    0    0  501    0 0.00000000E+00 0.00000000E+00 -.14358035E+04 0.14358036E+04 0.32000000E+00 0.0000E+00 0.9000E+01
       25  2    1    2    0    0 -.61786546E+02 0.94463134E+01 0.64275669E+02 0.31370586E+03 0.30062135E+03 0.0000E+00 0.0000E+00
       23  2    1    2    0    0 0.61786546E+02 -.94463134E+01 -.13087455E+04 0.13134317E+04 0.91548764E+02 0.0000E+00 0.0000E+00
       23  1    3    3    0    0 -.84390193E+02 -.33068366E+01 -.75043011E+02 0.14518727E+03 0.91188000E+02 0.0000E+00 0.9000E+01
      -11  1    4    4    0    0 0.16345261E+02 -.44764113E+02 -.80497552E+03 0.80638489E+03 0.51099893E-03 0.0000E+00 0.9000E+01
       11  1    4    4    0    0 0.45441285E+02 0.35317800E+02 -.50376996E+03 0.50704678E+03 0.51099893E-03 0.0000E+00 0.9000E+01
       23  1    3    3    0    0 0.22603647E+02 0.12753150E+02 0.13931868E+03 0.16851859E+03 0.91188000E+02 0.0000E+00 0.9000E+01
#aMCatNLO 1  0  0  2  1 0.11394885D+04 0.00000000D+00  -5  7  0 0.00000000D+00 0.00000000D+00 0.00000000D+00 0.00000000D+00 0.00000000D+00
  <mgrwgt>
 0.2954066141D-03    3    2    0
 0.524135335022851D+03 0.000000000000000D+00 0.000000000000000D+00 0.524135335022851D+03
 0.524135335022851D+03 0.000000000000000D+00 0.000000000000000D+00 -.524135335022851D+03
 0.136272915377412D+03 -.843901931698717D+02 -.330683658128165D+01 0.558785848965039D+02
 0.296041257059142D+03 0.163452607119389D+02 -.447641134541094D+02 -.292180479293336D+03
 0.188985848792857D+03 0.454412853279756D+02 0.353178000716691D+02 -.180009426502602D+03
 0.426970648816291D+03 0.226036471299572D+02 0.127531499637220D+02 0.416311320899434D+03
 0.000000000000000D+00 0.000000000000000D+00 -.000000000000000D+00 0.000000000000000D+00
 0.516298468069994D+04 0.000000000000000D+00 0.000000000000000D+00 0.516298468069994D+04
 0.848124243591458D+03 0.000000000000000D+00 0.000000000000000D+00 -.848124243591458D+03
 0.203849641384229D+03 -.944089244009149D+02 0.145615808523337D+03 0.558785848965039D+02
 0.387518495731545D+03 -.378983855572760D+01 0.254532491398795D+03 -.292180479293336D+03
 0.314125987625847D+03 0.306215029641498D+02 0.255605293427845D+03 -.180009426502602D+03
 0.642829282810341D+03 -.890863505445198D+01 0.481164998526382D+03 0.416311320899434D+03
 0.446278551673943D+04 0.764858950469447D+02 -.113691859187636D+04 0.431486043710848D+04
0.264744908072D-04 0.000000000000D+00 0.000000000000D+00 0.101935181327D-05 0.000000000000D+00  7 -1 1 23 -11 11 23 21 0 0.29435977D-01 0.22089287D+00 0.26293609D+05 0.26293609D+05 0.26293609D+05 0.11726872D+01  1  2  2  2  7  2        1 0.261150824188D-03 0.100000000000D+01
0.990625739135D-06 0.000000000000D+00 -.101669015593D-06 0.101935181327D-05 0.000000000000D+00  7 -1 1 23 -11 11 23 21 2 0.29435977D-01 0.22089287D+00 0.26293609D+05 0.26293609D+05 0.26293609D+05 0.11726872D+01  1  2  3  2  7  2        1 0.134380967344D-04 0.100000000000D+01
0.153463270264D-05 0.000000000000D+00 0.000000000000D+00 0.101935181327D-05 0.000000000000D+00  7 -1 1 23 -11 11 23 21 2 0.29435977D-01 0.22089287D+00 0.26293609D+05 0.26293609D+05 0.26293609D+05 0.11726872D+01  1  2 15  2  7  2        1 0.208176931966D-04 0.100000000000D+01
  </mgrwgt>
  </event>
  <event>
  9     66 0.27414828E-05 0.20262593E+03 0.75467711E-02 0.10260210E+00
       21 -1    0    0  502  501 0.00000000E+00 0.00000000E+00 0.43734183E+03 0.43734247E+03 0.75000000E+00 0.0000E+00 0.9000E+01
        1 -1    0    0  501    0 0.00000000E+00 0.00000000E+00 -.10740360E+04 0.10740361E+04 0.32000000E+00 0.0000E+00 0.9000E+01
       25  2    1    2    0    0 -.16376658E+03 0.61554490E+02 -.95086753E+03 0.10122192E+04 0.29971685E+03 0.0000E+00 0.0000E+00
       23  2    1    2    0    0 0.12463883E+03 0.36853381E+02 -.74413554E+01 0.16055750E+03 0.93969820E+02 0.0000E+00 0.0000E+00
       23  1    3    3    0    0 -.13648091E+03 0.16953885E+02 -.85227602E+03 0.86810376E+03 0.91188000E+02 0.0000E+00 0.9000E+01
      -13  1    4    4    0    0 0.28405227E+01 -.14687514E+02 -.22951326E+02 0.27396462E+02 0.10565837E+00 0.0000E+00 0.9000E+01
       13  1    4    4    0    0 0.12179830E+03 0.51540895E+02 0.15509970E+02 0.13316104E+03 0.10565837E+00 0.0000E+00 0.9000E+01
       23  1    3    3    0    0 -.27285672E+02 0.44600605E+02 -.98591513E+02 0.14411544E+03 0.91188000E+02 0.0000E+00 0.9000E+01
        1  1    1    2  502    0 0.39127756E+02 -.98407871E+02 0.32161470E+03 0.33860184E+03 0.32000000E+00 0.0000E+00 0.9000E+01
#aMCatNLO 2  0  0  1  2 0.10590132D+03 0.00000000D+00  -5  7  0 0.00000000D+00 0.00000000D+00 0.00000000D+00 0.00000000D+00 0.00000000D+00
  <mgrwgt>
 0.2615247751D-03    2    2    0
 0.333854070833930D+03 0.000000000000000D+00 0.000000000000000D+00 0.333854070833930D+03
 0.333854070833930D+03 0.000000000000000D+00 0.000000000000000D+00 -.333854070833930D+03
 0.291054693154022D+03 -.119333776011210D+03 -.261718493940348D+02 -.247935611127535D+03
 0.175103160846611D+02 0.378677196110823D+01 -.170678256273549D+02 -.980232550729902D+00
 0.255688610132228D+03 0.136610052406525D+03 0.142892194167036D+02 0.215662182918792D+03
 0.103454522296950D+03 -.210630483564230D+02 0.289504556046862D+02 0.332536607594729D+02
 0.000000000000000D+00 0.000000000000000D+00 -.000000000000000D+00 0.000000000000000D+00
 0.137860774418729D+04 0.000000000000000D+00 0.000000000000000D+00 0.137860774418729D+04
 0.340721520317972D+03 0.000000000000000D+00 0.000000000000000D+00 -.340721520317972D+03
 0.297828461435836D+03 -.136480912939687D+03 0.169538855488157D+02 -.247935611127535D+03
 0.149917987545529D+02 0.284037332621902D+01 -.146875952222005D+02 -.980232550729902D+00
 0.252985203695440D+03 0.121798456133732D+03 0.515409762321612D+02 0.215662182918792D+03
 0.110248715068945D+03 -.272856727337903D+02 0.446006047034313D+02 0.332536607594729D+02
 0.104327508555049D+04 0.391277562135267D+02 -.984078712622077D+02 0.103788622386932D+04
-.741937200054D-05 0.000000000000D+00 0.000000000000D+00 0.143384573772D-06 0.000000000000D+00  7 21 1 23 -13 13 23 1 2 0.66723189D-01 0.16190591D+00 0.68446142D+05 0.68446142D+05 0.68446142D+05 0.11354893D+01  1  2 13  3  7  1       -1 -.336132368287D-03 0.100000000000D+01
0.139426241644D-04 0.000000000000D+00 0.000000000000D+00 0.143384573772D-06 0.335873088065D-10  7 21 1 23 -13 13 23 1 2 0.67283406D-01 0.16523635D+00 0.68446142D+05 0.68446142D+05 0.68446142D+05 0.11354893D+01  1  2  1  3  7  1       -1 0.597657143373D-03 0.100000000000D+01
  </mgrwgt>
  </event>
  <event>
  9     66 0.27414828E-05 0.26819391E+03 0.75467711E-02 0.10063412E+00
       21 -1    0    0  502  501 0.00000000E+00 0.00000000E+00 0.28023866E+03 0.28023967E+03 0.75000000E+00 0.0000E+00 0.9000E+01
        1 -1    0    0  501    0 0.00000000E+00 0.00000000E+00 -.40379207E+03 0.40379220E+03 0.32000000E+00 0.0000E+00 0.9000E+01
       25  2    1    2    0    0 -.97285285E+01 -.16007034E+03 -.70151071E+02 0.34446966E+03 0.29668336E+03 0.0000E+00 0.0000E+00
       23  2    1    2    0    0 -.33249364E+02 0.21289906E+03 0.26416232E+02 0.23463804E+03 0.89026178E+02 0.0000E+00 0.0000E+00
       23  1    3    3    0    0 0.37445963E-01 0.31482952E+02 0.40935698E+02 0.10479580E+03 0.91188000E+02 0.0000E+00 0.9000E+01
      -13  1    4    4    0    0 -.61470659E+02 0.14411835E+03 0.32599775E+02 0.16003593E+03 0.10565837E+00 0.0000E+00 0.9000E+01
       13  1    4    4    0    0 0.28221294E+02 0.68780713E+02 -.61835432E+01 0.74602113E+02 0.10565837E+00 0.0000E+00 0.9000E+01
       23  1    3    3    0    0 -.97659745E+01 -.19155329E+03 -.11108677E+03 0.23967386E+03 0.91188000E+02 0.0000E+00 0.9000E+01
        1  1    1    2  502    0 0.42977893E+02 -.52828724E+02 -.79818570E+02 0.10492416E+03 0.32000000E+00 0.0000E+00 0.9000E+01
#aMCatNLO 2  0  0  1  2 0.68102668D+02 0.00000000D+00  -5  7  0 0.00000000D+00 0.00000000D+00 0.00000000D+00 0.00000000D+00 0.00000000D+00
  <mgrwgt>
 0.6978745516D-04    1    2    0
 0.286711972986625D+03 0.000000000000000D+00 0.000000000000000D+00 0.286711972986625D+03
 0.286711972986625D+03 0.000000000000000D+00 0.000000000000000D+00 -.286711972986625D+03
 0.106059013736061D+03 0.803850533052556D+01 0.216479942143679D+02 0.489898951745339D+02
 0.146224057796988D+03 -.499246179277318D+02 0.129925831412329D+03 0.448139033694009D+02
 0.706483491035210D+02 0.336360755742373D+02 0.621248733361598D+02 -.551147877856707D+00
 0.250492525336680D+03 0.825003702296892D+01 -.213698698962856D+03 -.932526506660780D+02
 0.000000000000000D+00 0.000000000000000D+00 -.000000000000000D+00 -.000000000000000D+00
 0.302266158055025D+03 0.000000000000000D+00 0.000000000000000D+00 0.302266158055025D+03
 0.374366586807093D+03 0.000000000000000D+00 0.000000000000000D+00 -.374366586807093D+03
 0.108196297690695D+03 0.374460024323824D-01 0.314829518717453D+02 0.489898951745339D+02
 0.162963410370427D+03 -.614707833872336D+02 0.144118458131213D+03 0.448139033694009D+02
 0.743473209862772D+02 0.282214188687410D+02 0.687806069389355D+02 -.551147877856707D+00
 0.231946861074475D+03 -.976597446902196D+01 -.191553292596924D+03 -.932526506660780D+02
 0.991788547402422D+02 0.429778929850822D+02 -.528287243449697D+02 -.721004287520684D+02
0.148195615908D-06 0.000000000000D+00 0.000000000000D+00 0.156549822949D-08 0.330045828823D-13  7 21 1 23 -13 13 23 1 2 0.43113692D-01 0.62121893D-01 0.92407992D+05 0.92407992D+05 0.92407992D+05 0.11245469D+01  1  2  1  3  7  1       -1 0.697874551565D-04 0.100000000000D+01
  </mgrwgt>
  </event>
  <event>
  9     66 0.27414828E-05 0.17840098E+03 0.75467711E-02 0.97104225E-01
       -1 -1    0    0    0  502 0.00000000E+00 0.00000000E+00 0.27234737E+03 0.27234755E+03 0.32000000E+00 0.0000E+00 0.9000E+01
        1 -1    0    0  501    0 0.00000000E+00 0.00000000E+00 -.71741299E+03 0.71741306E+03 0.32000000E+00 0.0000E+00 0.9000E+01
       25  2    1    2    0    0 0.23806706E+03 -.55961859E+02 -.82948466E+02 0.39636851E+03 0.30069900E+03 0.0000E+00 0.0000E+00
       23  2    1    2    0    0 0.88385357E+02 0.61048801E+02 -.83956481E+02 0.16447373E+03 0.91999936E+02 0.0000E+00 0.0000E+00
       23  1    3    3    0    0 0.20871067E+03 0.23012088E+02 0.27027430E+02 0.23051125E+03 0.91188000E+02 0.0000E+00 0.9000E+01
      -13  1    4    4    0    0 0.18662100E+02 0.55718600E+02 -.72971596E+02 0.93689388E+02 0.10565837E+00 0.0000E+00 0.9000E+01
       13  1    4    4    0    0 0.69723257E+02 0.53302012E+01 -.10984884E+02 0.70784338E+02 0.10565837E+00 0.0000E+00 0.9000E+01
       23  1    3    3    0    0 0.29356388E+02 -.78973947E+02 -.10997590E+03 0.16585726E+03 0.91188000E+02 0.0000E+00 0.9000E+01
       21  1    1    2  501  502 -.32645242E+03 -.50869425E+01 -.27816068E+03 0.42891839E+03 0.75000000E+00 0.0000E+00 0.9000E+01
#aMCatNLO 2  0  0  1  2 0.32649205D+03 0.00000000D+00  -5  7  0 0.00000000D+00 0.00000000D+00 0.00000000D+00 0.00000000D+00 0.00000000D+00
  <mgrwgt>
 0.5438028784D-05    1    2    0
 0.212184877663138D+03 0.000000000000000D+00 0.000000000000000D+00 0.212184877663138D+03
 0.212184877663138D+03 0.000000000000000D+00 0.000000000000000D+00 -.212184877663138D+03
 0.154441499802884D+03 0.711921653042896D+02 0.208690905125636D+02 0.100165274311157D+03
 0.800951720622657D+02 -.342219166165974D+02 0.548947203542303D+02 -.472299342366836D+02
 0.355277416426604D+02 0.335858458130373D+02 0.476713830787892D+01 0.105586826642373D+02
 0.154305341818466D+03 -.705560945007294D+02 -.805309491746729D+02 -.634940227387110D+02
 0.000000000000000D+00 -.000000000000000D+00 -.000000000000000D+00 -.000000000000000D+00
 0.370168707784462D+03 0.000000000000000D+00 0.000000000000000D+00 0.370168707784462D+03
 0.527827713538980D+03 0.000000000000000D+00 0.000000000000000D+00 -.527827713538980D+03
 0.249876048164025D+03 0.208710697055930D+03 0.230119720725612D+02 0.100165274311157D+03
 0.753891761005689D+02 0.186622072044739D+02 0.557187868441014D+02 -.472299342366836D+02
 0.707192196162283D+02 0.697231002776683D+02 0.533024682303563D+01 0.105586826642373D+02
 0.139446921442808D+03 0.293564127489388D+02 -.789740632286747D+02 -.634940227387110D+02
 0.362565055999812D+03 -.326452417287011D+03 -.508694251102355D+01 -.157659005754518D+03
0.253363366164D-06 0.000000000000D+00 0.000000000000D+00 0.353799406644D-07 0.440003081589D-11  7 -1 1 23 -13 13 23 21 2 0.41899576D-01 0.11037115D+00 0.16331858D+06 0.16331858D+06 0.16331858D+06 0.11046482D+01  1  2  1  1  7  1       -1 0.543802878418D-05 0.100000000000D+01
  </mgrwgt>
  </event>
  <event>
  8     66 0.27414828E-05 0.27052663E+03 0.75467711E-02 0.93135203E-01
       -1 -1    0    0    0  501 0.00000000E+00 0.00000000E+00 0.16766637E+03 0.16766667E+03 0.32000000E+00 0.0000E+00 0.9000E+01
        1 -1    0    0  501    0 0.00000000E+00 0.00000000E+00 -.93961545E+03 0.93961551E+03 0.32000000E+00 0.0000E+00 0.9000E+01
       25  2    1    2    0    0 0.18486489E+03 0.21314578E+02 -.50859863E+02 0.35667938E+03 0.30000686E+03 0.0000E+00 0.0000E+00
       23  2    1    2    0    0 -.18486489E+03 -.21314578E+02 -.72108922E+03 0.75060280E+03 0.93837977E+02 0.0000E+00 0.0000E+00
       23  1    3    3    0    0 -.45879394E+02 0.22510023E+02 -.74342895E+01 0.10479571E+03 0.91188000E+02 0.0000E+00 0.9000E+01
      -11  1    4    4    0    0 -.13024317E+03 -.13398516E+01 -.62381610E+03 0.63726887E+03 0.51099893E-03 0.0000E+00 0.9000E+01
       11  1    4    4    0    0 -.54621716E+02 -.19974726E+02 -.97273117E+02 0.11333393E+03 0.51099893E-03 0.0000E+00 0.9000E+01
       23  1    3    3    0    0 0.23074428E+03 -.11954453E+01 -.43425573E+02 0.25188367E+03 0.91188000E+02 0.0000E+00 0.9000E+01
#aMCatNLO 1  0  0  1  2 0.43935538D+03 0.00000000D+00  -5  7  0 0.00000000D+00 0.00000000D+00 0.00000000D+00 0.00000000D+00 0.00000000D+00
  <mgrwgt>
 0.2183413386D-03    3    2    0
 0.396915748054670D+03 0.000000000000000D+00 0.000000000000000D+00 0.396915748054670D+03
 0.396915748054670D+03 0.000000000000000D+00 0.000000000000000D+00 -.396915748054670D+03
 0.138945765486884D+03 -.458793940691879D+02 0.225100232867819D+02 0.915371752579728D+02
 0.282279293646484D+03 -.130243172734686D+03 -.133985155358911D+01 -.250432666350408D+03
 0.634930127808257D+02 -.546217157498615D+02 -.199747264733522D+02 -.254723603704522D+02
 0.309113424195147D+03 0.230744282553736D+03 -.119544525984059D+01 0.184367851462888D+03
 0.000000000000000D+00 0.000000000000000D+00 0.000000000000000D+00 -.000000000000000D+00
 0.607174020471826D+03 0.000000000000000D+00 0.000000000000000D+00 0.607174020471826D+03
 0.767994032346015D+03 0.000000000000000D+00 0.000000000000000D+00 -.767994032346015D+03
 0.171273513819510D+03 -.109261110761973D+03 -.265013285125998D+02 0.915371752579728D+02
 0.380107342028449D+03 -.265577128049469D+03 -.105989905866329D+03 -.250432666350408D+03
 0.103246667692235D+03 -.886887383179564D+02 -.463178253189605D+02 -.254723603704522D+02
 0.252677055116033D+03 0.115963392468445D+03 -.899523751341731D+02 0.184367851462888D+03
 0.467863474161614D+03 0.347563584660953D+03 0.268761434832062D+03 -.160820011874190D+03
0.810542373443D-05 0.000000000000D+00 0.000000000000D+00 0.283063970272D-06 0.000000000000D+00  7 -1 1 23 -11 11 23 21 0 0.25794854D-01 0.14455625D+00 0.73184660D+05 0.73184660D+05 0.73184660D+05 0.11330207D+01  1  2  2  1  7  1       -1 0.214317097300D-03 0.100000000000D+01
-.369840668964D-06 0.000000000000D+00 -.311269613473D-07 0.283063970272D-06 0.000000000000D+00  7 -1 1 23 -11 11 23 21 2 0.25794854D-01 0.14455625D+00 0.73184660D+05 0.73184660D+05 0.73184660D+05 0.11330207D+01  1  2  3  1  7  1       -1 -.125536916129D-04 0.100000000000D+01
0.488397674516D-06 0.000000000000D+00 0.000000000000D+00 0.283063970272D-06 0.000000000000D+00  7 -1 1 23 -11 11 23 21 2 0.25794854D-01 0.14455625D+00 0.73184660D+05 0.73184660D+05 0.73184660D+05 0.11330207D+01  1  2 15  1  7  1       -1 0.165779328907D-04 0.100000000000D+01
  </mgrwgt>
  </event>
  <event>
  8     66 0.27414828E-05 0.12993470E+03 0.75467711E-02 0.10161547E+00
       -1 -1    0    0    0  501 0.00000000E+00 0.00000000E+00 0.74986345E+02 0.74987028E+02 0.32000000E+00 0.0000E+00 0.9000E+01
        1 -1    0    0  501    0 0.00000000E+00 0.00000000E+00 -.13966520E+04 0.13966520E+04 0.32000000E+00 0.0000E+00 0.9000E+01
       25  2    1    2    0    0 0.33784743E+02 -.18173307E+03 -.42454785E+03 0.55122888E+03 0.29907203E+03 0.0000E+00 0.0000E+00
       23  2    1    2    0    0 -.33784743E+02 0.18173307E+03 -.89711778E+03 0.92041016E+03 0.90367287E+02 0.0000E+00 0.0000E+00
       23  1    3    3    0    0 0.23187096E+02 -.18582691E+03 -.13687977E+03 0.24924005E+03 0.91188000E+02 0.0000E+00 0.9000E+01
      -13  1    4    4    0    0 -.30853169E+02 0.18429209E+03 -.73943159E+03 0.76267593E+03 0.10565837E+00 0.0000E+00 0.9000E+01
       13  1    4    4    0    0 -.29315739E+01 -.25590193E+01 -.15768619E+03 0.15773424E+03 0.10565837E+00 0.0000E+00 0.9000E+01
       23  1    3    3    0    0 0.10597647E+02 0.40938452E+01 -.28766809E+03 0.30198882E+03 0.91188000E+02 0.0000E+00 0.9000E+01
#aMCatNLO 1  0  0  1  2 0.73437093D+02 0.00000000D+00  -5  7  0 0.00000000D+00 0.00000000D+00 0.00000000D+00 0.00000000D+00 0.00000000D+00
  <mgrwgt>
 0.2440320030D-03    9    2    0
 0.323620698127155D+03 0.000000000000000D+00 0.000000000000000D+00 0.323620698127155D+03
 0.323620698127155D+03 0.000000000000000D+00 0.000000000000000D+00 -.323620698127155D+03
 0.287191319090240D+03 0.231870963969368D+02 -.185826911406873D+03 0.197722836249264D+03
 0.224186099399043D+03 -.308532072512167D+02 0.184292340512444D+03 -.123870173950457D+03
 0.366467173159341D+02 -.293153576929319D+01 -.255927425983814D+01 -.364395129403546D+02
 0.992172604490928D+02 0.105976466235731D+02 0.409384515426774D+01 -.374131493584524D+02
 0.000000000000000D+00 -.000000000000000D+00 -.000000000000000D+00 0.000000000000000D+00
 0.542949665007783D+03 0.000000000000000D+00 0.000000000000000D+00 0.542949665007783D+03
 0.331903029341044D+03 0.000000000000000D+00 0.000000000000000D+00 -.331903029341044D+03
 0.268124297600073D+03 0.248970480527271D+02 -.154470724227405D+03 0.197722836249264D+03
 0.246312996919868D+03 -.294044262614196D+02 0.210859318440914D+03 -.123870173950457D+03
 0.365737892248389D+02 -.270607204626048D+01 0.157515999603899D+01 -.364395129403546D+02
 0.100383137688535D+03 0.112122647272850D+02 0.153643861889352D+02 -.374131493584524D+02
 0.223458472915513D+03 -.399881447233212D+01 -.733281403984833D+02 0.211046635666739D+03
0.592667251429D-05 0.000000000000D+00 0.000000000000D+00 0.128809853571D-06 0.000000000000D+00  7 -1 1 23 -13 13 23 21 0 0.11536416D-01 0.21486959D+00 0.60253352D+05 0.60253352D+05 0.60253352D+05 0.11402371D+01  1  2  2  1  7  1       -1 0.266565632448D-03 0.100000000000D+01
-.298672053399D-06 0.000000000000D+00 -.227599829836D-07 0.128809853571D-06 0.000000000000D+00  7 -1 1 23 -13 13 23 21 2 0.11536416D-01 0.21486959D+00 0.60253352D+05 0.60253352D+05 0.60253352D+05 0.11402371D+01  1  2  3  1  7  1       -1 -.174653852949D-04 0.100000000000D+01
0.376849428641D-06 0.000000000000D+00 0.000000000000D+00 0.128809853571D-06 0.000000000000D+00  7 -1 1 23 -13 13 23 21 2 0.11536416D-01 0.21486959D+00 0.60253352D+05 0.60253352D+05 0.60253352D+05 0.11402371D+01  1  2 15  1  7  1       -1 0.220369478647D-04 0.100000000000D+01
0.225840904072D-04 0.000000000000D+00 0.000000000000D+00 0.128809853571D-06 0.000000000000D+00  7 -1 1 23 -13 13 23 21 2 0.19415475D-01 0.21486959D+00 0.79443937D+05 0.79443937D+05 0.79443937D+05 0.11300167D+01  1  2 12  1  7  1       -1 0.571060967195D-03 0.100000000000D+01
-.219357418469D-04 0.000000000000D+00 0.000000000000D+00 0.128809853571D-06 0.000000000000D+00  7 -1 1 23 -13 13 23 21 2 0.11536416D-01 0.21486959D+00 0.60253352D+05 0.60253352D+05 0.60253352D+05 0.11402371D+01  1  2  4  1  7  1       -1 -.128273194203D-02 0.100000000000D+01
-.239561858563D-04 0.000000000000D+00 -.216845540937D-05 0.128809853571D-06 0.000000000000D+00  7 -1 1 23 -13 13 23 21 2 0.19724350D-01 0.21486959D+00 0.60253352D+05 0.60253352D+05 0.60253352D+05 0.11402371D+01  1  2  5  1  7  1       -1 -.605884219968D-03 0.100000000000D+01
0.221366140885D-04 0.000000000000D+00 0.189002729169D-05 0.128809853571D-06 0.000000000000D+00  7 -1 1 23 -13 13 23 21 2 0.11536416D-01 0.21486959D+00 0.60253352D+05 0.60253352D+05 0.60253352D+05 0.11402371D+01  1  2  6  1  7  1       -1 0.129447830750D-02 0.100000000000D+01
0.131509606508D-05 0.000000000000D+00 0.000000000000D+00 0.128809853571D-06 0.000000000000D+00  7 21 1 23 -13 13 23 1 2 0.19415475D-01 0.21486959D+00 0.79443937D+05 0.79443937D+05 0.79443937D+05 0.11300167D+01  1  2 12  3  7  1       -1 0.407685288316D-03 0.100000000000D+01
-.132386222172D-05 0.000000000000D+00 -.129384441095D-06 0.128809853571D-06 0.000000000000D+00  7 21 1 23 -13 13 23 1 2 0.19724350D-01 0.21486959D+00 0.60253352D+05 0.60253352D+05 0.60253352D+05 0.11402371D+01  1  2  5  3  7  1       -1 -.411713593071D-03 0.100000000000D+01
  </mgrwgt>
  </event>
  <event>
  9     66 0.27414828E-05 0.23668846E+03 0.75467711E-02 0.92976859E-01
       21 -1    0    0  502  501 0.00000000E+00 0.00000000E+00 0.31851729E+03 0.31851817E+03 0.75000000E+00 0.0000E+00 0.9000E+01
        3 -1    0    0  501    0 0.00000000E+00 0.00000000E+00 -.11177984E+04 0.11177985E+04 0.50000000E+00 0.0000E+00 0.9000E+01
       25  2    1    2    0    0 -.52986838E+02 -.12890462E+03 -.30363183E+03 0.45503279E+03 0.30893130E+03 0.0000E+00 0.0000E+00
       23  2    1    2    0    0 -.26227344E+03 -.22915489E+03 -.13986455E+03 0.38615476E+03 0.90851992E+02 0.0000E+00 0.0000E+00
       23  1    3    3    0    0 -.27770492E+02 -.19573383E+03 -.23520277E+03 0.32049731E+03 0.91188000E+02 0.0000E+00 0.9000E+01
      -13  1    4    4    0    0 -.79377609E+02 -.56801547E+02 0.18832659E+01 0.97625705E+02 0.10565837E+00 0.0000E+00 0.9000E+01
       13  1    4    4    0    0 -.18289583E+03 -.17235335E+03 -.14174782E+03 0.28852905E+03 0.10565837E+00 0.0000E+00 0.9000E+01
       23  1    3    3    0    0 -.25216346E+02 0.66829211E+02 -.68429067E+02 0.13453548E+03 0.91188000E+02 0.0000E+00 0.9000E+01
        3  1    1    2  502    0 0.31526027E+03 0.35805951E+03 -.35578471E+03 0.59512912E+03 0.50000000E+00 0.0000E+00 0.9000E+01
#aMCatNLO 2  0  0  1  1 0.47706986D+03 0.00000000D+00  -5  7  0 0.00000000D+00 0.00000000D+00 0.00000000D+00 0.00000000D+00 0.00000000D+00
  <mgrwgt>
 0.1969428698D-05    1    2    0
 0.266135208853857D+03 0.000000000000000D+00 0.000000000000000D+00 0.266135208853857D+03
 0.266135208853857D+03 0.000000000000000D+00 0.000000000000000D+00 -.266135208853857D+03
 0.162412703365219D+03 0.717474909755969D+02 -.827054436333664D+02 -.779406312683779D+02
 0.706290938939034D+02 -.321816792063456D+02 -.319837482437454D+01 0.627899580045765D+02
 0.113607459804809D+03 -.905680694272190D+02 -.674913131239054D+02 0.122066529539700D+02
 0.185621160643783D+03 0.510022576579677D+02 0.153395131581646D+03 0.294402030983130D+01
 0.000000000000000D+00 0.000000000000000D+00 0.000000000000000D+00 -.000000000000000D+00
 0.572477954375412D+03 0.000000000000000D+00 0.000000000000000D+00 0.572477954375412D+03
 0.621925554900046D+03 0.000000000000000D+00 0.000000000000000D+00 -.621925554900046D+03
 0.231242137206668D+03 -.277704914929978D+02 -.195733830687573D+03 -.779406312683779D+02
 0.116059294743204D+03 -.793774707289068D+02 -.568013926832333D+02 0.627899580045765D+02
 0.251606173745892D+03 -.182895967461419D+03 -.172353501203372D+03 0.122066529539700D+02
 0.115870298956578D+03 -.252163447790082D+02 0.668292117018315D+02 0.294402030983130D+01
 0.479625604623117D+03 0.315260274462332D+03 0.358059512872347D+03 -.494476005246345D+02
0.327248176547D-06 0.000000000000D+00 0.000000000000D+00 0.418032940973D-08 0.552593306971D-13  7 21 3 23 -13 13 23 3 2 0.49002726D-01 0.17196902D+00 0.33612814D+06 0.33612814D+06 0.33612814D+06 0.10809171D+01  1  2  1  3  7  1       -3 0.196942869779D-05 0.100000000000D+01
  </mgrwgt>
  </event>
  <event>
  8     66 0.27414828E-05 0.44764293E+03 0.75467711E-02 0.90212567E-01
       -1 -1    0    0    0  501 0.00000000E+00 0.00000000E+00 0.11689691E+04 0.11689691E+04 0.32000000E+00 0.0000E+00 0.9000E+01
        1 -1    0    0  501    0 0.00000000E+00 0.00000000E+00 -.43979490E+03 0.43979501E+03 0.32000000E+00 0.0000E+00 0.9000E+01
       25  2    1    2    0    0 -.48098201E+03 0.48332542E+03 0.38197580E+03 0.83719077E+03 0.30005953E+03 0.0000E+00 0.0000E+00
       23  2    1    2    0    0 0.48098201E+03 -.48332542E+03 0.34719839E+03 0.77157336E+03 0.99154298E+02 0.0000E+00 0.0000E+00
       23  1    3    3    0    0 -.38982821E+03 0.24003322E+03 0.20464788E+03 0.50968420E+03 0.91188000E+02 0.0000E+00 0.9000E+01
      -11  1    4    4    0    0 0.13939855E+03 -.15055353E+03 0.15617801E+03 0.25785634E+03 0.51099893E-03 0.0000E+00 0.9000E+01
       11  1    4    4    0    0 0.34158347E+03 -.33277190E+03 0.19102037E+03 0.51371703E+03 0.51099893E-03 0.0000E+00 0.9000E+01
       23  1    3    3    0    0 -.91153800E+02 0.24329220E+03 0.17732792E+03 0.32750657E+03 0.91188000E+02 0.0000E+00 0.9000E+01
#aMCatNLO 1  0  0  1  2 0.78333114D+02 0.00000000D+00  -5  7  0 0.00000000D+00 0.00000000D+00 0.00000000D+00 0.00000000D+00 0.00000000D+00
  <mgrwgt>
 0.2475946864D-03    9    2    0
 0.717012388271838D+03 0.000000000000000D+00 0.000000000000000D+00 0.717012388271838D+03
 0.717012388271838D+03 0.000000000000000D+00 0.000000000000000D+00 -.717012388271838D+03
 0.467730911998250D+03 -.389828210792458D+03 0.240033220077289D+03 -.295799598443524D+02
 0.209863216037166D+03 0.139398545157577D+03 -.150553525644553D+03 0.440936613291328D+02
 0.479184471882939D+03 0.341583465618204D+03 -.332771899173406D+03 -.469186234933693D+02
 0.277246176625320D+03 -.911537999833233D+02 0.243292204740670D+03 0.324049220085889D+02
 0.000000000000000D+00 0.000000000000000D+00 0.000000000000000D+00 0.000000000000000D+00
 0.757504026305879D+03 0.000000000000000D+00 0.000000000000000D+00 0.757504026305879D+03
 0.756993394874131D+03 0.000000000000000D+00 0.000000000000000D+00 -.756993394874131D+03
 0.479493715523372D+03 -.411724177908297D+03 0.226290077519437D+03 -.295799598443524D+02
 0.208098603012977D+03 0.129736973889584D+03 -.156617672095194D+03 0.440936613291328D+02
 0.473758519770237D+03 0.319555313264205D+03 -.346598008633906D+03 -.469186234933693D+02
 0.274811804469063D+03 -.103915127179499D+03 0.235282476832484D+03 0.324049220085889D+02
 0.783347784043600D+02 0.663470179340063D+02 0.416431263771794D+02 0.510631431747619D+00
0.712995129173D-04 0.000000000000D+00 0.000000000000D+00 0.141012378520D-06 0.000000000000D+00  7 -1 1 23 -11 11 23 21 0 0.17984141D+00 0.67660766D-01 0.50708729D+06 0.50708729D+06 0.50708729D+06 0.10680786D+01  1  2  2  1  7  1       -1 0.914319448915D-04 0.100000000000D+01
-.396085648793D-05 0.000000000000D+00 -.273808903195D-06 0.141012378520D-06 0.000000000000D+00  7 -1 1 23 -11 11 23 21 2 0.17984141D+00 0.67660766D-01 0.50708729D+06 0.50708729D+06 0.50708729D+06 0.10680786D+01  1  2  3  1  7  1       -1 -.579437995666D-05 0.100000000000D+01
0.453010089310D-05 0.000000000000D+00 0.000000000000D+00 0.141012378520D-06 0.000000000000D+00  7 -1 1 23 -11 11 23 21 2 0.17984141D+00 0.67660766D-01 0.50708729D+06 0.50708729D+06 0.50708729D+06 0.10680786D+01  1  2 15  1  7  1       -1 0.662713377691D-05 0.100000000000D+01
0.115742812506D-03 0.000000000000D+00 0.000000000000D+00 0.141012378520D-06 0.000000000000D+00  7 -1 1 23 -11 11 23 21 2 0.19473730D+00 0.67660766D-01 0.56596367D+06 0.56596367D+06 0.56596367D+06 0.10647275D+01  1  2 12  1  7  1       -1 0.126383743430D-03 0.100000000000D+01
-.901190639403D-04 0.000000000000D+00 0.000000000000D+00 0.141012378520D-06 0.000000000000D+00  7 -1 1 23 -11 11 23 21 2 0.17984141D+00 0.67660766D-01 0.50708729D+06 0.50708729D+06 0.50708729D+06 0.10680786D+01  1  2  4  1  7  1       -1 -.131836157003D-03 0.100000000000D+01
-.454661482038D-03 0.000000000000D+00 -.896642328845D-04 0.141012378520D-06 0.000000000000D+00  7 -1 1 23 -11 11 23 21 2 0.19713235D+00 0.67660766D-01 0.50708729D+06 0.50708729D+06 0.50708729D+06 0.10680786D+01  1  2  5  1  7  1       -1 -.480696846156D-03 0.100000000000D+01
0.461323933192D-03 0.000000000000D+00 0.892877447267D-04 0.141012378520D-06 0.000000000000D+00  7 -1 1 23 -11 11 23 21 2 0.17984141D+00 0.67660766D-01 0.50708729D+06 0.50708729D+06 0.50708729D+06 0.10680786D+01  1  2  6  1  7  1       -1 0.674875790164D-03 0.100000000000D+01
0.153868208421D-05 0.000000000000D+00 0.000000000000D+00 0.141012378520D-06 0.000000000000D+00  7 21 1 23 -11 11 23 1 2 0.19473730D+00 0.67660766D-01 0.56596367D+06 0.56596367D+06 0.56596367D+06 0.10647275D+01  1  2 12  3  7  1       -1 0.104985010896D-04 0.100000000000D+01
-.660375953816D-05 0.000000000000D+00 -.135201565964D-05 0.141012378520D-06 0.000000000000D+00  7 21 1 23 -11 11 23 1 2 0.19713235D+00 0.67660766D-01 0.50708729D+06 0.50708729D+06 0.50708729D+06 0.10680786D+01  1  2  5  3  7  1       -1 -.438950438623D-04 0.100000000000D+01
  </mgrwgt>
  </event>
  <event>
  8     66 0.27414828E-05 0.10308290E+03 0.75467711E-02 0.10637769E+00
       -1 -1    0    0    0  501 0.00000000E+00 0.00000000E+00 0.38391594E+02 0.38392928E+02 0.32000000E+00 0.0000E+00 0.9000E+01
        1 -1    0    0  501    0 0.00000000E+00 0.00000000E+00 -.14831005E+04 0.14831005E+04 0.32000000E+00 0.0000E+00 0.9000E+01
       25  2    1    2    0    0 0.26827877E+02 -.72624147E+02 -.68276234E+03 0.74981715E+03 0.30011222E+03 0.0000E+00 0.0000E+00
       23  2    1    2    0    0 -.26827877E+02 0.72624147E+02 -.76194658E+03 0.77167632E+03 0.94486818E+02 0.0000E+00 0.0000E+00
       23  1    3    3    0    0 -.71783467E+02 -.60733187E+02 -.53051376E+03 0.54644441E+03 0.91188000E+02 0.0000E+00 0.9000E+01
      -13  1    4    4    0    0 -.57608140E+02 0.25894840E+02 -.48825317E+03 0.49232145E+03 0.10565837E+00 0.0000E+00 0.9000E+01
       13  1    4    4    0    0 0.30780264E+02 0.46729307E+02 -.27369341E+03 0.27935487E+03 0.10565837E+00 0.0000E+00 0.9000E+01
       23  1    3    3    0    0 0.98611344E+02 -.11890961E+02 -.15224858E+03 0.20337274E+03 0.91188000E+02 0.0000E+00 0.9000E+01
#aMCatNLO 1  0  0  2  1 0.13387921D+02 0.00000000D+00  -5  7  0 0.00000000D+00 0.00000000D+00 0.00000000D+00 0.00000000D+00 0.00000000D+00
  <mgrwgt>
 0.2025914990D-03    9    2    0
 0.238620270238075D+03 0.000000000000000D+00 0.000000000000000D+00 0.238620270238075D+03
 0.238620270238075D+03 0.000000000000000D+00 0.000000000000000D+00 -.238620270238075D+03
 0.136144412763219D+03 -.717834530825086D+02 -.607332240291409D+02 -.371303264895317D+02
 0.915265429676426D+02 -.576081468539037D+02 0.258949187937557D+02 -.662409440175152D+02
 0.620845633519778D+02 0.307802371154850D+02 0.467293177117390D+02 -.268968562459561D+02
 0.187485021393310D+03 0.986113628209274D+02 -.118910124763538D+02 0.130268126753003D+03
 0.000000000000000D+00 0.000000000000000D+00 -.000000000000000D+00 -.000000000000000D+00
 0.242935079846892D+03 0.000000000000000D+00 0.000000000000000D+00 0.242935079846892D+03
 0.249330060715667D+03 0.000000000000000D+00 0.000000000000000D+00 -.249330060715667D+03
 0.135649319146673D+03 -.735862466623162D+02 -.573749910491454D+02 -.371303264895317D+02
 0.929669551286565D+02 -.588318825579873D+02 0.281744862640871D+02 -.662409440175152D+02
 0.628555645253982D+02 0.299515157950377D+02 0.482730547766606D+02 -.268968562459561D+02
 0.185956448899645D+03 0.961343451194993D+02 -.727683887925400D+01 0.130268126753003D+03
 0.148368528621870D+02 0.633226830576649D+01 -.117957111123483D+02 -.639498086877464D+01
0.671779832369D-06 0.000000000000D+00 0.000000000000D+00 0.237811722214D-07 0.000000000000D+00  7 -1 1 23 -13 13 23 21 0 0.59065043D-02 0.22816941D+00 0.37043933D+05 0.37043933D+05 0.37043933D+05 0.11589317D+01  1  2  2  2  7  2        1 0.731583501303D-04 0.100000000000D+01
-.352246509782D-07 0.000000000000D+00 -.257981143999D-08 0.237811722214D-07 0.000000000000D+00  7 -1 1 23 -13 13 23 21 2 0.59065043D-02 0.22816941D+00 0.37043933D+05 0.37043933D+05 0.37043933D+05 0.11589317D+01  1  2  3  2  7  2        1 -.515227852188D-05 0.100000000000D+01
0.400369123877D-07 0.000000000000D+00 0.000000000000D+00 0.237811722214D-07 0.000000000000D+00  7 -1 1 23 -13 13 23 21 2 0.59065043D-02 0.22816941D+00 0.37043933D+05 0.37043933D+05 0.37043933D+05 0.11589317D+01  1  2 15  2  7  2        1 0.585616373900D-05 0.100000000000D+01
0.188835335342D-05 0.000000000000D+00 0.000000000000D+00 0.237811722214D-07 0.000000000000D+00  7 -1 1 23 -13 13 23 21 2 0.59065043D-02 0.24040667D+00 0.39720427D+05 0.39720427D+05 0.39720427D+05 0.11561927D+01  1  2 12  2  7  2        1 0.243898676846D-03 0.100000000000D+01
-.181967511926D-05 0.000000000000D+00 0.000000000000D+00 0.237811722214D-07 0.000000000000D+00  7 -1 1 23 -13 13 23 21 2 0.59065043D-02 0.22816941D+00 0.37043933D+05 0.37043933D+05 0.37043933D+05 0.11589317D+01  1  2  4  2  7  2        1 -.266162269132D-03 0.100000000000D+01
-.884923460445D-05 0.000000000000D+00 -.136759451211D-05 0.237811722214D-07 0.000000000000D+00  7 -1 1 23 -13 13 23 21 2 0.59065043D-02 0.24061967D+00 0.37043933D+05 0.37043933D+05 0.37043933D+05 0.11589317D+01  1  2  5  2  7  2        1 -.114664695437D-02 0.100000000000D+01
0.891124177052D-05 0.000000000000D+00 0.136566661988D-05 0.237811722214D-07 0.000000000000D+00  7 -1 1 23 -13 13 23 21 2 0.59065043D-02 0.22816941D+00 0.37043933D+05 0.37043933D+05 0.37043933D+05 0.11589317D+01  1  2  6  2  7  2        1 0.130343944659D-02 0.100000000000D+01
0.247752601582D-07 0.000000000000D+00 0.000000000000D+00 0.237811722214D-07 0.000000000000D+00  7 -1 21 23 -13 13 23 -1 2 0.59065043D-02 0.24040667D+00 0.39720427D+05 0.39720427D+05 0.39720427D+05 0.11561927D+01  1  2 12  4  7  2        1 0.257283542438D-05 0.100000000000D+01
-.801844549609D-07 0.000000000000D+00 -.126011622260D-07 0.237811722214D-07 0.000000000000D+00  7 -1 21 23 -13 13 23 -1 2 0.59065043D-02 0.24061967D+00 0.37043933D+05 0.37043933D+05 0.37043933D+05 0.11589317D+01  1  2  5  4  7  2        1 -.837247169445D-05 0.100000000000D+01
  </mgrwgt>
  </event>
  <event>
  9     66 0.27414828E-05 0.31678359E+03 0.75467711E-02 0.95465416E-01
       -3 -1    0    0    0  501 0.00000000E+00 0.00000000E+00 0.47575010E+03 0.47575036E+03 0.50000000E+00 0.0000E+00 0.9000E+01
       21 -1    0    0  501  502 0.00000000E+00 0.00000000E+00 -.50862748E+03 0.50862803E+03 0.75000000E+00 0.0000E+00 0.9000E+01
       25  2    1    2    0    0 0.20540214E+03 0.11465123E+03 -.12862794E+03 0.40374256E+03 0.30187408E+03 0.0000E+00 0.0000E+00
       23  2    1    2    0    0 -.46289710E+02 -.30629800E+03 0.42607357E+02 0.32594053E+03 0.91981722E+02 0.0000E+00 0.0000E+00
       23  1    3    3    0    0 -.26937591E+02 0.49375168E+02 0.15452627E+02 0.10824775E+03 0.91188000E+02 0.0000E+00 0.9000E+01
      -11  1    4    4    0    0 -.12794896E+02 -.24364843E+03 0.17546716E+01 0.24399046E+03 0.51099893E-03 0.0000E+00 0.9000E+01
       11  1    4    4    0    0 -.33494813E+02 -.62649577E+02 0.40852686E+02 0.81950070E+02 0.51099893E-03 0.0000E+00 0.9000E+01
       23  1    3    3    0    0 0.23233974E+03 0.65276066E+02 -.14408057E+03 0.29549480E+03 0.91188000E+02 0.0000E+00 0.9000E+01
       -3  1    1    2    0  502 -.15911243E+03 0.19164677E+03 0.53143207E+02 0.25469531E+03 0.50000000E+00 0.0000E+00 0.9000E+01
#aMCatNLO 2  0  0  2  1 0.24908884D+03 0.00000000D+00  -5  7  0 0.00000000D+00 0.00000000D+00 0.00000000D+00 0.00000000D+00 0.00000000D+00
  <mgrwgt>
 0.4896025539D-05    1    2    0
 0.340217802235361D+03 0.000000000000000D+00 0.000000000000000D+00 0.340217802235361D+03
 0.340217802235361D+03 0.000000000000000D+00 0.000000000000000D+00 -.340217802235361D+03
 0.138241583305969D+03 -.551450547573329D+02 0.833503204623769D+02 0.284118113743401D+02
 0.196239056898182D+03 -.628662213922480D+02 -.183338823248959D+03 0.307324185484250D+02
 0.832328637891918D+02 -.528153119100333D+02 -.393785415773172D+02 0.508682897848900D+02
 0.262722100477378D+03 0.170826588059614D+03 0.139367044363900D+03 -.110012519707655D+03
 0.000000000000000D+00 -.000000000000000D+00 0.000000000000000D+00 0.000000000000000D+00
 0.535569886804221D+03 0.000000000000000D+00 0.000000000000000D+00 0.535569886804221D+03
 0.451817292510793D+03 0.000000000000000D+00 0.000000000000000D+00 -.451817292510793D+03
 0.110842335584716D+03 -.269375911490952D+02 0.493751675580740D+02 0.284118113743401D+02
 0.245912070318670D+03 -.127948964915658D+02 -.243648425815455D+03 0.307324185484250D+02
 0.873753681523363D+02 -.334948133600307D+02 -.626495772698705D+02 0.508682897848900D+02
 0.280465190631226D+03 0.232339735173409D+03 0.652760658965660D+02 -.110012519707655D+03
 0.262792214628066D+03 -.159112434172717D+03 0.191646769630685D+03 0.837525942934280D+02
0.260842808554D-06 0.000000000000D+00 0.000000000000D+00 0.332601917636D-07 0.348738476225D-12  7 -3 21 23 -11 11 23 -3 2 0.73192350D-01 0.78250405D-01 0.21587257D+06 0.21587257D+06 0.21587257D+06 0.10952871D+01  1  2  1  4  7  2        3 0.489602553866D-05 0.100000000000D+01
  </mgrwgt>
  </event>
  <event>
  8     66 0.27414828E-05 0.41659781E+03 0.75467711E-02 0.91655443E-01
       -1 -1    0    0    0  501 0.00000000E+00 0.00000000E+00 0.24748024E+03 0.24748045E+03 0.32000000E+00 0.0000E+00 0.9000E+01
        1 -1    0    0  501    0 0.00000000E+00 0.00000000E+00 -.88964756E+03 0.88964762E+03 0.32000000E+00 0.0000E+00 0.9000E+01
       25  2    1    2    0    0 0.27290169E+03 -.27136924E+03 -.54268374E+03 0.72967032E+03 0.29966069E+03 0.0000E+00 0.0000E+00
       23  2    1    2    0    0 -.27290169E+03 0.27136924E+03 -.99483578E+02 0.40745775E+03 0.89488772E+02 0.0000E+00 0.0000E+00
       23  1    3    3    0    0 0.95239154E+02 -.35579313E+02 -.44863093E+02 0.14375094E+03 0.91188000E+02 0.0000E+00 0.9000E+01
      -11  1    4    4    0    0 -.13861138E+03 0.17017858E+03 -.16927268E+02 0.22013722E+03 0.51099893E-03 0.0000E+00 0.9000E+01
       11  1    4    4    0    0 -.13429032E+03 0.10119066E+03 -.82556310E+02 0.18732054E+03 0.51099893E-03 0.0000E+00 0.9000E+01
       23  1    3    3    0    0 0.17766254E+03 -.23578993E+03 -.49782065E+03 0.58591938E+03 0.91188000E+02 0.0000E+00 0.9000E+01
#aMCatNLO 1  0  0  1  2 0.39149112D+03 0.00000000D+00  -5  7  0 0.00000000D+00 0.00000000D+00 0.00000000D+00 0.00000000D+00 0.00000000D+00
  <mgrwgt>
 0.1790305697D-03    3    2    0
 0.469223129998469D+03 0.000000000000000D+00 0.000000000000000D+00 0.469223129998469D+03
 0.469223129998469D+03 0.000000000000000D+00 0.000000000000000D+00 -.469223129998469D+03
 0.143485696759513D+03 0.952391537743627D+02 -.355793132147182D+02 0.440057938239410D+02
 0.255160131037522D+03 -.138611378250030D+03 0.170178575756590D+03 0.130126210442674D+03
 0.170486562202455D+03 -.134290315779246D+03 0.101190663542722D+03 0.281465555851067D+02
 0.369313869997450D+03 0.177662540254913D+03 -.235789926084594D+03 -.202278559851722D+03
 0.000000000000000D+00 0.000000000000000D+00 0.000000000000000D+00 -.000000000000000D+00
 0.608487423736406D+03 0.000000000000000D+00 0.000000000000000D+00 0.608487423736406D+03
 0.891305006284328D+03 0.000000000000000D+00 0.000000000000000D+00 -.891305006284328D+03
 0.128805470217132D+03 0.482934555986901D+02 -.632995266184394D+02 0.440057938239410D+02
 0.290168260797774D+03 -.232631402380745D+03 0.114662197591891D+03 0.130126210442674D+03
 0.211503022101042D+03 -.200149109254176D+03 0.623027594198537D+02 0.281465555851067D+02
 0.386354933055893D+03 0.473777427610708D+02 -.312719709432909D+03 -.202278559851722D+03
 0.482960743848894D+03 0.337109313275160D+03 0.199054279039603D+03 -.282817582547922D+03
0.120109451880D-04 0.000000000000D+00 0.000000000000D+00 0.453484245417D-06 0.000000000000D+00  7 -1 1 23 -11 11 23 21 0 0.38073904D-01 0.13686888D+00 0.17355373D+06 0.17355373D+06 0.17355373D+06 0.11025877D+01  1  2  2  1  7  1       -1 0.177197444697D-03 0.100000000000D+01
-.655794062268D-06 0.000000000000D+00 -.461251920763D-07 0.453484245417D-06 0.000000000000D+00  7 -1 1 23 -11 11 23 21 2 0.38073904D-01 0.13686888D+00 0.17355373D+06 0.17355373D+06 0.17355373D+06 0.11025877D+01  1  2  3  1  7  1       -1 -.117618063844D-04 0.100000000000D+01
0.758002215812D-06 0.000000000000D+00 0.000000000000D+00 0.453484245417D-06 0.000000000000D+00  7 -1 1 23 -11 11 23 21 2 0.38073904D-01 0.13686888D+00 0.17355373D+06 0.17355373D+06 0.17355373D+06 0.11025877D+01  1  2 15  1  7  1       -1 0.135949314187D-04 0.100000000000D+01
  </mgrwgt>
  </event>
  <event>
  9     66 0.27414828E-05 0.32703305E+03 0.75467711E-02 0.95605839E-01
       21 -1    0    0  502  501 0.00000000E+00 0.00000000E+00 0.39948318E+03 0.39948389E+03 0.75000000E+00 0.0000E+00 0.9000E+01
        1 -1    0    0  501    0 0.00000000E+00 0.00000000E+00 -.12064741E+04 0.12064742E+04 0.32000000E+00 0.0000E+00 0.9000E+01
       25  2    1    2    0    0 -.78586501E+02 0.10778209E+03 -.21960261E+03 0.39519111E+03 0.30026304E+03 0.0000E+00 0.0000E+00
       23  2    1    2    0    0 0.22606819E+03 -.27595791E+03 -.81339032E+03 0.89278744E+03 0.90587021E+02 0.0000E+00 0.0000E+00
       23  1    3    3    0    0 0.77326106E+02 0.81915011E+02 -.80787584E+02 0.16592553E+03 0.91188000E+02 0.0000E+00 0.9000E+01
      -13  1    4    4    0    0 0.10066734E+03 -.59911395E+02 -.29282608E+03 0.31538930E+03 0.10565837E+00 0.0000E+00 0.9000E+01
       13  1    4    4    0    0 0.12540085E+03 -.21604652E+03 -.52056424E+03 0.57739814E+03 0.10565837E+00 0.0000E+00 0.9000E+01
       23  1    3    3    0    0 -.15591261E+03 0.25867082E+02 -.13881502E+03 0.22926558E+03 0.91188000E+02 0.0000E+00 0.9000E+01
        1  1    1    2  502    0 -.14748169E+03 0.16817582E+03 0.22600199E+03 0.31797949E+03 0.32000000E+00 0.0000E+00 0.9000E+01
#aMCatNLO 2  0  0  1  2 0.22368271D+03 0.00000000D+00  -5  7  0 0.00000000D+00 0.00000000D+00 0.00000000D+00 0.00000000D+00 0.00000000D+00
  <mgrwgt>
 0.1117009916D-03    2    2    0
 0.368028674302083D+03 0.000000000000000D+00 0.000000000000000D+00 0.368028674302083D+03
 0.368028674302083D+03 0.000000000000000D+00 0.000000000000000D+00 -.368028674302083D+03
 0.180186310952620D+03 0.430846139889575D+02 0.120961152754815D+03 0.875441081533371D+02
 0.107063744077694D+03 0.769681883478424D+02 -.328866815467884D+02 -.667608377360946D+02
 0.205295433081462D+03 0.790611404934902D+02 -.163204754409612D+03 -.962276417983509D+02
 0.243511860492390D+03 -.199113942830290D+03 0.751302832015859D+02 0.754443713811084D+02
 0.000000000000000D+00 -.000000000000000D+00 0.000000000000000D+00 0.000000000000000D+00
 0.120524662131261D+04 0.000000000000000D+00 0.000000000000000D+00 0.120524662131261D+04
 0.399890478081462D+03 0.000000000000000D+00 0.000000000000000D+00 -.399890478081462D+03
 0.169318096458681D+03 0.773261054060825D+02 0.819150108023893D+02 0.875441081533371D+02
 0.134834217658088D+03 0.100667308601992D+03 -.599111823875532D+02 -.667608377360946D+02
 0.267696339812062D+03 0.125400881533851D+03 -.216046731549534D+03 -.962276417983509D+02
 0.197446072290360D+03 -.155912607023028D+03 0.258670817272157D+02 0.754443713811084D+02
 0.835842373174883D+03 -.147481688518897D+03 0.168175821407482D+03 0.805356143231150D+03
-.381726996698D-06 0.000000000000D+00 0.000000000000D+00 0.402256439926D-06 0.000000000000D+00  7 21 1 23 -13 13 23 1 2 0.60050014D-01 0.17082261D+00 0.21069286D+06 0.21069286D+06 0.21069286D+06 0.10960923D+01  1  2 13  3  7  1       -1 -.170690567107D-04 0.100000000000D+01
0.355599690193D-05 0.000000000000D+00 0.000000000000D+00 0.402256439926D-06 0.242935164503D-10  7 21 1 23 -13 13 23 1 2 0.61459004D-01 0.18561145D+00 0.21069286D+06 0.21069286D+06 0.21069286D+06 0.10960923D+01  1  2  1  3  7  1       -1 0.128770048303D-03 0.100000000000D+01
  </mgrwgt>
  </event>
  <event>
  8     66 0.27414828E-05 0.13378929E+03 0.75467711E-02 0.10327679E+00
       -1 -1    0    0    0  501 0.00000000E+00 0.00000000E+00 0.58063554E+02 0.58064436E+02 0.32000000E+00 0.0000E+00 0.9000E+01
        1 -1    0    0  501    0 0.00000000E+00 0.00000000E+00 -.11752848E+04 0.11752849E+04 0.32000000E+00 0.0000E+00 0.9000E+01
       25  2    1    2    0    0 -.49972016E+02 0.83788260E+02 -.43967657E+03 0.54100229E+03 0.29975043E+03 0.0000E+00 0.0000E+00
       23  2    1    2    0    0 0.49972016E+02 -.83788260E+02 -.67754472E+03 0.69234703E+03 0.10372988E+03 0.0000E+00 0.0000E+00
       23  1    3    3    0    0 -.68496817E+02 -.68127079E+02 -.14495368E+03 0.19662129E+03 0.91188000E+02 0.0000E+00 0.9000E+01
      -11  1    4    4    0    0 -.29944528E+02 -.43624730E+02 -.26029511E+03 0.26561878E+03 0.51099893E-03 0.0000E+00 0.9000E+01
       11  1    4    4    0    0 0.79916544E+02 -.40163530E+02 -.41724961E+03 0.42672825E+03 0.51099893E-03 0.0000E+00 0.9000E+01
       23  1    3    3    0    0 0.18524801E+02 0.15191534E+03 -.29472290E+03 0.34438100E+03 0.91188000E+02 0.0000E+00 0.9000E+01
#aMCatNLO 1  0  0  1  2 0.44096682D+02 0.00000000D+00  -5  7  0 0.00000000D+00 0.00000000D+00 0.00000000D+00 0.00000000D+00 0.00000000D+00
  <mgrwgt>
 0.1038822798D-03    9    2    0
 0.261231287739988D+03 0.000000000000000D+00 0.000000000000000D+00 0.261231287739988D+03
 0.261231287739988D+03 0.000000000000000D+00 0.000000000000000D+00 -.261231287739988D+03
 0.154187894456887D+03 -.684968174331601D+02 -.681270781600006D+02 0.782658461652174D+02
 0.704232316298917D+02 -.299445237319477D+02 -.436247295445604D+02 -.464719272661266D+02
 0.115118009586043D+03 0.799165408928154D+02 -.401635322007302D+02 -.724733972153930D+02
 0.182733439807155D+03 0.185248002722925D+02 0.151915339905291D+03 0.406794783163023D+02
 0.000000000000000D+00 -.000000000000000D+00 -.000000000000000D+00 0.000000000000000D+00
 0.371289456021822D+03 0.000000000000000D+00 0.000000000000000D+00 0.371289456021822D+03
 0.266614709849080D+03 0.000000000000000D+00 0.000000000000000D+00 -.266614709849080D+03
 0.146599585713492D+03 -.589493980427251D+02 -.597964295072063D+02 0.782658461652174D+02
 0.663485106176219D+02 -.256031954849813D+02 -.398366818184743D+02 -.464719272661266D+02
 0.118380954206050D+03 0.873281277490647D+02 -.336965149331178D+02 -.724733972153930D+02
 0.192991138070658D+03 0.304508289695698D+02 0.162321456033351D+03 0.406794783163023D+02
 0.113583977263081D+03 -.332263631909281D+02 -.289918297745529D+02 0.104674746172742D+03
0.950648174566D-06 0.000000000000D+00 0.000000000000D+00 0.354720697437D-08 0.000000000000D+00  7 -1 1 23 -11 11 23 21 0 0.89329256D-02 0.18081312D+00 0.51381451D+05 0.51381451D+05 0.51381451D+05 0.11462557D+01  1  2  2  1  7  1       -1 0.894335704700D-04 0.100000000000D+01
-.515209858710D-07 0.000000000000D+00 -.365073930175D-08 0.354720697437D-08 0.000000000000D+00  7 -1 1 23 -11 11 23 21 2 0.89329256D-02 0.18081312D+00 0.51381451D+05 0.51381451D+05 0.51381451D+05 0.11462557D+01  1  2  3  1  7  1       -1 -.636836501916D-05 0.100000000000D+01
0.604354642247D-07 0.000000000000D+00 0.000000000000D+00 0.354720697437D-08 0.000000000000D+00  7 -1 1 23 -11 11 23 21 2 0.89329256D-02 0.18081312D+00 0.51381451D+05 0.51381451D+05 0.51381451D+05 0.11462557D+01  1  2 15  1  7  1       -1 0.747025876501D-05 0.100000000000D+01
0.406627991262D-05 0.000000000000D+00 0.000000000000D+00 0.354720697437D-08 0.000000000000D+00  7 -1 1 23 -11 11 23 21 2 0.12758775D-01 0.18081312D+00 0.61918776D+05 0.61918776D+05 0.61918776D+05 0.11392166D+01  1  2 12  1  7  1       -1 0.287299504774D-03 0.100000000000D+01
-.396516836088D-05 0.000000000000D+00 0.000000000000D+00 0.354720697437D-08 0.000000000000D+00  7 -1 1 23 -11 11 23 21 2 0.89329256D-02 0.18081312D+00 0.51381451D+05 0.51381451D+05 0.51381451D+05 0.11462557D+01  1  2  4  1  7  1       -1 -.490123375118D-03 0.100000000000D+01
-.447631999534D-05 0.000000000000D+00 -.437223062406D-06 0.354720697437D-08 0.000000000000D+00  7 -1 1 23 -11 11 23 21 2 0.12917172D-01 0.18081312D+00 0.51381451D+05 0.51381451D+05 0.51381451D+05 0.11462557D+01  1  2  5  1  7  1       -1 -.314879655736D-03 0.100000000000D+01
0.436543176563D-05 0.000000000000D+00 0.409083755914D-06 0.354720697437D-08 0.000000000000D+00  7 -1 1 23 -11 11 23 21 2 0.89329256D-02 0.18081312D+00 0.51381451D+05 0.51381451D+05 0.51381451D+05 0.11462557D+01  1  2  6  1  7  1       -1 0.539598815507D-03 0.100000000000D+01
0.177998308006D-06 0.000000000000D+00 0.000000000000D+00 0.354720697437D-08 0.000000000000D+00  7 21 1 23 -11 11 23 1 2 0.12758775D-01 0.18081312D+00 0.61918776D+05 0.61918776D+05 0.61918776D+05 0.11392166D+01  1  2 12  3  7  1       -1 0.169806214732D-03 0.100000000000D+01
-.187498773668D-06 0.000000000000D+00 -.196161195547D-07 0.354720697437D-08 0.000000000000D+00  7 21 1 23 -11 11 23 1 2 0.12917172D-01 0.18081312D+00 0.51381451D+05 0.51381451D+05 0.51381451D+05 0.11462557D+01  1  2  5  3  7  1       -1 -.178354688601D-03 0.100000000000D+01
  </mgrwgt>
  </event>
  <event>
  8     66 0.27414828E-05 0.87584340E+03 0.75467711E-02 0.88091638E-01
       -1 -1    0    0    0  501 0.00000000E+00 0.00000000E+00 0.91304845E+03 0.91304850E+03 0.32000000E+00 0.0000E+00 0.9000E+01
        1 -1    0    0  501    0 0.00000000E+00 0.00000000E+00 -.90277534E+03 0.90277540E+03 0.32000000E+00 0.0000E+00 0.9000E+01
       25  2    1    2    0    0 0.49054321E+03 -.70073186E+03 0.21564067E+03 0.93142808E+03 0.29899764E+03 0.0000E+00 0.0000E+00
       23  2    1    2    0    0 -.49054321E+03 0.70073186E+03 -.20536756E+03 0.88439582E+03 0.91226944E+02 0.0000E+00 0.0000E+00
       23  1    3    3    0    0 0.20869169E+03 -.15539251E+03 0.40250359E+01 0.27573630E+03 0.91188000E+02 0.0000E+00 0.9000E+01
      -11  1    4    4    0    0 -.36724573E+03 0.52239931E+03 -.19359681E+03 0.66727071E+03 0.51099893E-03 0.0000E+00 0.9000E+01
       11  1    4    4    0    0 -.12329748E+03 0.17833255E+03 -.11770748E+02 0.21712512E+03 0.51099893E-03 0.0000E+00 0.9000E+01
       23  1    3    3    0    0 0.28185152E+03 -.54533935E+03 0.21161563E+03 0.65569178E+03 0.91188000E+02 0.0000E+00 0.9000E+01
#aMCatNLO 1  0  0  2  1 0.10392792D+03 0.00000000D+00  -5  7  0 0.00000000D+00 0.00000000D+00 0.00000000D+00 0.00000000D+00 0.00000000D+00
  <mgrwgt>
 0.1169870839D-03    4    2    0
 0.907897421261938D+03 0.000000000000000D+00 0.000000000000000D+00 0.907897421261938D+03
 0.907897421261938D+03 0.000000000000000D+00 0.000000000000000D+00 -.907897421261938D+03
 0.275717936298594D+03 0.208691688297500D+03 -.155392508324955D+03 0.246508514521088D+01
 0.668376684985713D+03 -.367245729879003D+03 0.522399313018952D+03 -.197375086258263D+03
 0.217195187187703D+03 -.123297480323242D+03 0.178332547681791D+03 -.129993507823599D+02
 0.654505034051866D+03 0.281851521904744D+03 -.545339352375788D+03 0.207909351895412D+03
 0.000000000000000D+00 -.000000000000000D+00 -.000000000000000D+00 0.000000000000000D+00
 0.101325393014332D+04 0.000000000000000D+00 0.000000000000000D+00 0.101325393014332D+04
 0.935379608948599D+03 0.000000000000000D+00 0.000000000000000D+00 -.935379608948599D+03
 0.276969498733129D+03 0.218797662620356D+03 -.143242305453300D+03 0.246508514521088D+01
 0.679016780972446D+03 -.342608434173202D+03 0.552020221550001D+03 -.197375086258263D+03
 0.220885226621866D+03 -.115287112920821D+03 0.187963245911034D+03 -.129993507823599D+02
 0.641895087726935D+03 0.305556396509125D+03 -.516839474354231D+03 0.207909351895412D+03
 0.129866945037540D+03 -.664585120354585D+02 -.799016876535045D+02 0.778743211947181D+02
0.215252850417D-03 0.000000000000D+00 0.000000000000D+00 0.186768947546D-05 0.000000000000D+00  7 -1 1 23 -11 11 23 21 0 0.14046900D+00 0.13888852D+00 0.76710166D+06 0.76710166D+06 0.76710166D+06 0.10556160D+01  1  2  2  2  7  2        1 0.193651418480D-03 0.100000000000D+01
-.119397066149D-04 0.000000000000D+00 -.826627622979D-06 0.186768947546D-05 0.000000000000D+00  7 -1 1 23 -11 11 23 21 2 0.14046900D+00 0.13888852D+00 0.76710166D+06 0.76710166D+06 0.76710166D+06 0.10556160D+01  1  2  3  2  7  2        1 -.119695373318D-04 0.100000000000D+01
0.134321225511D-04 0.000000000000D+00 0.000000000000D+00 0.186768947546D-05 0.000000000000D+00  7 -1 1 23 -11 11 23 21 2 0.14046900D+00 0.13888852D+00 0.76710166D+06 0.76710166D+06 0.76710166D+06 0.10556160D+01  1  2 15  2  7  2        1 0.134656819891D-04 0.100000000000D+01
-.779656861418D-04 0.000000000000D+00 0.000000000000D+00 0.186768947546D-05 0.000000000000D+00  7 -1 1 23 -11 11 23 21 2 0.14046900D+00 0.13888852D+00 0.76710166D+06 0.76710166D+06 0.76710166D+06 0.10556160D+01  1  2  4  2  7  2        1 -.781604792287D-04 0.100000000000D+01
  </mgrwgt>
  </event>
  <event>
  8     66 0.27414828E-05 0.52626248E+03 0.75467711E-02 0.90470413E-01
       -1 -1    0    0    0  501 0.00000000E+00 0.00000000E+00 0.15165293E+03 0.15165327E+03 0.32000000E+00 0.0000E+00 0.9000E+01
        1 -1    0    0  501    0 0.00000000E+00 0.00000000E+00 -.29363454E+04 0.29363454E+04 0.32000000E+00 0.0000E+00 0.9000E+01
       25  2    1    2    0    0 -.47933855E+03 -.10383522E+03 -.23730418E+04 0.24416764E+04 0.29984855E+03 0.0000E+00 0.0000E+00
       23  2    1    2    0    0 0.47933855E+03 0.10383522E+03 -.41165068E+03 0.64632228E+03 0.87914767E+02 0.0000E+00 0.0000E+00
       23  1    3    3    0    0 -.22735054E+03 0.47778302E+02 -.77334410E+03 0.81261761E+03 0.91188000E+02 0.0000E+00 0.9000E+01
      -13  1    4    4    0    0 0.45459390E+03 0.11340560E+03 -.37030077E+03 0.59719270E+03 0.10565837E+00 0.0000E+00 0.9000E+01
       13  1    4    4    0    0 0.24744647E+02 -.95703738E+01 -.41349907E+02 0.49129580E+02 0.10565837E+00 0.0000E+00 0.9000E+01
       23  1    3    3    0    0 -.25198801E+03 -.15161353E+03 -.15996977E+04 0.16290588E+04 0.91188000E+02 0.0000E+00 0.9000E+01
#aMCatNLO 1  0  0  2  1 0.35798472D+03 0.00000000D+00  -5  7  0 0.00000000D+00 0.00000000D+00 0.00000000D+00 0.00000000D+00 0.00000000D+00
  <mgrwgt>
 0.4423386567D-03    3    2    0
 0.667312471215222D+03 0.000000000000000D+00 0.000000000000000D+00 0.667312471215222D+03
 0.667312471215222D+03 0.000000000000000D+00 0.000000000000000D+00 -.667312471215222D+03
 0.266619190455844D+03 -.227350535245633D+03 0.477783017076450D+02 -.938057001721462D+02
 0.609128144161965D+03 0.454594523335225D+03 0.113405775419941D+03 0.389255758422687D+03
 0.273965969449042D+02 0.247440266127430D+02 -.957055145825749D+01 0.683456040534050D+01
 0.431481010867732D+03 -.251988014702334D+03 -.151613525669328D+03 -.302284618655881D+03
 0.000000000000000D+00 0.000000000000000D+00 0.000000000000000D+00 0.000000000000000D+00
 0.184024955677360D+04 0.000000000000000D+00 0.000000000000000D+00 0.184024955677360D+04
 0.718776157731195D+03 0.000000000000000D+00 0.000000000000000D+00 -.718776157731195D+03
 0.281354856334277D+03 -.248171560867797D+03 -.213698579905507D+02 -.938057001721462D+02
 0.566376565183307D+03 0.409929609338620D+03 -.349296938307052D+02 0.389255758422687D+03
 0.289095087381278D+02 0.226045988862329D+02 -.166757485210757D+02 0.683456040534050D+01
 0.505161081269417D+03 -.287577015884820D+03 -.269807219962952D+03 -.302284618655881D+03
 0.117722370297967D+04 0.103214368527764D+03 0.342782520305284D+03 0.112147339904241D+04
0.346899418026D-03 0.000000000000D+00 0.000000000000D+00 0.779087038470D-06 0.000000000000D+00  7 -1 1 23 -13 13 23 21 0 0.23331247D-01 0.45174547D+00 0.27695219D+06 0.27695219D+06 0.27695219D+06 0.10871297D+01  1  2  2  2  7  2        1 0.436590733388D-03 0.100000000000D+01
-.179509327617D-04 0.000000000000D+00 -.133218510594D-05 0.779087038470D-06 0.000000000000D+00  7 -1 1 23 -13 13 23 21 2 0.23331247D-01 0.45174547D+00 0.27695219D+06 0.27695219D+06 0.27695219D+06 0.10871297D+01  1  2  3  2  7  2        1 -.267005804015D-04 0.100000000000D+01
0.218152901420D-04 0.000000000000D+00 0.000000000000D+00 0.779087038470D-06 0.000000000000D+00  7 -1 1 23 -13 13 23 21 2 0.23331247D-01 0.45174547D+00 0.27695219D+06 0.27695219D+06 0.27695219D+06 0.10871297D+01  1  2 15  2  7  2        1 0.324485037158D-04 0.100000000000D+01
  </mgrwgt>
  </event>
  <event>
  7     66 0.27414828E-05 0.29016619E+03 0.75467711E-02 0.83934177E-01
       -1 -1    0    0    0  501 0.00000000E+00 0.00000000E+00 0.32603584E+03 0.32603599E+03 0.32000000E+00 0.0000E+00 0.9000E+01
        1 -1    0    0  501    0 0.00000000E+00 0.00000000E+00 -.97828641E+03 0.97828646E+03 0.32000000E+00 0.0000E+00 0.9000E+01
       25  2    1    2    0    0 0.19686833E+03 -.18984162E+02 -.83617162E+03 0.91006841E+03 0.29987330E+03 0.0000E+00 0.0000E+00
       23  1    3    3    0    0 0.16011653E+02 0.89590389E+02 -.27595495E+03 0.30454753E+03 0.91188000E+02 0.0000E+00 0.9000E+01
      -11  1    1    2    0    0 -.17639427E+03 0.51059658E+02 -.21907295E+02 0.18493771E+03 0.51099893E-03 0.0000E+00 0.9000E+01
       11  1    1    2    0    0 -.20474070E+02 -.32075496E+02 0.20582834E+03 0.20931634E+03 0.51099893E-03 0.0000E+00 0.9000E+01
       23  1    3    3    0    0 0.18085668E+03 -.10857455E+03 -.56021667E+03 0.60552088E+03 0.91188000E+02 0.0000E+00 0.9000E+01
#aMCatNLO 1  0  0  2  1 0.13808207D+04 0.00000000D+00  -5  7  0 0.00000000D+00 0.00000000D+00 0.00000000D+00 0.00000000D+00 0.00000000D+00
  <mgrwgt>
 0.1224302373D-02    3    2    0
 0.564762397233375D+03 0.000000000000000D+00 0.000000000000000D+00 0.564762397233375D+03
 0.564762397233375D+03 0.000000000000000D+00 0.000000000000000D+00 -.564762397233375D+03
 0.192325490349260D+03 0.160116540711358D+02 0.895903888344022D+02 -.142797171038120D+03
 0.200906922453132D+03 -.176394253815696D+03 0.510596531389173D+02 0.814958313763723D+02
 0.360565483416252D+03 -.204740852481368D+02 -.320754906686477D+02 0.358551868720291D+03
 0.375726898248105D+03 0.180856684992697D+03 -.108574551304672D+03 -.297250529058543D+03
 0.000000000000000D+00 -.000000000000000D+00 -.000000000000000D+00 0.000000000000000D+00
 0.256976189915836D+04 0.000000000000000D+00 0.000000000000000D+00 0.256976189915836D+04
 0.117608169843313D+04 0.000000000000000D+00 0.000000000000000D+00 -.117608169843313D+04
 0.328615885679462D+03 0.262617535954474D+03 0.101558587670406D+03 -.142797171038120D+03
 0.104950226803147D+03 -.316060386854966D+02 0.580864691035427D+02 0.814958313763723D+02
 0.542571087952157D+03 0.407057304831198D+03 -.113266721651082D+02 0.358551868720291D+03
 0.807816890124722D+03 0.741128671649283D+03 -.813836080581470D+02 -.297250529058543D+03
 0.196188950703201D+04 -.137919747374946D+04 -.669347765506939D+02 0.139368020072523D+04
0.147997890779D-03 0.000000000000D+00 0.000000000000D+00 0.318555445488D-09 0.000000000000D+00  7 -1 1 23 -11 11 23 21 0 0.50159376D-01 0.15050562D+00 0.84196415D+05 0.84196415D+05 0.84196415D+05 0.11279046D+01  1  2  2  2  7  2        1 0.117141422143D-02 0.100000000000D+01
-.378857702820D-05 0.000000000000D+00 -.568350869329D-06 0.318555445488D-09 0.000000000000D+00  7 -1 1 23 -11 11 23 21 2 0.50159376D-01 0.15050562D+00 0.84196415D+05 0.84196415D+05 0.84196415D+05 0.11279046D+01  1  2  3  2  7  2        1 -.381483564155D-04 0.100000000000D+01
0.904098776903D-05 0.000000000000D+00 0.000000000000D+00 0.318555445488D-09 0.000000000000D+00  7 -1 1 23 -11 11 23 21 2 0.50159376D-01 0.15050562D+00 0.84196415D+05 0.84196415D+05 0.84196415D+05 0.11279046D+01  1  2 15  2  7  2        1 0.910365082177D-04 0.100000000000D+01
  </mgrwgt>
  </event>
  <event>
  8     66 0.27414828E-05 0.43185111E+03 0.75467711E-02 0.89356655E-01
       -1 -1    0    0    0  501 0.00000000E+00 0.00000000E+00 0.68231365E+03 0.68231373E+03 0.32000000E+00 0.0000E+00 0.9000E+01
        1 -1    0    0  501    0 0.00000000E+00 0.00000000E+00 -.13517206E+04 0.13517207E+04 0.32000000E+00 0.0000E+00 0.9000E+01
       25  2    1    2    0    0 -.61139954E+03 -.50209438E+03 -.86866227E+03 0.12133280E+04 0.30279116E+03 0.0000E+00 0.0000E+00
       23  2    1    2    0    0 0.61139954E+03 0.50209438E+03 0.19925530E+03 0.82070641E+03 0.89152516E+02 0.0000E+00 0.0000E+00
       23  1    3    3    0    0 -.39994745E+03 -.40543594E+03 -.47523270E+03 0.74732699E+03 0.91188000E+02 0.0000E+00 0.9000E+01
      -11  1    4    4    0    0 0.52331363E+03 0.40443752E+03 0.13799931E+03 0.67562614E+03 0.51099893E-03 0.0000E+00 0.9000E+01
       11  1    4    4    0    0 0.88085904E+02 0.97656858E+02 0.61255988E+02 0.14508027E+03 0.51099893E-03 0.0000E+00 0.9000E+01
       23  1    3    3    0    0 -.21145209E+03 -.96658437E+02 -.39342957E+03 0.46600099E+03 0.91188000E+02 0.0000E+00 0.9000E+01
#aMCatNLO 1  0  0  1  2 0.16954089D+02 0.00000000D+00  -5  7  0 0.00000000D+00 0.00000000D+00 0.00000000D+00 0.00000000D+00 0.00000000D+00
  <mgrwgt>
 0.4359141362D-03    9    2    0
 0.960363239267101D+03 0.000000000000000D+00 0.000000000000000D+00 0.960363239267101D+03
 0.960363239267101D+03 0.000000000000000D+00 0.000000000000000D+00 -.960363239267101D+03
 0.625786512674553D+03 -.399947450140237D+03 -.405435944881876D+03 -.242811119649493D+03
 0.763578010687369D+03 0.523313634978995D+03 0.404437523395642D+03 0.381607792792483D+03
 0.174987665188760D+03 0.880859039047957D+02 0.976568583758254D+02 0.115432640590315D+03
 0.356374289983520D+03 -.211452088743554D+03 -.966584368895909D+02 -.254229313733305D+03
 0.000000000000000D+00 0.000000000000000D+00 0.000000000000000D+00 0.000000000000000D+00
 0.971321831962792D+03 0.000000000000000D+00 0.000000000000000D+00 0.971321831962792D+03
 0.966980552434628D+03 0.000000000000000D+00 0.000000000000000D+00 -.966980552434628D+03
 0.630637731216790D+03 -.404789336826405D+03 -.408138517731981D+03 -.242811119649493D+03
 0.757834360207224D+03 0.517450562582374D+03 0.401164960177140D+03 0.381607792792483D+03
 0.173895426269406D+03 0.867414118641707D+02 0.969064096516627D+02 0.115432640590315D+03
 0.358433785533077D+03 -.214206747228405D+03 -.981959915072443D+02 -.254229313733305D+03
 0.175010811709244D+02 0.148041096082657D+02 0.826313941042298D+01 0.434127952816384D+01
0.183966909773D-03 0.000000000000D+00 0.000000000000D+00 0.100856825914D-06 0.000000000000D+00  7 -1 1 23 -11 11 23 21 0 0.10497134D+00 0.20795703D+00 0.65561110D+06 0.65561110D+06 0.65561110D+06 0.10602917D+01  1  2  2  1  7  1       -1 0.161449498990D-03 0.100000000000D+01
-.985850635772D-05 0.000000000000D+00 -.706481373126D-06 0.100856825914D-06 0.000000000000D+00  7 -1 1 23 -11 11 23 21 2 0.10497134D+00 0.20795703D+00 0.65561110D+06 0.65561110D+06 0.65561110D+06 0.10602917D+01  1  2  3  1  7  1       -1 -.972655082044D-05 0.100000000000D+01
0.115819346832D-04 0.000000000000D+00 0.000000000000D+00 0.100856825914D-06 0.000000000000D+00  7 -1 1 23 -11 11 23 21 2 0.10497134D+00 0.20795703D+00 0.65561110D+06 0.65561110D+06 0.65561110D+06 0.10602917D+01  1  2 15  1  7  1       -1 0.114269111575D-04 0.100000000000D+01
0.100012273504D-03 0.000000000000D+00 0.000000000000D+00 0.100856825914D-06 0.000000000000D+00  7 -1 1 23 -11 11 23 21 2 0.10652749D+00 0.20795703D+00 0.66948741D+06 0.66948741D+06 0.66948741D+06 0.10596645D+01  1  2 12  1  7  1       -1 0.951162286577D-04 0.100000000000D+01
-.889384128991D-04 0.000000000000D+00 0.000000000000D+00 0.100856825914D-06 0.000000000000D+00  7 -1 1 23 -11 11 23 21 2 0.10497134D+00 0.20795703D+00 0.65561110D+06 0.65561110D+06 0.65561110D+06 0.10602917D+01  1  2  4  1  7  1       -1 -.877479773876D-04 0.100000000000D+01
-.112552519727D-01 0.000000000000D+00 -.132859609993D-02 0.100856825914D-06 0.000000000000D+00  7 -1 1 23 -11 11 23 21 2 0.10674330D+00 0.20795703D+00 0.65561110D+06 0.65561110D+06 0.65561110D+06 0.10602917D+01  1  2  5  1  7  1       -1 -.106800459743D-01 0.100000000000D+01
0.112760982493D-01 0.000000000000D+00 0.132840997814D-02 0.100856825914D-06 0.000000000000D+00  7 -1 1 23 -11 11 23 21 2 0.10497134D+00 0.20795703D+00 0.65561110D+06 0.65561110D+06 0.65561110D+06 0.10602917D+01  1  2  6  1  7  1       -1 0.111251683265D-01 0.100000000000D+01
0.583605195819D-05 0.000000000000D+00 0.000000000000D+00 0.100856825914D-06 0.000000000000D+00  7 21 1 23 -11 11 23 1 2 0.10652749D+00 0.20795703D+00 0.66948741D+06 0.66948741D+06 0.66948741D+06 0.10596645D+01  1  2 12  3  7  1       -1 0.369309477129D-04 0.100000000000D+01
-.343190787216D-04 0.000000000000D+00 -.406724070623D-05 0.100856825914D-06 0.000000000000D+00  7 21 1 23 -11 11 23 1 2 0.10674330D+00 0.20795703D+00 0.65561110D+06 0.65561110D+06 0.65561110D+06 0.10602917D+01  1  2  5  3  7  1       -1 -.216657274314D-03 0.100000000000D+01
  </mgrwgt>
  </event>
  <event>
  8     66 0.27414828E-05 0.41636141E+03 0.75467711E-02 0.88083575E-01
       -1 -1    0    0    0  501 0.00000000E+00 0.00000000E+00 0.45105877E+03 0.45105888E+03 0.32000000E+00 0.0000E+00 0.9000E+01
        1 -1    0    0  501    0 0.00000000E+00 0.00000000E+00 -.16747015E+04 0.16747015E+04 0.32000000E+00 0.0000E+00 0.9000E+01
       25  2    1    2    0    0 -.75706570E+03 0.11188856E+03 -.10535661E+04 0.13364450E+04 0.30069283E+03 0.0000E+00 0.0000E+00
       23  2    1    2    0    0 0.75706570E+03 -.11188856E+03 -.17007657E+03 0.78931536E+03 0.91788749E+02 0.0000E+00 0.0000E+00
       23  1    3    3    0    0 -.30396448E+03 0.65669497E+02 -.62701701E+03 0.70581334E+03 0.91188000E+02 0.0000E+00 0.9000E+01
      -11  1    4    4    0    0 0.67092813E+03 -.10088930E+03 -.17992080E+03 0.70192215E+03 0.51099893E-03 0.0000E+00 0.9000E+01
       11  1    4    4    0    0 0.86137567E+02 -.10999256E+02 0.98442324E+01 0.87393209E+02 0.51099893E-03 0.0000E+00 0.9000E+01
       23  1    3    3    0    0 -.45310122E+03 0.46219061E+02 -.42654913E+03 0.63063169E+03 0.91188000E+02 0.0000E+00 0.9000E+01
#aMCatNLO 1  0  0  2  1 0.27991627D+03 0.00000000D+00  -5  7  0 0.00000000D+00 0.00000000D+00 0.00000000D+00 0.00000000D+00 0.00000000D+00
  <mgrwgt>
 0.4610463753D-03    9    2    0
 0.869131139214650D+03 0.000000000000000D+00 0.000000000000000D+00 0.869131139214650D+03
 0.869131139214650D+03 0.000000000000000D+00 0.000000000000000D+00 -.869131139214650D+03
 0.421769060143120D+03 -.303964482308566D+03 0.656694970800466D+02 -.269938880856667D+03
 0.731742005221839D+03 0.670928131853090D+03 -.100889301410182D+03 0.274086032032219D+03
 0.113804947010741D+03 0.861375673010517D+02 -.109992564375547D+02 0.735588323819466D+02
 0.470946266053599D+03 -.453101216845576D+03 0.462190607676899D+02 -.777059835574988D+02
 0.000000000000000D+00 0.000000000000000D+00 -.000000000000000D+00 -.000000000000000D+00
 0.988098517815726D+03 0.000000000000000D+00 0.000000000000000D+00 0.988098517815726D+03
 0.106208690094586D+04 0.000000000000000D+00 0.000000000000000D+00 -.106208690094586D+04
 0.457900769761875D+03 -.334390847020287D+03 0.129126394030900D+03 -.269938880856667D+03
 0.679807716798729D+03 0.622104897054229D+03 0.935908692725064D+00 0.274086032032219D+03
 0.107676828498105D+03 0.784768688781452D+02 0.497781328470089D+01 0.735588323819466D+02
 0.515270490267298D+03 -.487212868390873D+03 0.117361952054320D+03 -.777059835574988D+02
 0.289529613435583D+03 0.121021949478786D+03 -.252402068062646D+03 -.739883831301378D+02
0.233192060767D-03 0.000000000000D+00 0.000000000000D+00 0.291992851622D-05 0.000000000000D+00  7 -1 1 23 -11 11 23 21 0 0.69393667D-01 0.25764639D+00 0.60362855D+06 0.60362855D+06 0.60362855D+06 0.10627768D+01  1  2  2  2  7  2        1 0.298799751868D-03 0.100000000000D+01
-.127570440850D-04 0.000000000000D+00 -.895518914226D-06 0.291992851622D-05 0.000000000000D+00  7 -1 1 23 -11 11 23 21 2 0.69393667D-01 0.25764639D+00 0.60362855D+06 0.60362855D+06 0.60362855D+06 0.10627768D+01  1  2  3  2  7  2        1 -.184629317620D-04 0.100000000000D+01
0.145050637886D-04 0.000000000000D+00 0.000000000000D+00 0.291992851622D-05 0.000000000000D+00  7 -1 1 23 -11 11 23 21 2 0.69393667D-01 0.25764639D+00 0.60362855D+06 0.60362855D+06 0.60362855D+06 0.10627768D+01  1  2 15  2  7  2        1 0.209927943454D-04 0.100000000000D+01
0.134055143007D-03 0.000000000000D+00 0.000000000000D+00 0.291992851622D-05 0.000000000000D+00  7 -1 1 23 -11 11 23 21 2 0.69393667D-01 0.32926970D+00 0.86481358D+06 0.86481358D+06 0.86481358D+06 0.10520888D+01  1  2 12  2  7  2        1 0.903289322787D-04 0.100000000000D+01
-.142913487104D-03 0.000000000000D+00 0.000000000000D+00 0.291992851622D-05 0.000000000000D+00  7 -1 1 23 -11 11 23 21 2 0.69393667D-01 0.25764639D+00 0.60362855D+06 0.60362855D+06 0.60362855D+06 0.10627768D+01  1  2  4  2  7  2        1 -.206834901776D-03 0.100000000000D+01
-.319286293210D-03 0.000000000000D+00 -.106049984426D-03 0.291992851622D-05 0.000000000000D+00  7 -1 1 23 -11 11 23 21 2 0.69393667D-01 0.33465477D+00 0.60362855D+06 0.60362855D+06 0.60362855D+06 0.10627768D+01  1  2  5  2  7  2        1 -.212920032937D-03 0.100000000000D+01
0.338891054469D-03 0.000000000000D+00 0.102524235014D-03 0.291992851622D-05 0.000000000000D+00  7 -1 1 23 -11 11 23 21 2 0.69393667D-01 0.25764639D+00 0.60362855D+06 0.60362855D+06 0.60362855D+06 0.10627768D+01  1  2  6  2  7  2        1 0.490468040381D-03 0.100000000000D+01
0.447354359383D-05 0.000000000000D+00 0.000000000000D+00 0.291992851622D-05 0.000000000000D+00  7 -1 21 23 -11 11 23 -1 2 0.69393667D-01 0.32926970D+00 0.86481358D+06 0.86481358D+06 0.86481358D+06 0.10520888D+01  1  2 12  4  7  2        1 0.129403793556D-05 0.100000000000D+01
-.925685530337D-05 0.000000000000D+00 -.370986229126D-05 0.291992851622D-05 0.000000000000D+00  7 -1 21 23 -11 11 23 -1 2 0.69393667D-01 0.33465477D+00 0.60362855D+06 0.60362855D+06 0.60362855D+06 0.10627768D+01  1  2  5  4  7  2        1 -.261931504964D-05 0.100000000000D+01
  </mgrwgt>
  </event>
  <event>
  7     66 0.27414828E-05 0.36133577E+03 0.75467711E-02 0.92864020E-01
       -1 -1    0    0    0  501 0.00000000E+00 0.00000000E+00 0.38467262E+03 0.38467275E+03 0.32000000E+00 0.0000E+00 0.9000E+01
        1 -1    0    0  501    0 0.00000000E+00 0.00000000E+00 -.93558648E+03 0.93558653E+03 0.32000000E+00 0.0000E+00 0.9000E+01
       25  2    1    2    0    0 0.28920525E+03 0.35185088E+03 -.54823909E+03 0.77862944E+03 0.31346289E+03 0.0000E+00 0.0000E+00
       23  1    3    3    0    0 0.17993209E+03 0.24892461E+03 -.17254072E+03 0.36390187E+03 0.91188000E+02 0.0000E+00 0.9000E+01
      -11  1    1    2    0    0 -.29520007E+03 -.16711168E+03 0.63870433E+02 0.34517941E+03 0.51099893E-03 0.0000E+00 0.9000E+01
       11  1    1    2    0    0 0.59948144E+01 -.18473920E+03 -.66545198E+02 0.19645044E+03 0.51099893E-03 0.0000E+00 0.9000E+01
       23  1    3    3    0    0 0.10927316E+03 0.10292627E+03 -.37569837E+03 0.41472757E+03 0.91188000E+02 0.0000E+00 0.9000E+01
#aMCatNLO 1  0  0  2  1 0.13925732D+03 0.00000000D+00  -5  7  0 0.00000000D+00 0.00000000D+00 0.00000000D+00 0.00000000D+00 0.00000000D+00
  <mgrwgt>
 0.1013482463D-02    9    2    0
 0.599912181644851D+03 0.000000000000000D+00 0.000000000000000D+00 0.599912181644851D+03
 0.599912181644851D+03 0.000000000000000D+00 0.000000000000000D+00 -.599912181644851D+03
 0.321205139609347D+03 0.179932092953540D+03 0.248924612733076D+03 -.227699246486856D+02
 0.409154405938285D+03 -.295200061219079D+03 -.167111685586077D+03 0.228774859404487D+03
 0.185614531370263D+03 0.599480676233918D+01 -.184739198381544D+03 0.169777833956388D+02
 0.283850286371806D+03 0.109273161503200D+03 0.102926271234545D+03 -.222982718151440D+03
 0.000000000000000D+00 0.000000000000000D+00 -.000000000000000D+00 -.000000000000000D+00
 0.644318343367814D+03 0.000000000000000D+00 0.000000000000000D+00 0.644318343367814D+03
 0.724005614563405D+03 0.000000000000000D+00 0.000000000000000D+00 -.724005614563405D+03
 0.351176368329510D+03 0.177994482299839D+03 0.287765677472852D+03 -.227699246486856D+02
 0.394236439048097D+03 -.297515203206109D+03 -.120702681987637D+03 0.228774859404487D+03
 0.165410812622350D+03 0.498325240189252D+01 -.164461725026999D+03 0.169777833956388D+02
 0.297055141546821D+03 0.107599158674987D+03 0.136483091383629D+03 -.222982718151440D+03
 0.160445196384441D+03 0.693830982939121D+01 -.139084361841846D+03 -.796872711955910D+02
0.113890391743D-03 0.000000000000D+00 0.000000000000D+00 0.565813880258D-12 0.000000000000D+00  7 -1 1 23 -11 11 23 21 0 0.59180417D-01 0.14393640D+00 0.26014748D+06 0.26014748D+06 0.26014748D+06 0.10891615D+01  1  2  2  2  7  2        1 0.688786035738D-03 0.100000000000D+01
-.612464699707D-05 0.000000000000D+00 -.437369092322D-06 0.565813880258D-12 0.000000000000D+00  7 -1 1 23 -11 11 23 21 2 0.59180417D-01 0.14393640D+00 0.26014748D+06 0.26014748D+06 0.26014748D+06 0.10891615D+01  1  2  3  2  7  2        1 -.439402889381D-04 0.100000000000D+01
0.699377424422D-05 0.000000000000D+00 0.000000000000D+00 0.565813880258D-12 0.000000000000D+00  7 -1 1 23 -11 11 23 21 2 0.59180417D-01 0.14393640D+00 0.26014748D+06 0.26014748D+06 0.26014748D+06 0.10891615D+01  1  2 15  2  7  2        1 0.501757017516D-04 0.100000000000D+01
0.127057213541D-03 0.000000000000D+00 0.000000000000D+00 0.565813880258D-12 0.000000000000D+00  7 -1 1 23 -11 11 23 21 2 0.59180417D-01 0.17821205D+00 0.34314165D+06 0.34314165D+06 0.34314165D+06 0.10802609D+01  1  2 12  2  7  2        1 0.602806318990D-03 0.100000000000D+01
-.131627126774D-03 0.000000000000D+00 0.000000000000D+00 0.565813880258D-12 0.000000000000D+00  7 -1 1 23 -11 11 23 21 2 0.59180417D-01 0.14393640D+00 0.26014748D+06 0.26014748D+06 0.26014748D+06 0.10891615D+01  1  2  4  2  7  2        1 -.944337524320D-03 0.100000000000D+01
-.246005995229D-03 0.000000000000D+00 -.662920357326D-04 0.565813880258D-12 0.000000000000D+00  7 -1 1 23 -11 11 23 21 2 0.59180417D-01 0.18122960D+00 0.26014748D+06 0.26014748D+06 0.26014748D+06 0.10891615D+01  1  2  5  2  7  2        1 -.116260888421D-02 0.100000000000D+01
0.256171512138D-03 0.000000000000D+00 0.645707019725D-04 0.565813880258D-12 0.000000000000D+00  7 -1 1 23 -11 11 23 21 2 0.59180417D-01 0.14393640D+00 0.26014748D+06 0.26014748D+06 0.26014748D+06 0.10891615D+01  1  2  6  2  7  2        1 0.183786106635D-02 0.100000000000D+01
0.382299703673D-05 0.000000000000D+00 0.000000000000D+00 0.565813880258D-12 0.000000000000D+00  7 -1 21 23 -11 11 23 -1 2 0.59180417D-01 0.17821205D+00 0.34314165D+06 0.34314165D+06 0.34314165D+06 0.10802609D+01  1  2 12  4  7  2        1 0.198330225476D-04 0.100000000000D+01
-.686523780371D-05 0.000000000000D+00 -.211152503814D-05 0.565813880258D-12 0.000000000000D+00  7 -1 21 23 -11 11 23 -1 2 0.59180417D-01 0.18122960D+00 0.26014748D+06 0.26014748D+06 0.26014748D+06 0.10891615D+01  1  2  5  4  7  2        1 -.350929848076D-04 0.100000000000D+01
  </mgrwgt>
  </event>
  <event>
  8     66 0.27414828E-05 0.12180365E+03 0.75467711E-02 0.10217200E+00
       -1 -1    0    0    0  501 0.00000000E+00 0.00000000E+00 0.10501911E+03 0.10501960E+03 0.32000000E+00 0.0000E+00 0.9000E+01
        1 -1    0    0  501    0 0.00000000E+00 0.00000000E+00 -.13215717E+04 0.13215717E+04 0.32000000E+00 0.0000E+00 0.9000E+01
       25  2    1    2    0    0 -.14120187E+03 0.11659122E+03 -.23275113E+03 0.42169069E+03 0.30019739E+03 0.0000E+00 0.0000E+00
       23  2    1    2    0    0 0.14120187E+03 -.11659122E+03 -.98380142E+03 0.10049006E+04 0.91806995E+02 0.0000E+00 0.0000E+00
       23  1    3    3    0    0 -.61976485E+02 0.46975179E+02 -.25381539E+03 0.28068711E+03 0.91188000E+02 0.0000E+00 0.9000E+01
      -13  1    4    4    0    0 0.41358763E+02 -.15287770E+02 -.94311471E+02 0.10411017E+03 0.10565837E+00 0.0000E+00 0.9000E+01
       13  1    4    4    0    0 0.99843103E+02 -.10130345E+03 -.88948995E+03 0.90079044E+03 0.10565837E+00 0.0000E+00 0.9000E+01
       23  1    3    3    0    0 -.79225382E+02 0.69616046E+02 0.21064259E+02 0.14100358E+03 0.91188000E+02 0.0000E+00 0.9000E+01
#aMCatNLO 1  0  0  1  2 0.85161945D+02 0.00000000D+00  -5  7  0 0.00000000D+00 0.00000000D+00 0.00000000D+00 0.00000000D+00 0.00000000D+00
  <mgrwgt>
 0.2349939258D-03    9    2    0
 0.372546185129000D+03 0.000000000000000D+00 0.000000000000000D+00 0.372546185129000D+03
 0.372546185129000D+03 0.000000000000000D+00 0.000000000000000D+00 -.372546185129000D+03
 0.122999561522953D+03 -.619764845571322D+02 0.469751786897820D+02 -.276746949367356D+02
 0.453468360321115D+02 0.413586857938493D+02 -.152876560958311D+02 -.105868889965112D+02
 0.272380678863048D+03 0.998431807953527D+02 -.101303568165670D+03 -.232293264094043D+03
 0.304365293839888D+03 -.792253820320698D+02 0.696160455717186D+02 0.270554848027290D+03
 0.000000000000000D+00 0.000000000000000D+00 0.000000000000000D+00 0.000000000000000D+00
 0.432970737924637D+03 0.000000000000000D+00 0.000000000000000D+00 0.432970737924637D+03
 0.406233288138093D+03 0.000000000000000D+00 0.000000000000000D+00 -.406233288138093D+03
 0.125436852179557D+03 -.724550984164476D+02 0.374636158737706D+02 -.276746949367356D+02
 0.433162531522405D+02 0.376190316051144D+02 -.186821848191785D+02 -.105868889965112D+02
 0.273486443410533D+03 0.768194593225017D+02 -.122202474832861D+03 -.232293264094043D+03
 0.307703913910580D+03 -.105041391801372D+03 0.461825455042280D+02 0.270554848027290D+03
 0.892605634098207D+02 0.630579992902030D+02 0.572384982740409D+02 0.267374497865444D+02
0.647897694071D-05 0.000000000000D+00 0.000000000000D+00 0.145047555885D-05 0.000000000000D+00  7 -1 1 23 -13 13 23 21 0 0.16156827D-01 0.20331876D+00 0.49639114D+05 0.49639114D+05 0.49639114D+05 0.11475722D+01  1  2  2  1  7  1       -1 0.194724892993D-03 0.100000000000D+01
-.244278633197D-06 0.000000000000D+00 -.248809774061D-07 0.145047555885D-05 0.000000000000D+00  7 -1 1 23 -13 13 23 21 2 0.16156827D-01 0.20331876D+00 0.49639114D+05 0.49639114D+05 0.49639114D+05 0.11475722D+01  1  2  3  1  7  1       -1 -.966853260716D-05 0.100000000000D+01
0.389843410678D-06 0.000000000000D+00 0.000000000000D+00 0.145047555885D-05 0.000000000000D+00  7 -1 1 23 -13 13 23 21 2 0.16156827D-01 0.20331876D+00 0.49639114D+05 0.49639114D+05 0.49639114D+05 0.11475722D+01  1  2 15  1  7  1       -1 0.154299771474D-04 0.100000000000D+01
0.538164357188D-05 0.000000000000D+00 0.000000000000D+00 0.145047555885D-05 0.000000000000D+00  7 -1 1 23 -13 13 23 21 2 0.19413004D-01 0.20331876D+00 0.73013234D+05 0.73013234D+05 0.73013234D+05 0.11331069D+01  1  2 12  1  7  1       -1 0.154045358282D-03 0.100000000000D+01
-.603297746690D-05 0.000000000000D+00 0.000000000000D+00 0.145047555885D-05 0.000000000000D+00  7 -1 1 23 -13 13 23 21 2 0.16156827D-01 0.20331876D+00 0.49639114D+05 0.49639114D+05 0.49639114D+05 0.11475722D+01  1  2  4  1  7  1       -1 -.238784860524D-03 0.100000000000D+01
-.102305224753D-04 0.000000000000D+00 -.412898102713D-05 0.145047555885D-05 0.000000000000D+00  7 -1 1 23 -13 13 23 21 2 0.20521712D-01 0.20331876D+00 0.49639114D+05 0.49639114D+05 0.49639114D+05 0.11475722D+01  1  2  5  1  7  1       -1 -.277577167547D-03 0.100000000000D+01
0.110167273780D-04 0.000000000000D+00 0.401366567921D-05 0.145047555885D-05 0.000000000000D+00  7 -1 1 23 -13 13 23 21 2 0.16156827D-01 0.20331876D+00 0.49639114D+05 0.49639114D+05 0.49639114D+05 0.11475722D+01  1  2  6  1  7  1       -1 0.436041361803D-03 0.100000000000D+01
0.144147286529D-06 0.000000000000D+00 0.000000000000D+00 0.145047555885D-05 0.000000000000D+00  7 21 1 23 -13 13 23 1 2 0.19413004D-01 0.20331876D+00 0.73013234D+05 0.73013234D+05 0.73013234D+05 0.11331069D+01  1  2 12  3  7  1       -1 0.506892114483D-04 0.100000000000D+01
-.270722217665D-06 0.000000000000D+00 -.135219024224D-06 0.145047555885D-05 0.000000000000D+00  7 21 1 23 -13 13 23 1 2 0.20521712D-01 0.20331876D+00 0.49639114D+05 0.49639114D+05 0.49639114D+05 0.11475722D+01  1  2  5  3  7  1       -1 -.899063151609D-04 0.100000000000D+01
  </mgrwgt>
  </event>
  <event>
  9     66 0.27414828E-05 0.32316602E+03 0.75467711E-02 0.93025673E-01
       -1 -1    0    0    0  501 0.00000000E+00 0.00000000E+00 0.12642537E+04 0.12642537E+04 0.32000000E+00 0.0000E+00 0.9000E+01
        1 -1    0    0  502    0 0.00000000E+00 0.00000000E+00 -.36209834E+03 0.36209848E+03 0.32000000E+00 0.0000E+00 0.9000E+01
       25  2    1    2    0    0 0.18501987E+03 0.30718979E+02 0.61398920E+03 0.70830674E+03 0.29923185E+03 0.0000E+00 0.0000E+00
       23  2    1    2    0    0 -.32700304E+02 -.40631616E+03 -.55532752E+01 0.41749960E+03 0.90071866E+02 0.0000E+00 0.0000E+00
       23  1    3    3    0    0 0.20720557E+03 -.17829645E+02 0.29504239E+03 0.37231345E+03 0.91188000E+02 0.0000E+00 0.9000E+01
      -11  1    4    4    0    0 -.61605734E+02 -.28906016E+03 -.17962523E+02 0.29609744E+03 0.51099893E-03 0.0000E+00 0.9000E+01
       11  1    4    4    0    0 0.28905430E+02 -.11725601E+03 0.12409247E+02 0.12140216E+03 0.51099893E-03 0.0000E+00 0.9000E+01
       23  1    3    3    0    0 -.22185702E+02 0.48548625E+02 0.31894681E+03 0.33599329E+03 0.91188000E+02 0.0000E+00 0.9000E+01
       21  1    1    2  502  501 -.15231956E+03 0.37559718E+03 0.29371941E+03 0.50054585E+03 0.75000000E+00 0.0000E+00 0.9000E+01
#aMCatNLO 2  0  0  2  2 0.40530790D+03 0.00000000D+00  -5  7  0 0.00000000D+00 0.00000000D+00 0.00000000D+00 0.00000000D+00 0.00000000D+00
  <mgrwgt>
 0.5020443513D-05    1    2    0
 0.428068673177425D+03 0.000000000000000D+00 0.000000000000000D+00 0.428068673177425D+03
 0.428068673177425D+03 0.000000000000000D+00 0.000000000000000D+00 -.428068673177425D+03
 0.235219537656889D+03 0.165969588960809D+03 0.838520913196385D+02 0.111516374909804D+03
 0.286275323010418D+03 -.116484675933268D+03 -.153736920644897D+03 -.211541579998036D+03
 0.942386196707381D+02 0.943166268132023D+01 -.692366178018250D+02 -.632317320012336D+02
 0.240403866016805D+03 -.589165757088613D+02 0.139121447127084D+03 0.163256937089466D+03
 0.000000000000000D+00 -.000000000000000D+00 0.000000000000000D+00 0.000000000000000D+00
 0.690525858070787D+03 0.000000000000000D+00 0.000000000000000D+00 0.690525858070787D+03
 0.662949588336470D+03 0.000000000000000D+00 0.000000000000000D+00 -.662949588336470D+03
 0.252988530908661D+03 0.207205567751320D+03 -.178296451773962D+02 0.111516374909804D+03
 0.363456848103526D+03 -.616057344477482D+02 -.289060156106713D+03 -.211541579998036D+03
 0.136318550015630D+03 0.289054304687341D+02 -.117256007248691D+03 -.632317320012336D+02
 0.194466586311306D+03 -.221857023304050D+02 0.485486246133238D+02 0.163256937089466D+03
 0.406244931068135D+03 -.152319561441901D+03 0.375597183919476D+03 0.275762697343168D+02
0.330386585143D-05 0.000000000000D+00 0.000000000000D+00 0.194053987201D-06 0.935160468404D-11  7 -1 1 23 -11 11 23 21 2 0.19450048D+00 0.55707422D-01 0.33314394D+06 0.33314394D+06 0.33314394D+06 0.10812008D+01  1  2  1  2  7  2        1 0.502044351270D-05 0.100000000000D+01
  </mgrwgt>
  </event>
  <event>
  8     66 0.27414828E-05 0.36999490E+03 0.75467711E-02 0.89869360E-01
       -1 -1    0    0    0  501 0.00000000E+00 0.00000000E+00 0.69621604E+02 0.69622339E+02 0.32000000E+00 0.0000E+00 0.9000E+01
        1 -1    0    0  501    0 0.00000000E+00 0.00000000E+00 -.24823459E+04 0.24823459E+04 0.32000000E+00 0.0000E+00 0.9000E+01
       25  2    1    2    0    0 -.19350192E+03 -.24104791E+03 -.18845875E+04 0.19332580E+04 0.30044870E+03 0.0000E+00 0.0000E+00
       23  2    1    2    0    0 0.19350192E+03 0.24104791E+03 -.52813675E+03 0.61871020E+03 0.91251259E+02 0.0000E+00 0.0000E+00
       23  1    3    3    0    0 0.69055542E+01 0.15504361E+02 -.43233647E+03 0.44217434E+03 0.91188000E+02 0.0000E+00 0.9000E+01
      -13  1    4    4    0    0 0.16427283E+03 0.20773855E+03 -.37363213E+03 0.45797582E+03 0.10565837E+00 0.0000E+00 0.9000E+01
       13  1    4    4    0    0 0.29229092E+02 0.33309367E+02 -.15450462E+03 0.16073438E+03 0.10565837E+00 0.0000E+00 0.9000E+01
       23  1    3    3    0    0 -.20040747E+03 -.25655228E+03 -.14522510E+04 0.14910837E+04 0.91188000E+02 0.0000E+00 0.9000E+01
#aMCatNLO 1  0  0  2  2 0.60128696D+03 0.00000000D+00  -5  7  0 0.00000000D+00 0.00000000D+00 0.00000000D+00 0.00000000D+00 0.00000000D+00
  <mgrwgt>
 0.2952846196D-03    5    2    0
 0.415723303097533D+03 0.000000000000000D+00 0.000000000000000D+00 0.415723303097533D+03
 0.415723303097533D+03 0.000000000000000D+00 0.000000000000000D+00 -.415723303097533D+03
 0.102599701589212D+03 0.690555423920677D+01 0.155043612943625D+02 -.438563054041097D+02
 0.321450256630482D+03 0.164273008076731D+03 0.207738781360807D+03 0.182179156392689D+03
 0.449959013398344D+02 0.292289105141588D+02 0.333091332737575D+02 -.779766427146380D+01
 0.362400746635538D+03 -.200407472830097D+03 -.256552275928926D+03 -.130525186717115D+03
 0.000000000000000D+00 0.000000000000000D+00 -.000000000000000D+00 -.000000000000000D+00
 0.717167792545387D+03 0.000000000000000D+00 0.000000000000000D+00 0.717167792545387D+03
 0.955840897526640D+03 0.000000000000000D+00 0.000000000000000D+00 -.955840897526640D+03
 0.136880773687759D+03 -.556643353957957D+01 0.920148583398922D+02 -.438563054041097D+02
 0.525862902011939D+03 0.120145488506833D+03 0.478442899706873D+03 0.182179156392689D+03
 0.759032007688021D+02 0.229325637150252D+02 0.719346219863211D+02 -.779766427146380D+01
 0.287437657742918D+03 -.234250635318482D+03 -.489384432740237D+02 -.130525186717115D+03
 0.646924155860609D+03 0.967390166362031D+02 -.593453936759063D+03 -.238673104981253D+03
0.309021884270D-04 0.000000000000D+00 0.000000000000D+00 0.138652686712D-05 0.000000000000D+00  7 -1 1 23 -13 13 23 21 0 0.10711074D-01 0.38189942D+00 0.13689623D+06 0.13689623D+06 0.13689623D+06 0.11106985D+01  1  2  2  2  7  2        1 0.291837927142D-03 0.100000000000D+01
-.168844309219D-05 0.000000000000D+00 -.118672540293D-06 0.138652686712D-05 0.000000000000D+00  7 -1 1 23 -13 13 23 21 2 0.10711074D-01 0.38189942D+00 0.13689623D+06 0.13689623D+06 0.13689623D+06 0.11106985D+01  1  2  3  2  7  2        1 -.196712186705D-04 0.100000000000D+01
0.198448958437D-05 0.000000000000D+00 0.000000000000D+00 0.138652686712D-05 0.000000000000D+00  7 -1 1 23 -13 13 23 21 2 0.10711074D-01 0.38189942D+00 0.13689623D+06 0.13689623D+06 0.13689623D+06 0.11106985D+01  1  2 15  2  7  2        1 0.231203105062D-04 0.100000000000D+01
-.209903846229D-05 0.000000000000D+00 -.628608550754D-05 0.138652686712D-05 0.000000000000D+00  7 -1 1 23 -13 13 23 21 2 0.10711074D-01 0.90610651D+00 0.13689623D+06 0.13689623D+06 0.13689623D+06 0.11106985D+01  1  2  5  2  7  2        1 -.240260479243D-08 0.100000000000D+01
0.198002544943D-06 0.000000000000D+00 -.593301087731D-06 0.138652686712D-05 0.000000000000D+00  7 -1 21 23 -13 13 23 -1 2 0.10711074D-01 0.90610651D+00 0.13689623D+06 0.13689623D+06 0.13689623D+06 0.11106985D+01  1  2  5  4  7  2        1 0.318563639864D-11 0.100000000000D+01
  </mgrwgt>
  </event>
  <event>
  8     66 0.27414828E-05 0.22195722E+03 0.75467711E-02 0.94982810E-01
       -1 -1    0    0    0  501 0.00000000E+00 0.00000000E+00 0.21027696E+03 0.21027721E+03 0.32000000E+00 0.0000E+00 0.9000E+01
        1 -1    0    0  501    0 0.00000000E+00 0.00000000E+00 -.11194754E+04 0.11194754E+04 0.32000000E+00 0.0000E+00 0.9000E+01
       25  2    1    2    0    0 0.36803284E+03 0.41296753E+01 -.17938339E+03 0.50742188E+03 0.29972209E+03 0.0000E+00 0.0000E+00
       23  2    1    2    0    0 -.36803284E+03 -.41296753E+01 -.72981502E+03 0.82233075E+03 0.90181366E+02 0.0000E+00 0.0000E+00
       23  1    3    3    0    0 0.22553471E+03 -.65674410E+02 -.20208650E+03 0.32300656E+03 0.91188000E+02 0.0000E+00 0.9000E+01
      -11  1    4    4    0    0 -.67681418E+02 0.27871868E+02 -.19233663E+03 0.20579357E+03 0.51099893E-03 0.0000E+00 0.9000E+01
       11  1    4    4    0    0 -.30035142E+03 -.32001544E+02 -.53747839E+03 0.61653718E+03 0.51099893E-03 0.0000E+00 0.9000E+01
       23  1    3    3    0    0 0.14249813E+03 0.69804085E+02 0.22703103E+02 0.18441532E+03 0.91188000E+02 0.0000E+00 0.9000E+01
#aMCatNLO 1  0  0  1  2 0.14437306D+03 0.00000000D+00  -5  7  0 0.00000000D+00 0.00000000D+00 0.00000000D+00 0.00000000D+00 0.00000000D+00
  <mgrwgt>
 0.2699822004D-03    9    2    0
 0.485180453691765D+03 0.000000000000000D+00 0.000000000000000D+00 0.485180453691765D+03
 0.485180453691765D+03 0.000000000000000D+00 0.000000000000000D+00 -.485180453691765D+03
 0.253289362926908D+03 0.225534708594468D+03 -.656744098283946D+02 0.257141428171181D+02
 0.101799633196137D+03 -.676814184502385D+02 0.278718683797124D+02 -.707499107310803D+02
 0.341282744021413D+03 -.300351418319075D+03 -.320015437048102D+02 -.158867360024060D+03
 0.273989167239072D+03 0.142498128174845D+03 0.698040851534924D+02 0.203903127938022D+03
 0.000000000000000D+00 -.000000000000000D+00 -.000000000000000D+00 0.000000000000000D+00
 0.619417518688284D+03 0.000000000000000D+00 0.000000000000000D+00 0.619417518688284D+03
 0.530948120282687D+03 0.000000000000000D+00 0.000000000000000D+00 -.530948120282687D+03
 0.278548338565636D+03 0.258250172424450D+03 -.438127478663311D+02 0.257141428171181D+02
 0.968516706231476D+02 -.554615823486612D+02 0.360376069879996D+02 -.707499107310803D+02
 0.305239051007443D+03 -.260581277275665D+03 -.542569002922125D+01 -.158867360024060D+03
 0.300403176717278D+03 0.177831298238167D+03 0.934149935601937D+02 0.203903127938022D+03
 0.169323402057467D+03 -.120038611038291D+03 -.802141626526410D+02 0.884693984055969D+02
0.164960864029D-04 0.000000000000D+00 0.000000000000D+00 0.884601276768D-06 0.000000000000D+00  7 -1 1 23 -11 11 23 21 0 0.32350324D-01 0.17222700D+00 0.16412238D+06 0.16412238D+06 0.16412238D+06 0.11044813D+01  1  2  2  1  7  1       -1 0.215380901965D-03 0.100000000000D+01
-.880211601564D-06 0.000000000000D+00 -.633493153066D-07 0.884601276768D-06 0.000000000000D+00  7 -1 1 23 -11 11 23 21 2 0.32350324D-01 0.17222700D+00 0.16412238D+06 0.16412238D+06 0.16412238D+06 0.11044813D+01  1  2  3  1  7  1       -1 -.140194226193D-04 0.100000000000D+01
0.101724744802D-05 0.000000000000D+00 0.000000000000D+00 0.884601276768D-06 0.000000000000D+00  7 -1 1 23 -11 11 23 21 2 0.32350324D-01 0.17222700D+00 0.16412238D+06 0.16412238D+06 0.16412238D+06 0.11044813D+01  1  2 15  1  7  1       -1 0.162020380745D-04 0.100000000000D+01
0.141386592531D-04 0.000000000000D+00 0.000000000000D+00 0.884601276768D-06 0.000000000000D+00  7 -1 1 23 -11 11 23 21 2 0.42504884D-01 0.17222700D+00 0.23479547D+06 0.23479547D+06 0.23479547D+06 0.10925151D+01  1  2 12  1  7  1       -1 0.135877617031D-03 0.100000000000D+01
-.160442852023D-04 0.000000000000D+00 0.000000000000D+00 0.884601276768D-06 0.000000000000D+00  7 -1 1 23 -11 11 23 21 2 0.32350324D-01 0.17222700D+00 0.16412238D+06 0.16412238D+06 0.16412238D+06 0.11044813D+01  1  2  4  1  7  1       -1 -.255542660964D-03 0.100000000000D+01
-.242549302548D-04 0.000000000000D+00 -.809799390801D-05 0.884601276768D-06 0.000000000000D+00  7 -1 1 23 -11 11 23 21 2 0.44815047D-01 0.17222700D+00 0.16412238D+06 0.16412238D+06 0.16412238D+06 0.11044813D+01  1  2  5  1  7  1       -1 -.219750791849D-03 0.100000000000D+01
0.259173328966D-04 0.000000000000D+00 0.768614193412D-05 0.884601276768D-06 0.000000000000D+00  7 -1 1 23 -11 11 23 21 2 0.32350324D-01 0.17222700D+00 0.16412238D+06 0.16412238D+06 0.16412238D+06 0.11044813D+01  1  2  6  1  7  1       -1 0.412793971810D-03 0.100000000000D+01
0.510384076080D-06 0.000000000000D+00 0.000000000000D+00 0.884601276768D-06 0.000000000000D+00  7 21 1 23 -11 11 23 1 2 0.42504884D-01 0.17222700D+00 0.23479547D+06 0.23479547D+06 0.23479547D+06 0.10925151D+01  1  2 12  3  7  1       -1 0.469127253188D-04 0.100000000000D+01
-.789242236727D-06 0.000000000000D+00 -.332306549042D-06 0.884601276768D-06 0.000000000000D+00  7 21 1 23 -11 11 23 1 2 0.44815047D-01 0.17222700D+00 0.16412238D+06 0.16412238D+06 0.16412238D+06 0.11044813D+01  1  2  5  3  7  1       -1 -.678721783500D-04 0.100000000000D+01
  </mgrwgt>
  </event>
  <event>
  8     66 0.27414828E-05 0.32446588E+03 0.75467711E-02 0.93459418E-01
       -1 -1    0    0    0  501 0.00000000E+00 0.00000000E+00 0.18179221E+04 0.18179221E+04 0.32000000E+00 0.0000E+00 0.9000E+01
        1 -1    0    0  501    0 0.00000000E+00 0.00000000E+00 -.42206204E+03 0.42206216E+03 0.32000000E+00 0.0000E+00 0.9000E+01
       25  2    1    2    0    0 0.50355525E+03 0.10925631E+03 -.14446988E+03 0.61318552E+03 0.29936617E+03 0.0000E+00 0.0000E+00
       23  2    1    2    0    0 -.50355525E+03 -.10925631E+03 0.15403299E+04 0.16267988E+04 0.91395251E+02 0.0000E+00 0.0000E+00
       23  1    3    3    0    0 0.25064326E+03 0.96722951E+02 -.18827966E+03 0.34050235E+03 0.91188000E+02 0.0000E+00 0.9000E+01
      -13  1    4    4    0    0 -.27642669E+03 -.36492024E+02 0.95118287E+03 0.99120746E+03 0.10565837E+00 0.0000E+00 0.9000E+01
       13  1    4    4    0    0 -.22712857E+03 -.72764281E+02 0.58914706E+03 0.63559130E+03 0.10565837E+00 0.0000E+00 0.9000E+01
       23  1    3    3    0    0 0.25291200E+03 0.12533354E+02 0.43809780E+02 0.27268317E+03 0.91188000E+02 0.0000E+00 0.9000E+01
#aMCatNLO 1  0  0  2  1 0.39625921D+02 0.00000000D+00  -5  7  0 0.00000000D+00 0.00000000D+00 0.00000000D+00 0.00000000D+00 0.00000000D+00
  <mgrwgt>
 0.1317902935D-03    9    2    0
 0.875942964792810D+03 0.000000000000000D+00 0.000000000000000D+00 0.875942964792810D+03
 0.875942964792810D+03 0.000000000000000D+00 0.000000000000000D+00 -.875942964792810D+03
 0.585387411494424D+03 0.250643258337080D+03 0.967229511003699D+02 -.512040816705806D+03
 0.509491715632527D+03 -.276426753594830D+03 -.364919759921338D+02 0.426425132799872D+03
 0.343257098056706D+03 -.227128501296067D+03 -.727643290788691D+02 0.246867234923988D+03
 0.313749704401963D+03 0.252911996553817D+03 0.125333539706330D+02 -.161251551018053D+03
 0.000000000000000D+00 -.000000000000000D+00 -.000000000000000D+00 -.000000000000000D+00
 0.891015175018493D+03 0.000000000000000D+00 0.000000000000000D+00 0.891015175018493D+03
 0.902604852101862D+03 0.000000000000000D+00 0.000000000000000D+00 -.902604852101862D+03
 0.591385911290722D+03 0.263892174681791D+03 0.979651310320328D+02 -.512040816705806D+03
 0.503319783840328D+03 -.265023831239556D+03 -.354228710975522D+02 0.426425132799872D+03
 0.338076269269024D+03 -.219457585740984D+03 -.720451263069527D+02 0.246867234923988D+03
 0.319552057383958D+03 0.260042139547712D+03 0.132018554772064D+02 -.161251551018053D+03
 0.412860053363225D+02 -.394528972489619D+02 -.369898910473428D+01 -.115896770833686D+02
0.301749845141D-03 0.000000000000D+00 0.000000000000D+00 0.346159070822D-05 0.000000000000D+00  7 -1 1 23 -13 13 23 21 0 0.27968033D+00 0.64932633D-01 0.28632005D+06 0.28632005D+06 0.28632005D+06 0.10860547D+01  1  2  2  2  7  2        1 0.636126067497D-04 0.100000000000D+01
-.118125979872D-04 0.000000000000D+00 -.115879885790D-05 0.346159070822D-05 0.000000000000D+00  7 -1 1 23 -13 13 23 21 2 0.27968033D+00 0.64932633D-01 0.28632005D+06 0.28632005D+06 0.28632005D+06 0.10860547D+01  1  2  3  2  7  2        1 -.293727728845D-05 0.100000000000D+01
0.183299036437D-04 0.000000000000D+00 0.000000000000D+00 0.346159070822D-05 0.000000000000D+00  7 -1 1 23 -13 13 23 21 2 0.27968033D+00 0.64932633D-01 0.28632005D+06 0.28632005D+06 0.28632005D+06 0.10860547D+01  1  2 15  2  7  2        1 0.455784660839D-05 0.100000000000D+01
0.597021742019D-03 0.000000000000D+00 0.000000000000D+00 0.346159070822D-05 0.000000000000D+00  7 -1 1 23 -13 13 23 21 2 0.27968033D+00 0.67454301D-01 0.30789262D+06 0.30789262D+06 0.30789262D+06 0.10837185D+01  1  2 12  2  7  2        1 0.139521114303D-03 0.100000000000D+01
-.541744582453D-03 0.000000000000D+00 0.000000000000D+00 0.346159070822D-05 0.000000000000D+00  7 -1 1 23 -13 13 23 21 2 0.27968033D+00 0.64932633D-01 0.28632005D+06 0.28632005D+06 0.28632005D+06 0.10860547D+01  1  2  4  2  7  2        1 -.134708220825D-03 0.100000000000D+01
-.499559799377D-02 0.000000000000D+00 -.853786463172D-03 0.346159070822D-05 0.000000000000D+00  7 -1 1 23 -13 13 23 21 2 0.27968033D+00 0.67998439D-01 0.28632005D+06 0.28632005D+06 0.28632005D+06 0.10860547D+01  1  2  5  2  7  2        1 -.116611435686D-02 0.100000000000D+01
0.503054031352D-02 0.000000000000D+00 0.852878675176D-03 0.346159070822D-05 0.000000000000D+00  7 -1 1 23 -13 13 23 21 2 0.27968033D+00 0.64932633D-01 0.28632005D+06 0.28632005D+06 0.28632005D+06 0.10860547D+01  1  2  6  2  7  2        1 0.125087570300D-02 0.100000000000D+01
0.960730003151D-05 0.000000000000D+00 0.000000000000D+00 0.346159070822D-05 0.000000000000D+00  7 -1 21 23 -13 13 23 -1 2 0.27968033D+00 0.67454301D-01 0.30789262D+06 0.30789262D+06 0.30789262D+06 0.10837185D+01  1  2 12  4  7  2        1 0.740308130310D-05 0.100000000000D+01
-.397313551582D-04 0.000000000000D+00 -.690025772517D-05 0.346159070822D-05 0.000000000000D+00  7 -1 21 23 -13 13 23 -1 2 0.27968033D+00 0.67998439D-01 0.28632005D+06 0.28632005D+06 0.28632005D+06 0.10860547D+01  1  2  5  4  7  2        1 -.304202034895D-04 0.100000000000D+01
  </mgrwgt>
  </event>
  <event>
  8     66 0.27414828E-05 0.13586208E+03 0.75467711E-02 0.10478630E+00
       -1 -1    0    0    0  501 0.00000000E+00 0.00000000E+00 0.70578767E+03 0.70578774E+03 0.32000000E+00 0.0000E+00 0.9000E+01
        1 -1    0    0  501    0 0.00000000E+00 0.00000000E+00 -.82076842E+02 0.82077466E+02 0.32000000E+00 0.0000E+00 0.9000E+01
       25  2    1    2    0    0 0.27246573E+02 -.76766189E+02 0.58005615E+03 0.65813073E+03 0.30005915E+03 0.0000E+00 0.0000E+00
       23  2    1    2    0    0 -.27246573E+02 0.76766189E+02 0.43654674E+02 0.12973448E+03 0.91048777E+02 0.0000E+00 0.0000E+00
       23  1    3    3    0    0 0.16910387E+01 0.84203906E+02 0.23591839E+03 0.26658187E+03 0.91188000E+02 0.0000E+00 0.9000E+01
      -11  1    4    4    0    0 -.30070935E+02 0.12842109E+02 -.20927373E+02 0.38821847E+02 0.51099893E-03 0.0000E+00 0.9000E+01
       11  1    4    4    0    0 0.28243618E+01 0.63924081E+02 0.64582047E+02 0.90912628E+02 0.51099893E-03 0.0000E+00 0.9000E+01
       23  1    3    3    0    0 0.25555534E+02 -.16097010E+03 0.34413776E+03 0.39154885E+03 0.91188000E+02 0.0000E+00 0.9000E+01
#aMCatNLO 1  0  0  1  2 0.35028510D+02 0.00000000D+00  -5  7  0 0.00000000D+00 0.00000000D+00 0.00000000D+00 0.00000000D+00 0.00000000D+00
  <mgrwgt>
 0.1925440226D-03    9    2    0
 0.240684642142215D+03 0.000000000000000D+00 0.000000000000000D+00 0.240684642142215D+03
 0.240684642142215D+03 0.000000000000000D+00 0.000000000000000D+00 -.240684642142215D+03
 0.130639264116212D+03 0.169103872167033D+01 0.842039059478943D+02 0.407211074994949D+02
 0.906559949490565D+02 -.300709347895651D+02 0.128421085383900D+02 -.845537021624322D+02
 0.651191828637147D+02 0.282436182804134D+01 0.639240808542728D+02 -.120930907562377D+02
 0.194954842355446D+03 0.255555342398534D+02 -.160970095340557D+03 0.559256854191750D+02
 0.000000000000000D+00 0.000000000000000D+00 -.000000000000000D+00 0.000000000000000D+00
 0.274175524031660D+03 0.000000000000000D+00 0.000000000000000D+00 0.274175524031660D+03
 0.250657643370966D+03 0.000000000000000D+00 0.000000000000000D+00 -.250657643370966D+03
 0.137086265556623D+03 0.972673744002046D+00 0.939054746543739D+02 0.407211074994949D+02
 0.919892373768697D+02 -.305610110942095D+02 0.194606229269365D+02 -.845537021624322D+02
 0.699151477902038D+02 0.246203577701739D+01 0.688173192322989D+02 -.120930907562377D+02
 0.183651436527391D+03 0.245396524470072D+02 -.147250541468444D+03 0.559256854191750D+02
 0.421910801515377D+02 0.258664912618289D+01 -.349328753451649D+02 0.235178806606945D+02
0.222329373049D-05 0.000000000000D+00 0.000000000000D+00 0.258632514882D-06 0.000000000000D+00  7 -1 1 23 -11 11 23 21 0 0.10858277D+00 0.12627260D-01 0.41529648D+05 0.41529648D+05 0.41529648D+05 0.11544542D+01  1  2  2  1  7  1       -1 0.112526328817D-03 0.100000000000D+01
-.119357745196D-06 0.000000000000D+00 -.853803333175D-08 0.258632514882D-06 0.000000000000D+00  7 -1 1 23 -11 11 23 21 2 0.10858277D+00 0.12627260D-01 0.41529648D+05 0.41529648D+05 0.41529648D+05 0.11544542D+01  1  2  3  1  7  1       -1 -.805121307036D-05 0.100000000000D+01
0.139770057693D-06 0.000000000000D+00 0.000000000000D+00 0.258632514882D-06 0.000000000000D+00  7 -1 1 23 -11 11 23 21 2 0.10858277D+00 0.12627260D-01 0.41529648D+05 0.41529648D+05 0.41529648D+05 0.11544542D+01  1  2 15  1  7  1       -1 0.942811472769D-05 0.100000000000D+01
0.429713593103D-05 0.000000000000D+00 0.000000000000D+00 0.258632514882D-06 0.000000000000D+00  7 -1 1 23 -11 11 23 21 2 0.12571989D+00 0.12627260D-01 0.49717526D+05 0.49717526D+05 0.49717526D+05 0.11475119D+01  1  2 12  1  7  1       -1 0.202131661662D-03 0.100000000000D+01
-.431138053522D-05 0.000000000000D+00 0.000000000000D+00 0.258632514882D-06 0.000000000000D+00  7 -1 1 23 -11 11 23 21 2 0.10858277D+00 0.12627260D-01 0.41529648D+05 0.41529648D+05 0.41529648D+05 0.11544542D+01  1  2  4  1  7  1       -1 -.290821875527D-03 0.100000000000D+01
-.884743029658D-05 0.000000000000D+00 -.185270815621D-05 0.258632514882D-06 0.000000000000D+00  7 -1 1 23 -11 11 23 21 2 0.12700138D+00 0.12627260D-01 0.41529648D+05 0.41529648D+05 0.41529648D+05 0.11544542D+01  1  2  5  1  7  1       -1 -.411681937320D-03 0.100000000000D+01
0.904892992076D-05 0.000000000000D+00 0.183019627720D-05 0.258632514882D-06 0.000000000000D+00  7 -1 1 23 -11 11 23 21 2 0.10858277D+00 0.12627260D-01 0.41529648D+05 0.41529648D+05 0.41529648D+05 0.11544542D+01  1  2  6  1  7  1       -1 0.610390743653D-03 0.100000000000D+01
0.961855113701D-07 0.000000000000D+00 0.000000000000D+00 0.258632514882D-06 0.000000000000D+00  7 21 1 23 -11 11 23 1 2 0.12571989D+00 0.12627260D-01 0.49717526D+05 0.49717526D+05 0.49717526D+05 0.11475119D+01  1  2 12  3  7  1       -1 0.309567794202D-04 0.100000000000D+01
-.195136699744D-06 0.000000000000D+00 -.437743253192D-07 0.258632514882D-06 0.000000000000D+00  7 21 1 23 -11 11 23 1 2 0.12700138D+00 0.12627260D-01 0.41529648D+05 0.41529648D+05 0.41529648D+05 0.11544542D+01  1  2  5  3  7  1       -1 -.623345797892D-04 0.100000000000D+01
  </mgrwgt>
  </event>
  <event>
  8     66 0.27414828E-05 0.49100055E+03 0.75467711E-02 0.89175843E-01
       -1 -1    0    0    0  501 0.00000000E+00 0.00000000E+00 0.23059139E+03 0.23059161E+03 0.32000000E+00 0.0000E+00 0.9000E+01
        1 -1    0    0  501    0 0.00000000E+00 0.00000000E+00 -.15107119E+04 0.15107119E+04 0.32000000E+00 0.0000E+00 0.9000E+01
       25  2    1    2    0    0 0.30855751E+03 -.32443484E+03 -.21194376E+03 0.57919357E+03 0.30013218E+03 0.0000E+00 0.0000E+00
       23  2    1    2    0    0 -.30855751E+03 0.32443484E+03 -.10681768E+04 0.11621100E+04 0.95038470E+02 0.0000E+00 0.0000E+00
       23  1    3    3    0    0 0.62640001E+02 -.21486076E+03 -.16107443E+03 0.29042923E+03 0.91188000E+02 0.0000E+00 0.9000E+01
      -13  1    4    4    0    0 -.20832188E+03 0.27304752E+03 -.84471029E+03 0.91185988E+03 0.10565837E+00 0.0000E+00 0.9000E+01
       13  1    4    4    0    0 -.10023564E+03 0.51387327E+02 -.22346648E+03 0.25025011E+03 0.10565837E+00 0.0000E+00 0.9000E+01
       23  1    3    3    0    0 0.24591751E+03 -.10957408E+03 -.50869337E+02 0.28876434E+03 0.91188000E+02 0.0000E+00 0.9000E+01
#aMCatNLO 1  0  0  2  2 0.54879965D+03 0.00000000D+00  -5  7  0 0.00000000D+00 0.00000000D+00 0.00000000D+00 0.00000000D+00 0.00000000D+00
  <mgrwgt>
 0.1620646153D-03    5    2    0
 0.590218077740911D+03 0.000000000000000D+00 0.000000000000000D+00 0.590218077740911D+03
 0.590218077740911D+03 0.000000000000000D+00 0.000000000000000D+00 -.590218077740911D+03
 0.253745852432413D+03 0.626400009304946D+02 -.214860763813490D+03 0.773484889287633D+02
 0.429073868992483D+03 -.208322012419200D+03 0.273047790987595D+03 -.257198810321097D+03
 0.126814941419746D+03 -.100235502267635D+03 0.513870538322261D+02 -.582601420431901D+02
 0.370801492637181D+03 0.245917513756340D+03 -.109574081006330D+03 0.238110463435524D+03
 0.000000000000000D+00 0.000000000000000D+00 -.000000000000000D+00 -.000000000000000D+00
 0.743028552036532D+03 0.000000000000000D+00 0.000000000000000D+00 0.743028552036532D+03
 0.146804705042946D+04 0.000000000000000D+00 0.000000000000000D+00 -.146804705042946D+04
 0.175866657139170D+03 0.398384335769460D+02 -.122653741157287D+03 0.773484889287633D+02
 0.619659163970961D+03 -.263983233529483D+03 0.498135627994949D+03 -.257198810321097D+03
 0.174228820013109D+03 -.116213318205820D+03 0.115999578636564D+03 -.582601420431901D+02
 0.332017448342357D+03 0.208615589200941D+03 0.412707863340861D+02 0.238110463435524D+03
 0.909303513000397D+03 0.131742528957415D+03 -.532752251808312D+03 -.725018498392931D+03
0.273221658970D-04 0.000000000000D+00 0.000000000000D+00 0.186329900289D-06 0.000000000000D+00  7 -1 1 23 -13 13 23 21 0 0.35475618D-01 0.23241724D+00 0.24108154D+06 0.24108154D+06 0.24108154D+06 0.10916479D+01  1  2  2  2  7  2        1 0.161351611102D-03 0.100000000000D+01
-.145538359538D-05 0.000000000000D+00 -.104924311136D-06 0.186329900289D-06 0.000000000000D+00  7 -1 1 23 -13 13 23 21 2 0.35475618D-01 0.23241724D+00 0.24108154D+06 0.24108154D+06 0.24108154D+06 0.10916479D+01  1  2  3  2  7  2        1 -.102423790008D-04 0.100000000000D+01
0.171914826830D-05 0.000000000000D+00 0.000000000000D+00 0.186329900289D-06 0.000000000000D+00  7 -1 1 23 -13 13 23 21 2 0.35475618D-01 0.23241724D+00 0.24108154D+06 0.24108154D+06 0.24108154D+06 0.10916479D+01  1  2 15  2  7  2        1 0.120986440816D-04 0.100000000000D+01
-.952705516898D-05 0.000000000000D+00 -.692916693526D-05 0.186329900289D-06 0.000000000000D+00  7 -1 1 23 -13 13 23 21 2 0.35475618D-01 0.60291448D+00 0.24108154D+06 0.24108154D+06 0.24108154D+06 0.10916479D+01  1  2  5  2  7  2        1 -.113708768655D-05 0.100000000000D+01
-.587698530828D-06 0.000000000000D+00 -.731549342519D-06 0.186329900289D-06 0.000000000000D+00  7 -1 21 23 -13 13 23 -1 2 0.35475618D-01 0.60291448D+00 0.24108154D+06 0.24108154D+06 0.24108154D+06 0.10916479D+01  1  2  5  4  7  2        1 -.617319629331D-08 0.100000000000D+01
  </mgrwgt>
  </event>
  <event>
  7     66 0.27414828E-05 0.28821869E+03 0.75467711E-02 0.94947569E-01
       -3 -1    0    0    0  501 0.00000000E+00 0.00000000E+00 0.76088611E+02 0.76090253E+02 0.50000000E+00 0.0000E+00 0.9000E+01
        3 -1    0    0  501    0 0.00000000E+00 0.00000000E+00 -.17249256E+04 0.17249257E+04 0.50000000E+00 0.0000E+00 0.9000E+01
       23  2    1    2    0    0 -.20008977E+03 -.12241170E+01 -.11777913E+04 0.11980667E+04 0.90189325E+02 0.0000E+00 0.0000E+00
       23  1    1    2    0    0 0.25008632E+03 -.19540277E+02 -.37195803E+03 0.45781330E+03 0.91188000E+02 0.0000E+00 0.9000E+01
      -13  1    3    3    0    0 -.10658364E+01 0.42502013E+01 -.20812529E+03 0.20817144E+03 0.10565837E+00 0.0000E+00 0.9000E+01
       13  1    3    3    0    0 -.19902394E+03 -.54743183E+01 -.96966601E+03 0.98989528E+03 0.10565837E+00 0.0000E+00 0.9000E+01
       23  1    1    2    0    0 -.49996545E+02 0.20764394E+02 -.99087658E+02 0.14513590E+03 0.91188000E+02 0.0000E+00 0.9000E+01
#aMCatNLO 1  0  0  1  2 0.32456215D+03 0.00000000D+00  -5  7  0 0.00000000D+00 0.00000000D+00 0.00000000D+00 0.00000000D+00 0.00000000D+00
  <mgrwgt>
 0.1564100391D-04    5    2    0
 0.362282674911207D+03 0.000000000000000D+00 0.000000000000000D+00 0.362282674911207D+03
 0.362282674911207D+03 0.000000000000000D+00 0.000000000000000D+00 -.362282674911207D+03
 0.291527717775103D+03 0.250086317241852D+03 -.195402769840566D+02 0.117252592256862D+03
 0.438265376301162D+02 -.106556504323336D+01 0.425021458946203D+01 -.436069449483240D+02
 0.253940102115917D+03 -.199024207401816D+03 -.547433162004645D+01 -.157622879126207D+03
 0.135270992301278D+03 -.499965447968025D+02 0.207643940146411D+02 0.839772318176685D+02
 0.000000000000000D+00 -.000000000000000D+00 -.000000000000000D+00 0.000000000000000D+00
 0.586684374487990D+03 0.000000000000000D+00 0.000000000000000D+00 0.586684374487990D+03
 0.535781892622574D+03 0.000000000000000D+00 0.000000000000000D+00 -.535781892622574D+03
 0.402356320164087D+03 0.366992013452125D+03 0.717220238377781D+02 0.117252592256862D+03
 0.488178689727176D+02 0.145431797350131D+02 0.164351637200964D+02 -.436069449483240D+02
 0.206470257529020D+03 -.121454194699736D+03 0.550806119238309D+02 -.157622879126207D+03
 0.136292287349532D+03 -.424351902175901D+01 0.564814423463224D+02 0.839772318176685D+02
 0.328529533095207D+03 -.255837479465643D+03 -.199719241828028D+03 0.509024818654153D+02
0.160939110291D-04 0.000000000000D+00 0.000000000000D+00 0.138768662711D-08 0.000000000000D+00  7 -3 3 23 -13 13 23 21 0 0.11706072D-01 0.26537330D+00 0.83070012D+05 0.83070012D+05 0.83070012D+05 0.11283931D+01  1  2  2  1  7  1       -3 0.134920600309D-04 0.100000000000D+01
-.837244072658D-06 0.000000000000D+00 -.618048559758D-07 0.138768662711D-08 0.000000000000D+00  7 -3 3 23 -13 13 23 21 2 0.11706072D-01 0.26537330D+00 0.83070012D+05 0.83070012D+05 0.83070012D+05 0.11283931D+01  1  2  3  1  7  1       -3 -.893695593669D-06 0.100000000000D+01
0.104845772045D-05 0.000000000000D+00 0.000000000000D+00 0.138768662711D-08 0.000000000000D+00  7 -3 3 23 -13 13 23 21 2 0.11706072D-01 0.26537330D+00 0.83070012D+05 0.83070012D+05 0.83070012D+05 0.11283931D+01  1  2 15  1  7  1       -3 0.111915040729D-05 0.100000000000D+01
0.159594264107D-05 0.000000000000D+00 -.515925599921D-05 0.138768662711D-08 0.000000000000D+00  7 -3 3 23 -13 13 23 21 2 0.30089727D-01 0.26537330D+00 0.83070012D+05 0.83070012D+05 0.83070012D+05 0.11283931D+01  1  2  5  1  7  1       -3 0.325110346067D-06 0.100000000000D+01
0.480037380741D-06 0.000000000000D+00 -.538608163629D-06 0.138768662711D-08 0.000000000000D+00  7 21 3 23 -13 13 23 3 2 0.30089727D-01 0.26537330D+00 0.83070012D+05 0.83070012D+05 0.83070012D+05 0.11283931D+01  1  2  5  3  7  1       -3 0.159837871500D-05 0.100000000000D+01
  </mgrwgt>
  </event>
  <event>
  8     66 0.27414828E-05 0.22463258E+03 0.75467711E-02 0.10180198E+00
       -1 -1    0    0    0  501 0.00000000E+00 0.00000000E+00 0.91115969E+02 0.91116531E+02 0.32000000E+00 0.0000E+00 0.9000E+01
        1 -1    0    0  501    0 0.00000000E+00 0.00000000E+00 -.73947736E+03 0.73947743E+03 0.32000000E+00 0.0000E+00 0.9000E+01
       25  2    1    2    0    0 -.11012595E+03 -.46903728E+02 -.26020664E+03 0.41452055E+03 0.29965331E+03 0.0000E+00 0.0000E+00
       23  2    1    2    0    0 0.11012595E+03 0.46903728E+02 -.38815475E+03 0.41607342E+03 0.90140399E+02 0.0000E+00 0.0000E+00
       23  1    3    3    0    0 0.55797606E+02 -.19124780E+02 -.17292120E+03 0.20419629E+03 0.91188000E+02 0.0000E+00 0.9000E+01
      -11  1    4    4    0    0 0.56032396E+02 0.70698534E+02 -.25144703E+03 0.26713952E+03 0.51099893E-03 0.0000E+00 0.9000E+01
       11  1    4    4    0    0 0.54093551E+02 -.23794806E+02 -.13670772E+03 0.14893390E+03 0.51099893E-03 0.0000E+00 0.9000E+01
       23  1    3    3    0    0 -.16592355E+03 -.27778947E+02 -.87285440E+02 0.21032426E+03 0.91188000E+02 0.0000E+00 0.9000E+01
#aMCatNLO 1  0  0  1  1 0.94960232D+02 0.00000000D+00  -5  7  0 0.00000000D+00 0.00000000D+00 0.00000000D+00 0.00000000D+00 0.00000000D+00
  <mgrwgt>
 0.1078814949D-03    4    2    0
 0.259573608783941D+03 0.000000000000000D+00 0.000000000000000D+00 0.259573608783941D+03
 0.259573608783941D+03 0.000000000000000D+00 0.000000000000000D+00 -.259573608783941D+03
 0.110736934077777D+03 0.557976055453362D+02 -.191247804844541D+02 -.216399448191174D+02
 0.113370389765145D+03 0.560323956373154D+02 0.706985340284713D+02 -.686653711915209D+02
 0.675484470522995D+02 0.540935514859623D+02 -.237948061702172D+02 -.327183065902660D+02
 0.227491446672661D+03 -.165923552668614D+03 -.277789473738000D+02 0.123023622600904D+03
 0.000000000000000D+00 0.000000000000000D+00 -.000000000000000D+00 -.000000000000000D+00
 0.280765069014223D+03 0.000000000000000D+00 0.000000000000000D+00 0.280765069014223D+03
 0.397394916408131D+03 0.000000000000000D+00 0.000000000000000D+00 -.397394916408131D+03
 0.105936382980994D+03 0.493829807414305D+02 -.547627987695741D+00 -.216399448191174D+02
 0.124129845339240D+03 0.490011888430759D+02 0.910613463278435D+02 -.686653711915209D+02
 0.613256290160901D+02 0.502782277712084D+02 -.127453913345551D+02 -.327183065902660D+02
 0.236368769521948D+03 -.179656158458463D+03 0.119915333222111D+02 0.123023622600904D+03
 0.150399358564082D+03 0.309937611027478D+02 -.897598603278038D+02 -.116629847393908D+03
0.117406282344D-05 0.000000000000D+00 0.000000000000D+00 0.817194073465D-07 0.000000000000D+00  7 -1 1 23 -11 11 23 21 0 0.14017890D-01 0.11376580D+00 0.50459797D+05 0.50459797D+05 0.50459797D+05 0.11469459D+01  1  2  2  1  7  1       -1 0.120174155612D-03 0.100000000000D+01
-.635681035477D-07 0.000000000000D+00 -.450871037985D-08 0.817194073465D-07 0.000000000000D+00  7 -1 1 23 -11 11 23 21 2 0.14017890D-01 0.11376580D+00 0.50459797D+05 0.50459797D+05 0.50459797D+05 0.11469459D+01  1  2  3  1  7  1       -1 -.855942994656D-05 0.100000000000D+01
0.747373484152D-07 0.000000000000D+00 0.000000000000D+00 0.817194073465D-07 0.000000000000D+00  7 -1 1 23 -11 11 23 21 2 0.14017890D-01 0.11376580D+00 0.50459797D+05 0.50459797D+05 0.50459797D+05 0.11469459D+01  1  2 15  1  7  1       -1 0.100633660979D-04 0.100000000000D+01
-.102462839285D-06 0.000000000000D+00 0.000000000000D+00 0.817194073465D-07 0.000000000000D+00  7 -1 1 23 -11 11 23 21 2 0.14017890D-01 0.11376580D+00 0.50459797D+05 0.50459797D+05 0.50459797D+05 0.11469459D+01  1  2  4  1  7  1       -1 -.137965968157D-04 0.100000000000D+01
  </mgrwgt>
  </event>
  <event>
  8     66 0.27414828E-05 0.32477524E+03 0.75467711E-02 0.92053413E-01
       -1 -1    0    0    0  501 0.00000000E+00 0.00000000E+00 0.22610563E+03 0.22610586E+03 0.32000000E+00 0.0000E+00 0.9000E+01
        1 -1    0    0  501    0 0.00000000E+00 0.00000000E+00 -.25673840E+04 0.25673840E+04 0.32000000E+00 0.0000E+00 0.9000E+01
       25  2    1    2    0    0 -.48750730E+02 0.25003199E+03 -.24654086E+04 0.24966007E+04 0.29980449E+03 0.0000E+00 0.0000E+00
       23  2    1    2    0    0 0.48750730E+02 -.25003199E+03 0.12413024E+03 0.29688919E+03 0.88556422E+02 0.0000E+00 0.0000E+00
       23  1    3    3    0    0 0.53309883E+02 0.23185086E+03 -.15336809E+04 0.15546991E+04 0.91188000E+02 0.0000E+00 0.9000E+01
      -13  1    4    4    0    0 0.11120426E+01 -.83161535E+02 -.61004716E+00 0.83171274E+02 0.10565837E+00 0.0000E+00 0.9000E+01
       13  1    4    4    0    0 0.47638687E+02 -.16687046E+03 0.12474029E+03 0.21371791E+03 0.10565837E+00 0.0000E+00 0.9000E+01
       23  1    3    3    0    0 -.10206061E+03 0.18181136E+02 -.93172767E+03 0.94190160E+03 0.91188000E+02 0.0000E+00 0.9000E+01
#aMCatNLO 1  0  0  2  2 0.55106807D+03 0.00000000D+00  -5  7  0 0.00000000D+00 0.00000000D+00 0.00000000D+00 0.00000000D+00 0.00000000D+00
  <mgrwgt>
 0.2390219430D-03    6    2    0
 0.761905712493122D+03 0.000000000000000D+00 0.000000000000000D+00 0.761905712493122D+03
 0.761905712493122D+03 0.000000000000000D+00 0.000000000000000D+00 -.761905712493122D+03
 0.493671409200610D+03 0.533098825274558D+02 0.231850857832940D+03 -.422846834048873D+03
 0.151533766304990D+03 0.111197636672601D+01 -.831614158128819D+02 0.126670536270801D+03
 0.583452444087728D+03 0.476387533976051D+02 -.166870578321678D+03 0.557047137841363D+03
 0.295153805392916D+03 -.102060612291787D+03 0.181811363016200D+02 -.260870840063291D+03
 0.000000000000000D+00 0.000000000000000D+00 -.000000000000000D+00 -.000000000000000D+00
 0.106520399606639D+04 0.000000000000000D+00 0.000000000000000D+00 0.106520399606639D+04
 0.110791059951788D+04 0.000000000000000D+00 0.000000000000000D+00 -.110791059951788D+04
 0.608109339149151D+03 0.467946798094176D+02 0.424844124230048D+03 -.422846834048873D+03
 0.131067561667696D+03 -.559140997492395D+00 -.336595948241788D+02 0.126670536270801D+03
 0.559539388038801D+03 0.408798555837525D+02 0.333414216408481D+02 0.557047137841363D+03
 0.321677882899510D+03 -.105708146974304D+03 0.126228370308115D+03 -.260870840063291D+03
 0.552720423829114D+03 0.185927525786258D+02 -.550754321354833D+03 -.427066034514963D+02
0.152182080158D-03 0.000000000000D+00 0.000000000000D+00 0.101749925802D-05 0.000000000000D+00  7 -1 1 23 -13 13 23 21 0 0.34785500D-01 0.39498217D+00 0.10547896D+06 0.10547896D+06 0.10547896D+06 0.11198260D+01  1  2  2  2  7  2        1 0.191342682077D-03 0.100000000000D+01
-.980539588037D-06 0.000000000000D+00 -.584419258268D-06 0.101749925802D-05 0.000000000000D+00  7 -1 1 23 -13 13 23 21 2 0.34785500D-01 0.39498217D+00 0.10547896D+06 0.10547896D+06 0.10547896D+06 0.11198260D+01  1  2  3  2  7  2        1 -.154601797511D-05 0.100000000000D+01
0.936757480173D-05 0.000000000000D+00 0.000000000000D+00 0.101749925802D-05 0.000000000000D+00  7 -1 1 23 -13 13 23 21 2 0.34785500D-01 0.39498217D+00 0.10547896D+06 0.10547896D+06 0.10547896D+06 0.11198260D+01  1  2 15  2  7  2        1 0.147698667176D-04 0.100000000000D+01
-.340120539879D-05 0.000000000000D+00 -.375913110151D-04 0.101749925802D-05 0.000000000000D+00  7 -1 1 23 -13 13 23 21 2 0.34785500D-01 0.62704695D+00 0.10547896D+06 0.10547896D+06 0.10547896D+06 0.11198260D+01  1  2  5  2  7  2        1 -.341828791479D-06 0.100000000000D+01
0.220627005183D-04 0.000000000000D+00 0.339051326275D-04 0.101749925802D-05 0.000000000000D+00  7 -1 1 23 -13 13 23 21 2 0.34785500D-01 0.39498217D+00 0.10547896D+06 0.10547896D+06 0.10547896D+06 0.11198260D+01  1  2  6  2  7  2        1 0.347862870575D-04 0.100000000000D+01
0.136559695883D-05 0.000000000000D+00 -.199360126502D-05 0.101749925802D-05 0.000000000000D+00  7 -1 21 23 -13 13 23 -1 2 0.34785500D-01 0.62704695D+00 0.10547896D+06 0.10547896D+06 0.10547896D+06 0.11198260D+01  1  2  5  4  7  2        1 0.109539593668D-07 0.100000000000D+01
  </mgrwgt>
  </event>
  <event>
  8     66 0.27414828E-05 0.19809732E+03 0.75467711E-02 0.96402842E-01
       -3 -1    0    0    0  501 0.00000000E+00 0.00000000E+00 0.18356453E+03 0.18356521E+03 0.50000000E+00 0.0000E+00 0.9000E+01
        3 -1    0    0  501    0 0.00000000E+00 0.00000000E+00 -.10530049E+04 0.10530050E+04 0.50000000E+00 0.0000E+00 0.9000E+01
       25  2    1    2    0    0 0.28553122E+03 0.17865833E+03 -.73746261E+03 0.86447471E+03 0.30003091E+03 0.0000E+00 0.0000E+00
       23  2    1    2    0    0 -.28553122E+03 -.17865833E+03 -.13197774E+03 0.37209551E+03 0.87120978E+02 0.0000E+00 0.0000E+00
       23  1    3    3    0    0 0.17585179E+02 0.12009636E+03 -.34627491E+03 0.37809250E+03 0.91188000E+02 0.0000E+00 0.9000E+01
      -11  1    4    4    0    0 -.89076817E+02 -.26070187E+02 -.68551762E+02 0.11538491E+03 0.51099893E-03 0.0000E+00 0.9000E+01
       11  1    4    4    0    0 -.19645440E+03 -.15258814E+03 -.63425977E+02 0.25671059E+03 0.51099893E-03 0.0000E+00 0.9000E+01
       23  1    3    3    0    0 0.26794604E+03 0.58561971E+02 -.39118771E+03 0.48638221E+03 0.91188000E+02 0.0000E+00 0.9000E+01
#aMCatNLO 1  0  0  2  1 0.70345325D+02 0.00000000D+00  -5  7  0 0.00000000D+00 0.00000000D+00 0.00000000D+00 0.00000000D+00 0.00000000D+00
  <mgrwgt>
 0.2282463267D-04    9    2    0
 0.439653095432189D+03 0.000000000000000D+00 0.000000000000000D+00 0.439653095432189D+03
 0.439653095432189D+03 0.000000000000000D+00 0.000000000000000D+00 -.439653095432189D+03
 0.189322611568906D+03 0.175851791777685D+02 0.120096357878377D+03 -.113116869674269D+03
 0.944834449701279D+02 -.890768166283868D+02 -.260701870292805D+02 0.176857982865989D+02
 0.298298332670197D+03 -.196454404844245D+03 -.152588141881413D+03 0.164634203761826D+03
 0.297201801655147D+03 0.267946042294863D+03 0.585619710323169D+02 -.692031323741562D+02
 0.000000000000000D+00 0.000000000000000D+00 0.000000000000000D+00 -.000000000000000D+00
 0.476152365453129D+03 0.000000000000000D+00 0.000000000000000D+00 0.476152365453129D+03
 0.476308682810990D+03 0.000000000000000D+00 0.000000000000000D+00 -.476308682810990D+03
 0.183928345344172D+03 0.465332494379521D+01 0.112682319993453D+03 -.113116869674269D+03
 0.102004924493105D+03 -.958844587938196D+02 -.299731166485248D+02 0.176857982865989D+02
 0.318957590903762D+03 -.217840186932337D+03 -.164848951176905D+03 0.164634203761826D+03
 0.277224688435584D+03 0.248044151890022D+03 0.471519004598032D+02 -.692031323741562D+02
 0.703454990874965D+02 0.610271688923394D+02 0.349878473721732D+02 -.156317357861123D+00
0.878652790762D-05 0.000000000000D+00 0.000000000000D+00 0.103181054574D-06 0.000000000000D+00  7 -3 3 23 -11 11 23 21 0 0.28240759D-01 0.16200081D+00 0.15304225D+06 0.15304225D+06 0.15304225D+06 0.11068644D+01  1  2  2  2  7  2        3 0.110325861342D-04 0.100000000000D+01
-.480050411483D-06 0.000000000000D+00 -.337425807112D-07 0.103181054574D-06 0.000000000000D+00  7 -3 3 23 -11 11 23 21 2 0.28240759D-01 0.16200081D+00 0.15304225D+06 0.15304225D+06 0.15304225D+06 0.11068644D+01  1  2  3  2  7  2        3 -.738474888870D-06 0.100000000000D+01
0.564974763293D-06 0.000000000000D+00 0.000000000000D+00 0.103181054574D-06 0.000000000000D+00  7 -3 3 23 -11 11 23 21 2 0.28240759D-01 0.16200081D+00 0.15304225D+06 0.15304225D+06 0.15304225D+06 0.11068644D+01  1  2 15  2  7  2        3 0.869116379356D-06 0.100000000000D+01
0.997924843215D-05 0.000000000000D+00 0.000000000000D+00 0.103181054574D-06 0.000000000000D+00  7 -3 3 23 -11 11 23 21 2 0.28240759D-01 0.18169326D+00 0.18381344D+06 0.18381344D+06 0.18381344D+06 0.11006516D+01  1  2 12  2  7  2        3 0.104490742983D-04 0.100000000000D+01
-.791746152051D-05 0.000000000000D+00 0.000000000000D+00 0.103181054574D-06 0.000000000000D+00  7 -3 3 23 -11 11 23 21 2 0.28240759D-01 0.16200081D+00 0.15304225D+06 0.15304225D+06 0.15304225D+06 0.11068644D+01  1  2  4  2  7  2        3 -.121796510879D-04 0.100000000000D+01
-.323051631315D-04 0.000000000000D+00 -.796613948883D-05 0.103181054574D-06 0.000000000000D+00  7 -3 3 23 -11 11 23 21 2 0.28240759D-01 0.18559622D+00 0.15304225D+06 0.15304225D+06 0.15304225D+06 0.11068644D+01  1  2  5  2  7  2        3 -.319614705613D-04 0.100000000000D+01
0.331544542608D-04 0.000000000000D+00 0.789306192679D-05 0.103181054574D-06 0.000000000000D+00  7 -3 3 23 -11 11 23 21 2 0.28240759D-01 0.16200081D+00 0.15304225D+06 0.15304225D+06 0.15304225D+06 0.11068644D+01  1  2  6  2  7  2        3 0.510024183713D-04 0.100000000000D+01
0.182287638359D-06 0.000000000000D+00 0.000000000000D+00 0.103181054574D-06 0.000000000000D+00  7 -3 21 23 -11 11 23 -3 2 0.28240759D-01 0.18169326D+00 0.18381344D+06 0.18381344D+06 0.18381344D+06 0.11006516D+01  1  2 12  4  7  2        3 0.243569688468D-05 0.100000000000D+01
-.633831381390D-06 0.000000000000D+00 -.167714216029D-06 0.103181054574D-06 0.000000000000D+00  7 -3 21 23 -11 11 23 -3 2 0.28240759D-01 0.18559622D+00 0.15304225D+06 0.15304225D+06 0.15304225D+06 0.11068644D+01  1  2  5  4  7  2        3 -.808466286046D-05 0.100000000000D+01
  </mgrwgt>
  </event>
  <event>
  8     66 0.27414828E-05 0.24811875E+03 0.75467711E-02 0.10097164E+00
       -3 -1    0    0    0  501 0.00000000E+00 0.00000000E+00 0.47807925E+03 0.47807951E+03 0.50000000E+00 0.0000E+00 0.9000E+01
        3 -1    0    0  501    0 0.00000000E+00 0.00000000E+00 -.21206886E+03 0.21206945E+03 0.50000000E+00 0.0000E+00 0.9000E+01
       25  2    1    2    0    0 0.42553461E+02 0.15118594E+03 0.35418386E+03 0.48843291E+03 0.29740968E+03 0.0000E+00 0.0000E+00
       23  2    1    2    0    0 -.42553461E+02 -.15118594E+03 -.88173476E+02 0.20171605E+03 0.90811996E+02 0.0000E+00 0.0000E+00
       23  1    3    3    0    0 -.75829521E+02 0.10045901E+02 0.19499344E+03 0.22844852E+03 0.91188000E+02 0.0000E+00 0.9000E+01
      -11  1    4    4    0    0 -.17946593E+01 -.12083573E+03 -.30087092E+02 0.12453805E+03 0.51099893E-03 0.0000E+00 0.9000E+01
       11  1    4    4    0    0 -.40758802E+02 -.30350209E+02 -.58086384E+02 0.77177997E+02 0.51099893E-03 0.0000E+00 0.9000E+01
       23  1    3    3    0    0 0.11838298E+03 0.14114004E+03 0.15919042E+03 0.25998439E+03 0.91188000E+02 0.0000E+00 0.9000E+01
#aMCatNLO 1  0  0  1  1 0.10169596D+03 0.00000000D+00  -5  7  0 0.00000000D+00 0.00000000D+00 0.00000000D+00 0.00000000D+00 0.00000000D+00
  <mgrwgt>
 0.2220111917D-04    4    2    0
 0.318411709778182D+03 0.000000000000000D+00 0.000000000000000D+00 0.318411709778182D+03
 0.318411709778182D+03 0.000000000000000D+00 0.000000000000000D+00 -.318411709778182D+03
 0.166126480328485D+03 -.758295210306583D+02 0.100459008246546D+02 0.115895296449911D+03
 0.147534284963588D+03 -.179465929715687D+01 -.120835727048289D+03 -.846278412015555D+02
 0.107904159363225D+03 -.407588020914313D+02 -.303502093602979D+02 -.951887201917427D+02
 0.215258494901066D+03 0.118382982419246D+03 0.141140035583933D+03 0.639212649433872D+02
 0.000000000000000D+00 -.000000000000000D+00 -.000000000000000D+00 -.000000000000000D+00
 0.347075150002189D+03 0.000000000000000D+00 0.000000000000000D+00 0.347075150002189D+03
 0.427424840632230D+03 0.000000000000000D+00 0.000000000000000D+00 -.427424840632230D+03
 0.158860889416914D+03 -.540477404393041D+02 0.238464432678333D+02 0.115895296449911D+03
 0.138833977909624D+03 0.173987348187997D+02 -.108675139486818D+03 -.846278412015555D+02
 0.101179197508485D+03 -.267453104032736D+02 -.214715143423013D+02 -.951887201917427D+02
 0.246018280215600D+03 0.149299351616455D+03 0.160728088245909D+03 0.639212649433872D+02
 0.129607645583796D+03 -.859050355926775D+02 -.544278776846229D+02 -.803496906300415D+02
0.418135092702D-05 0.000000000000D+00 0.000000000000D+00 0.226704171440D-07 0.000000000000D+00  7 -3 3 23 -11 11 23 21 0 0.73550719D-01 0.32626045D-01 0.61562913D+05 0.61562913D+05 0.61562913D+05 0.11394321D+01  1  2  2  1  7  1       -3 0.276996554446D-04 0.100000000000D+01
-.214724105211D-06 0.000000000000D+00 -.160574885348D-07 0.226704171440D-07 0.000000000000D+00  7 -3 3 23 -11 11 23 21 2 0.73550719D-01 0.32626045D-01 0.61562913D+05 0.61562913D+05 0.61562913D+05 0.11394321D+01  1  2  3  1  7  1       -3 -.184678125476D-05 0.100000000000D+01
0.256576383999D-06 0.000000000000D+00 0.000000000000D+00 0.226704171440D-07 0.000000000000D+00  7 -3 3 23 -11 11 23 21 2 0.73550719D-01 0.32626045D-01 0.61562913D+05 0.61562913D+05 0.61562913D+05 0.11394321D+01  1  2 15  1  7  1       -3 0.220674085901D-05 0.100000000000D+01
-.681163663570D-06 0.000000000000D+00 0.000000000000D+00 0.226704171440D-07 0.000000000000D+00  7 -3 3 23 -11 11 23 21 2 0.73550719D-01 0.32626045D-01 0.61562913D+05 0.61562913D+05 0.61562913D+05 0.11394321D+01  1  2  4  1  7  1       -3 -.585849587809D-05 0.100000000000D+01
  </mgrwgt>
  </event>
  <event>
  8     66 0.27414828E-05 0.21715947E+03 0.75467711E-02 0.88672833E-01
       -1 -1    0    0    0  501 0.00000000E+00 0.00000000E+00 0.35511272E+03 0.35511286E+03 0.32000000E+00 0.0000E+00 0.9000E+01
        1 -1    0    0  501    0 0.00000000E+00 0.00000000E+00 -.23632856E+03 0.23632878E+03 0.32000000E+00 0.0000E+00 0.9000E+01
       25  2    1    2    0    0 0.11518547E+03 -.84254082E+02 0.21719457E+03 0.39666626E+03 0.29967349E+03 0.0000E+00 0.0000E+00
       23  2    1    2    0    0 -.11518547E+03 0.84254082E+02 -.98410406E+02 0.19477538E+03 0.88805384E+02 0.0000E+00 0.0000E+00
       23  1    3    3    0    0 0.96651859E+02 -.10980031E+03 0.15490977E+02 0.17306909E+03 0.91188000E+02 0.0000E+00 0.9000E+01
      -11  1    4    4    0    0 -.13153205E+02 0.58849834E+02 -.52842209E+02 0.80178606E+02 0.51099893E-03 0.0000E+00 0.9000E+01
       11  1    4    4    0    0 -.10203227E+03 0.25404247E+02 -.45568197E+02 0.11459677E+03 0.51099893E-03 0.0000E+00 0.9000E+01
       23  1    3    3    0    0 0.18533613E+02 0.25546225E+02 0.20170359E+03 0.22359717E+03 0.91188000E+02 0.0000E+00 0.9000E+01
#aMCatNLO 1  0  0  1  1 0.84056319D+03 0.00000000D+00  -5  7  0 0.00000000D+00 0.00000000D+00 0.00000000D+00 0.00000000D+00 0.00000000D+00
  <mgrwgt>
 0.1750015266D-03    3    2    0
 0.289695329141672D+03 0.000000000000000D+00 0.000000000000000D+00 0.289695329141672D+03
 0.289695329141672D+03 0.000000000000000D+00 0.000000000000000D+00 -.289695329141672D+03
 0.173492933954632D+03 0.966518590880179D+02 -.109800306804082D+03 -.196686946375591D+02
 0.926797536220847D+02 -.131532048204195D+02 0.588498343727103D+02 -.703791654448032D+02
 0.126322509826148D+03 -.102032267228032D+03 0.254042474986433D+02 -.700101217118803D+02
 0.186895460880480D+03 0.185336129604340D+02 0.255462249327289D+02 0.160057981794243D+03
 0.000000000000000D+00 -.000000000000000D+00 0.000000000000000D+00 -.000000000000000D+00
 0.772901442415778D+03 0.000000000000000D+00 0.000000000000000D+00 0.772901442415778D+03
 0.118347868600259D+04 0.000000000000000D+00 0.000000000000000D+00 -.118347868600259D+04
 0.517895321964891D+03 0.340486832860878D+03 -.378922382908084D+03 -.196686946375591D+02
 0.872213052925142D+02 0.502933024156782D+02 -.111764439938703D+02 -.703791654448032D+02
 0.958818471551771D+02 -.236664675592233D+02 -.610885405378512D+02 -.700101217118803D+02
 0.319903090370310D+03 0.197268513928645D+03 -.171724522887131D+03 0.160057981794243D+03
 0.935478563635477D+03 -.564382181645978D+03 0.622911890326936D+03 -.410577243586812D+03
0.339182682479D-05 0.000000000000D+00 0.000000000000D+00 0.534427801970D-07 0.000000000000D+00  7 -1 1 23 -11 11 23 21 0 0.54632754D-01 0.36358268D-01 0.47158233D+05 0.47158233D+05 0.47158233D+05 0.11495374D+01  1  2  2  1  7  1       -1 0.172037803458D-03 0.100000000000D+01
-.169405467596D-06 0.000000000000D+00 -.130255080957D-07 0.534427801970D-07 0.000000000000D+00  7 -1 1 23 -11 11 23 21 2 0.54632754D-01 0.36358268D-01 0.47158233D+05 0.47158233D+05 0.47158233D+05 0.11495374D+01  1  2  3  1  7  1       -1 -.113543909288D-04 0.100000000000D+01
0.213623682660D-06 0.000000000000D+00 0.000000000000D+00 0.534427801970D-07 0.000000000000D+00  7 -1 1 23 -11 11 23 21 2 0.54632754D-01 0.36358268D-01 0.47158233D+05 0.47158233D+05 0.47158233D+05 0.11495374D+01  1  2 15  1  7  1       -1 0.143181140431D-04 0.100000000000D+01
  </mgrwgt>
  </event>
  <event>
  8     66 0.27414828E-05 0.34134849E+03 0.75467711E-02 0.96109988E-01
       -3 -1    0    0    0  501 0.00000000E+00 0.00000000E+00 0.52043387E+03 0.52043411E+03 0.50000000E+00 0.0000E+00 0.9000E+01
        3 -1    0    0  501    0 0.00000000E+00 0.00000000E+00 -.25593852E+03 0.25593901E+03 0.50000000E+00 0.0000E+00 0.9000E+01
       25  2    1    2    0    0 0.27742089E+03 -.78014907E+02 0.89685659E+02 0.42513125E+03 0.29940673E+03 0.0000E+00 0.0000E+00
       23  2    1    2    0    0 -.27742089E+03 0.78014907E+02 0.17480969E+03 0.35124186E+03 0.98811660E+02 0.0000E+00 0.0000E+00
       23  1    3    3    0    0 0.84999459E+02 -.10555058E+03 0.12738028E+03 0.20713961E+03 0.91188000E+02 0.0000E+00 0.9000E+01
      -13  1    4    4    0    0 -.23736043E+03 0.10156338E+03 0.14891238E+03 0.29804363E+03 0.10565837E+00 0.0000E+00 0.9000E+01
       13  1    4    4    0    0 -.40060450E+02 -.23548472E+02 0.25897314E+02 0.53198235E+02 0.10565837E+00 0.0000E+00 0.9000E+01
       23  1    3    3    0    0 0.19242143E+03 0.27535673E+02 -.37694620E+02 0.21799164E+03 0.91188000E+02 0.0000E+00 0.9000E+01
#aMCatNLO 1  0  0  1  2 0.17717951D+03 0.00000000D+00  -5  7  0 0.00000000D+00 0.00000000D+00 0.00000000D+00 0.00000000D+00 0.00000000D+00
  <mgrwgt>
 0.2457549895D-04    4    2    0
 0.364964869072711D+03 0.000000000000000D+00 0.000000000000000D+00 0.364964869072711D+03
 0.364964869072711D+03 0.000000000000000D+00 0.000000000000000D+00 -.364964869072711D+03
 0.174162157672324D+03 0.849994632737088D+02 -.105550581873685D+03 0.604265813230179D+02
 0.263048067971595D+03 -.237360668344588D+03 0.101563503527704D+03 0.503890259657556D+02
 0.471987543663046D+02 -.400602276882332D+02 -.235485933269274D+02 0.826827210610947D+01
 0.245520758135199D+03 0.192421432759112D+03 0.275356716729087D+02 -.119083879394883D+03
 0.000000000000000D+00 0.000000000000000D+00 0.000000000000000D+00 -.000000000000000D+00
 0.407887284372570D+03 0.000000000000000D+00 0.000000000000000D+00 0.407887284372570D+03
 0.618356317787369D+03 0.000000000000000D+00 0.000000000000000D+00 -.618356317787369D+03
 0.191846386642381D+03 0.640505727235483D+02 -.143999781691279D+03 0.604265813230179D+02
 0.276603972930286D+03 -.268248230166926D+03 0.448730533321803D+02 0.503890259657556D+02
 0.582410934524465D+02 -.460951901662713D+02 -.346250499848191D+02 0.826827210610947D+01
 0.224434369504704D+03 0.165523048321535D+03 -.218331173584012D+02 -.119083879394883D+03
 0.275117779630122D+03 0.847697992881138D+02 0.155584895702319D+03 -.210469033414800D+03
0.710205968800D-05 0.000000000000D+00 0.000000000000D+00 0.896226792183D-08 0.000000000000D+00  7 -3 3 23 -13 13 23 21 0 0.80066805D-01 0.39375213D-01 0.11651879D+06 0.11651879D+06 0.11651879D+06 0.11163139D+01  1  2  2  1  7  1       -3 0.270656418256D-04 0.100000000000D+01
-.392411985349D-06 0.000000000000D+00 -.272737792172D-07 0.896226792183D-08 0.000000000000D+00  7 -3 3 23 -13 13 23 21 2 0.80066805D-01 0.39375213D-01 0.11651879D+06 0.11651879D+06 0.11651879D+06 0.11163139D+01  1  2  3  1  7  1       -3 -.186358376346D-05 0.100000000000D+01
0.463227204467D-06 0.000000000000D+00 0.000000000000D+00 0.896226792183D-08 0.000000000000D+00  7 -3 3 23 -13 13 23 21 2 0.80066805D-01 0.39375213D-01 0.11651879D+06 0.11651879D+06 0.11651879D+06 0.11163139D+01  1  2 15  1  7  1       -3 0.219988871204D-05 0.100000000000D+01
-.595160799608D-06 0.000000000000D+00 0.000000000000D+00 0.896226792183D-08 0.000000000000D+00  7 -3 3 23 -13 13 23 21 2 0.80066805D-01 0.39375213D-01 0.11651879D+06 0.11651879D+06 0.11651879D+06 0.11163139D+01  1  2  4  1  7  1       -3 -.282644782578D-05 0.100000000000D+01
  </mgrwgt>
  </event>
  <event>
  8     66 0.27414828E-05 0.11106254E+03 0.75467711E-02 0.10426886E+00
       -1 -1    0    0    0  501 0.00000000E+00 0.00000000E+00 0.19056443E+03 0.19056470E+03 0.32000000E+00 0.0000E+00 0.9000E+01
        1 -1    0    0  501    0 0.00000000E+00 0.00000000E+00 -.42950654E+03 0.42950666E+03 0.32000000E+00 0.0000E+00 0.9000E+01
       25  2    1    2    0    0 -.14774681E+03 -.36675420E+02 -.28034942E+03 0.43785325E+03 0.29990910E+03 0.0000E+00 0.0000E+00
       23  2    1    2    0    0 0.14774681E+03 0.36675420E+02 0.41407313E+02 0.18221811E+03 0.91184798E+02 0.0000E+00 0.0000E+00
       23  1    3    3    0    0 -.98476705E+02 0.70390767E+02 -.42880403E+02 0.15750080E+03 0.91188000E+02 0.0000E+00 0.9000E+01
      -11  1    4    4    0    0 0.59642770E+02 -.12168517E+02 -.20199849E+02 0.64135534E+02 0.51099893E-03 0.0000E+00 0.9000E+01
       11  1    4    4    0    0 0.88104038E+02 0.48843937E+02 0.61607162E+02 0.11808257E+03 0.51099893E-03 0.0000E+00 0.9000E+01
       23  1    3    3    0    0 -.49270103E+02 -.10706619E+03 -.23746902E+03 0.28035246E+03 0.91188000E+02 0.0000E+00 0.9000E+01
#aMCatNLO 1  0  0  2  1 0.68639123D+00 0.00000000D+00  -5  7  0 0.00000000D+00 0.00000000D+00 0.00000000D+00 0.00000000D+00 0.00000000D+00
  <mgrwgt>
 0.1920875511D-03   11    2    0
 0.286092276084048D+03 0.000000000000000D+00 0.000000000000000D+00 0.286092276084048D+03
 0.286092276084048D+03 0.000000000000000D+00 0.000000000000000D+00 -.286092276084048D+03
 0.152775535436924D+03 -.984767052026158D+02 0.703907669886213D+02 0.193026251901053D+02
 0.610677327888638D+02 0.596427700055207D+02 -.121685169206078D+02 0.489235832636015D+01
 0.153691964102419D+03 0.881040378287660D+02 0.488439372090553D+02 0.116073977039836D+03
 0.204649319839889D+03 -.492701026316709D+02 -.107066187277069D+03 -.140268960556302D+03
 0.000000000000000D+00 -.000000000000000D+00 -.000000000000000D+00 -.000000000000000D+00
 0.286128077353404D+03 0.000000000000000D+00 0.000000000000000D+00 0.286128077353404D+03
 0.289401425215322D+03 0.000000000000000D+00 0.000000000000000D+00 -.289401425215322D+03
 0.152758710128572D+03 -.983534772279572D+02 0.705264089124419D+02 0.193026251901053D+02
 0.611050825217635D+02 0.596920447064997D+02 -.121142783010494D+02 0.489235832636015D+01
 0.153806511442955D+03 0.882280580160348D+02 0.489804511527465D+02 0.116073977039836D+03
 0.204514659771300D+03 -.491050787456662D+02 -.106884538934344D+03 -.140268960556302D+03
 0.334453870413573D+01 -.461546748910994D+00 -.508042829794831D+00 -.327334786191838D+01
0.159428180273D-05 0.000000000000D+00 0.000000000000D+00 0.458967072629D-06 0.000000000000D+00  7 -1 1 23 -11 11 23 21 0 0.29317635D-01 0.66077960D-01 0.53401862D+05 0.53401862D+05 0.53401862D+05 0.11447894D+01  1  2  2  2  7  2        1 0.108113646142D-03 0.100000000000D+01
-.836618316598D-07 0.000000000000D+00 -.612246190652D-08 0.458967072629D-06 0.000000000000D+00  7 -1 1 23 -11 11 23 21 2 0.29317635D-01 0.66077960D-01 0.53401862D+05 0.53401862D+05 0.53401862D+05 0.11447894D+01  1  2  3  2  7  2        1 -.743522290011D-05 0.100000000000D+01
0.984537046036D-07 0.000000000000D+00 0.000000000000D+00 0.458967072629D-06 0.000000000000D+00  7 -1 1 23 -11 11 23 21 2 0.29317635D-01 0.66077960D-01 0.53401862D+05 0.53401862D+05 0.53401862D+05 0.11447894D+01  1  2 15  2  7  2        1 0.874981128845D-05 0.100000000000D+01
0.222098608581D-11 0.000000000000D+00 0.000000000000D+00 0.458967072629D-06 0.000000000000D+00  7 -1 1 23 -11 11 23 21 2 0.29317635D-01 0.66846375D-01 0.53562957D+05 0.53562957D+05 0.53562957D+05 0.11446751D+01  1  2 12  2  7  2        1 0.194311897604D-09 0.100000000000D+01
-.828077713207D-03 0.000000000000D+00 0.000000000000D+00 0.458967072629D-06 0.000000000000D+00  7 -1 1 23 -11 11 23 21 2 0.29317635D-01 0.66077960D-01 0.53401862D+05 0.53401862D+05 0.53401862D+05 0.11447894D+01  1  2  4  2  7  2        1 -.735932055772D-01 0.100000000000D+01
-.957858884848D-03 0.000000000000D+00 -.176550210714D-04 0.458967072629D-06 0.000000000000D+00  7 -1 1 23 -11 11 23 21 2 0.29317635D-01 0.66846306D-01 0.53401862D+05 0.53401862D+05 0.53401862D+05 0.11447894D+01  1  2  5  2  7  2        1 -.838201719507D-01 0.100000000000D+01
0.958000150598D-03 0.000000000000D+00 0.176538413245D-04 0.458967072629D-06 0.000000000000D+00  7 -1 1 23 -11 11 23 21 2 0.29317635D-01 0.66077960D-01 0.53401862D+05 0.53401862D+05 0.53401862D+05 0.11447894D+01  1  2  6  2  7  2        1 0.851397168425D-01 0.100000000000D+01
0.828140976638D-03 0.000000000000D+00 0.000000000000D+00 0.458967072629D-06 0.680823406604D-05  7 -1 1 23 -11 11 23 21 2 0.29321303D-01 0.66842265D-01 0.53562957D+05 0.53562957D+05 0.53562957D+05 0.11446751D+01  1  2 11  2  7  2        1 0.724442483419D-01 0.100000000000D+01
0.281816890534D-12 0.000000000000D+00 0.000000000000D+00 0.458967072629D-06 0.000000000000D+00  7 -1 21 23 -11 11 23 -1 2 0.29317635D-01 0.66846375D-01 0.53562957D+05 0.53562957D+05 0.53562957D+05 0.11446751D+01  1  2 12  4  7  2        1 0.869876764760D-10 0.100000000000D+01
-.203988436648D-05 0.000000000000D+00 -.376147206336D-07 0.458967072629D-06 0.000000000000D+00  7 -1 21 23 -11 11 23 -1 2 0.29317635D-01 0.66846306D-01 0.53401862D+05 0.53401862D+05 0.53401862D+05 0.11447894D+01  1  2  5  4  7  2        1 -.629848287490D-03 0.100000000000D+01
0.175579296021D-05 0.000000000000D+00 0.000000000000D+00 0.458967072629D-06 0.144181950032D-07  7 -1 21 23 -11 11 23 -1 2 0.29321303D-01 0.66842265D-01 0.53562957D+05 0.53562957D+05 0.53562957D+05 0.11446751D+01  1  2 11  4  7  2        1 0.541919666380D-03 0.100000000000D+01
  </mgrwgt>
  </event>
  <event>
  8     66 0.27414828E-05 0.43137509E+03 0.75467711E-02 0.89996506E-01
       -1 -1    0    0    0  501 0.00000000E+00 0.00000000E+00 0.63100256E+03 0.63100264E+03 0.32000000E+00 0.0000E+00 0.9000E+01
        1 -1    0    0  501    0 0.00000000E+00 0.00000000E+00 -.16788388E+04 0.16788389E+04 0.32000000E+00 0.0000E+00 0.9000E+01
       25  2    1    2    0    0 -.69380106E+03 -.23016552E+03 -.13082920E+04 0.15284090E+04 0.30011668E+03 0.0000E+00 0.0000E+00
       23  2    1    2    0    0 0.69380106E+03 0.23016552E+03 0.26045575E+03 0.78143249E+03 0.91997077E+02 0.0000E+00 0.0000E+00
       23  1    3    3    0    0 -.61772950E+02 0.33166679E+01 -.17483254E+03 0.20666051E+03 0.91188000E+02 0.0000E+00 0.9000E+01
      -13  1    4    4    0    0 0.67250360E+03 0.21228997E+03 0.26479820E+03 0.75329026E+03 0.10565837E+00 0.0000E+00 0.9000E+01
       13  1    4    4    0    0 0.21297458E+02 0.17875550E+02 -.43424424E+01 0.28142227E+02 0.10565837E+00 0.0000E+00 0.9000E+01
       23  1    3    3    0    0 -.63202811E+03 -.23348218E+03 -.11334595E+04 0.13217485E+04 0.91188000E+02 0.0000E+00 0.9000E+01
#aMCatNLO 1  0  0  2  1 0.13228543D+02 0.00000000D+00  -5  7  0 0.00000000D+00 0.00000000D+00 0.00000000D+00 0.00000000D+00 0.00000000D+00
  <mgrwgt>
 0.4502671911D-03    9    2    0
 0.102924814433708D+04 0.000000000000000D+00 0.000000000000000D+00 0.102924814433708D+04
 0.102924814433708D+04 0.000000000000000D+00 0.000000000000000D+00 -.102924814433708D+04
 0.142899041295523D+03 -.617729495896188D+02 0.331666789947167D+01 -.909834439457117D+02
 0.980059512402462D+03 0.672504462699444D+03 0.212290221462064D+03 0.680578619537428D+03
 0.293667447618525D+02 0.212965985302517D+02 0.178752937033535D+02 0.945169106392737D+01
 0.906170990214326D+03 -.632028111640077D+03 -.233482183064889D+03 -.599046866655644D+03
 0.000000000000000D+00 -.000000000000000D+00 -.000000000000000D+00 -.000000000000000D+00
 0.103018729536238D+04 0.000000000000000D+00 0.000000000000000D+00 0.103018729536238D+04
 0.107693107933466D+04 0.000000000000000D+00 0.000000000000000D+00 -.107693107933466D+04
 0.142528052145549D+03 -.608948409228939D+02 0.358128205496989D+01 -.909834439457117D+02
 0.984611299895490D+03 0.678548718858666D+03 0.214111631271345D+03 0.680578619537428D+03
 0.295315333515907D+02 0.214777974761648D+02 0.179298972027460D+02 0.945169106392737D+01
 0.901867908228413D+03 -.626465729291024D+03 -.231805983792944D+03 -.599046866655644D+03
 0.485795810759911D+02 -.126659461209138D+02 -.381682673611705D+01 -.467437839722819D+02
0.202050662825D-03 0.000000000000D+00 0.000000000000D+00 0.133785787007D-04 0.000000000000D+00  7 -1 1 23 -13 13 23 21 0 0.97077326D-01 0.25828291D+00 0.57998094D+06 0.57998094D+06 0.57998094D+06 0.10639854D+01  1  2  2  2  7  2        1 0.127839792558D-03 0.100000000000D+01
-.998679917100D-05 0.000000000000D+00 -.775927746410D-06 0.133785787007D-04 0.000000000000D+00  7 -1 1 23 -13 13 23 21 2 0.97077326D-01 0.25828291D+00 0.57998094D+06 0.57998094D+06 0.57998094D+06 0.10639854D+01  1  2  3  2  7  2        1 -.715325113168D-05 0.100000000000D+01
0.131608611754D-04 0.000000000000D+00 0.000000000000D+00 0.133785787007D-04 0.000000000000D+00  7 -1 1 23 -13 13 23 21 2 0.97077326D-01 0.25828291D+00 0.57998094D+06 0.57998094D+06 0.57998094D+06 0.10639854D+01  1  2 15  2  7  2        1 0.942673858609D-05 0.100000000000D+01
0.473588056559D-02 0.000000000000D+00 0.000000000000D+00 0.133785787007D-04 0.000000000000D+00  7 -1 1 23 -13 13 23 21 2 0.97077326D-01 0.27036349D+00 0.59029805D+06 0.59029805D+06 0.59029805D+06 0.10634517D+01  1  2 12  2  7  2        1 0.299804053517D-02 0.100000000000D+01
-.476709421015D-02 0.000000000000D+00 0.000000000000D+00 0.133785787007D-04 0.000000000000D+00  7 -1 1 23 -13 13 23 21 2 0.97077326D-01 0.25828291D+00 0.57998094D+06 0.57998094D+06 0.57998094D+06 0.10639854D+01  1  2  4  2  7  2        1 -.341452966758D-02 0.100000000000D+01
-.899373382899D-02 0.000000000000D+00 -.458482459885D-03 0.133785787007D-04 0.000000000000D+00  7 -1 1 23 -13 13 23 21 2 0.97077326D-01 0.27033821D+00 0.57998094D+06 0.57998094D+06 0.57998094D+06 0.10639854D+01  1  2  5  2  7  2        1 -.570752974763D-02 0.100000000000D+01
0.900575341759D-02 0.000000000000D+00 0.458005816300D-03 0.133785787007D-04 0.000000000000D+00  7 -1 1 23 -13 13 23 21 2 0.97077326D-01 0.25828291D+00 0.57998094D+06 0.57998094D+06 0.57998094D+06 0.10639854D+01  1  2  6  2  7  2        1 0.645055685240D-02 0.100000000000D+01
0.939614135474D-04 0.000000000000D+00 0.000000000000D+00 0.133785787007D-04 0.000000000000D+00  7 -1 21 23 -13 13 23 -1 2 0.97077326D-01 0.27036349D+00 0.59029805D+06 0.59029805D+06 0.59029805D+06 0.10634517D+01  1  2 12  4  7  2        1 0.355793563557D-04 0.100000000000D+01
-.110446736972D-03 0.000000000000D+00 -.366670609900D-05 0.133785787007D-04 0.000000000000D+00  7 -1 21 23 -13 13 23 -1 2 0.97077326D-01 0.27033821D+00 0.57998094D+06 0.57998094D+06 0.57998094D+06 0.10639854D+01  1  2  5  4  7  2        1 -.419634176028D-04 0.100000000000D+01
  </mgrwgt>
  </event>
  <event>
  8     66 0.27414828E-05 0.79689616E+03 0.75467711E-02 0.86125364E-01
       -1 -1    0    0    0  501 0.00000000E+00 0.00000000E+00 0.11201930E+04 0.11201931E+04 0.32000000E+00 0.0000E+00 0.9000E+01
        1 -1    0    0  501    0 0.00000000E+00 0.00000000E+00 -.88300381E+03 0.88300387E+03 0.32000000E+00 0.0000E+00 0.9000E+01
       25  2    1    2    0    0 0.67901006E+03 0.36058884E+03 0.71649216E+03 0.10927153E+04 0.29931045E+03 0.0000E+00 0.0000E+00
       23  2    1    2    0    0 -.67901006E+03 -.36058884E+03 -.47930294E+03 0.91048164E+03 0.90368892E+02 0.0000E+00 0.0000E+00
       23  1    3    3    0    0 0.49547865E+03 0.13793320E+03 0.44674119E+03 0.68732642E+03 0.91188000E+02 0.0000E+00 0.9000E+01
      -13  1    4    4    0    0 -.46673193E+02 -.23130158E+02 -.80987968E+01 0.52716153E+02 0.10565837E+00 0.0000E+00 0.9000E+01
       13  1    4    4    0    0 -.63233687E+03 -.33745868E+03 -.47120415E+03 0.85776549E+03 0.10565837E+00 0.0000E+00 0.9000E+01
       23  1    3    3    0    0 0.18353141E+03 0.22265564E+03 0.26975097E+03 0.40538889E+03 0.91188000E+02 0.0000E+00 0.9000E+01
#aMCatNLO 1  0  0  1  1 0.58932855D+03 0.00000000D+00  -5  7  0 0.00000000D+00 0.00000000D+00 0.00000000D+00 0.00000000D+00 0.00000000D+00
  <mgrwgt>
 0.1977252684D-03    4    2    0
 0.994552571601920D+03 0.000000000000000D+00 0.000000000000000D+00 0.994552571601920D+03
 0.994552571601920D+03 0.000000000000000D+00 0.000000000000000D+00 -.994552571601920D+03
 0.638924486299102D+03 0.495478648286276D+03 0.137933195931747D+03 0.367946450453093D+03
 0.540541710269550D+02 -.466723922291824D+02 -.231297282650026D+02 -.144414985165598D+02
 0.920031857988339D+03 -.632337666671258D+03 -.337459110013603D+03 -.576826701957400D+03
 0.376094627889444D+03 0.183531410614164D+03 0.222655642346858D+03 0.223321750020867D+03
 0.000000000000000D+00 -.000000000000000D+00 0.000000000000000D+00 -.000000000000000D+00
 0.121567796431606D+04 0.000000000000000D+00 0.000000000000000D+00 0.121567796431606D+04
 0.152400585405600D+04 0.000000000000000D+00 0.000000000000000D+00 -.152400585405600D+04
 0.746334192258456D+03 0.642894066445517D+03 0.145055789252399D+01 0.367946450453093D+03
 0.508854600976399D+02 -.355050053409682D+02 -.334689074468009D+02 -.144414985165598D+02
 0.890013448047850D+03 -.439717624070739D+03 -.515793858723187D+03 -.576826701957400D+03
 0.387338521976325D+03 0.264773866457340D+03 0.147438376522709D+03 0.223321750020867D+03
 0.665112195991789D+03 -.432445303491149D+03 0.400373831754755D+03 -.308327889739937D+03
0.459839048309D-03 0.000000000000D+00 0.000000000000D+00 0.428524560355D-05 0.000000000000D+00  7 -1 1 23 -13 13 23 21 0 0.17233740D+00 0.13584675D+00 0.63504349D+06 0.63504349D+06 0.63504349D+06 0.10612485D+01  1  2  2  1  7  1       -1 0.235440532863D-03 0.100000000000D+01
-.240217495337D-04 0.000000000000D+00 -.176590302391D-05 0.428524560355D-05 0.000000000000D+00  7 -1 1 23 -13 13 23 21 2 0.17233740D+00 0.13584675D+00 0.63504349D+06 0.63504349D+06 0.63504349D+06 0.10612485D+01  1  2  3  1  7  1       -1 -.138520540520D-04 0.100000000000D+01
0.286033545883D-04 0.000000000000D+00 0.000000000000D+00 0.428524560355D-05 0.000000000000D+00  7 -1 1 23 -13 13 23 21 2 0.17233740D+00 0.13584675D+00 0.63504349D+06 0.63504349D+06 0.63504349D+06 0.10612485D+01  1  2 15  1  7  1       -1 0.164940198577D-04 0.100000000000D+01
-.699861027264D-04 0.000000000000D+00 0.000000000000D+00 0.428524560355D-05 0.000000000000D+00  7 -1 1 23 -13 13 23 21 2 0.17233740D+00 0.13584675D+00 0.63504349D+06 0.63504349D+06 0.63504349D+06 0.10612485D+01  1  2  4  1  7  1       -1 -.403572302881D-04 0.100000000000D+01
  </mgrwgt>
  </event>
  <event>
  8     66 0.27414828E-05 0.17435943E+03 0.75467711E-02 0.89558680E-01
       -1 -1    0    0    0  501 0.00000000E+00 0.00000000E+00 0.50624023E+02 0.50625034E+02 0.32000000E+00 0.0000E+00 0.9000E+01
        1 -1    0    0  501    0 0.00000000E+00 0.00000000E+00 -.11944134E+04 0.11944134E+04 0.32000000E+00 0.0000E+00 0.9000E+01
       25  2    1    2    0    0 -.73596350E+02 -.69298286E+02 -.53980229E+03 0.62582002E+03 0.30007583E+03 0.0000E+00 0.0000E+00
       23  2    1    2    0    0 0.73596350E+02 0.69298286E+02 -.60398709E+03 0.61921846E+03 0.91719277E+02 0.0000E+00 0.0000E+00
       23  1    3    3    0    0 -.83214040E+02 0.12500337E+02 -.46654386E+03 0.48276211E+03 0.91188000E+02 0.0000E+00 0.9000E+01
      -11  1    4    4    0    0 0.21473959E+02 0.13300965E+02 -.26217145E+02 0.36405841E+02 0.51099893E-03 0.0000E+00 0.9000E+01
       11  1    4    4    0    0 0.52122391E+02 0.55997321E+02 -.57776994E+03 0.58281262E+03 0.51099893E-03 0.0000E+00 0.9000E+01
       23  1    3    3    0    0 0.96176902E+01 -.81798623E+02 -.73258433E+02 0.14305790E+03 0.91188000E+02 0.0000E+00 0.9000E+01
#aMCatNLO 1  0  0  2  2 0.78038253D+03 0.00000000D+00  -5  7  0 0.00000000D+00 0.00000000D+00 0.00000000D+00 0.00000000D+00 0.00000000D+00
  <mgrwgt>
 0.3634344070D-03    3    2    0
 0.245899710904345D+03 0.000000000000000D+00 0.000000000000000D+00 0.245899710904345D+03
 0.245899710904345D+03 0.000000000000000D+00 0.000000000000000D+00 -.245899710904345D+03
 0.137107719662879D+03 -.832140400012752D+02 0.125003370585630D+02 -.583304428857091D+02
 0.311911332508509D+02 0.214739589893984D+02 0.133009650036189D+02 0.182986395332133D+02
 0.131714295697752D+03 0.521223908720226D+02 0.559973211133852D+02 -.107220390267259D+03
 0.191786273197209D+03 0.961769013985417D+01 -.817986231755671D+02 0.147252193619755D+03
 0.000000000000000D+00 0.000000000000000D+00 0.000000000000000D+00 0.000000000000000D+00
 0.510148727028366D+04 0.000000000000000D+00 0.000000000000000D+00 0.510148727028366D+04
 0.494021713069781D+03 0.000000000000000D+00 0.000000000000000D+00 -.494021713069781D+03
 0.315840030691514D+03 -.225188122028325D+03 -.193203371537170D+03 -.583304428857091D+02
 0.217766205139939D+02 0.487149609623938D+01 -.107540465885333D+02 0.182986395332133D+02
 0.126934904394963D+03 -.289498359388241D+02 -.614667785377620D+02 -.107220390267259D+03
 0.457871107277791D+03 -.194013987361294D+03 -.376836919261014D+03 0.147252193619755D+03
 0.467308632047518D+04 0.443280449232204D+03 0.642261115924479D+03 0.460746555721388D+04
0.316244405442D-05 0.000000000000D+00 0.000000000000D+00 0.485355565398D-06 0.000000000000D+00  7 -1 1 23 -11 11 23 21 0 0.77883923D-02 0.18375599D+00 0.30401209D+05 0.30401209D+05 0.30401209D+05 0.11668010D+01  1  2  2  2  7  2        1 0.355593981627D-03 0.100000000000D+01
-.150441645416D-06 0.000000000000D+00 -.121446178596D-07 0.485355565398D-06 0.000000000000D+00  7 -1 1 23 -11 11 23 21 2 0.77883923D-02 0.18375599D+00 0.30401209D+05 0.30401209D+05 0.30401209D+05 0.11668010D+01  1  2  3  2  7  2        1 -.230299607738D-04 0.100000000000D+01
0.201658688532D-06 0.000000000000D+00 0.000000000000D+00 0.485355565398D-06 0.000000000000D+00  7 -1 1 23 -11 11 23 21 2 0.77883923D-02 0.18375599D+00 0.30401209D+05 0.30401209D+05 0.30401209D+05 0.11668010D+01  1  2 15  2  7  2        1 0.308703861470D-04 0.100000000000D+01
  </mgrwgt>
  </event>
  <event>
  8     66 0.27414828E-05 0.22397998E+03 0.75467711E-02 0.95242817E-01
       -1 -1    0    0    0  501 0.00000000E+00 0.00000000E+00 0.22785262E+03 0.22785284E+03 0.32000000E+00 0.0000E+00 0.9000E+01
        1 -1    0    0  501    0 0.00000000E+00 0.00000000E+00 -.12404803E+04 0.12404803E+04 0.32000000E+00 0.0000E+00 0.9000E+01
       25  2    1    2    0    0 0.34948248E+03 0.39655173E+02 -.10040853E+04 0.11053607E+04 0.29987409E+03 0.0000E+00 0.0000E+00
       23  2    1    2    0    0 -.34948248E+03 -.39655173E+02 -.85423821E+01 0.36297247E+03 0.89249663E+02 0.0000E+00 0.0000E+00
       23  1    3    3    0    0 0.10961102E+03 -.93409133E+02 -.31647164E+03 0.35945708E+03 0.91188000E+02 0.0000E+00 0.9000E+01
      -11  1    4    4    0    0 -.22609399E+03 0.17315705E+02 0.63673732E+00 0.22675699E+03 0.51099893E-03 0.0000E+00 0.9000E+01
       11  1    4    4    0    0 -.12338849E+03 -.56970878E+02 -.91791195E+01 0.13621548E+03 0.51099893E-03 0.0000E+00 0.9000E+01
       23  1    3    3    0    0 0.23987146E+03 0.13306431E+03 -.68761365E+03 0.74590362E+03 0.91188000E+02 0.0000E+00 0.9000E+01
#aMCatNLO 1  0  0  2  1 0.11548655D+03 0.00000000D+00  -5  7  0 0.00000000D+00 0.00000000D+00 0.00000000D+00 0.00000000D+00 0.00000000D+00
  <mgrwgt>
 0.1645853007D-03    9    2    0
 0.531645439930733D+03 0.000000000000000D+00 0.000000000000000D+00 0.531645439930733D+03
 0.531645439930733D+03 0.000000000000000D+00 0.000000000000000D+00 -.531645439930733D+03
 0.194993501696200D+03 0.109611018509802D+03 -.934091329698835D+02 -.946962135399532D+02
 0.313742547045030D+03 -.226093993336503D+03 0.173157047398239D+02 0.216831866599030D+03
 0.179362654822005D+03 -.123388489947461D+03 -.569708778391440D+02 0.117049397997258D+03
 0.375192176298230D+03 0.239871464774162D+03 0.133064306069203D+03 -.239185051056334D+03
 0.000000000000000D+00 0.000000000000000D+00 -.000000000000000D+00 -.000000000000000D+00
 0.570971432293388D+03 0.000000000000000D+00 0.000000000000000D+00 0.570971432293388D+03
 0.626881012830429D+03 0.000000000000000D+00 0.000000000000000D+00 -.626881012830429D+03
 0.184830031601576D+03 0.107506748502327D+03 -.729507738512245D+02 -.946962135399532D+02
 0.319971051142915D+03 -.229604846143379D+03 0.514492937187416D+02 0.216831866599030D+03
 0.175633419154014D+03 -.125355212716726D+03 -.378497952035884D+02 0.117049397997258D+03
 0.389109624642471D+03 0.235637136947197D+03 0.174231741332947D+03 -.239185051056334D+03
 0.128308318582843D+03 0.118161734105809D+02 -.114880465996876D+03 -.559095805370413D+02
0.113265857013D-04 0.000000000000D+00 0.000000000000D+00 0.480925435986D-06 0.000000000000D+00  7 -1 1 23 -11 11 23 21 0 0.35054269D-01 0.19084314D+00 0.16899680D+06 0.16899680D+06 0.16899680D+06 0.11034882D+01  1  2  2  2  7  2        1 0.105769893414D-03 0.100000000000D+01
-.578659203380D-06 0.000000000000D+00 -.434970714513D-07 0.480925435986D-06 0.000000000000D+00  7 -1 1 23 -11 11 23 21 2 0.35054269D-01 0.19084314D+00 0.16899680D+06 0.16899680D+06 0.16899680D+06 0.11034882D+01  1  2  3  2  7  2        1 -.657993040409D-05 0.100000000000D+01
0.712226175363D-06 0.000000000000D+00 0.000000000000D+00 0.480925435986D-06 0.000000000000D+00  7 -1 1 23 -11 11 23 21 2 0.35054269D-01 0.19084314D+00 0.16899680D+06 0.16899680D+06 0.16899680D+06 0.11034882D+01  1  2 15  2  7  2        1 0.809871965828D-05 0.100000000000D+01
0.122144940027D-04 0.000000000000D+00 0.000000000000D+00 0.480925435986D-06 0.000000000000D+00  7 -1 1 23 -11 11 23 21 2 0.35054269D-01 0.23112916D+00 0.22437913D+06 0.22437913D+06 0.22437913D+06 0.10940094D+01  1  2 12  2  7  2        1 0.895328298425D-04 0.100000000000D+01
-.125690458231D-04 0.000000000000D+00 0.000000000000D+00 0.480925435986D-06 0.000000000000D+00  7 -1 1 23 -11 11 23 21 2 0.35054269D-01 0.19084314D+00 0.16899680D+06 0.16899680D+06 0.16899680D+06 0.11034882D+01  1  2  4  2  7  2        1 -.142922546256D-03 0.100000000000D+01
-.250680243469D-04 0.000000000000D+00 -.693429067977D-05 0.480925435986D-06 0.000000000000D+00  7 -1 1 23 -11 11 23 21 2 0.35054269D-01 0.23383472D+00 0.16899680D+06 0.16899680D+06 0.16899680D+06 0.11034882D+01  1  2  5  2  7  2        1 -.184091501791D-03 0.100000000000D+01
0.260774712292D-04 0.000000000000D+00 0.679360447778D-05 0.480925435986D-06 0.000000000000D+00  7 -1 1 23 -11 11 23 21 2 0.35054269D-01 0.19084314D+00 0.16899680D+06 0.16899680D+06 0.16899680D+06 0.11034882D+01  1  2  6  2  7  2        1 0.296526772235D-03 0.100000000000D+01
0.338076438813D-06 0.000000000000D+00 0.000000000000D+00 0.480925435986D-06 0.000000000000D+00  7 -1 21 23 -11 11 23 -1 2 0.35054269D-01 0.23112916D+00 0.22437913D+06 0.22437913D+06 0.22437913D+06 0.10940094D+01  1  2 12  4  7  2        1 0.194038576493D-05 0.100000000000D+01
-.643998231407D-06 0.000000000000D+00 -.200836114138D-06 0.480925435986D-06 0.000000000000D+00  7 -1 21 23 -11 11 23 -1 2 0.35054269D-01 0.23383472D+00 0.16899680D+06 0.16899680D+06 0.16899680D+06 0.11034882D+01  1  2  5  4  7  2        1 -.368932172189D-05 0.100000000000D+01
  </mgrwgt>
  </event>
  <event>
  8     66 0.27414828E-05 0.24456416E+03 0.75467711E-02 0.88402551E-01
       -1 -1    0    0    0  501 0.00000000E+00 0.00000000E+00 0.27435481E+03 0.27435500E+03 0.32000000E+00 0.0000E+00 0.9000E+01
        1 -1    0    0  501    0 0.00000000E+00 0.00000000E+00 -.40739288E+03 0.40739301E+03 0.32000000E+00 0.0000E+00 0.9000E+01
       25  2    1    2    0    0 0.14676445E+03 -.90232180E+02 -.27302758E+03 0.44099340E+03 0.30041549E+03 0.0000E+00 0.0000E+00
       23  2    1    2    0    0 -.14676445E+03 0.90232180E+02 0.13998952E+03 0.24075461E+03 0.93188342E+02 0.0000E+00 0.0000E+00
       23  1    3    3    0    0 0.15431475E+03 -.12508232E+03 -.26389254E+03 0.34265602E+03 0.91188000E+02 0.0000E+00 0.9000E+01
      -11  1    4    4    0    0 -.14379490E+03 0.86257184E+02 0.89596431E+02 0.19011784E+03 0.51099893E-03 0.0000E+00 0.9000E+01
       11  1    4    4    0    0 -.29695526E+01 0.39749963E+01 0.50393087E+02 0.50636766E+02 0.51099893E-03 0.0000E+00 0.9000E+01
       23  1    3    3    0    0 -.75502955E+01 0.34850137E+02 -.91350476E+01 0.98337376E+02 0.91188000E+02 0.0000E+00 0.9000E+01
#aMCatNLO 1  0  0  1  1 0.84277880D+03 0.00000000D+00  -5  7  0 0.00000000D+00 0.00000000D+00 0.00000000D+00 0.00000000D+00 0.00000000D+00
  <mgrwgt>
 0.2708286690D-03    3    2    0
 0.334320661647793D+03 0.000000000000000D+00 0.000000000000000D+00 0.334320661647793D+03
 0.334320661647793D+03 0.000000000000000D+00 0.000000000000000D+00 -.334320661647793D+03
 0.296866646576634D+03 0.154314745412835D+03 -.125082317821235D+03 -.200887848368924D+03
 0.211671328957571D+03 -.143794897282059D+03 0.862571841898477D+02 0.129180018555290D+03
 0.616559460178084D+02 -.296955259439427D+01 0.397499629181675D+01 0.614559748211683D+02
 0.984474017435715D+02 -.755029553638195D+01 0.348501373395703D+02 0.102518549924657D+02
 0.000000000000000D+00 -.000000000000000D+00 0.000000000000000D+00 -.000000000000000D+00
 0.922844203693128D+03 0.000000000000000D+00 0.000000000000000D+00 0.922844203693128D+03
 0.999191073712817D+03 0.000000000000000D+00 0.000000000000000D+00 -.999191073712817D+03
 0.707227191878393D+03 0.378004790919183D+03 -.555528127107931D+03 -.200887848368924D+03
 0.160518637963663D+03 -.608791503178915D+02 -.732972373035725D+02 0.129180018555290D+03
 0.930291683762549D+02 0.314908921895346D+02 -.623370919811362D+02 0.614559748211683D+02
 0.115030433363313D+03 0.400078756432476D+02 -.566658504875679D+02 0.102518549924657D+02
 0.846229845824322D+03 -.388624408434074D+03 0.747828306880208D+03 -.763468700196891D+02
0.676141402075D-05 0.000000000000D+00 0.000000000000D+00 0.178194816768D-06 0.000000000000D+00  7 -1 1 23 -11 11 23 21 0 0.42208457D-01 0.62675852D-01 0.59811629D+05 0.59811629D+05 0.59811629D+05 0.11405130D+01  1  2  2  1  7  1       -1 0.265573336201D-03 0.100000000000D+01
-.330997819000D-06 0.000000000000D+00 -.259656101609D-07 0.178194816768D-06 0.000000000000D+00  7 -1 1 23 -11 11 23 21 2 0.42208457D-01 0.62675852D-01 0.59811629D+05 0.59811629D+05 0.59811629D+05 0.11405130D+01  1  2  3  1  7  1       -1 -.169111276331D-04 0.100000000000D+01
0.433859302967D-06 0.000000000000D+00 0.000000000000D+00 0.178194816768D-06 0.000000000000D+00  7 -1 1 23 -11 11 23 21 2 0.42208457D-01 0.62675852D-01 0.59811629D+05 0.59811629D+05 0.59811629D+05 0.11405130D+01  1  2 15  1  7  1       -1 0.221664603998D-04 0.100000000000D+01
  </mgrwgt>
  </event>
  <event>
  8     66 0.27414828E-05 0.22954253E+03 0.75467711E-02 0.99098469E-01
       -1 -1    0    0    0  501 0.00000000E+00 0.00000000E+00 0.58730075E+03 0.58730084E+03 0.32000000E+00 0.0000E+00 0.9000E+01
        1 -1    0    0  501    0 0.00000000E+00 0.00000000E+00 -.45304003E+03 0.45304015E+03 0.32000000E+00 0.0000E+00 0.9000E+01
       25  2    1    2    0    0 0.25849268E+03 0.35244636E+02 -.31907743E+03 0.50950594E+03 0.29954172E+03 0.0000E+00 0.0000E+00
       23  2    1    2    0    0 -.25849268E+03 -.35244636E+02 0.45333815E+03 0.53083505E+03 0.90607502E+02 0.0000E+00 0.0000E+00
       23  1    3    3    0    0 0.22583197E+03 0.94678315E+02 -.29360755E+03 0.39304543E+03 0.91188000E+02 0.0000E+00 0.9000E+01
      -11  1    4    4    0    0 -.20691469E+03 0.65439282E+01 0.30866330E+03 0.37165783E+03 0.51099893E-03 0.0000E+00 0.9000E+01
       11  1    4    4    0    0 -.51577988E+02 -.41788564E+02 0.14467486E+03 0.15917722E+03 0.51099893E-03 0.0000E+00 0.9000E+01
       23  1    3    3    0    0 0.32660709E+02 -.59433679E+02 -.25469886E+02 0.11646051E+03 0.91188000E+02 0.0000E+00 0.9000E+01
#aMCatNLO 1  0  0  1  2 0.36669977D+02 0.00000000D+00  -5  7  0 0.00000000D+00 0.00000000D+00 0.00000000D+00 0.00000000D+00 0.00000000D+00
  <mgrwgt>
 0.2022658832D-03    9    2    0
 0.515820566362962D+03 0.000000000000000D+00 0.000000000000000D+00 0.515820566362962D+03
 0.515820566362962D+03 0.000000000000000D+00 0.000000000000000D+00 -.515820566362962D+03
 0.434570909786025D+03 0.225831972929386D+03 0.946783152956546D+02 -.347235598555003D+03
 0.334621708831670D+03 -.206914693632009D+03 0.654392823144077D+01 0.262897650396310D+03
 0.141691165453163D+03 -.515779883845098D+02 -.417885641156907D+02 0.125179125219950D+03
 0.120757348655065D+03 0.326607090871332D+02 -.594336794114047D+02 -.408411770612567D+02
 0.000000000000000D+00 0.000000000000000D+00 0.000000000000000D+00 0.000000000000000D+00
 0.542480983856323D+03 0.000000000000000D+00 0.000000000000000D+00 0.542480983856323D+03
 0.528911699490641D+03 0.000000000000000D+00 0.000000000000000D+00 -.528911699490641D+03
 0.426143169676711D+03 0.211858431776958D+03 0.884657769946743D+02 -.347235598555003D+03
 0.341459105877006D+03 -.217890746321418D+03 0.166405225850744D+01 0.262897650396310D+03
 0.144059337045369D+03 -.562170973537540D+02 -.438510793964964D+02 0.125179125219950D+03
 0.120631036755745D+03 0.287418112582960D+02 -.611759938751260D+02 -.408411770612567D+02
 0.391000339921332D+02 0.335076006399185D+02 0.148972440184406D+02 0.135692843656820D+02
0.128200616341D-04 0.000000000000D+00 0.000000000000D+00 0.124548289612D-05 0.000000000000D+00  7 -1 1 23 -11 11 23 21 0 0.90353977D-01 0.69698482D-01 0.10508766D+06 0.10508766D+06 0.10508766D+06 0.11199578D+01  1  2  2  1  7  1       -1 0.102420230745D-03 0.100000000000D+01
-.525398304984D-06 0.000000000000D+00 -.492324122747D-07 0.124548289612D-05 0.000000000000D+00  7 -1 1 23 -11 11 23 21 2 0.90353977D-01 0.69698482D-01 0.10508766D+06 0.10508766D+06 0.10508766D+06 0.11199578D+01  1  2  3  1  7  1       -1 -.526486921663D-05 0.100000000000D+01
0.790598068681D-06 0.000000000000D+00 0.000000000000D+00 0.124548289612D-05 0.000000000000D+00  7 -1 1 23 -11 11 23 21 2 0.90353977D-01 0.69698482D-01 0.10508766D+06 0.10508766D+06 0.10508766D+06 0.11199578D+01  1  2 15  1  7  1       -1 0.792236174924D-05 0.100000000000D+01
0.362957944359D-04 0.000000000000D+00 0.000000000000D+00 0.124548289612D-05 0.000000000000D+00  7 -1 1 23 -11 11 23 21 2 0.96125594D-01 0.69698482D-01 0.11778778D+06 0.11778778D+06 0.11778778D+06 0.11159337D+01  1  2 12  1  7  1       -1 0.314983798372D-03 0.100000000000D+01
-.339952142964D-04 0.000000000000D+00 0.000000000000D+00 0.124548289612D-05 0.000000000000D+00  7 -1 1 23 -11 11 23 21 2 0.90353977D-01 0.69698482D-01 0.10508766D+06 0.10508766D+06 0.10508766D+06 0.11199578D+01  1  2  4  1  7  1       -1 -.340656518233D-03 0.100000000000D+01
-.121445520461D-03 0.000000000000D+00 -.233009032582D-04 0.124548289612D-05 0.000000000000D+00  7 -1 1 23 -11 11 23 21 2 0.96862191D-01 0.69698482D-01 0.10508766D+06 0.10508766D+06 0.10508766D+06 0.11199578D+01  1  2  5  1  7  1       -1 -.104832026676D-02 0.100000000000D+01
0.122825224617D-03 0.000000000000D+00 0.232446542098D-04 0.124548289612D-05 0.000000000000D+00  7 -1 1 23 -11 11 23 21 2 0.90353977D-01 0.69698482D-01 0.10508766D+06 0.10508766D+06 0.10508766D+06 0.11199578D+01  1  2  6  1  7  1       -1 0.123079716469D-02 0.100000000000D+01
0.439297831510D-06 0.000000000000D+00 0.000000000000D+00 0.124548289612D-05 0.000000000000D+00  7 21 1 23 -11 11 23 1 2 0.96125594D-01 0.69698482D-01 0.11778778D+06 0.11778778D+06 0.11778778D+06 0.11159337D+01  1  2 12  3  7  1       -1 0.276618114920D-04 0.100000000000D+01
-.139244715416D-05 0.000000000000D+00 -.274582166483D-06 0.124548289612D-05 0.000000000000D+00  7 21 1 23 -11 11 23 1 2 0.96862191D-01 0.69698482D-01 0.10508766D+06 0.10508766D+06 0.10508766D+06 0.11199578D+01  1  2  5  3  7  1       -1 -.872778296207D-04 0.100000000000D+01
  </mgrwgt>
  </event>
  <event>
  8     66 0.27414828E-05 0.21692893E+03 0.75467711E-02 0.99483154E-01
       -1 -1    0    0    0  501 0.00000000E+00 0.00000000E+00 0.44590355E+03 0.44590366E+03 0.32000000E+00 0.0000E+00 0.9000E+01
        1 -1    0    0  501    0 0.00000000E+00 0.00000000E+00 -.25922100E+03 0.25922120E+03 0.32000000E+00 0.0000E+00 0.9000E+01
       25  2    1    2    0    0 0.92078492E+02 0.23919478E+03 0.45080715E+02 0.39781524E+03 0.30088553E+03 0.0000E+00 0.0000E+00
       23  2    1    2    0    0 -.92078492E+02 -.23919478E+03 0.14160183E+03 0.30730963E+03 0.93249869E+02 0.0000E+00 0.0000E+00
       23  1    3    3    0    0 0.16981341E+02 -.27607064E+02 0.43308891E+02 0.10602560E+03 0.91188000E+02 0.0000E+00 0.9000E+01
      -11  1    4    4    0    0 -.95399853E+02 -.22849064E+03 0.15320982E+03 0.29117410E+03 0.51099893E-03 0.0000E+00 0.9000E+01
       11  1    4    4    0    0 0.33213617E+01 -.10704134E+02 -.11607988E+02 0.16135530E+02 0.51099893E-03 0.0000E+00 0.9000E+01
       23  1    3    3    0    0 0.75097150E+02 0.26680184E+03 0.17718244E+01 0.29178964E+03 0.91188000E+02 0.0000E+00 0.9000E+01
#aMCatNLO 1  0  0  1  2 0.18287673D+02 0.00000000D+00  -5  7  0 0.00000000D+00 0.00000000D+00 0.00000000D+00 0.00000000D+00 0.00000000D+00
  <mgrwgt>
 0.1866359598D-03    9    2    0
 0.339981876268929D+03 0.000000000000000D+00 0.000000000000000D+00 0.339981876268929D+03
 0.339981876268929D+03 0.000000000000000D+00 0.000000000000000D+00 -.339981876268929D+03
 0.980585670225252D+02 0.169813414997163D+02 -.276070635749256D+02 0.158023828630711D+02
 0.259885173091782D+03 -.953998533547385D+02 -.228490644058642D+03 0.789379297328406D+02
 0.199195502912106D+02 0.332136165158155D+01 -.107041340243379D+02 -.164674999733561D+02
 0.302100462132341D+03 0.750971502034406D+02 0.266801841657905D+03 -.782728126225557D+02
 0.000000000000000D+00 0.000000000000000D+00 -.000000000000000D+00 0.000000000000000D+00
 0.373578169759130D+03 0.000000000000000D+00 0.000000000000000D+00 0.373578169759130D+03
 0.342602616137384D+03 0.000000000000000D+00 0.000000000000000D+00 -.342602616137384D+03
 0.973381353899980D+02 0.169023513101075D+02 -.249811223374811D+02 0.158023828630711D+02
 0.253913801668693D+03 -.956075594108593D+02 -.221585686610937D+03 0.789379297328406D+02
 0.196363092221522D+02 0.330537097822565D+01 -.101725418255126D+02 -.164674999733561D+02
 0.309321385921803D+03 0.748499795648759D+02 0.275018755374751D+03 -.782728126225557D+02
 0.359711536938674D+02 0.549857557650332D+00 -.182794046008202D+02 0.309755536217456D+02
0.479976295004D-05 0.000000000000D+00 0.000000000000D+00 0.793967763450D-07 0.000000000000D+00  7 -1 1 23 -11 11 23 21 0 0.68600570D-01 0.39880179D-01 0.10477376D+06 0.10477376D+06 0.10477376D+06 0.11200639D+01  1  2  2  1  7  1       -1 0.139953054918D-03 0.100000000000D+01
-.265871470378D-06 0.000000000000D+00 -.184323535348D-07 0.793967763450D-07 0.000000000000D+00  7 -1 1 23 -11 11 23 21 2 0.68600570D-01 0.39880179D-01 0.10477376D+06 0.10477376D+06 0.10477376D+06 0.11200639D+01  1  2  3  1  7  1       -1 -.972567847536D-05 0.100000000000D+01
0.306999961181D-06 0.000000000000D+00 0.000000000000D+00 0.793967763450D-07 0.000000000000D+00  7 -1 1 23 -11 11 23 21 2 0.68600570D-01 0.39880179D-01 0.10477376D+06 0.10477376D+06 0.10477376D+06 0.11200639D+01  1  2 15  1  7  1       -1 0.112301741520D-04 0.100000000000D+01
0.440101424228D-04 0.000000000000D+00 0.000000000000D+00 0.793967763450D-07 0.000000000000D+00  7 -1 1 23 -11 11 23 21 2 0.75628177D-01 0.39880179D-01 0.11076136D+06 0.11076136D+06 0.11076136D+06 0.11180976D+01  1  2 12  1  7  1       -1 0.132448948564D-02 0.100000000000D+01
-.447198763792D-04 0.000000000000D+00 0.000000000000D+00 0.793967763450D-07 0.000000000000D+00  7 -1 1 23 -11 11 23 21 2 0.68600570D-01 0.39880179D-01 0.10477376D+06 0.10477376D+06 0.10477376D+06 0.11200639D+01  1  2  4  1  7  1       -1 -.163586991302D-02 0.100000000000D+01
-.671339769168D-04 0.000000000000D+00 -.640551037410D-05 0.793967763450D-07 0.000000000000D+00  7 -1 1 23 -11 11 23 21 2 0.75711764D-01 0.39880179D-01 0.10477376D+06 0.10477376D+06 0.10477376D+06 0.11200639D+01  1  2  5  1  7  1       -1 -.202518467515D-02 0.100000000000D+01
0.674683555806D-04 0.000000000000D+00 0.637447845194D-05 0.793967763450D-07 0.000000000000D+00  7 -1 1 23 -11 11 23 21 2 0.68600570D-01 0.39880179D-01 0.10477376D+06 0.10477376D+06 0.10477376D+06 0.11200639D+01  1  2  6  1  7  1       -1 0.246801784601D-02 0.100000000000D+01
0.700229135683D-06 0.000000000000D+00 0.000000000000D+00 0.793967763450D-07 0.000000000000D+00  7 21 1 23 -11 11 23 1 2 0.75628177D-01 0.39880179D-01 0.11076136D+06 0.11076136D+06 0.11076136D+06 0.11180976D+01  1  2 12  3  7  1       -1 0.167559557707D-03 0.100000000000D+01
-.105691676361D-05 0.000000000000D+00 -.102809044103D-06 0.793967763450D-07 0.000000000000D+00  7 21 1 23 -11 11 23 1 2 0.75711764D-01 0.39880179D-01 0.10477376D+06 0.10477376D+06 0.10477376D+06 0.11200639D+01  1  2  5  3  7  1       -1 -.253833892013D-03 0.100000000000D+01
  </mgrwgt>
  </event>
  <event>
  8     66 0.27414828E-05 0.24899688E+03 0.75467711E-02 0.96293998E-01
       -3 -1    0    0    0  501 0.00000000E+00 0.00000000E+00 0.29184294E+03 0.29184337E+03 0.50000000E+00 0.0000E+00 0.9000E+01
        3 -1    0    0  501    0 0.00000000E+00 0.00000000E+00 -.37863260E+03 0.37863293E+03 0.50000000E+00 0.0000E+00 0.9000E+01
       25  2    1    2    0    0 -.74342301E+02 -.12665136E+03 0.16005580E+03 0.36963746E+03 0.29907632E+03 0.0000E+00 0.0000E+00
       23  2    1    2    0    0 0.74342301E+02 0.12665136E+03 -.24684546E+03 0.30083885E+03 0.89464991E+02 0.0000E+00 0.0000E+00
       23  1    3    3    0    0 -.53252242E+02 -.18756959E+03 0.70543015E+02 0.22651649E+03 0.91188000E+02 0.0000E+00 0.9000E+01
      -11  1    4    4    0    0 0.80966463E+02 0.52227512E+02 -.12366002E+03 0.15676442E+03 0.51099893E-03 0.0000E+00 0.9000E+01
       11  1    4    4    0    0 -.66241621E+01 0.74423853E+02 -.12318544E+03 0.14407443E+03 0.51099893E-03 0.0000E+00 0.9000E+01
       23  1    3    3    0    0 -.21090059E+02 0.60918228E+02 0.89512786E+02 0.14312097E+03 0.91188000E+02 0.0000E+00 0.9000E+01
#aMCatNLO 1  0  0  2  1 0.32671639D+03 0.00000000D+00  -5  7  0 0.00000000D+00 0.00000000D+00 0.00000000D+00 0.00000000D+00 0.00000000D+00
  <mgrwgt>
 0.1931998193D-04    5    2    0
 0.332417671776797D+03 0.000000000000000D+00 0.000000000000000D+00 0.332417671776797D+03
 0.332417671776797D+03 0.000000000000000D+00 0.000000000000000D+00 -.332417671776797D+03
 0.237647332718791D+03 -.532522420134070D+02 -.187569592323712D+03 0.100711718088898D+03
 0.141951563392099D+03 0.809664626828566D+02 0.522275120759537D+02 -.104244737288952D+03
 0.129215858372677D+03 -.662416205475971D+01 0.744238527122428D+02 -.105422714248527D+03
 0.156020589070027D+03 -.210900586146898D+02 0.609182275355158D+02 0.108955733448581D+03
 0.000000000000000D+00 0.000000000000000D+00 0.000000000000000D+00 -.000000000000000D+00
 0.421383319320281D+03 0.000000000000000D+00 0.000000000000000D+00 0.421383319320281D+03
 0.893691076805495D+03 0.000000000000000D+00 0.000000000000000D+00 -.893691076805495D+03
 0.358019442839869D+03 -.592709767207892D+02 -.325893803662353D+03 0.100711718088898D+03
 0.130794757573542D+03 0.782105800053862D+02 -.111089392607931D+02 -.104244737288952D+03
 0.107577956660669D+03 -.901677351390646D+01 0.194362001213522D+02 -.105422714248527D+03
 0.144384216240904D+03 -.241254080788152D+02 -.884100611991283D+01 0.108955733448581D+03
 0.574298022810793D+03 0.142025783081247D+02 0.326407548921707D+03 -.472307757485213D+03
0.324644788676D-05 0.000000000000D+00 0.000000000000D+00 0.495954345971D-07 0.000000000000D+00  7 -3 3 23 -11 11 23 21 0 0.44898973D-01 0.58251228D-01 0.61999447D+05 0.61999447D+05 0.61999447D+05 0.11391679D+01  1  2  2  2  7  2        3 0.198884796027D-04 0.100000000000D+01
-.162049056683D-06 0.000000000000D+00 -.124672146945D-07 0.495954345971D-07 0.000000000000D+00  7 -3 3 23 -11 11 23 21 2 0.44898973D-01 0.58251228D-01 0.61999447D+05 0.61999447D+05 0.61999447D+05 0.11391679D+01  1  2  3  2  7  2        3 -.128829454033D-05 0.100000000000D+01
0.206140921764D-06 0.000000000000D+00 0.000000000000D+00 0.495954345971D-07 0.000000000000D+00  7 -3 3 23 -11 11 23 21 2 0.44898973D-01 0.58251228D-01 0.61999447D+05 0.61999447D+05 0.61999447D+05 0.11391679D+01  1  2 15  2  7  2        3 0.163882610292D-05 0.100000000000D+01
-.937802162376D-06 0.000000000000D+00 -.105079337385D-05 0.495954345971D-07 0.000000000000D+00  7 -3 3 23 -11 11 23 21 2 0.44898973D-01 0.17966216D+00 0.61999447D+05 0.61999447D+05 0.61999447D+05 0.11391679D+01  1  2  5  2  7  2        3 -.457388417982D-06 0.100000000000D+01
-.711607359243D-07 0.000000000000D+00 -.135367778738D-06 0.495954345971D-07 0.000000000000D+00  7 -3 21 23 -11 11 23 -3 2 0.44898973D-01 0.17966216D+00 0.61999447D+05 0.61999447D+05 0.61999447D+05 0.11391679D+01  1  2  5  4  7  2        3 -.461640813716D-06 0.100000000000D+01
  </mgrwgt>
  </event>
  <event>
  8     66 0.27414828E-05 0.20669011E+03 0.75467711E-02 0.10450532E+00
       -1 -1    0    0    0  501 0.00000000E+00 0.00000000E+00 0.67867158E+02 0.67867912E+02 0.32000000E+00 0.0000E+00 0.9000E+01
        1 -1    0    0  501    0 0.00000000E+00 0.00000000E+00 -.71882647E+03 0.71882655E+03 0.32000000E+00 0.0000E+00 0.9000E+01
       25  2    1    2    0    0 -.87995953E+02 -.19782884E+02 -.43988972E+03 0.53973039E+03 0.29945162E+03 0.0000E+00 0.0000E+00
       23  2    1    2    0    0 0.87995953E+02 0.19782884E+02 -.21106959E+03 0.24696407E+03 0.91138513E+02 0.0000E+00 0.0000E+00
       23  1    3    3    0    0 -.17434487E+01 -.12090040E+03 -.22038436E+03 0.26740319E+03 0.91188000E+02 0.0000E+00 0.9000E+01
      -11  1    4    4    0    0 0.19622486E+02 -.14374470E+02 -.14161781E+03 0.14369159E+03 0.51099893E-03 0.0000E+00 0.9000E+01
       11  1    4    4    0    0 0.68373467E+02 0.34157354E+02 -.69451781E+02 0.10327248E+03 0.51099893E-03 0.0000E+00 0.9000E+01
       23  1    3    3    0    0 -.86252504E+02 0.10111752E+03 -.21950536E+03 0.27232720E+03 0.91188000E+02 0.0000E+00 0.9000E+01
#aMCatNLO 1  0  0  1  1 0.41972767D+02 0.00000000D+00  -5  7  0 0.00000000D+00 0.00000000D+00 0.00000000D+00 0.00000000D+00 0.00000000D+00
  <mgrwgt>
 0.2704356543D-03    4    2    0
 0.220873344607254D+03 0.000000000000000D+00 0.000000000000000D+00 0.220873344607254D+03
 0.220873344607254D+03 0.000000000000000D+00 0.000000000000000D+00 -.220873344607254D+03
 0.151451850491798D+03 -.174344880565211D+01 -.120900404793667D+03 0.156977080473131D+01
 0.472079161063050D+02 0.196224856081645D+02 -.143744703418435D+02 -.404588680519954D+02
 0.815707445765044D+02 0.683734675306482D+02 0.341573544357142D+02 0.284979024939331D+02
 0.161516178039902D+03 -.862525043331606D+02 0.101117520699796D+03 0.103911947533310D+02
 0.000000000000000D+00 0.000000000000000D+00 -.000000000000000D+00 -.000000000000000D+00
 0.225116082818200D+03 0.000000000000000D+00 0.000000000000000D+00 0.225116082818200D+03
 0.357469509791320D+03 0.000000000000000D+00 0.000000000000000D+00 -.357469509791320D+03
 0.143737092945401D+03 -.111446837015752D+02 -.110537018184893D+03 0.156977080473131D+01
 0.451562560085626D+02 0.166808534863500D+02 -.111317824102431D+02 -.404588680519954D+02
 0.799769436942294D+02 0.632284653275096D+02 0.398289122176860D+02 0.284979024939331D+02
 0.174865947206932D+03 -.969656676969778D+02 0.112927102629329D+03 0.103911947533310D+02
 0.138849352754395D+03 0.282010325846934D+02 -.310872142518788D+02 -.132353426973120D+03
0.166084455580D-05 0.000000000000D+00 0.000000000000D+00 0.899371036785D-07 0.000000000000D+00  7 -1 1 23 -11 11 23 21 0 0.10441165D-01 0.11058875D+00 0.42720803D+05 0.42720803D+05 0.42720803D+05 0.11533547D+01  1  2  2  1  7  1       -1 0.278808345394D-03 0.100000000000D+01
-.917749838301D-07 0.000000000000D+00 -.637808040467D-08 0.899371036785D-07 0.000000000000D+00  7 -1 1 23 -11 11 23 21 2 0.10441165D-01 0.11058875D+00 0.42720803D+05 0.42720803D+05 0.42720803D+05 0.11533547D+01  1  2  3  1  7  1       -1 -.204940053616D-04 0.100000000000D+01
0.107694947966D-06 0.000000000000D+00 0.000000000000D+00 0.899371036785D-07 0.000000000000D+00  7 -1 1 23 -11 11 23 21 2 0.10441165D-01 0.11058875D+00 0.42720803D+05 0.42720803D+05 0.42720803D+05 0.11533547D+01  1  2 15  1  7  1       -1 0.240490463624D-04 0.100000000000D+01
-.534140303591D-07 0.000000000000D+00 0.000000000000D+00 0.899371036785D-07 0.000000000000D+00  7 -1 1 23 -11 11 23 21 2 0.10441165D-01 0.11058875D+00 0.42720803D+05 0.42720803D+05 0.42720803D+05 0.11533547D+01  1  2  4  1  7  1       -1 -.119277321431D-04 0.100000000000D+01
  </mgrwgt>
  </event>
  <event>
  7     66 0.27414828E-05 0.16903269E+03 0.75467711E-02 0.97850171E-01
       -1 -1    0    0    0  501 0.00000000E+00 0.00000000E+00 0.10456725E+03 0.10456774E+03 0.32000000E+00 0.0000E+00 0.9000E+01
        1 -1    0    0  501    0 0.00000000E+00 0.00000000E+00 -.66480266E+03 0.66480273E+03 0.32000000E+00 0.0000E+00 0.9000E+01
       23  2    1    2    0    0 0.70021061E+02 0.29343938E+02 -.44086465E+03 0.45596211E+03 0.88180412E+02 0.0000E+00 0.0000E+00
       23  1    1    2    0    0 -.10824179E+03 -.40674065E+02 -.14907851E+03 0.20954789E+03 0.91188000E+02 0.0000E+00 0.9000E+01
      -13  1    3    3    0    0 0.23656881E+02 0.37370516E+02 -.74893719E+02 0.86978640E+02 0.10565837E+00 0.0000E+00 0.9000E+01
       13  1    3    3    0    0 0.46364180E+02 -.80265782E+01 -.36597093E+03 0.36898347E+03 0.10565837E+00 0.0000E+00 0.9000E+01
       23  1    1    2    0    0 0.38220734E+02 0.11330127E+02 0.29707762E+02 0.10386048E+03 0.91188000E+02 0.0000E+00 0.9000E+01
#aMCatNLO 1  0  0  2  1 0.28741708D+03 0.00000000D+00  -5  7  0 0.00000000D+00 0.00000000D+00 0.00000000D+00 0.00000000D+00 0.00000000D+00
  <mgrwgt>
 0.5694935233D-03    5    2    0
 0.263660399301585D+03 0.000000000000000D+00 0.000000000000000D+00 0.263660399301585D+03
 0.263660399301585D+03 0.000000000000000D+00 0.000000000000000D+00 -.263660399301585D+03
 0.147350347505407D+03 -.108241794927533D+03 -.406740651026789D+02 0.511935785555201D+01
 0.473347664449668D+02 0.236568480773659D+02 0.373705788380743D+02 -.168633772047968D+02
 0.149539313039252D+03 0.463642138707088D+02 -.802664026595677D+01 -.141943435432723D+03
 0.183096371613544D+03 0.382207329794586D+02 0.113301265305614D+02 0.153687454781968D+03
 0.000000000000000D+00 -.000000000000000D+00 0.000000000000000D+00 -.000000000000000D+00
 0.361671086985961D+03 0.000000000000000D+00 0.000000000000000D+00 0.361671086985961D+03
 0.636692387742707D+03 0.000000000000000D+00 0.000000000000000D+00 -.636692387742707D+03
 0.138399501129904D+03 -.537737530537266D+02 -.890019450723973D+02 0.511935785555201D+01
 0.500357374193324D+02 0.422170702684999D+02 0.209026435239580D+02 -.168633772047968D+02
 0.192116014912864D+03 0.111488646300610D+03 -.658096198865598D+02 -.141943435432723D+03
 0.220011651129214D+03 0.115058935229714D+03 -.568461340378408D+02 0.153687454781968D+03
 0.397800570137353D+03 -.214990898745098D+03 0.190755055472840D+03 -.275021300756745D+03
0.569744241690D-05 0.000000000000D+00 0.000000000000D+00 0.648728040340D-09 0.000000000000D+00  7 -1 1 23 -13 13 23 21 0 0.16087313D-01 0.10227738D+00 0.28572051D+05 0.28572051D+05 0.28572051D+05 0.11693061D+01  1  2  2  2  7  2        1 0.551376629813D-03 0.100000000000D+01
-.240462392573D-06 0.000000000000D+00 -.218796790519D-07 0.648728040340D-09 0.000000000000D+00  7 -1 1 23 -13 13 23 21 2 0.16087313D-01 0.10227738D+00 0.28572051D+05 0.28572051D+05 0.28572051D+05 0.11693061D+01  1  2  3  2  7  2        1 -.318179377121D-04 0.100000000000D+01
0.353404097927D-06 0.000000000000D+00 0.000000000000D+00 0.648728040340D-09 0.000000000000D+00  7 -1 1 23 -13 13 23 21 2 0.16087313D-01 0.10227738D+00 0.28572051D+05 0.28572051D+05 0.28572051D+05 0.11693061D+01  1  2 15  2  7  2        1 0.467623625245D-04 0.100000000000D+01
0.106753070459D-06 0.000000000000D+00 -.171518905294D-05 0.648728040340D-09 0.000000000000D+00  7 -1 1 23 -13 13 23 21 2 0.16087313D-01 0.28902999D+00 0.28572051D+05 0.28572051D+05 0.28572051D+05 0.11693061D+01  1  2  5  2  7  2        1 0.194771489613D-05 0.100000000000D+01
0.107000171232D-06 0.000000000000D+00 -.200446523150D-06 0.648728040340D-09 0.000000000000D+00  7 -1 21 23 -13 13 23 -1 2 0.16087313D-01 0.28902999D+00 0.28572051D+05 0.28572051D+05 0.28572051D+05 0.11693061D+01  1  2  5  4  7  2        1 0.122475381142D-05 0.100000000000D+01
  </mgrwgt>
  </event>
  <event>
  8     66 0.27414828E-05 0.21673681E+03 0.75467711E-02 0.10101500E+00
       -1 -1    0    0    0  501 0.00000000E+00 0.00000000E+00 0.11922267E+03 0.11922310E+03 0.32000000E+00 0.0000E+00 0.9000E+01
        1 -1    0    0  501    0 0.00000000E+00 0.00000000E+00 -.60329065E+03 0.60329074E+03 0.32000000E+00 0.0000E+00 0.9000E+01
       25  2    1    2    0    0 0.62188395E+02 -.84924563E+02 -.13268742E+03 0.34471489E+03 0.30023795E+03 0.0000E+00 0.0000E+00
       23  2    1    2    0    0 -.62188395E+02 0.84924563E+02 -.35138057E+03 0.37779895E+03 0.90466360E+02 0.0000E+00 0.0000E+00
       23  1    3    3    0    0 0.13742830E+03 -.45987832E+01 -.27540523E+02 0.16727647E+03 0.91188000E+02 0.0000E+00 0.9000E+01
      -11  1    4    4    0    0 -.77137532E+02 0.66665207E+02 -.33187697E+03 0.34718406E+03 0.51099893E-03 0.0000E+00 0.9000E+01
       11  1    4    4    0    0 0.14949138E+02 0.18259357E+02 -.19503595E+02 0.30614882E+02 0.51099893E-03 0.0000E+00 0.9000E+01
       23  1    3    3    0    0 -.75239901E+02 -.80325780E+02 -.10514689E+03 0.17743842E+03 0.91188000E+02 0.0000E+00 0.9000E+01
#aMCatNLO 1  0  0  2  1 0.15018436D+03 0.00000000D+00  -5  7  0 0.00000000D+00 0.00000000D+00 0.00000000D+00 0.00000000D+00 0.00000000D+00
  <mgrwgt>
 0.1171796874D-03    4    2    0
 0.268190432794198D+03 0.000000000000000D+00 0.000000000000000D+00 0.268190432794198D+03
 0.268190432794198D+03 0.000000000000000D+00 0.000000000000000D+00 -.268190432794198D+03
 0.200469637734569D+03 0.137428295306275D+03 -.459878319295073D+01 0.113864564952336D+03
 0.168153412576144D+03 -.771375322573712D+02 0.666652067927024D+02 -.133720310654485D+03
 0.236373279556811D+02 0.149491376701118D+02 0.182593565701464D+02 0.135737004855692D+01
 0.144120487322002D+03 -.752399007190152D+02 -.803257801698981D+02 0.184983756535918D+02
 0.000000000000000D+00 -.000000000000000D+00 0.000000000000000D+00 0.000000000000000D+00
 0.401094438677404D+03 0.000000000000000D+00 0.000000000000000D+00 0.401094438677404D+03
 0.324502497812049D+03 0.000000000000000D+00 0.000000000000000D+00 -.324502497812049D+03
 0.240595876993886D+03 0.187315439626345D+03 -.389732165501043D+02 0.113864564952336D+03
 0.146244568734214D+03 -.415772425865160D+02 0.421626054890615D+02 -.133720310654485D+03
 0.250922892530049D+02 0.204607484516715D+02 0.144616146852683D+02 0.135737004855692D+01
 0.145076936061286D+03 -.425299446794981D+02 -.102864376421908D+03 0.184983756535918D+02
 0.168587265447061D+03 -.123669000812003D+03 0.852133727976820D+02 0.765919408653549D+02
0.163732594051D-05 0.000000000000D+00 0.000000000000D+00 0.293346563482D-06 0.000000000000D+00  7 -1 1 23 -11 11 23 21 0 0.18341989D-01 0.92813986D-01 0.46974847D+05 0.46974847D+05 0.46974847D+05 0.11496872D+01  1  2  2  2  7  2        1 0.148290354556D-03 0.100000000000D+01
-.859442309726D-07 0.000000000000D+00 -.628776272939D-08 0.293346563482D-06 0.000000000000D+00  7 -1 1 23 -11 11 23 21 2 0.18341989D-01 0.92813986D-01 0.46974847D+05 0.46974847D+05 0.46974847D+05 0.11496872D+01  1  2  3  2  7  2        1 -.102885423627D-04 0.100000000000D+01
0.101499285864D-06 0.000000000000D+00 0.000000000000D+00 0.293346563482D-06 0.000000000000D+00  7 -1 1 23 -11 11 23 21 2 0.18341989D-01 0.92813986D-01 0.46974847D+05 0.46974847D+05 0.46974847D+05 0.11496872D+01  1  2 15  2  7  2        1 0.121506666658D-04 0.100000000000D+01
-.275434663964D-06 0.000000000000D+00 0.000000000000D+00 0.293346563482D-06 0.000000000000D+00  7 -1 1 23 -11 11 23 21 2 0.18341989D-01 0.92813986D-01 0.46974847D+05 0.46974847D+05 0.46974847D+05 0.11496872D+01  1  2  4  2  7  2        1 -.329727914983D-04 0.100000000000D+01
  </mgrwgt>
  </event>
  <event>
  9     66 -.27414828E-05 0.29891890E+03 0.75467711E-02 0.10066067E+00
       -3 -1    0    0    0  501 0.00000000E+00 0.00000000E+00 0.40900346E+03 0.40900377E+03 0.50000000E+00 0.0000E+00 0.9000E+01
        3 -1    0    0  502    0 0.00000000E+00 0.00000000E+00 -.25799349E+03 0.25799398E+03 0.50000000E+00 0.0000E+00 0.9000E+01
       25  2    1    2    0    0 0.71626750E+01 0.23121465E+03 0.13746803E+03 0.40287607E+03 0.29983354E+03 0.0000E+00 0.0000E+00
       23  2    1    2    0    0 -.15985905E+02 -.23043149E+03 0.23451404E+02 0.25080917E+03 0.94873869E+02 0.0000E+00 0.0000E+00
       23  1    3    3    0    0 0.37110591E+02 -.15773040E+02 -.89962209E+01 0.10011078E+03 0.91188000E+02 0.0000E+00 0.9000E+01
      -13  1    4    4    0    0 -.23630667E+02 -.11040879E+03 0.56258393E+02 0.12614883E+03 0.10565837E+00 0.0000E+00 0.9000E+01
       13  1    4    4    0    0 0.76447623E+01 -.12002270E+03 -.32806989E+02 0.12466034E+03 0.10565837E+00 0.0000E+00 0.9000E+01
       23  1    3    3    0    0 -.29947916E+02 0.24698769E+03 0.14646425E+03 0.30276530E+03 0.91188000E+02 0.0000E+00 0.9000E+01
       21  1    1    2  502  501 0.88232296E+01 -.78316248E+00 -.99094669E+01 0.13312504E+02 0.75000000E+00 0.0000E+00 0.9000E+01
#aMCatNLO 2  0  0  2  1 0.88579187D+01 0.00000000D+00  -5  7  0 0.00000000D+00 0.00000000D+00 0.00000000D+00 0.00000000D+00 0.00000000D+00
  <mgrwgt>
 -.1428563944D-04    3    2    0
 0.316753400502459D+03 0.000000000000000D+00 0.000000000000000D+00 0.316753400502459D+03
 0.316753400502459D+03 0.000000000000000D+00 0.000000000000000D+00 -.316753400502459D+03
 0.106121028739240D+03 0.385847229551543D+02 -.159038851916914D+02 -.347088891634137D+02
 0.115683855895804D+03 -.220183213150913D+02 -.110551893418359D+03 0.260043631531765D+02
 0.137219318027212D+03 0.955397342552699D+01 -.120192173447534D+03 -.655111003845549D+02
 0.274482598342662D+03 -.261203750655900D+02 0.246647952057585D+03 0.742156263947921D+02
 0.000000000000000D+00 0.000000000000000D+00 -.000000000000000D+00 -.000000000000000D+00
 0.318099111906298D+03 0.000000000000000D+00 0.000000000000000D+00 0.318099111906298D+03
 0.331704074952906D+03 0.000000000000000D+00 0.000000000000000D+00 -.331704074952906D+03
 0.105574348376550D+03 0.371105906934405D+02 -.157730391034504D+02 -.347088891634137D+02
 0.115865158206613D+03 -.236307035810947D+02 -.110408776061976D+03 0.260043631531765D+02
 0.136951081450677D+03 0.764479885315895D+01 -.120022712381488D+03 -.655111003845549D+02
 0.275178137238334D+03 -.299479155360374D+02 0.246987690024896D+03 0.742156263947921D+02
 0.162344615870315D+02 0.882322957053274D+01 -.783162477982071D+00 -.136049630466077D+02
-.175512111164D-04 0.000000000000D+00 0.000000000000D+00 0.807649973641D-07 0.000000000000D+00  7 -3 3 23 -13 13 23 21 2 0.62655774D-01 0.39768613D-01 0.92027323D+05 0.92027323D+05 0.92027323D+05 0.11246952D+01  1  2 13  2  7  2        3 -.144968058705D-03 0.100000000000D+01
-.191943433859D-04 0.000000000000D+00 0.000000000000D+00 0.807649973641D-07 0.000000000000D+00  7 -3 3 23 -13 13 23 21 2 0.62655774D-01 0.37901357D-01 0.89352508D+05 0.89352508D+05 0.89352508D+05 0.11257565D+01  1  2  8  2  7  2        3 -.174236288320D-03 0.100000000000D+01
0.371197419455D-04 0.000000000000D+00 0.000000000000D+00 0.807649973641D-07 0.695314906081D-08  7 -3 3 23 -13 13 23 21 2 0.62921964D-01 0.39690291D-01 0.92027323D+05 0.92027323D+05 0.92027323D+05 0.11246952D+01  1  2  1  2  7  2        3 0.304918707588D-03 0.100000000000D+01
  </mgrwgt>
  </event>
  <event>
  8     66 0.27414828E-05 0.47054384E+03 0.75467711E-02 0.88548543E-01
       -1 -1    0    0    0  501 0.00000000E+00 0.00000000E+00 0.43280114E+03 0.43280126E+03 0.32000000E+00 0.0000E+00 0.9000E+01
        1 -1    0    0  501    0 0.00000000E+00 0.00000000E+00 -.13117688E+04 0.13117689E+04 0.32000000E+00 0.0000E+00 0.9000E+01
       25  2    1    2    0    0 0.41105631E+03 -.81045311E+02 0.22387327E+03 0.56191502E+03 0.30015598E+03 0.0000E+00 0.0000E+00
       23  2    1    2    0    0 -.41105631E+03 0.81045311E+02 -.11028410E+04 0.11826551E+04 0.82941569E+02 0.0000E+00 0.0000E+00
       23  1    3    3    0    0 0.33740324E+03 0.33981422E+02 0.15119704E+03 0.38232379E+03 0.91188000E+02 0.0000E+00 0.9000E+01
      -11  1    4    4    0    0 -.36736297E+03 0.95687892E+02 -.10105006E+04 0.10794550E+04 0.51099893E-03 0.0000E+00 0.9000E+01
       11  1    4    4    0    0 -.43693340E+02 -.14642581E+02 -.92340389E+02 0.10320010E+03 0.51099893E-03 0.0000E+00 0.9000E+01
       23  1    3    3    0    0 0.73653069E+02 -.11502673E+03 0.72676231E+02 0.17959123E+03 0.91188000E+02 0.0000E+00 0.9000E+01
#aMCatNLO 1  0  0  1  1 0.64246745D+03 0.00000000D+00  -5  7  0 0.00000000D+00 0.00000000D+00 0.00000000D+00 0.00000000D+00 0.00000000D+00
  <mgrwgt>
 0.4080699094D-03    3    2    0
 0.753482044213060D+03 0.000000000000000D+00 0.000000000000000D+00 0.753482044213060D+03
 0.753482044213060D+03 0.000000000000000D+00 0.000000000000000D+00 -.753482044213060D+03
 0.530794321244247D+03 0.337403237467344D+03 0.339814223942379D+02 0.398034770340181D+03
 0.660259684445108D+03 -.367362966595632D+03 0.956878915314999D+02 -.540213966028153D+03
 0.656124413382098D+02 -.436933398104571D+02 -.146425808051194D+02 -.467063094445867D+02
 0.250297641398555D+03 0.736530689387452D+02 -.115026733120618D+03 0.188885505132559D+03
 0.000000000000000D+00 0.000000000000000D+00 -.000000000000000D+00 -.000000000000000D+00
 0.868183264550456D+03 0.000000000000000D+00 0.000000000000000D+00 0.868183264550456D+03
 0.292150827438660D+04 0.000000000000000D+00 0.000000000000000D+00 -.292150827438660D+04
 0.563420875901686D+03 0.294185658425508D+03 0.253280382254159D+03 0.398034770340181D+03
 0.788067697969092D+03 -.424566707954009D+03 0.385956834357851D+03 -.540213966028153D+03
 0.688034118825891D+02 -.490022843180803D+02 0.122965961290808D+02 -.467063094445867D+02
 0.217909831004667D+03 0.551605516538971D+02 -.211901532920020D+02 0.188885505132559D+03
 0.215148972217902D+04 0.124222782192685D+03 -.630343659449089D+03 -.205332500983614D+04
0.154298330984D-03 0.000000000000D+00 0.000000000000D+00 0.117784400255D-06 0.000000000000D+00  7 -1 1 23 -11 11 23 21 0 0.66584803D-01 0.20181060D+00 0.22141151D+06 0.22141151D+06 0.22141151D+06 0.10944490D+01  1  2  2  1  7  1       -1 0.398710365795D-03 0.100000000000D+01
-.626180629463D-05 0.000000000000D+00 -.592546218663D-06 0.117784400255D-06 0.000000000000D+00  7 -1 1 23 -11 11 23 21 2 0.66584803D-01 0.20181060D+00 0.22141151D+06 0.22141151D+06 0.22141151D+06 0.10944490D+01  1  2  3  1  7  1       -1 -.193814830188D-04 0.100000000000D+01
0.928570539056D-05 0.000000000000D+00 0.000000000000D+00 0.117784400255D-06 0.000000000000D+00  7 -1 1 23 -11 11 23 21 2 0.66584803D-01 0.20181060D+00 0.22141151D+06 0.22141151D+06 0.22141151D+06 0.10944490D+01  1  2 15  1  7  1       -1 0.287410266107D-04 0.100000000000D+01
  </mgrwgt>
  </event>
  <event>
  8     66 0.27414828E-05 0.17313313E+03 0.75467711E-02 0.10080773E+00
       -1 -1    0    0    0  501 0.00000000E+00 0.00000000E+00 0.38117225E+03 0.38117238E+03 0.32000000E+00 0.0000E+00 0.9000E+01
        1 -1    0    0  501    0 0.00000000E+00 0.00000000E+00 -.12749157E+03 0.12749197E+03 0.32000000E+00 0.0000E+00 0.9000E+01
       25  2    1    2    0    0 -.71535804E+02 -.53138162E+02 0.18107949E+03 0.36196498E+03 0.30047934E+03 0.0000E+00 0.0000E+00
       23  2    1    2    0    0 0.71535804E+02 0.53138162E+02 0.72601189E+02 0.14669937E+03 0.91152275E+02 0.0000E+00 0.0000E+00
       23  1    3    3    0    0 -.11656109E+03 -.36798209E+02 0.20569775E+03 0.25606134E+03 0.91188000E+02 0.0000E+00 0.9000E+01
      -11  1    4    4    0    0 -.70871739E+00 0.23505337E+01 -.19177395E+02 0.19333902E+02 0.51099893E-03 0.0000E+00 0.9000E+01
       11  1    4    4    0    0 0.72244521E+02 0.50787628E+02 0.91778584E+02 0.12736547E+03 0.51099893E-03 0.0000E+00 0.9000E+01
       23  1    3    3    0    0 0.45025286E+02 -.16339953E+02 -.24618263E+02 0.10590364E+03 0.91188000E+02 0.0000E+00 0.9000E+01
#aMCatNLO 1  0  0  2  1 0.19806279D+03 0.00000000D+00  -5  7  0 0.00000000D+00 0.00000000D+00 0.00000000D+00 0.00000000D+00 0.00000000D+00
  <mgrwgt>
 0.2614193032D-03    3    2    0
 0.220445877119604D+03 0.000000000000000D+00 0.000000000000000D+00 0.220445877119604D+03
 0.220445877119604D+03 0.000000000000000D+00 0.000000000000000D+00 -.220445877119604D+03
 0.177067801061092D+03 -.116561089641475D+03 -.367982087402033D+02 0.899842155253635D+02
 0.333401600420959D+02 -.708717350948422D+00 0.235053377183566D+01 -.332496463490439D+02
 0.941360774260761D+02 0.722445214105157D+02 0.507876278426526D+02 0.326028688530620D+02
 0.136347715709944D+03 0.450252855819072D+02 -.163399528742849D+02 -.893374380293815D+02
 0.000000000000000D+00 0.000000000000000D+00 0.000000000000000D+00 0.000000000000000D+00
 0.381937793718990D+03 0.000000000000000D+00 0.000000000000000D+00 0.381937793718990D+03
 0.311585375575299D+03 0.000000000000000D+00 0.000000000000000D+00 -.311585375575299D+03
 0.248992311030592D+03 -.202635019712117D+03 -.672592696281332D+02 0.899842155253635D+02
 0.364977012068159D+02 -.148175696345167D+02 -.264250660770617D+01 -.332496463490439D+02
 0.649917863384854D+02 0.400970374540400D+02 0.394108211209395D+02 0.326028688530620D+02
 0.132854946501887D+03 -.935983629278684D+01 -.355865297119279D+02 -.893374380293815D+02
 0.210186424216508D+03 0.186715388185381D+03 0.660774848268278D+02 0.703524181436914D+02
0.260960393272D-05 0.000000000000D+00 0.000000000000D+00 0.105720698474D-06 0.000000000000D+00  7 -1 1 23 -11 11 23 21 0 0.58641925D-01 0.19614129D-01 0.29975080D+05 0.29975080D+05 0.29975080D+05 0.11673694D+01  1  2  2  2  7  2        1 0.256943958213D-03 0.100000000000D+01
-.134689627953D-06 0.000000000000D+00 -.100215662261D-07 0.105720698474D-06 0.000000000000D+00  7 -1 1 23 -11 11 23 21 2 0.58641925D-01 0.19614129D-01 0.29975080D+05 0.29975080D+05 0.29975080D+05 0.11673694D+01  1  2  3  2  7  2        1 -.180723479310D-04 0.100000000000D+01
0.168043487534D-06 0.000000000000D+00 0.000000000000D+00 0.105720698474D-06 0.000000000000D+00  7 -1 1 23 -11 11 23 21 2 0.58641925D-01 0.19614129D-01 0.29975080D+05 0.29975080D+05 0.29975080D+05 0.11673694D+01  1  2 15  2  7  2        1 0.225476929472D-04 0.100000000000D+01
  </mgrwgt>
  </event>
  <event>
  8     66 0.27414828E-05 0.70958076E+03 0.75467711E-02 0.85708725E-01
       -1 -1    0    0    0  501 0.00000000E+00 0.00000000E+00 0.90340387E+03 0.90340393E+03 0.32000000E+00 0.0000E+00 0.9000E+01
        1 -1    0    0  501    0 0.00000000E+00 0.00000000E+00 -.56332257E+03 0.56332266E+03 0.32000000E+00 0.0000E+00 0.9000E+01
       25  2    1    2    0    0 -.59813454E+03 0.32201576E+03 0.16106594E+03 0.75976476E+03 0.29973519E+03 0.0000E+00 0.0000E+00
       23  2    1    2    0    0 0.59813454E+03 -.32201576E+03 0.17901536E+03 0.70696183E+03 0.79306064E+02 0.0000E+00 0.0000E+00
       23  1    3    3    0    0 -.47965270E+03 0.33124504E+03 0.10205493E+03 0.59876577E+03 0.91188000E+02 0.0000E+00 0.9000E+01
      -13  1    4    4    0    0 0.18452829E+02 -.82694388E+01 0.20982136E+02 0.29140208E+02 0.10565837E+00 0.0000E+00 0.9000E+01
       13  1    4    4    0    0 0.57968171E+03 -.31374633E+03 0.15803323E+03 0.67782162E+03 0.10565837E+00 0.0000E+00 0.9000E+01
       23  1    3    3    0    0 -.11848183E+03 -.92292744E+01 0.59011011E+02 0.16099899E+03 0.91188000E+02 0.0000E+00 0.9000E+01
#aMCatNLO 1  0  0  1  2 0.77073402D+03 0.00000000D+00  -5  7  0 0.00000000D+00 0.00000000D+00 0.00000000D+00 0.00000000D+00 0.00000000D+00
  <mgrwgt>
 0.2636960427D-02    3    2    0
 0.713377810611627D+03 0.000000000000000D+00 0.000000000000000D+00 0.713377810611627D+03
 0.713377810611627D+03 0.000000000000000D+00 0.000000000000000D+00 -.713377810611627D+03
 0.591214568504881D+03 -.479652703025208D+03 0.331245039132949D+03 -.378077134832959D+02
 0.249541543165380D+02 0.184518332342152D+02 -.826889663002004D+01 0.146241244685740D+02
 0.659143332810635D+03 0.579682701812767D+03 -.313746868130811D+03 0.895067522604801D+00
 0.151443565591201D+03 -.118481832021774D+03 -.922927437211794D+01 0.222885214921171D+02
 0.000000000000000D+00 -.000000000000000D+00 0.000000000000000D+00 -.000000000000000D+00
 0.891075896137698D+03 0.000000000000000D+00 0.000000000000000D+00 0.891075896137698D+03
 0.266104829413971D+04 0.000000000000000D+00 0.000000000000000D+00 -.266104829413971D+04
 0.492655200904148D+03 -.479261860016495D+03 0.572061357600847D+02 -.378077134832959D+02
 0.328434925628899D+02 0.184726750427429D+02 -.228820948346405D+02 0.146241244685740D+02
 0.919102471790731D+03 0.580251816623578D+03 -.712780738945013D+03 0.895067522604801D+00
 0.177022257663347D+03 -.118363387376260D+03 -.922765338682654D+02 0.222885214921171D+02
 0.193050076735629D+04 -.109924427356585D+01 0.770733231887834D+03 -.176997239800201D+04
0.132181592962D-02 0.000000000000D+00 0.000000000000D+00 0.390834452946D-07 0.000000000000D+00  7 -1 1 23 -13 13 23 21 0 0.13898522D+00 0.86665022D-01 0.50350486D+06 0.50350486D+06 0.50350486D+06 0.10682961D+01  1  2  2  1  7  1       -1 0.261115176474D-02 0.100000000000D+01
-.734316752913D-04 0.000000000000D+00 -.507612121188D-05 0.390834452946D-07 0.000000000000D+00  7 -1 1 23 -13 13 23 21 2 0.13898522D+00 0.86665022D-01 0.50350486D+06 0.50350486D+06 0.50350486D+06 0.10682961D+01  1  2  3  1  7  1       -1 -.165549480561D-03 0.100000000000D+01
0.848794509233D-04 0.000000000000D+00 0.000000000000D+00 0.390834452946D-07 0.000000000000D+00  7 -1 1 23 -13 13 23 21 2 0.13898522D+00 0.86665022D-01 0.50350486D+06 0.50350486D+06 0.50350486D+06 0.10682961D+01  1  2 15  1  7  1       -1 0.191358142858D-03 0.100000000000D+01
  </mgrwgt>
  </event>
  <event>
  8     66 0.27414828E-05 0.46205603E+03 0.75467711E-02 0.91841183E-01
       -1 -1    0    0    0  501 0.00000000E+00 0.00000000E+00 0.33777611E+03 0.33777626E+03 0.32000000E+00 0.0000E+00 0.9000E+01
        1 -1    0    0  501    0 0.00000000E+00 0.00000000E+00 -.13618915E+04 0.13618915E+04 0.32000000E+00 0.0000E+00 0.9000E+01
       25  2    1    2    0    0 0.29643222E+03 -.53092270E+03 -.28021734E+03 0.73478341E+03 0.30271096E+03 0.0000E+00 0.0000E+00
       23  2    1    2    0    0 -.29643222E+03 0.53092270E+03 -.74389805E+03 0.96488438E+03 0.88693778E+02 0.0000E+00 0.0000E+00
       23  1    3    3    0    0 0.39984925E+02 -.98868790E+02 -.15487625E+03 0.20898740E+03 0.91188000E+02 0.0000E+00 0.9000E+01
      -13  1    4    4    0    0 0.23795251E+01 0.36330587E+02 -.37875083E+02 0.52536718E+02 0.10565837E+00 0.0000E+00 0.9000E+01
       13  1    4    4    0    0 -.29881175E+03 0.49459212E+03 -.70602296E+03 0.91234766E+03 0.10565837E+00 0.0000E+00 0.9000E+01
       23  1    3    3    0    0 0.25644730E+03 -.43205391E+03 -.12534109E+03 0.52579601E+03 0.91188000E+02 0.0000E+00 0.9000E+01
#aMCatNLO 1  0  0  2  1 0.22379916D+02 0.00000000D+00  -5  7  0 0.00000000D+00 0.00000000D+00 0.00000000D+00 0.00000000D+00 0.00000000D+00
  <mgrwgt>
 0.4865726560D-03    9    2    0
 0.678243739250585D+03 0.000000000000000D+00 0.000000000000000D+00 0.678243739250585D+03
 0.678243739250585D+03 0.000000000000000D+00 0.000000000000000D+00 -.678243739250585D+03
 0.144931682108062D+03 0.399849246053289D+02 -.988687895552986D+02 -.362782219912791D+02
 0.372324926191281D+02 0.237995249164420D+01 0.363299368454130D+02 -.779294691238527D+01
 0.610134684699325D+03 -.298812176014073D+03 0.494592765447309D+03 -.195840785604179D+03
 0.564188619074656D+03 0.256447298917100D+03 -.432053912737423D+03 0.239911954507843D+03
 0.000000000000000D+00 0.000000000000000D+00 0.000000000000000D+00 -.000000000000000D+00
 0.681760546956144D+03 0.000000000000000D+00 0.000000000000000D+00 0.681760546956144D+03
 0.714900489778979D+03 0.000000000000000D+00 0.000000000000000D+00 -.714900489778979D+03
 0.146274969831249D+03 0.391950948024279D+02 -.101137285941995D+03 -.362782219912791D+02
 0.366585905041053D+02 0.217954024408494D+01 0.357543261786996D+02 -.779294691238527D+01
 0.604132476184364D+03 -.302105591140283D+03 0.485133638574331D+03 -.195840785604179D+03
 0.569606046175782D+03 0.253372146577615D+03 -.440886159817798D+03 0.239911954507843D+03
 0.399889540396231D+02 0.735880951615591D+01 0.211354810067635D+02 -.331399428228348D+02
0.489226739637D-04 0.000000000000D+00 0.000000000000D+00 0.362333535662D-07 0.000000000000D+00  7 -1 1 23 -13 13 23 21 0 0.51965570D-01 0.20952178D+00 0.40019135D+06 0.40019135D+06 0.40019135D+06 0.10754126D+01  1  2  2  2  7  2        1 0.181031211069D-03 0.100000000000D+01
-.270189176501D-05 0.000000000000D+00 -.187875949656D-06 0.362333535662D-07 0.000000000000D+00  7 -1 1 23 -13 13 23 21 2 0.51965570D-01 0.20952178D+00 0.40019135D+06 0.40019135D+06 0.40019135D+06 0.10754126D+01  1  2  3  2  7  2        1 -.115627596837D-04 0.100000000000D+01
0.310791368109D-05 0.000000000000D+00 0.000000000000D+00 0.362333535662D-07 0.000000000000D+00  7 -1 1 23 -13 13 23 21 2 0.51965570D-01 0.20952178D+00 0.40019135D+06 0.40019135D+06 0.40019135D+06 0.10754126D+01  1  2 15  2  7  2        1 0.133003325586D-04 0.100000000000D+01
0.358957697051D-03 0.000000000000D+00 0.000000000000D+00 0.362333535662D-07 0.000000000000D+00  7 -1 1 23 -13 13 23 21 2 0.51965570D-01 0.22137180D+00 0.41475630D+06 0.41475630D+06 0.41475630D+06 0.10742953D+01  1  2 12  2  7  2        1 0.135530020239D-02 0.100000000000D+01
-.365752140415D-03 0.000000000000D+00 0.000000000000D+00 0.362333535662D-07 0.000000000000D+00  7 -1 1 23 -13 13 23 21 2 0.51965570D-01 0.20952178D+00 0.40019135D+06 0.40019135D+06 0.40019135D+06 0.10754126D+01  1  2  4  2  7  2        1 -.156523816319D-02 0.100000000000D+01
-.104516153892D-02 0.000000000000D+00 -.989352717460D-04 0.362333535662D-07 0.000000000000D+00  7 -1 1 23 -13 13 23 21 2 0.51965570D-01 0.22133001D+00 0.40019135D+06 0.40019135D+06 0.40019135D+06 0.10754126D+01  1  2  5  2  7  2        1 -.396275598633D-02 0.100000000000D+01
0.104915710434D-02 0.000000000000D+00 0.987867573935D-04 0.362333535662D-07 0.000000000000D+00  7 -1 1 23 -13 13 23 21 2 0.51965570D-01 0.20952178D+00 0.40019135D+06 0.40019135D+06 0.40019135D+06 0.10754126D+01  1  2  6  2  7  2        1 0.448987321588D-02 0.100000000000D+01
0.549557150998D-05 0.000000000000D+00 0.000000000000D+00 0.362333535662D-07 0.000000000000D+00  7 -1 21 23 -13 13 23 -1 2 0.51965570D-01 0.22137180D+00 0.41475630D+06 0.41475630D+06 0.41475630D+06 0.10742953D+01  1  2 12  4  7  2        1 0.168090241248D-04 0.100000000000D+01
-.980982301079D-05 0.000000000000D+00 -.938448409457D-06 0.362333535662D-07 0.000000000000D+00  7 -1 21 23 -13 13 23 -1 2 0.51965570D-01 0.22133001D+00 0.40019135D+06 0.40019135D+06 0.40019135D+06 0.10754126D+01  1  2  5  4  7  2        1 -.301844208413D-04 0.100000000000D+01
  </mgrwgt>
  </event>
  <event>
  8     66 0.27414828E-05 0.41107497E+03 0.75467711E-02 0.88410908E-01
       -1 -1    0    0    0  501 0.00000000E+00 0.00000000E+00 0.39143251E+03 0.39143264E+03 0.32000000E+00 0.0000E+00 0.9000E+01
        1 -1    0    0  501    0 0.00000000E+00 0.00000000E+00 -.20979406E+04 0.20979406E+04 0.32000000E+00 0.0000E+00 0.9000E+01
       25  2    1    2    0    0 0.84483725E+03 0.16573066E+03 -.11156938E+04 0.14406008E+04 0.29890034E+03 0.0000E+00 0.0000E+00
       23  2    1    2    0    0 -.84483725E+03 -.16573066E+03 -.59081431E+03 0.10487725E+04 0.98211644E+02 0.0000E+00 0.0000E+00
       23  1    3    3    0    0 0.18249505E+03 0.12140147E+03 -.35267895E+03 0.42513580E+03 0.91188000E+02 0.0000E+00 0.9000E+01
      -13  1    4    4    0    0 -.80593971E+03 -.15053753E+03 -.58364871E+03 0.10064026E+04 0.10565837E+00 0.0000E+00 0.9000E+01
       13  1    4    4    0    0 -.38897533E+02 -.15193130E+02 -.71656083E+01 0.42369876E+02 0.10565837E+00 0.0000E+00 0.9000E+01
       23  1    3    3    0    0 0.66234219E+03 0.44329190E+02 -.76301483E+03 0.10154650E+04 0.91188000E+02 0.0000E+00 0.9000E+01
#aMCatNLO 1  0  0  1  2 0.29640387D+02 0.00000000D+00  -5  7  0 0.00000000D+00 0.00000000D+00 0.00000000D+00 0.00000000D+00 0.00000000D+00
  <mgrwgt>
 0.3918421382D-03    9    2    0
 0.906202156056175D+03 0.000000000000000D+00 0.000000000000000D+00 0.906202156056175D+03
 0.906202156056175D+03 0.000000000000000D+00 0.000000000000000D+00 -.906202156056175D+03
 0.251860043108195D+03 0.182495053168469D+03 0.121401467574113D+03 -.841158083260886D+02
 0.832767895467367D+03 -.805940601068152D+03 -.150537684038608D+03 0.145946979945955D+03
 0.514480281950747D+02 -.388966450776347D+02 -.151929735747959D+02 0.300520242383315D+02
 0.676328345341713D+03 0.662342192977319D+03 0.443291900392907D+02 -.918831958581979D+02
 0.000000000000000D+00 0.000000000000000D+00 -.000000000000000D+00 0.000000000000000D+00
 0.926803626291827D+03 0.000000000000000D+00 0.000000000000000D+00 0.926803626291827D+03
 0.917047699544057D+03 0.000000000000000D+00 0.000000000000000D+00 -.917047699544057D+03
 0.249022235083771D+03 0.178405698925895D+03 0.121625489115269D+03 -.841158083260886D+02
 0.845905352599334D+03 -.819645796615609D+03 -.149786890919139D+03 0.145946979945955D+03
 0.520764871066584D+02 -.397418504967357D+02 -.151466718338976D+02 0.300520242383315D+02
 0.665642593241661D+03 0.651385936806875D+03 0.449293917452367D+02 -.918831958581979D+02
 0.312046578044600D+02 0.295960113795756D+02 -.162131810746963D+01 0.975592674777070D+01
0.226660279860D-03 0.000000000000D+00 0.000000000000D+00 0.558419462386D-07 0.000000000000D+00  7 -1 1 23 -13 13 23 21 0 0.60220398D-01 0.32276010D+00 0.78242337D+06 0.78242337D+06 0.78242337D+06 0.10550317D+01  1  2  2  1  7  1       -1 0.195554276337D-03 0.100000000000D+01
-.125832812248D-04 0.000000000000D+00 -.870435155684D-06 0.558419462386D-07 0.000000000000D+00  7 -1 1 23 -13 13 23 21 2 0.60220398D-01 0.32276010D+00 0.78242337D+06 0.78242337D+06 0.78242337D+06 0.10550317D+01  1  2  3  1  7  1       -1 -.120841696709D-04 0.100000000000D+01
0.141809424143D-04 0.000000000000D+00 0.000000000000D+00 0.558419462386D-07 0.000000000000D+00  7 -1 1 23 -13 13 23 21 2 0.60220398D-01 0.32276010D+00 0.78242337D+06 0.78242337D+06 0.78242337D+06 0.10550317D+01  1  2 15  1  7  1       -1 0.136184601747D-04 0.100000000000D+01
0.303023411375D-03 0.000000000000D+00 0.000000000000D+00 0.558419462386D-07 0.000000000000D+00  7 -1 1 23 -13 13 23 21 2 0.61943511D-01 0.32276010D+00 0.80914227D+06 0.80914227D+06 0.80914227D+06 0.10540419D+01  1  2 12  1  7  1       -1 0.274565524086D-03 0.100000000000D+01
-.278552689712D-03 0.000000000000D+00 0.000000000000D+00 0.558419462386D-07 0.000000000000D+00  7 -1 1 23 -13 13 23 21 2 0.60220398D-01 0.32276010D+00 0.78242337D+06 0.78242337D+06 0.78242337D+06 0.10550317D+01  1  2  4  1  7  1       -1 -.267503992371D-03 0.100000000000D+01
-.629403681973D-02 0.000000000000D+00 -.845402169663D-03 0.558419462386D-07 0.000000000000D+00  7 -1 1 23 -13 13 23 21 2 0.62324772D-01 0.32276010D+00 0.78242337D+06 0.78242337D+06 0.78242337D+06 0.10550317D+01  1  2  5  1  7  1       -1 -.565856393811D-02 0.100000000000D+01
0.631984464689D-02 0.000000000000D+00 0.844903722758D-03 0.558419462386D-07 0.000000000000D+00  7 -1 1 23 -13 13 23 21 2 0.60220398D-01 0.32276010D+00 0.78242337D+06 0.78242337D+06 0.78242337D+06 0.10550317D+01  1  2  6  1  7  1       -1 0.606917016653D-02 0.100000000000D+01
0.743797943557D-05 0.000000000000D+00 0.000000000000D+00 0.558419462386D-07 0.000000000000D+00  7 21 1 23 -13 13 23 1 2 0.61943511D-01 0.32276010D+00 0.80914227D+06 0.80914227D+06 0.80914227D+06 0.10540419D+01  1  2 12  3  7  1       -1 0.545772630263D-04 0.100000000000D+01
-.381674583554D-04 0.000000000000D+00 -.517468260614D-05 0.558419462386D-07 0.000000000000D+00  7 21 1 23 -13 13 23 1 2 0.62324772D-01 0.32276010D+00 0.78242337D+06 0.78242337D+06 0.78242337D+06 0.10550317D+01  1  2  5  3  7  1       -1 -.277491451774D-03 0.100000000000D+01
  </mgrwgt>
  </event>
</LesHouchesEvents>
